G2DPncore-PETIM in water
121586
    1aaa     O1    1   8.671   1.217   7.660 -0.5814 -0.4200  0.0621
    1aaa     C1    2   8.813   1.195   7.646 -0.2845 -0.0267 -0.4906
    1aaa     H1    3   8.834   1.087   7.645 -0.4520 -0.0567 -1.5943
    1aaa     H2    4   8.866   1.233   7.734 -1.2757  0.9522 -0.2861
    1aaa     C2    5   8.624   1.215   7.801  0.0536 -0.0804 -0.0588
    1aaa     H3    6   8.674   1.288   7.865 -0.1721 -0.2098  0.2688
    1aaa     H4    7   8.648   1.113   7.834  2.6528 -0.0455 -1.5713
    1aaa     C3    8   8.862   1.254   7.515 -0.3419 -0.1685 -0.0799
    1aaa     H5    9   8.850   1.363   7.514 -2.0922 -0.3185 -1.1217
    1aaa     H6   10   8.794   1.218   7.437 -0.2493  1.2661 -0.8487
    1aaa     C4   11   8.466   1.229   7.816 -0.3795 -0.4315  0.2767
    1aaa     H7   12   8.447   1.337   7.821 -1.1577 -0.5387 -0.1956
    1aaa     H8   13   8.425   1.185   7.908 -0.2709  0.0409  0.5512
    1aaa     C5   14   9.020   1.238   7.485 -0.3447  0.4656  0.1324
    1aaa     H9   15   9.084   1.307   7.540  2.7783  0.0245 -2.6625
    1aaa    H10   16   9.033   1.134   7.519 -2.1555  0.7177  1.8085
    1aaa     C6   17   8.394   1.162   7.701  0.1939  0.7317  0.4217
    1aaa    H11   18   8.417   1.056   7.692  3.1289  1.4247 -2.3249
    1aaa    H12   19   8.446   1.207   7.617  0.7905 -0.1577  0.3046
    1aaa     N1   20   9.062   1.255   7.338 -0.2874  0.1243  0.2085
    1aaa     N2   21   8.247   1.172   7.687 -0.2694 -0.4895 -0.0720
    1aaa     C7   22   8.178   1.091   7.794  0.3262 -0.7817 -0.7841
    1aaa    H13   23   8.168   0.986   7.769  0.1504 -1.3136  1.3727
    1aaa    H14   24   8.240   1.093   7.884  1.0972  2.1364 -1.2535
    1aaa     C8   25   8.208   1.129   7.553 -0.6161  0.0775  0.3318
    1aaa    H15   26   8.102   1.155   7.545 -0.1135  1.8839 -1.3734
    1aaa    H16   27   8.273   1.175   7.478 -0.6162  0.2587  0.4426
    1aaa     C9   28   9.034   1.394   7.288  0.1349 -0.4034 -0.1174
    1aaa    H17   29   9.076   1.403   7.188 -0.4560 -1.3448 -0.4666
    1aaa    H18   30   8.925   1.395   7.295  0.2039 -1.0056  1.8692
    1aaa    C10   31   9.206   1.209   7.322  0.1681 -0.4714 -0.1704
    1aaa    H19   32   9.259   1.274   7.253 -2.7818  0.2198 -1.9596
    1aaa    H20   33   9.250   1.224   7.421  0.3302  2.0901 -0.5711
    1aaa    C11   34   8.037   1.137   7.836  0.1385 -0.2023 -0.0493
    1aaa    H21   35   8.047   1.191   7.931  1.6566  1.9005 -1.3196
    1aaa    H22   36   7.989   1.194   7.755  1.6205  0.1891 -0.6870
    1aaa    C12   37   8.222   0.983   7.522  0.0387 -0.1028 -0.3745
    1aaa    H23   38   8.315   0.935   7.555  0.0759 -0.0952 -0.4679
    1aaa    H24   39   8.143   0.934   7.580 -1.5791  1.4056 -1.2096
    1aaa    C13   40   9.070   1.509   7.383  0.6730 -0.6596 -0.5577
    1aaa    H25   41   9.010   1.499   7.474  1.7629  0.4364  0.3109
    1aaa    H26   42   9.176   1.500   7.408  0.2931  2.0964  2.8125
    1aaa    C14   43   9.218   1.061   7.290  0.0805  0.0111  0.1062
    1aaa    H27   44   9.147   1.001   7.348 -2.5724  0.2824 -2.6040
    1aaa    H28   45   9.178   1.048   7.189 -0.2956 -0.8695  0.3634
    1aaa    C15   46   9.368   1.017   7.281 -0.5620  0.3919  0.2562
    1aaa    H29   47   9.434   1.103   7.259 -1.0862  0.5028 -0.9580
    1aaa    H30   48   9.405   0.989   7.380  0.1705 -1.2102 -0.4531
    1aaa    C16   49   9.063   1.647   7.313 -0.3354 -0.7322 -0.2565
    1aaa    H31   50   9.114   1.655   7.217 -1.6972  0.8031 -0.8984
    1aaa    H32   51   8.960   1.681   7.293  0.0919  0.5837 -0.2759
    1aaa    C17   52   8.205   0.957   7.369  0.3911  0.5281  0.0257
    1aaa    H33   53   8.147   1.037   7.322  1.7581  1.0462 -0.8580
    1aaa    H34   54   8.301   0.953   7.316  1.1438  1.4565  1.2506
    1aaa    C18   55   7.956   1.016   7.868  0.8564 -0.3123  0.6871
    1aaa    H35   56   7.951   0.936   7.794 -5.1791  0.1875  0.0646
    1aaa    H36   57   7.997   0.967   7.957  0.0533 -1.2649  0.5467
    1aaa    H38   58   9.007   1.183   7.287 -0.9352  0.7772 -0.0276
    1aaa    H37   59   8.225   1.272   7.695  0.3414  0.0207 -3.3974
    2bbb     N1   60   9.526   0.740   6.833  0.9380  0.5519 -0.5526
    2bbb     C1   61   9.651   0.656   6.820  0.3840 -0.1934 -0.3580
    2bbb     H1   62   9.622   0.559   6.780  1.4084  0.3751 -2.5972
    2bbb     H2   63   9.687   0.649   6.923 -1.6429 -1.9469  0.2906
    2bbb     C2   64   9.428   0.715   6.717 -0.5983  0.5334 -0.3645
    2bbb     H3   65   9.382   0.617   6.728 -0.3226  0.3608 -0.7565
    2bbb     H4   66   9.498   0.701   6.635  1.3443 -0.5816  1.3874
    2bbb     C3   67   9.454   0.696   6.962  0.7391  0.2961  0.2617
    2bbb     H5   68   9.447   0.588   6.954 -0.1540  0.3144  0.7216
    2bbb     H6   69   9.353   0.738   6.967  1.0835  1.0511  2.3924
    2bbb     C4   70   9.515   0.727   7.103 -0.4585 -0.3768  0.0390
    2bbb     H7   71   9.614   0.682   7.118 -0.5722 -0.1527  1.6620
    2bbb     H8   72   9.469   0.671   7.185  3.5789 -0.6769  2.4230
    2bbb     C5   73   9.750   0.729   6.718 -0.1795  0.0128  0.1248
    2bbb     H9   74   9.764   0.829   6.761  0.7725 -0.2449  0.4500
    2bbb    H10   75   9.702   0.739   6.620 -0.0862 -0.5648  0.0170
    2bbb     C6   76   9.340   0.835   6.685  0.4321  0.5942 -0.8020
    2bbb    H11   77   9.407   0.920   6.669  1.0725  0.5540  1.3563
    2bbb    H12   78   9.272   0.847   6.771 -1.2005 -0.7907 -1.8284
    2bbb     C7   79   9.511   0.870   7.152  0.2598 -0.1660 -0.0034
    2bbb    H13   80   9.547   0.939   7.075 -2.4197  1.9697  0.5234
    2bbb    H14   81   9.566   0.871   7.247 -0.6899 -0.2316  0.5580
    2bbb     C8   82   9.262   0.809   6.552 -0.4197 -0.0607 -0.0034
    2bbb    H15   83   9.229   0.707   6.530 -1.0917  0.5536 -2.0937
    2bbb    H16   84   9.170   0.868   6.558  0.1380  1.0515 -1.6951
    2bbb     C9   85   9.887   0.664   6.706 -0.6000 -0.1655 -0.9165
    2bbb    H17   86   9.925   0.654   6.808 -1.1117 -0.7562 -0.7767
    2bbb    H18   87   9.950   0.737   6.653 -2.0541  0.6948 -1.5205
    2bbb     O1   88   9.382   0.907   7.190  0.2531 -0.4123  0.0217
    2bbb    H19   89   9.558   0.838   6.845  2.9707 -0.3086  2.1612
    3bbb     N1   90   9.313   2.054   7.632  0.0343 -0.8854 -0.2676
    3bbb     C1   91   9.397   1.965   7.717  0.5788 -0.3221 -0.3691
    3bbb     H1   92   9.323   1.912   7.777 -0.8574  1.4548 -0.5063
    3bbb     H2   93   9.459   2.032   7.777  1.9741 -1.1069 -0.8694
    3bbb     C2   94   9.398   2.164   7.562  0.4686 -0.3393  0.5669
    3bbb     H3   95   9.455   2.100   7.494 -0.5837  0.9350 -1.5983
    3bbb     H4   96   9.462   2.214   7.635 -0.5265  0.5170  0.8771
    3bbb     C3   97   9.233   1.977   7.533 -0.0352 -0.6062 -0.3821
    3bbb     H5   98   9.300   1.932   7.460 -0.6733  0.3760 -1.5991
    3bbb     H6   99   9.173   2.052   7.482  0.2075  0.8921  1.4182
    3bbb     C4  100   9.135   1.877   7.601  0.2088 -0.3658 -0.2403
    3bbb     H7  101   9.083   1.934   7.679  0.9884  0.8355 -0.5793
    3bbb     H8  102   9.190   1.795   7.649 -0.5190  0.3926  1.9995
    3bbb     C5  103   9.498   1.868   7.646 -0.0873  0.0839 -0.2096
    3bbb     H9  104   9.566   1.929   7.585 -0.0748  0.2377 -0.0426
    3bbb    H10  105   9.446   1.797   7.580 -0.2147 -0.2827  0.2826
    3bbb     C6  106   9.322   2.276   7.490  0.6011 -0.5214  0.2428
    3bbb    H11  107   9.236   2.317   7.545  0.6539  0.3002 -0.2709
    3bbb    H12  108   9.277   2.241   7.396 -0.2278  1.9924 -0.3729
    3bbb     C7  109   9.046   1.811   7.494 -0.4046  0.2599  0.2214
    3bbb    H13  110   8.995   1.899   7.455  1.1353  0.3444 -1.7978
    3bbb    H14  111   8.983   1.737   7.544 -0.8264 -0.9585 -1.9987
    3bbb     C8  112   9.415   2.391   7.435  0.4666  0.0594  0.1074
    3bbb    H15  113   9.462   2.432   7.525 -1.7190 -0.4755  1.5817
    3bbb    H16  114   9.489   2.347   7.367 -0.1275  0.1950 -0.6299
    3bbb     C9  115   9.587   1.795   7.745 -0.5007 -0.4366  0.1671
    3bbb    H17  116   9.639   1.718   7.686 -1.1521 -0.3527 -0.5334
    3bbb    H18  117   9.527   1.739   7.817 -3.6416  1.0141 -1.1201
    3bbb     O1  118   9.129   1.742   7.395  0.1504  0.1159 -0.3993
    3bbb    H19  119   9.252   2.094   7.705  0.3203 -1.7919  0.4885
    4bbb     N1  120   7.752   0.582   7.348 -0.0109  0.5343 -0.6197
    4bbb     C1  121   7.694   0.563   7.212  0.5207 -0.3722  0.3656
    4bbb     H1  122   7.632   0.473   7.217 -0.3661  0.1901 -0.2423
    4bbb     H2  123   7.782   0.553   7.149  0.0300 -0.5319 -0.3007
    4bbb     C2  124   7.815   0.451   7.401  0.1688 -0.7334 -0.1531
    4bbb     H3  125   7.903   0.424   7.343  2.2677  1.4286  1.7721
    4bbb     H4  126   7.737   0.375   7.398 -0.2370 -0.4651  1.8284
    4bbb     C3  127   7.863   0.689   7.336  0.3594  0.4095  0.4516
    4bbb     H5  128   7.894   0.717   7.437  1.9392 -2.7431  0.9685
    4bbb     H6  129   7.843   0.778   7.276  3.8629  0.5088 -0.8183
    4bbb     C4  130   7.995   0.650   7.266  0.6399  0.2796  0.5722
    4bbb     H7  131   7.968   0.590   7.179 -0.9971 -0.7138  1.6942
    4bbb     H8  132   8.056   0.593   7.337  1.6024  1.3793  0.6563
    4bbb     C5  133   7.593   0.669   7.156 -0.2907  0.1096 -0.3539
    4bbb     H9  134   7.626   0.773   7.174  2.2556 -0.6683 -0.1329
    4bbb    H10  135   7.502   0.653   7.215 -0.3528  1.0814 -0.1712
    4bbb     C6  136   7.850   0.465   7.553  0.2211 -0.1492  0.0713
    4bbb    H11  137   7.763   0.500   7.611 -0.2238 -1.4450  0.2042
    4bbb    H12  138   7.939   0.530   7.557  1.9702 -2.1409 -3.1188
    4bbb     C7  139   8.082   0.784   7.234  0.6353  0.4008 -0.0191
    4bbb    H13  140   8.018   0.866   7.200 -0.6484 -0.5371  0.0854
    4bbb    H14  141   8.165   0.762   7.165  1.7303 -0.9831  1.6459
    4bbb     C8  142   7.891   0.321   7.611  0.0592  0.2192  0.4576
    4bbb    H15  143   7.967   0.279   7.544  1.5670 -2.0958  3.3849
    4bbb    H16  144   7.939   0.341   7.708  0.8530 -2.7031  0.7478
    4bbb     C9  145   7.564   0.639   7.005 -0.1747  0.7438  0.2325
    4bbb    H17  146   7.551   0.531   6.999 -0.3031  0.8251 -1.8985
    4bbb    H18  147   7.647   0.676   6.943  1.0178 -0.6097  0.9681
    4bbb     O1  148   8.132   0.828   7.359 -0.4472 -0.7552 -0.5105
    4bbb    H19  149   7.677   0.615   7.410 -0.5431 -1.4432 -0.1341
    5bbb     N1  150   7.693   1.117   8.317 -0.3756  0.4608  0.1357
    5bbb     C1  151   7.831   1.111   8.382 -0.4006  0.5600 -0.5999
    5bbb     H1  152   7.835   1.209   8.429 -1.5943 -0.1373  1.0460
    5bbb     H2  153   7.901   1.098   8.298  1.3535  2.9804  0.3778
    5bbb     C2  154   7.626   1.254   8.353 -0.0475 -0.1231  0.3478
    5bbb     H3  155   7.533   1.254   8.297  0.4606  0.4637 -0.5116
    5bbb     H4  156   7.689   1.334   8.314  1.9167 -1.1225  1.2938
    5bbb     C3  157   7.725   1.106   8.168  0.1120 -0.2485 -0.0214
    5bbb     H5  158   7.810   1.169   8.140  0.1756  0.0332  0.7781
    5bbb     H6  159   7.642   1.149   8.112  0.5389  1.0113  0.2610
    5bbb     C4  160   7.755   0.963   8.109  0.1899 -1.0873 -0.8563
    5bbb     H7  161   7.686   0.899   8.167 -0.2941 -1.0505 -1.3847
    5bbb     H8  162   7.850   0.918   8.139  0.8637  0.5517 -0.4442
    5bbb     C5  163   7.852   1.007   8.496 -0.0762  0.0246  1.0084
    5bbb     H9  164   7.846   0.907   8.452  0.4908  0.0733  0.8014
    5bbb    H10  165   7.771   1.004   8.570  0.1808 -1.6902  1.2680
    5bbb     C6  166   7.584   1.273   8.500  0.4112  0.2488  0.0758
    5bbb    H11  167   7.580   1.378   8.532 -1.3364  0.7788 -1.6550
    5bbb    H12  168   7.674   1.236   8.549 -0.4590 -0.7944  0.9180
    5bbb     C7  169   7.728   0.958   7.953  0.2916  0.1454  0.1016
    5bbb    H13  170   7.631   1.003   7.928  0.3134  1.2324  1.7818
    5bbb    H14  171   7.734   0.861   7.903 -0.3476 -0.4966  1.2195
    5bbb     C8  172   7.453   1.202   8.531  0.4923  0.0555 -0.0028
    5bbb    H15  173   7.458   1.105   8.481  2.1468  2.2900 -4.7087
    5bbb    H16  174   7.442   1.195   8.640 -0.8934 -0.5763 -0.1520
    5bbb     C9  175   7.995   1.015   8.552  0.7642 -0.1782 -0.0428
    5bbb    H17  176   8.028   1.119   8.553 -1.8308  0.7252  1.8526
    5bbb    H18  177   8.070   0.959   8.495  1.8969 -2.4243  3.3698
    5bbb     O1  178   7.824   1.057   7.893  0.8731  0.1699 -0.2920
    5bbb    H19  179   7.634   1.045   8.361 -2.3049  3.1211  2.3068
    6bbb     N1  180   9.149   0.714   5.989  0.3058  0.3138 -0.5899
    6bbb     C1  181   9.084   0.847   5.962 -0.9275  0.3831  0.2446
    6bbb     H1  182   9.167   0.914   5.939 -0.8358  0.1469 -0.1310
    6bbb     H2  183   9.043   0.867   6.061 -2.9776 -1.1572 -0.2065
    6bbb     C2  184   9.217   0.659   5.858  0.6928 -0.3387  0.6745
    6bbb     H3  185   9.304   0.723   5.842  0.0339  0.7607  1.3628
    6bbb     H4  186   9.142   0.674   5.780  0.4678 -1.7791  0.5800
    6bbb     C3  187   9.264   0.723   6.086  0.4091  0.0319 -0.4672
    6bbb     H5  188   9.329   0.786   6.025 -0.4812 -0.7042 -2.2709
    6bbb     H6  189   9.298   0.620   6.101 -1.0122  0.0723  4.8026
    6bbb     C4  190   9.233   0.790   6.228 -0.5768  0.1117 -1.2033
    6bbb     H7  191   9.155   0.735   6.283 -0.0172  1.6115  1.2349
    6bbb     H8  192   9.196   0.893   6.219 -0.7252 -0.0263 -2.4270
    6bbb     C5  193   8.972   0.853   5.853 -0.0117  0.2617 -0.2472
    6bbb     H9  194   8.899   0.774   5.871 -0.2750  0.5281 -0.1444
    6bbb    H10  195   9.019   0.838   5.755 -0.3204 -0.2013 -0.3270
    6bbb     C6  196   9.248   0.502   5.850  0.0409  0.0229 -0.5269
    6bbb    H11  197   9.180   0.439   5.910 -1.5926  0.7380 -1.5583
    6bbb    H12  198   9.341   0.493   5.907  0.1009 -0.3409 -0.6799
    6bbb     C7  199   9.354   0.791   6.321 -0.0723  0.1088 -0.4132
    6bbb    H13  200   9.441   0.823   6.263 -0.3866 -0.5446 -1.2669
    6bbb    H14  201   9.377   0.691   6.360  0.1571 -0.3349 -1.6314
    6bbb     C8  202   9.258   0.448   5.701  0.4676  0.0736 -0.0784
    6bbb    H15  203   9.350   0.495   5.665  0.2497  0.6156  0.0674
    6bbb    H16  204   9.273   0.340   5.704 -0.3853 -0.1341 -1.8727
    6bbb     C9  205   8.907   0.992   5.841  0.5920 -0.4904  0.4339
    6bbb    H17  206   8.850   1.006   5.934 -2.2552 -0.8909 -1.1117
    6bbb    H18  207   8.838   0.977   5.757 -0.1761 -0.7456  1.0926
    6bbb     O1  208   9.327   0.873   6.439 -0.3673 -0.2367  0.0928
    6bbb    H19  209   9.072   0.651   6.015  0.1551  1.0696  0.8770
    7bbb     N1  210  10.198   0.219   6.416 -0.9469 -0.4530  1.4606
    7bbb     C1  211  10.237   0.266   6.274  0.0101  0.5226 -0.0965
    7bbb     H1  212  10.275   0.175   6.227 -2.4872 -1.0654  0.7533
    7bbb     H2  213  10.321   0.332   6.296 -0.0362 -0.3172  3.0997
    7bbb     C2  214  10.315   0.139   6.469  0.5038  0.4393 -0.0102
    7bbb     H3  215  10.409   0.194   6.474  0.1156  1.3299 -1.5656
    7bbb     H4  216  10.338   0.067   6.391 -1.8405  0.5715 -0.9183
    7bbb     C3  217  10.174   0.340   6.506  0.4275  0.6823  0.2215
    7bbb     H5  218  10.229   0.420   6.458  2.1193 -1.2873 -1.3282
    7bbb     H6  219  10.210   0.313   6.605 -0.6968 -2.8216 -0.1730
    7bbb     C4  220  10.029   0.376   6.529  0.3623 -0.0903  0.3946
    7bbb     H7  221   9.974   0.293   6.575  2.5570 -1.3912  0.8074
    7bbb     H8  222   9.979   0.406   6.436  2.1638  2.1880  0.0706
    7bbb     C5  223  10.128   0.322   6.175  0.0677  0.0685 -0.3152
    7bbb     H9  224  10.052   0.376   6.234 -1.2067  1.5344 -3.0997
    7bbb    H10  225  10.072   0.240   6.129  0.8117 -0.4320 -0.3484
    7bbb     C6  226  10.307   0.059   6.609 -0.1187 -0.0526  0.3139
    7bbb    H11  227  10.234  -0.022   6.610 -1.1385  0.8314  1.6292
    7bbb    H12  228  10.265   0.128   6.683  2.9597  1.4957  0.7960
    7bbb     C7  229  10.017   0.495   6.622 -0.6368  0.6253 -0.3013
    7bbb    H13  230  10.071   0.576   6.572 -1.7218  0.6776 -1.4245
    7bbb    H14  231  10.063   0.472   6.719 -1.2117  1.1987  0.1144
    7bbb     C8  232  10.454   0.001   6.647  0.2559 -0.5410 -0.3217
    7bbb    H15  233  10.458   0.001   6.756 -0.0911 -0.1830 -0.3050
    7bbb    H16  234  10.481  -0.100   6.614  2.1661 -0.5091  0.9935
    7bbb     C9  235  10.187   0.407   6.064 -0.3507 -0.0771 -0.0336
    7bbb    H17  236  10.255   0.486   6.099 -0.6490 -0.4797  1.5499
    7bbb    H18  237  10.106   0.456   6.008 -1.5314 -2.0930 -0.1966
    7bbb     O1  238   9.883   0.543   6.629  0.0703  0.1012 -0.4932
    7bbb    H19  239  10.120   0.153   6.407 -1.0552 -0.4925  2.5644
    8bbb     N1  240   9.143   2.834   7.131 -0.5039  0.0255  0.5724
    8bbb     C1  241   9.170   2.838   6.977  0.2073  0.0119 -0.0654
    8bbb     H1  242   9.277   2.844   6.959 -0.0736  0.3840 -1.7082
    8bbb     H2  243   9.120   2.927   6.938  0.4151  0.0771 -0.1811
    8bbb     C2  244   8.992   2.819   7.143 -0.0220 -0.0677  0.0377
    8bbb     H3  245   8.987   2.767   7.238 -0.4067  0.5150  0.3414
    8bbb     H4  246   8.975   2.742   7.067 -0.1907  0.4455 -0.4509
    8bbb     C3  247   9.214   2.716   7.197  0.2752  0.0865  0.5341
    8bbb     H5  248   9.258   2.664   7.112 -0.8184  2.2914 -1.4952
    8bbb     H6  249   9.137   2.648   7.233  0.7604 -1.5767 -1.3956
    8bbb     C4  250   9.320   2.744   7.305  0.0337 -0.1168  0.0807
    8bbb     H7  251   9.264   2.777   7.393  0.0559  2.2271 -0.6829
    8bbb     H8  252   9.377   2.829   7.265 -1.6279  0.3361 -1.4679
    8bbb     C5  253   9.131   2.719   6.896 -0.0321  0.8753  0.6603
    8bbb     H9  254   9.031   2.677   6.915 -0.8720  2.2050 -0.6538
    8bbb    H10  255   9.202   2.636   6.913 -0.6439 -0.0480 -1.0527
    8bbb     C6  256   8.914   2.949   7.141 -0.1948  0.5620  0.3941
    8bbb    H11  257   8.808   2.928   7.159 -0.1808  0.1125 -0.0271
    8bbb    H12  258   8.924   2.999   7.044  0.6505  2.4219  1.3967
    8bbb     C7  259   9.414   2.622   7.336 -0.1857 -0.1895  0.2421
    8bbb    H13  260   9.483   2.656   7.414  1.2474 -0.0502 -1.0324
    8bbb    H14  261   9.471   2.602   7.244  1.0593 -0.1746  0.9853
    8bbb     C8  262   8.945   3.042   7.257 -0.2022  0.1562  0.0196
    8bbb    H15  263   8.869   3.121   7.261 -0.2806  0.0315  1.5037
    8bbb    H16  264   8.944   2.993   7.355  2.0059 -0.7922 -0.3633
    8bbb     C9  265   9.135   2.749   6.742 -0.3317 -0.4862 -0.4520
    8bbb    H17  266   9.113   2.656   6.688  0.4540 -0.5569 -0.6690
    8bbb    H18  267   9.235   2.776   6.703 -0.5923  2.7785  0.8196
    8bbb     O1  268   9.340   2.499   7.370 -0.3158  0.1565 -0.0210
    8bbb    H19  269   9.149   2.924   7.181 -2.0666 -0.3952  1.5728
    9bbb     N1  270  10.122   1.987   8.027 -0.4279 -0.6698  0.0705
    9bbb     C1  271  10.209   1.924   8.137  0.0824  0.5313 -0.1116
    9bbb     H1  272  10.312   1.958   8.131  0.0999  0.8925  1.5870
    9bbb     H2  273  10.213   1.816   8.120 -1.6163  0.4695 -0.2681
    9bbb     C2  274  10.191   2.002   7.893  0.2897  0.1565  0.4474
    9bbb     H3  275  10.121   2.041   7.820 -0.3992 -0.6911  0.6398
    9bbb     H4  276  10.234   1.904   7.872  0.3812 -0.0350  1.4520
    9bbb     C3  277   9.995   1.898   8.012 -0.4746 -0.2896 -0.2641
    9bbb     H5  278   9.945   1.887   8.108 -0.2282 -1.4689 -0.2567
    9bbb     H6  279  10.027   1.799   7.978 -1.3652 -0.6584 -0.0563
    9bbb     C4  280   9.885   1.950   7.915 -0.1418 -0.1854  0.8061
    9bbb     H7  281   9.929   2.000   7.828 -0.0891 -0.8675  0.4356
    9bbb     H8  282   9.832   2.023   7.978 -0.3749 -0.1876  0.6141
    9bbb     C5  283  10.155   1.945   8.281  0.1936 -0.4162 -0.5719
    9bbb     H9  284  10.225   1.898   8.351  0.6036  0.2827 -0.5052
    9bbb    H10  285  10.054   1.906   8.299  1.4068 -2.9738  1.3429
    9bbb     C6  286  10.304   2.107   7.885 -0.6736  0.3038  0.7663
    9bbb    H11  287  10.386   2.078   7.951  0.3853  0.9650 -0.2166
    9bbb    H12  288  10.275   2.207   7.921  1.0679  1.2150 -0.1908
    9bbb     C7  289   9.781   1.847   7.872 -0.9146 -0.2456  0.3791
    9bbb    H13  290   9.737   1.800   7.961 -1.4650  0.2151  0.3525
    9bbb    H14  291   9.836   1.775   7.810  0.2578  1.1700 -0.2627
    9bbb     C8  292  10.372   2.116   7.749 -0.7176  0.6010 -0.3211
    9bbb    H15  293  10.420   2.023   7.715  1.8330  1.5083  0.5099
    9bbb    H16  294  10.296   2.139   7.673 -0.3623  0.8598 -0.6039
    9bbb     C9  295  10.157   2.093   8.314  0.3764 -0.0182  0.7414
    9bbb    H17  296  10.238   2.150   8.265 -0.4188  0.9144  0.4941
    9bbb    H18  297  10.169   2.105   8.422  1.3973  1.0789  0.5318
    9bbb     O1  298   9.671   1.903   7.803  0.1694  0.5235 -0.5516
    9bbb    H19  299  10.088   2.080   8.055  1.1162  0.3115 -1.1576
   10bbb     N1  300   7.520  -0.030   7.522  0.2769  0.3575 -0.0686
   10bbb     C1  301   7.382   0.013   7.512 -0.5646 -0.7154 -0.1273
   10bbb     H1  302   7.315  -0.061   7.556 -0.8969  0.0521  0.6888
   10bbb     H2  303   7.363   0.029   7.406  2.1005 -0.0628 -0.5912
   10bbb     C2  304   7.540  -0.183   7.492 -0.3110 -0.6572 -0.5278
   10bbb     H3  305   7.483  -0.235   7.568 -1.6663 -0.5650 -1.4336
   10bbb     H4  306   7.642  -0.208   7.522 -0.8401 -1.4058  0.7085
   10bbb     C3  307   7.616   0.056   7.440 -0.0963 -0.2939 -0.4835
   10bbb     H5  308   7.591   0.162   7.448  0.0720 -0.1803 -1.3643
   10bbb     H6  309   7.589   0.041   7.336 -1.3061 -0.1946 -0.1915
   10bbb     C4  310   7.766   0.039   7.479  0.0089 -0.8560  0.2050
   10bbb     H7  311   7.820   0.091   7.399 -0.6437 -1.0055 -0.3408
   10bbb     H8  312   7.795  -0.067   7.477  3.1129 -0.0793 -0.7598
   10bbb     C5  313   7.377   0.143   7.597  0.5151  0.3061  0.7291
   10bbb     H9  314   7.284   0.198   7.576  2.0760  2.8813  0.0451
   10bbb    H10  315   7.448   0.223   7.575  1.0952  0.0626  1.6851
   10bbb     C6  316   7.507  -0.241   7.354  0.2103 -0.1590  0.0040
   10bbb    H11  317   7.551  -0.166   7.287 -0.7461  0.0119 -0.4407
   10bbb    H12  318   7.400  -0.244   7.331 -0.0428  0.9061  0.9292
   10bbb     C7  319   7.803   0.096   7.622 -0.1663 -0.3022  0.3424
   10bbb    H13  320   7.910   0.087   7.644  0.5649  1.0063 -2.3321
   10bbb    H14  321   7.753   0.047   7.707 -0.1368  0.5120  0.8419
   10bbb     C8  322   7.567  -0.377   7.316  0.3787 -0.2548  0.1734
   10bbb    H15  323   7.501  -0.451   7.364 -0.9515  1.0103  0.3545
   10bbb    H16  324   7.572  -0.384   7.207  0.6481  1.9324 -0.0055
   10bbb     C9  325   7.373   0.123   7.749  0.4976  0.1266  0.0695
   10bbb    H17  326   7.300   0.042   7.762 -0.9154  1.0129 -1.7856
   10bbb    H18  327   7.343   0.218   7.796  1.7225  0.4398  0.2508
   10bbb     O1  328   7.777   0.238   7.631 -0.2411 -0.0812 -0.2612
   10bbb    H19  329   7.547  -0.017   7.620  1.4233  1.2318 -0.4835
   11bbb     N1  330   7.053   0.868   7.050 -0.5050  0.4629 -0.3280
   11bbb     C1  331   6.974   0.781   7.146 -0.6590  0.2891 -0.0619
   11bbb     H1  332   6.871   0.814   7.134 -1.2455 -1.6062 -0.6147
   11bbb     H2  333   7.007   0.808   7.246  2.6209  0.0758 -0.9631
   11bbb     C2  334   7.034   1.025   7.060 -0.6491  0.6456 -0.0466
   11bbb     H3  335   7.090   1.086   6.989  1.3345 -0.4786  0.5008
   11bbb     H4  336   7.088   1.049   7.151  1.1982 -0.3175 -0.8311
   11bbb     C3  337   7.201   0.830   7.060 -0.7096  0.1178 -0.3268
   11bbb     H5  338   7.218   0.723   7.048 -0.1715  0.2235 -0.5333
   11bbb     H6  339   7.243   0.857   7.157 -1.7303 -0.5282  0.3113
   11bbb     C4  340   7.288   0.896   6.954  0.3144 -0.1000  0.8334
   11bbb     H7  341   7.276   1.004   6.963  0.0206 -0.0993  0.4705
   11bbb     H8  342   7.244   0.862   6.859  1.3938  0.1378  0.2357
   11bbb     C5  343   6.981   0.630   7.143 -0.3930 -0.4898 -0.1527
   11bbb     H9  344   6.903   0.588   7.208 -0.1495 -0.3488  0.2338
   11bbb    H10  345   7.078   0.610   7.190 -0.3495  2.6285  1.3175
   11bbb     C6  346   6.879   1.063   7.061 -0.7295  0.3001  0.0940
   11bbb    H11  347   6.833   1.021   7.152 -1.6567 -0.9881 -0.9422
   11bbb    H12  348   6.832   1.038   6.966 -0.0331 -0.3764 -0.0824
   11bbb     C7  349   7.437   0.851   6.944 -0.0417  0.1322  0.8108
   11bbb    H13  350   7.488   0.899   7.029 -0.1097 -0.2318  1.0617
   11bbb    H14  351   7.491   0.888   6.856  2.4514 -1.5099  1.5317
   11bbb     C8  352   6.861   1.218   7.093  0.6039  0.2257  0.2900
   11bbb    H15  353   6.755   1.242   7.108  0.4130 -0.6642  0.3930
   11bbb    H16  354   6.906   1.230   7.192 -1.2956 -1.6141  1.4464
   11bbb     C9  355   6.960   0.571   6.997 -0.1908  0.5363  0.3900
   11bbb    H17  356   6.992   0.644   6.923 -0.4886  1.2219  0.9185
   11bbb    H18  357   6.851   0.553   6.991 -0.0155 -1.8861  2.4677
   11bbb     O1  358   7.449   0.710   6.956 -0.0115  0.1804  0.2255
   11bbb    H19  359   7.036   0.837   6.953 -1.2593 -1.1511  0.2784
   12bbb     N1  360   6.936   1.404   8.314  0.0003  0.2018 -0.0043
   12bbb     C1  361   6.968   1.550   8.320  0.7235 -0.3716 -0.0681
   12bbb     H1  362   6.996   1.571   8.423 -0.3382 -2.8599  0.8130
   12bbb     H2  363   6.867   1.590   8.311  0.7651  0.1597  1.4928
   12bbb     C2  364   6.868   1.378   8.178  0.0950  1.2329 -0.3443
   12bbb     H3  365   6.938   1.381   8.095 -0.1362 -1.5789 -0.7428
   12bbb     H4  366   6.795   1.459   8.174  0.8158  1.9159 -0.0593
   12bbb     C3  367   7.053   1.313   8.337 -0.2479  0.4047  0.4456
   12bbb     H5  368   7.139   1.363   8.292 -1.6487  1.0637 -1.6438
   12bbb     H6  369   7.046   1.216   8.287  3.2466 -0.2147  0.9197
   12bbb     C4  370   7.089   1.281   8.486  0.1909 -0.4460  0.3930
   12bbb     H7  371   7.001   1.229   8.525 -0.2971 -1.2267 -1.5812
   12bbb     H8  372   7.093   1.377   8.538 -1.0224  0.1006 -0.4659
   12bbb     C5  373   7.066   1.603   8.215  0.4718 -0.4351  0.9158
   12bbb     H9  374   7.039   1.560   8.117  0.5396  1.1862  0.1591
   12bbb    H10  375   7.169   1.573   8.237  0.2577 -2.7661 -0.8690
   12bbb     C6  376   6.784   1.251   8.180 -0.1672  0.6226 -0.4357
   12bbb    H11  377   6.857   1.171   8.199  2.8194  2.6662 -2.4255
   12bbb    H12  378   6.750   1.230   8.078  1.1598  0.7888 -0.9320
   12bbb     C7  379   7.215   1.204   8.508 -1.1650  0.4583  0.3189
   12bbb    H13  380   7.218   1.120   8.438  1.1660  0.0625  0.8273
   12bbb    H14  381   7.210   1.167   8.611  1.6505  0.4433  0.5183
   12bbb     C8  382   6.667   1.270   8.282 -0.0637 -0.7569  0.3037
   12bbb    H15  383   6.629   1.372   8.269  1.3022  0.1215  2.6074
   12bbb    H16  384   6.581   1.206   8.256 -1.3208  0.7903  0.4379
   12bbb     C9  385   7.063   1.758   8.203  0.5662  0.1913  0.6334
   12bbb    H17  386   7.122   1.781   8.114 -1.3064 -1.4149 -1.1443
   12bbb    H18  387   7.117   1.794   8.291  1.1383  0.5793  0.1327
   12bbb     O1  388   7.340   1.280   8.486  0.0198 -0.0854  0.1350
   12bbb    H19  389   6.864   1.378   8.383  0.5573 -1.5468 -0.0478
   13bbb     N1  390   8.086   1.108   9.018  0.2438  0.5405 -0.1534
   13bbb     C1  391   8.007   1.208   8.943 -0.1086  0.1174  0.4135
   13bbb     H1  392   7.912   1.206   8.996 -0.3671 -0.9723 -0.0692
   13bbb     H2  393   7.995   1.172   8.841  2.1270  0.2183  0.0776
   13bbb     C2  394   8.071   1.131   9.169 -0.0191  0.1078  0.1210
   13bbb     H3  395   8.103   1.233   9.190  1.2454 -0.4026  0.8305
   13bbb     H4  396   8.140   1.063   9.220  0.3688  0.2259 -0.2330
   13bbb     C3  397   8.037   0.967   8.986  0.3262  0.6890 -0.1663
   13bbb     H5  398   7.937   0.965   8.942  0.5622  0.9399 -0.7215
   13bbb     H6  399   8.023   0.919   9.083  0.8886  2.9723  1.1315
   13bbb     C4  400   8.119   0.883   8.885 -0.2678 -0.0867 -0.0202
   13bbb     H7  401   8.084   0.779   8.878  0.6091 -0.2778 -2.5159
   13bbb     H8  402   8.222   0.878   8.922 -0.7513 -1.1126  1.2504
   13bbb     C5  403   8.080   1.345   8.944 -0.4118  0.6456 -0.5203
   13bbb     H9  404   8.116   1.367   9.045 -1.5181 -2.8146  0.7921
   13bbb    H10  405   8.009   1.415   8.897  0.3784  1.8780  0.0895
   13bbb     C6  406   7.937   1.114   9.234  0.6581 -0.1325 -0.2423
   13bbb    H11  407   7.895   1.017   9.206  2.9495 -0.5828 -2.6028
   13bbb    H12  408   7.867   1.188   9.190  1.9483  1.4358  0.2468
   13bbb     C7  409   8.126   0.947   8.741  1.2548 -0.3492 -0.2644
   13bbb    H13  410   8.179   0.875   8.677  0.3565 -0.5360 -0.8114
   13bbb    H14  411   8.185   1.039   8.735  0.0538  0.6135  1.7156
   13bbb     C8  412   7.942   1.131   9.386 -0.8591 -0.5994  0.0880
   13bbb    H15  413   8.003   1.220   9.405  0.6790 -1.6421  0.2145
   13bbb    H16  414   7.838   1.156   9.410 -0.8445 -0.0276 -0.4155
   13bbb     C9  415   8.207   1.347   8.855 -0.2561  0.1132  0.2713
   13bbb    H17  416   8.255   1.445   8.850 -0.9151  0.4120 -0.5833
   13bbb    H18  417   8.181   1.329   8.750  0.5025  1.4411 -0.1668
   13bbb     O1  418   7.994   0.964   8.684 -0.3101  0.7434  0.3056
   13bbb    H19  419   8.185   1.129   8.997  0.7973  0.8385  2.4289
   14bbb     N1  420   8.893   0.714   5.356 -0.6466  0.2454  0.6050
   14bbb     C1  421   8.894   0.718   5.203  0.4976 -0.4184  0.1892
   14bbb     H1  422   8.794   0.752   5.174  0.9893 -0.7205 -2.0519
   14bbb     H2  423   8.897   0.616   5.163 -1.5190 -0.0398 -1.0758
   14bbb     C2  424   8.772   0.632   5.405  0.1833 -1.0373 -1.2012
   14bbb     H3  425   8.795   0.531   5.370  1.0597 -0.6284 -1.8173
   14bbb     H4  426   8.687   0.673   5.350 -1.3438 -0.2148  1.5622
   14bbb     C3  427   9.018   0.650   5.413 -0.2899 -0.0481 -0.6125
   14bbb     H5  428   9.017   0.671   5.520  1.5496 -1.1954 -0.3222
   14bbb     H6  429   9.108   0.701   5.378 -1.6946  2.6521 -0.5400
   14bbb     C4  430   9.046   0.495   5.407 -0.5442  0.4611  0.0462
   14bbb     H7  431   9.061   0.451   5.307 -0.0944  2.4090 -0.7847
   14bbb     H8  432   8.955   0.447   5.446 -1.1442  1.5014 -0.0388
   14bbb     C5  433   9.001   0.805   5.130 -0.1872  0.4588 -0.8371
   14bbb     H9  434   8.982   0.796   5.022  1.8351 -0.9152 -1.1285
   14bbb    H10  435   9.100   0.761   5.145 -0.2296 -0.0071 -1.7846
   14bbb     C6  436   8.734   0.643   5.561  0.0503  0.2526  0.2737
   14bbb    H11  437   8.738   0.744   5.604  0.1201 -0.3932  1.8491
   14bbb    H12  438   8.810   0.595   5.623 -1.5623 -0.6744  1.6344
   14bbb     C7  439   9.170   0.460   5.484 -0.2082  0.1580 -0.6915
   14bbb    H13  440   9.248   0.529   5.450 -1.9143  0.7306 -3.7912
   14bbb    H14  441   9.207   0.359   5.462 -2.1059 -0.1699 -2.7133
   14bbb     C8  442   8.610   0.561   5.605 -0.3883 -0.0247  0.2695
   14bbb    H15  443   8.638   0.459   5.576 -0.8107 -0.5494  1.6271
   14bbb    H16  444   8.605   0.565   5.714  2.0238 -0.1105  0.4488
   14bbb     C9  445   8.998   0.955   5.162 -0.3244  0.4723  0.5334
   14bbb    H17  446   9.082   1.000   5.108  0.6832 -0.1047  1.5639
   14bbb    H18  447   9.022   0.985   5.265  0.0621  2.7737 -0.1652
   14bbb     O1  448   9.142   0.480   5.623 -0.0687  0.4237  0.0282
   14bbb    H19  449   8.883   0.811   5.390 -1.2777  1.1115 -1.8692
   15bbb     N1  450   9.041   1.447   6.107 -0.7498 -0.0443 -0.4233
   15bbb     C1  451   9.081   1.361   6.225  0.0953  0.1695  0.3651
   15bbb     H1  452   9.190   1.356   6.229  0.2878  1.4255 -1.7125
   15bbb     H2  453   9.042   1.261   6.208  0.5843  0.2470 -1.3809
   15bbb     C2  454   9.138   1.565   6.081 -0.3197  0.3517  0.5715
   15bbb     H3  455   9.110   1.596   5.981 -0.8334 -1.4060  0.1233
   15bbb     H4  456   9.238   1.519   6.079 -0.4458  0.1120 -0.2527
   15bbb     C3  457   9.048   1.359   5.987  0.0087  0.2772  0.2212
   15bbb     H5  458   9.114   1.278   6.018  2.3373  1.1928 -1.9221
   15bbb     H6  459   9.092   1.416   5.905 -2.0353  1.1673 -0.3132
   15bbb     C4  460   8.907   1.304   5.948  0.1890 -0.0845  0.6470
   15bbb     H7  461   8.833   1.382   5.925 -0.3343 -1.0531 -1.1200
   15bbb     H8  462   8.863   1.246   6.030  1.4855  1.4873  2.5512
   15bbb     C5  463   9.019   1.403   6.362 -0.0414  0.0240 -0.1530
   15bbb     H9  464   9.038   1.511   6.373 -0.7436  0.0150  1.4228
   15bbb    H10  465   9.068   1.354   6.447 -0.0192  2.1241  1.1269
   15bbb     C6  466   9.136   1.688   6.175  0.1291 -0.3556  1.1202
   15bbb    H11  467   9.152   1.678   6.283 -0.8436  1.5581  1.4844
   15bbb    H12  468   9.035   1.730   6.172  0.4269  0.3101 -0.8253
   15bbb     C7  469   8.931   1.230   5.814  0.9706  0.2330  0.4066
   15bbb    H13  470   8.973   1.304   5.745  0.3854 -0.4853 -0.7585
   15bbb    H14  471   8.831   1.208   5.773  1.1113 -3.9699  1.8345
   15bbb     C8  472   9.231   1.790   6.108 -0.4153 -0.4026 -0.2952
   15bbb    H15  473   9.240   1.877   6.173  1.2790 -1.4365  0.9448
   15bbb    H16  474   9.181   1.814   6.013 -1.1843  0.3627  0.2805
   15bbb     C9  475   8.865   1.377   6.370 -0.7152  0.2925  0.0054
   15bbb    H17  476   8.843   1.272   6.346  0.8555 -0.3594  1.2692
   15bbb    H18  477   8.814   1.402   6.464  2.4766  1.1570  1.6663
   15bbb     O1  478   9.000   1.101   5.821  0.0829  0.2602  0.2607
   15bbb    H19  479   8.946   1.481   6.127 -0.6766 -1.0034  1.8589
   16bbb     N1  480  10.660   0.367   6.808  1.2512 -0.2465 -0.5924
   16bbb     C1  481  10.774   0.396   6.904 -0.4659  0.9876  0.0959
   16bbb     H1  482  10.814   0.497   6.889  2.7646  0.4952  3.6287
   16bbb     H2  483  10.856   0.330   6.874  0.6580  2.4878 -0.2578
   16bbb     C2  484  10.571   0.496   6.800 -0.4063 -0.1218 -0.4587
   16bbb     H3  485  10.635   0.556   6.736  2.0125 -2.0961 -0.0278
   16bbb     H4  486  10.568   0.549   6.895 -0.3819 -1.3645  0.2499
   16bbb     C3  487  10.712   0.329   6.667  0.0333  0.2582 -0.2241
   16bbb     H5  488  10.782   0.407   6.638  0.1108 -0.7815 -3.1088
   16bbb     H6  489  10.632   0.322   6.594  1.8409 -2.4398 -2.1310
   16bbb     C4  490  10.781   0.194   6.663  0.0131 -0.0588  0.1976
   16bbb     H7  491  10.865   0.192   6.734  1.9598  0.8329 -1.9773
   16bbb     H8  492  10.822   0.173   6.564  0.2551 -1.7321  0.6310
   16bbb     C5  493  10.747   0.364   7.054  0.0999  0.0987 -0.1321
   16bbb     H9  494  10.719   0.261   7.076  2.2875 -0.4143  0.5103
   16bbb    H10  495  10.682   0.445   7.089  2.5514  0.6606  3.7782
   16bbb     C6  496  10.426   0.496   6.736 -0.2279  0.0007 -0.6753
   16bbb    H11  497  10.369   0.414   6.783  1.7129  0.9724  3.9846
   16bbb    H12  498  10.440   0.473   6.630 -1.1106  0.2172 -0.8439
   16bbb     C7  499  10.680   0.079   6.685  0.1983 -0.5058  0.4004
   16bbb    H13  500  10.651   0.073   6.790  0.7913 -1.1364  0.5357
   16bbb    H14  501  10.729  -0.016   6.662 -2.9124 -2.9915  3.1677
   16bbb     C8  502  10.362   0.631   6.775 -0.2333 -0.0822 -0.0953
   16bbb    H15  503  10.429   0.717   6.763 -0.4960  0.4228  1.8556
   16bbb    H16  504  10.274   0.653   6.714 -1.1337 -0.6180  0.9851
   16bbb     C9  505  10.873   0.366   7.135 -0.5750 -0.0969 -0.0965
   16bbb    H17  506  10.868   0.366   7.245  1.9368 -0.6387  0.0772
   16bbb    H18  507  10.926   0.460   7.114 -0.4075 -0.3092 -0.6346
   16bbb     O1  508  10.553   0.091   6.603 -0.2707  0.6467  0.5470
   16bbb    H19  509  10.601   0.292   6.849 -0.8148  1.6502  0.1204
   17bbb     N1  510  10.541   0.084   5.688 -0.7964  0.0377 -0.3673
   17bbb     C1  511  10.529   0.109   5.544 -0.5777  0.8924  0.3572
   17bbb     H1  512  10.570   0.017   5.502  1.8407  1.9656  0.2426
   17bbb     H2  513  10.598   0.192   5.527  0.5742 -0.1869 -0.3926
   17bbb     C2  514  10.685   0.085   5.732  0.1231  0.0548 -0.3223
   17bbb     H3  515  10.712   0.130   5.827 -3.6040 -2.2052  2.0411
   17bbb     H4  516  10.732   0.162   5.671  0.6624 -0.0218 -0.0041
   17bbb     C3  517  10.467   0.192   5.770 -0.4231  0.2429  0.4293
   17bbb     H5  518  10.368   0.204   5.726  0.2137  1.4706 -0.7593
   17bbb     H6  519  10.517   0.289   5.762  0.6387  0.1320  3.9229
   17bbb     C4  520  10.447   0.171   5.917 -0.4850 -0.1958 -0.4037
   17bbb     H7  521  10.541   0.138   5.963  0.2335 -0.2585 -1.8512
   17bbb     H8  522  10.371   0.092   5.924 -3.2502  2.2848 -0.7180
   17bbb     C5  523  10.390   0.136   5.482  0.1231  0.0998 -0.5167
   17bbb     H9  524  10.338   0.220   5.531  3.7602  1.7893  0.8214
   17bbb    H10  525  10.322   0.051   5.493 -1.3963  1.4560  1.0871
   17bbb     C6  526  10.756  -0.049   5.730  0.0151 -0.2709 -0.0402
   17bbb    H11  527  10.862  -0.027   5.747  0.0133 -0.0735 -0.2727
   17bbb    H12  528  10.744  -0.100   5.634 -1.4085 -1.0141  0.5137
   17bbb     C7  529  10.393   0.289   6.003 -0.9943  0.2376 -0.6599
   17bbb    H13  530  10.444   0.385   5.994 -2.1515  0.9758  0.2697
   17bbb    H14  531  10.426   0.252   6.101 -0.5341 -0.5661 -1.1068
   17bbb     C8  532  10.710  -0.145   5.840  0.2336 -0.0072 -0.5776
   17bbb    H15  533  10.793  -0.215   5.857 -0.7940 -1.0635  0.2361
   17bbb    H16  534  10.698  -0.093   5.936  1.9928 -2.9104  1.3635
   17bbb     C9  535  10.393   0.170   5.335  0.5944  0.5063  0.0413
   17bbb    H17  536  10.452   0.259   5.312  0.1037  1.5659  2.5120
   17bbb    H18  537  10.290   0.182   5.298  0.1386 -1.1718  0.6234
   17bbb     O1  538  10.249   0.305   5.978  0.1079  0.3391 -0.3646
   17bbb    H19  539  10.497  -0.007   5.712  0.3998 -1.2198 -2.6983
   18bbb     N1  540   9.425   3.352   7.163 -0.3813  0.1914 -0.3344
   18bbb     C1  541   9.499   3.248   7.075  0.8912 -0.4650  0.1910
   18bbb     H1  542   9.601   3.281   7.060  1.7438 -3.7644 -2.6303
   18bbb     H2  543   9.449   3.259   6.979  1.5932 -0.1592 -0.1411
   18bbb     C2  544   9.425   3.483   7.088  0.2208 -0.0860  0.0475
   18bbb     H3  545   9.343   3.483   7.017 -0.2380 -0.6215  0.5687
   18bbb     H4  546   9.514   3.495   7.026  0.1836  0.8122  0.1584
   18bbb     C3  547   9.290   3.301   7.196  0.4120  0.6053 -0.0172
   18bbb     H5  548   9.258   3.241   7.111  0.2520  1.0321 -0.2650
   18bbb     H6  549   9.230   3.392   7.209  1.6504  1.1962  1.9694
   18bbb     C4  550   9.270   3.214   7.325 -0.2606  0.2113 -0.3986
   18bbb     H7  551   9.297   3.283   7.407  2.4317 -1.4733  0.2391
   18bbb     H8  552   9.335   3.126   7.332 -1.8376 -0.9320  0.5178
   18bbb     C5  553   9.507   3.095   7.106  0.0243 -0.2998 -0.2113
   18bbb     H9  554   9.552   3.057   7.014  3.2373  3.3403 -0.4036
   18bbb    H10  555   9.405   3.054   7.109 -1.1489  2.4127 -0.2386
   18bbb     C6  556   9.382   3.600   7.177 -0.4642 -0.0587 -0.2858
   18bbb    H11  557   9.438   3.608   7.270 -1.1947  0.0990  0.1474
   18bbb    H12  558   9.278   3.580   7.207 -0.7624 -0.0476 -1.2505
   18bbb     C7  559   9.124   3.181   7.346 -0.5012 -0.1479 -0.7697
   18bbb    H13  560   9.067   3.275   7.343 -1.0474 -0.3961  0.6391
   18bbb    H14  561   9.109   3.144   7.448 -0.1199  1.4782 -0.1033
   18bbb     C8  562   9.380   3.741   7.106 -0.0682  0.1073 -0.0499
   18bbb    H15  563   9.482   3.778   7.090 -0.0017 -0.6817 -1.7222
   18bbb    H16  564   9.340   3.730   7.004 -2.8274 -0.7451  1.0231
   18bbb     C9  565   9.594   3.061   7.226  0.4135  0.2667 -0.0394
   18bbb    H17  566   9.585   2.953   7.242  1.1601  0.2007 -0.0462
   18bbb    H18  567   9.550   3.106   7.317  0.3863 -0.2160  0.1902
   18bbb     O1  568   9.080   3.092   7.241  0.1553  0.1708 -0.8316
   18bbb    H19  569   9.487   3.357   7.245  1.2052  0.3408 -1.5023
   19bbb     N1  570   8.783   3.196   6.585  0.2775  0.0886  0.0937
   19bbb     C1  571   8.698   3.181   6.461  0.1607  0.4723 -0.0976
   19bbb     H1  572   8.606   3.238   6.478 -0.6330 -0.0469 -2.3009
   19bbb     H2  573   8.683   3.076   6.435 -0.4881  0.5330  0.0107
   19bbb     C2  574   8.702   3.165   6.707 -0.0251 -0.2417 -0.2744
   19bbb     H3  575   8.681   3.059   6.718 -0.6285 -0.1363 -0.3628
   19bbb     H4  576   8.605   3.214   6.695 -0.1249 -0.4953 -0.5080
   19bbb     C3  577   8.909   3.110   6.582 -0.2046  0.5074  0.5419
   19bbb     H5  578   8.957   3.125   6.679 -1.2145  2.7320  0.7593
   19bbb     H6  579   8.983   3.150   6.512 -1.5503  1.4619 -0.3838
   19bbb     C4  580   8.906   2.957   6.535 -0.0094  0.0462 -0.0406
   19bbb     H7  581   8.885   2.958   6.428  1.5110 -1.2612 -0.3889
   19bbb     H8  582   8.813   2.912   6.572 -1.1011  1.9135 -0.3706
   19bbb     C5  583   8.768   3.232   6.332  0.4718 -0.8158 -0.1801
   19bbb     H9  584   8.870   3.201   6.305  1.5496  3.0768 -1.1763
   19bbb    H10  585   8.778   3.341   6.341 -0.6224 -0.3440 -3.5746
   19bbb     C6  586   8.758   3.223   6.839 -0.3983 -0.0860 -0.1070
   19bbb    H11  587   8.796   3.325   6.827  0.1963 -0.1102  1.3115
   19bbb    H12  588   8.852   3.170   6.859 -0.7572 -0.3658  0.9118
   19bbb     C7  589   9.031   2.870   6.569  0.6801 -0.1422  0.2589
   19bbb    H13  590   9.127   2.916   6.542  1.2533 -1.5617 -0.2149
   19bbb    H14  591   9.022   2.772   6.519  2.7318 -0.4904  0.4907
   19bbb     C8  592   8.658   3.214   6.964 -0.1509  0.2270  0.3448
   19bbb    H15  593   8.625   3.110   6.972 -1.3398  0.6730  1.9155
   19bbb    H16  594   8.720   3.241   7.050 -0.7196  2.5022  0.0958
   19bbb     C9  595   8.685   3.209   6.203  0.3722 -0.6767 -0.6842
   19bbb    H17  596   8.730   3.264   6.120 -2.0135  3.2122  0.3914
   19bbb    H18  597   8.584   3.248   6.214 -1.1035 -4.5435  1.8724
   19bbb     O1  598   9.038   2.851   6.711  0.3628  0.4282  0.7524
   19bbb    H19  599   8.807   3.295   6.598 -0.6777  0.0601  2.5968
   20bbb     N1  600  10.827   2.517   7.742 -0.1562 -0.0154 -0.0356
   20bbb     C1  601  10.890   2.472   7.610  1.1057 -0.0358  0.3776
   20bbb     H1  602  10.914   2.367   7.629 -1.1509 -0.1712  3.0555
   20bbb     H2  603  10.975   2.535   7.585  1.3420 -1.0202 -1.5452
   20bbb     C2  604  10.800   2.664   7.741 -0.7521 -0.1639  1.0127
   20bbb     H3  605  10.724   2.684   7.665  1.4501  0.3317 -1.1996
   20bbb     H4  606  10.894   2.715   7.719 -0.6188 -0.2444  1.3816
   20bbb     C3  607  10.699   2.445   7.779 -0.7248 -0.0806 -0.2097
   20bbb     H5  608  10.620   2.487   7.716 -0.7377 -0.9318 -0.7819
   20bbb     H6  609  10.684   2.463   7.885  1.0312  0.7706 -0.0741
   20bbb     C4  610  10.698   2.289   7.764  0.0622  0.3491 -0.1651
   20bbb     H7  611  10.778   2.235   7.815 -2.0431 -1.0926  1.8387
   20bbb     H8  612  10.715   2.253   7.661 -0.2543 -0.1934 -0.0334
   20bbb     C5  613  10.796   2.491   7.485  0.3702  1.3652 -0.4321
   20bbb     H9  614  10.698   2.534   7.508 -1.0697 -1.3719 -0.9848
   20bbb    H10  615  10.754   2.392   7.462  0.1784  1.9191 -2.7533
   20bbb     C6  616  10.761   2.726   7.873  0.2296  0.0824 -0.3965
   20bbb    H11  617  10.806   2.678   7.960 -2.4704 -2.3275 -0.1588
   20bbb    H12  618  10.658   2.690   7.889 -0.9540  3.1788 -0.3929
   20bbb     C7  619  10.579   2.216   7.829 -0.1839 -0.1185 -0.4129
   20bbb    H13  620  10.570   2.266   7.925  1.5212  0.7427 -0.6599
   20bbb    H14  621  10.602   2.110   7.850 -0.7458 -0.0491  0.5954
   20bbb     C8  622  10.763   2.883   7.878 -0.2128  0.0579  0.1315
   20bbb    H15  623  10.696   2.912   7.796 -1.5944 -1.5888  0.6214
   20bbb    H16  624  10.719   2.911   7.974  2.7454 -0.6985  1.8143
   20bbb     C9  625  10.876   2.541   7.356 -0.3053  0.6340 -0.6646
   20bbb    H17  626  10.965   2.477   7.348 -0.6900  0.2251 -1.8771
   20bbb    H18  627  10.901   2.647   7.364 -0.1890  0.5448  0.2616
   20bbb     O1  628  10.465   2.230   7.744 -0.2387 -0.5210 -0.0268
   20bbb    H19  629  10.902   2.488   7.806 -0.3335  0.3855  0.3666
   21bbb     N1  630   9.989   2.382   8.652 -0.1909  0.0512  0.5764
   21bbb     C1  631   9.933   2.299   8.761  0.0812 -0.2860  0.1029
   21bbb     H1  632   9.932   2.349   8.858  0.9199  0.2251 -0.1358
   21bbb     H2  633  10.005   2.218   8.777  1.3057  0.9229  0.8903
   21bbb     C2  634  10.127   2.427   8.697 -0.5603 -0.1074 -0.5676
   21bbb     H3  635  10.173   2.480   8.613  3.5660 -0.9159  0.9595
   21bbb     H4  636  10.183   2.342   8.737  1.5764  1.5621  0.1751
   21bbb     C3  637  10.007   2.297   8.522 -0.5963  0.3977  0.0613
   21bbb     H5  638   9.912   2.249   8.500 -0.4264 -1.1381  2.2611
   21bbb     H6  639  10.077   2.214   8.540 -0.0082  0.3199 -2.2651
   21bbb     C4  640  10.061   2.375   8.402  0.0080 -0.3269 -0.0731
   21bbb     H7  641  10.168   2.391   8.419 -0.3839  0.0927  2.3927
   21bbb     H8  642  10.010   2.472   8.402  0.7802  0.0916  0.0546
   21bbb     C5  643   9.795   2.231   8.735  0.0778  0.1253 -0.3178
   21bbb     H9  644   9.808   2.167   8.647  2.0545 -1.2849  0.9259
   21bbb    H10  645   9.719   2.305   8.706 -1.1691 -0.2389  1.7895
   21bbb     C6  646  10.125   2.532   8.811 -0.3605 -0.3141 -0.1175
   21bbb    H11  647  10.226   2.537   8.854  0.0146 -1.5627 -0.8028
   21bbb    H12  648  10.066   2.491   8.894  1.7507 -2.1649  0.5850
   21bbb     C7  649  10.038   2.303   8.264  0.1087  0.6180  0.9826
   21bbb    H13  650  10.117   2.345   8.199  0.8038  1.3754  2.2667
   21bbb    H14  651   9.939   2.338   8.234  1.0610  1.6989 -1.0998
   21bbb     C8  652  10.072   2.671   8.759 -0.7622  0.6981 -0.0824
   21bbb    H15  653  10.075   2.744   8.841 -3.3146 -0.5678  1.2453
   21bbb    H16  654  10.146   2.707   8.686 -0.8353  1.0044 -0.0074
   21bbb     C9  655   9.757   2.155   8.863 -0.4364 -0.2408 -0.4061
   21bbb    H17  656   9.830   2.074   8.879  0.6327  0.4370 -1.5794
   21bbb    H18  657   9.656   2.112   8.856 -0.5060 -0.1724  0.1735
   21bbb     O1  658  10.035   2.157   8.271 -0.3224  0.0825 -0.0084
   21bbb    H19  659   9.932   2.467   8.639  1.3376  0.7815 -2.0276
   22bbb     N1  660   8.112  -0.680   7.384 -0.3228 -0.2001  0.1803
   22bbb     C1  661   8.151  -0.815   7.443 -0.1117 -0.6506  0.4956
   22bbb     H1  662   8.257  -0.837   7.436 -0.2060 -1.2893  0.9539
   22bbb     H2  663   8.105  -0.891   7.379  2.8049 -1.8619 -0.3225
   22bbb     C2  664   8.158  -0.663   7.234  0.7760 -0.1223 -0.1331
   22bbb     H3  665   8.114  -0.574   7.189 -1.1228  0.0493  1.9053
   22bbb     H4  666   8.120  -0.755   7.188 -1.4649  0.9631 -0.5801
   22bbb     C3  667   7.959  -0.662   7.384 -0.5879 -0.4452 -0.1172
   22bbb     H5  668   7.928  -0.684   7.486  0.8361 -3.5684 -0.2451
   22bbb     H6  669   7.915  -0.741   7.322 -0.4901 -0.9686  0.4781
   22bbb     C4  670   7.908  -0.523   7.348  0.2517 -0.1222 -0.8726
   22bbb     H7  671   7.940  -0.502   7.246  0.3227  0.1151 -0.8023
   22bbb     H8  672   7.941  -0.442   7.414 -0.2699 -0.6145  0.0253
   22bbb     C5  673   8.108  -0.832   7.594 -0.5687 -0.5802  0.5033
   22bbb     H9  674   8.001  -0.839   7.614 -0.5126  1.9904  2.0826
   22bbb    H10  675   8.157  -0.748   7.644  2.3647  1.5111 -5.0014
   22bbb     C6  676   8.309  -0.666   7.219  0.1961 -0.3299  0.2809
   22bbb    H11  677   8.353  -0.762   7.248  0.1668 -1.0773 -2.0229
   22bbb    H12  678   8.347  -0.585   7.282  0.0285  2.2660 -2.7245
   22bbb     C7  679   7.753  -0.524   7.353  0.2513 -0.0293 -0.5422
   22bbb    H13  680   7.715  -0.593   7.430  0.2069  0.2089 -0.3463
   22bbb    H14  681   7.710  -0.557   7.258 -1.2590  0.3671 -0.0316
   22bbb     C8  682   8.331  -0.630   7.070  0.6436  0.4449 -0.6346
   22bbb    H15  683   8.288  -0.530   7.058  0.1612  0.6773  2.3037
   22bbb    H16  684   8.438  -0.616   7.055  0.6622  0.0921 -0.8369
   22bbb     C9  685   8.169  -0.963   7.642  0.1474  0.6084 -0.0137
   22bbb    H17  686   8.136  -1.044   7.575 -0.3757 -0.3872  1.3874
   22bbb    H18  687   8.136  -0.984   7.745 -2.1196 -2.4891 -1.2244
   22bbb     O1  688   7.704  -0.388   7.365  0.2638  0.0691  0.5269
   22bbb    H19  689   8.162  -0.609   7.439 -1.0067 -0.6196  1.3925
   23bbb     N1  690   7.743   0.036   8.258  0.5226  0.4660  0.5750
   23bbb     C1  691   7.820  -0.075   8.203  0.2609  0.4791  0.3875
   23bbb     H1  692   7.913  -0.072   8.260  0.2239 -1.1660  0.5916
   23bbb     H2  693   7.855  -0.058   8.101  1.2886 -1.3997  0.3666
   23bbb     C2  694   7.821   0.158   8.247  0.1636  0.0594  0.2210
   23bbb     H3  695   7.856   0.158   8.144  1.1728 -2.1749  0.4885
   23bbb     H4  696   7.910   0.132   8.304  0.4729  1.1116  0.2370
   23bbb     C3  697   7.610   0.049   8.175 -0.4460  0.1624 -0.2501
   23bbb     H5  698   7.536   0.115   8.222 -3.0540 -1.3348 -1.9580
   23bbb     H6  699   7.564  -0.048   8.190 -1.3447  0.8293  1.5742
   23bbb     C4  700   7.620   0.087   8.026 -0.0915  0.8097 -0.4326
   23bbb     H7  701   7.689   0.020   7.973 -2.0608 -2.0642  0.3946
   23bbb     H8  702   7.662   0.187   8.009 -1.7151  1.5994  0.0020
   23bbb     C5  703   7.749  -0.211   8.212 -0.3059  0.1434  0.2277
   23bbb     H9  704   7.698  -0.235   8.118 -3.3069  2.1964  1.1667
   23bbb    H10  705   7.663  -0.210   8.281 -1.0957  1.0572 -0.7326
   23bbb     C6  706   7.766   0.294   8.304 -0.3955 -0.5447 -0.3775
   23bbb    H11  707   7.679   0.322   8.244 -0.6981 -1.0122 -0.1658
   23bbb    H12  708   7.842   0.373   8.295 -0.3416 -0.8077 -2.8335
   23bbb     C7  709   7.483   0.082   7.948  0.2452 -0.3076 -0.2166
   23bbb    H13  710   7.420   0.165   7.981 -0.1332 -0.5725 -0.2680
   23bbb    H14  711   7.434  -0.009   7.986 -1.1807  0.8697  0.8492
   23bbb     C8  712   7.732   0.286   8.452 -0.3681 -0.0501 -0.8159
   23bbb    H15  713   7.695   0.379   8.496  0.4953 -1.7660  4.1358
   23bbb    H16  714   7.661   0.203   8.469  1.8239 -1.8224  0.1978
   23bbb     C9  715   7.855  -0.318   8.246  0.4123  0.1401  0.0163
   23bbb    H17  716   7.897  -0.294   8.344 -1.1902  0.1994  0.7191
   23bbb    H18  717   7.938  -0.327   8.175  2.2461 -1.9851  2.2533
   23bbb     O1  718   7.499   0.085   7.806  0.1530 -0.0280 -0.2655
   23bbb    H19  719   7.734   0.011   8.358  1.6433 -2.5359  0.0345
   24bbb     N1  720   7.063   1.492   6.591 -0.2179  0.2124 -0.5221
   24bbb     C1  721   7.133   1.610   6.652 -0.7003 -0.3478 -0.3248
   24bbb     H1  722   7.063   1.671   6.710  0.5664  1.7418 -0.8747
   24bbb     H2  723   7.163   1.680   6.573 -3.1078  2.4610  1.0397
   24bbb     C2  724   7.154   1.417   6.496  0.2260 -0.1319 -0.3679
   24bbb     H3  725   7.229   1.363   6.555 -1.7318 -0.4360  2.0075
   24bbb     H4  726   7.203   1.492   6.435  0.3091  0.0680 -0.0576
   24bbb     C3  727   7.006   1.407   6.701  0.0619  0.6835  0.2858
   24bbb     H5  728   7.086   1.368   6.764  1.2499 -2.0301 -2.6317
   24bbb     H6  729   6.977   1.312   6.656  0.2515  0.9840 -0.4799
   24bbb     C4  730   6.889   1.458   6.797  0.0482 -0.5010  0.3142
   24bbb     H7  731   6.810   1.501   6.735  0.6044  0.5786  0.3255
   24bbb     H8  732   6.930   1.541   6.856 -2.2865  0.5725  0.5640
   24bbb     C5  733   7.250   1.582   6.745 -0.3536  0.0926  0.4054
   24bbb     H9  734   7.326   1.520   6.696 -2.4468 -1.7900 -0.6356
   24bbb    H10  735   7.221   1.517   6.828 -1.1264  1.2968  1.1023
   24bbb     C6  736   7.085   1.323   6.397  0.1810  0.0729 -0.4673
   24bbb    H11  737   7.039   1.243   6.456 -1.2067  0.7530 -0.5848
   24bbb    H12  738   7.165   1.276   6.339 -0.1786  0.6516 -1.4532
   24bbb     C7  739   6.829   1.346   6.889  0.6583  0.0802 -0.1036
   24bbb    H13  740   6.810   1.261   6.823  2.3837 -0.4814  0.0891
   24bbb    H14  741   6.729   1.376   6.925 -1.3109 -2.2027 -3.2194
   24bbb     C8  742   6.977   1.391   6.308 -0.6060 -0.8761  0.1551
   24bbb    H15  743   7.022   1.463   6.238 -0.7378 -0.8555  0.0922
   24bbb    H16  744   6.932   1.314   6.244  0.0499 -1.5821  0.5334
   24bbb     C9  745   7.299   1.715   6.794  0.5828 -0.1107 -0.1482
   24bbb    H17  746   7.322   1.782   6.711  1.8463 -0.1158  0.1748
   24bbb    H18  747   7.393   1.705   6.850  0.5090 -0.7138 -0.1216
   24bbb     O1  748   6.922   1.298   6.990 -0.3374  0.1740  0.0515
   24bbb    H19  749   6.988   1.524   6.527 -0.8097  1.7292  0.8785
   25bbb     N1  750   7.066   0.058   6.954 -0.1134  0.6009  0.3130
   25bbb     C1  751   7.111  -0.022   6.831 -0.0826  0.4167 -0.1628
   25bbb     H1  752   7.197  -0.083   6.860  0.0492  1.5721  2.1143
   25bbb     H2  753   7.137   0.053   6.757  2.6497 -0.6549 -0.3837
   25bbb     C2  754   7.048  -0.023   7.083 -0.3012 -0.5266  0.0738
   25bbb     H3  755   7.072   0.047   7.163  0.9543  1.3460 -1.7998
   25bbb     H4  756   7.125  -0.100   7.079 -0.3753 -0.5552 -1.6406
   25bbb     C3  757   7.158   0.176   6.986  0.0606  0.5911 -0.3196
   25bbb     H5  758   7.260   0.144   7.004 -0.1259  0.3563  0.3515
   25bbb     H6  759   7.121   0.226   7.076 -2.0664 -0.4451 -0.5574
   25bbb     C4  760   7.168   0.285   6.881  0.1654 -0.1319  0.4009
   25bbb     H7  761   7.184   0.241   6.782 -2.7815  0.3314 -0.3829
   25bbb     H8  762   7.250   0.350   6.912  0.3472 -0.1448 -0.0446
   25bbb     C5  763   7.001  -0.113   6.766 -0.1854 -0.0105 -0.0894
   25bbb     H9  764   6.907  -0.055   6.769 -0.6180 -0.6548 -0.9155
   25bbb    H10  765   6.996  -0.202   6.829  1.0938  0.0594  0.1384
   25bbb     C6  766   6.907  -0.088   7.112 -0.1237 -0.1713  0.5046
   25bbb    H11  767   6.913  -0.130   7.213  1.0829 -1.8795 -0.2337
   25bbb    H12  768   6.875  -0.168   7.045 -2.4219 -0.3506  1.7266
   25bbb     C7  769   7.034   0.374   6.880  0.0063 -0.1587  0.2977
   25bbb    H13  770   6.949   0.306   6.882 -1.0926  1.1127  3.4888
   25bbb    H14  771   7.031   0.444   6.796 -0.1013  0.1150  0.5278
   25bbb     C8  772   6.807   0.026   7.127  0.7923 -0.5053  0.4305
   25bbb    H15  773   6.716  -0.024   7.162 -1.0672  2.9173  0.8511
   25bbb    H16  774   6.838   0.104   7.198 -1.8544  0.7998  0.2710
   25bbb     C9  775   7.033  -0.159   6.627  0.3819  0.5908  0.0711
   25bbb    H17  776   7.128  -0.211   6.644  2.0654  3.5878  0.4014
   25bbb    H18  777   7.054  -0.079   6.554 -1.8227 -0.1243 -1.4655
   25bbb     O1  778   7.033   0.447   7.008 -0.7102  0.4247  0.1913
   25bbb    H19  779   6.971   0.094   6.937 -0.0735  0.1449 -0.9708
   26bbb     N1  780   6.654   1.205   8.923 -0.7211 -0.3589  0.6371
   26bbb     C1  781   6.544   1.231   9.021  0.0429 -0.0953 -0.1069
   26bbb     H1  782   6.563   1.161   9.103 -0.8621 -1.1547 -0.7724
   26bbb     H2  783   6.455   1.198   8.968  1.1754  0.2235 -2.3156
   26bbb     C2  784   6.715   1.074   8.936  0.1488  0.1076  0.0108
   26bbb     H3  785   6.756   1.062   9.036  1.6440 -0.3673 -0.6230
   26bbb     H4  786   6.809   1.082   8.881 -0.1381  0.5889 -0.4139
   26bbb     C3  787   6.604   1.239   8.777 -0.0462  0.4914  0.2416
   26bbb     H5  788   6.575   1.344   8.769 -0.0210  0.4273 -0.9988
   26bbb     H6  789   6.520   1.177   8.743 -0.6468  0.2244  2.1137
   26bbb     C4  790   6.702   1.222   8.657 -0.0211  0.3588  0.4776
   26bbb     H7  791   6.732   1.118   8.642 -1.1340 -0.3738  2.8396
   26bbb     H8  792   6.788   1.288   8.671  1.1477 -1.1144  0.5208
   26bbb     C5  793   6.529   1.370   9.080 -0.3572 -0.0154 -0.0916
   26bbb     H9  794   6.517   1.431   8.990  1.4601  0.6326  0.0740
   26bbb    H10  795   6.616   1.395   9.141  1.2912 -2.7032 -1.1689
   26bbb     C6  796   6.630   0.948   8.905  0.5244 -0.3687 -0.5612
   26bbb    H11  797   6.562   0.967   8.821 -1.6729 -0.6425  1.0888
   26bbb    H12  798   6.567   0.917   8.989  1.7328  1.0339  0.9255
   26bbb     C7  799   6.630   1.254   8.521 -0.5139 -0.0658 -0.5107
   26bbb    H13  800   6.595   1.358   8.525  0.2604  0.1751  1.5176
   26bbb    H14  801   6.541   1.193   8.505  0.1929 -0.8461 -1.6167
   26bbb     C8  802   6.718   0.832   8.865 -0.2812  0.0832  0.7670
   26bbb    H15  803   6.652   0.780   8.795 -0.9735  1.6890  0.1702
   26bbb    H16  804   6.799   0.864   8.798 -0.7924 -0.2283 -0.0049
   26bbb     C9  805   6.398   1.393   9.162  0.4192 -0.2625  0.4013
   26bbb    H17  806   6.393   1.498   9.191  1.6244  0.7265 -2.5896
   26bbb    H18  807   6.399   1.330   9.251 -1.2386  0.0976  0.7017
   26bbb     O1  808   6.719   1.239   8.412 -0.3239  0.1394 -0.1211
   26bbb    H19  809   6.728   1.276   8.933 -1.4352  0.5351 -0.2625
   27bbb     N1  810   6.552   2.011   8.309 -0.1555 -0.0504  0.6773
   27bbb     C1  811   6.508   1.898   8.221  0.9996 -0.1386  0.1350
   27bbb     H1  812   6.480   1.816   8.286  0.5700  0.5121  0.7898
   27bbb     H2  813   6.591   1.865   8.158  0.8590  3.6540 -2.3938
   27bbb     C2  814   6.482   2.004   8.448 -0.2337 -0.0167 -0.3317
   27bbb     H3  815   6.377   2.035   8.443 -0.1004  0.3061 -1.5579
   27bbb     H4  816   6.536   2.086   8.497 -0.0126  0.8954 -2.0359
   27bbb     C3  817   6.706   2.004   8.322  0.2013  0.3600 -0.2688
   27bbb     H5  818   6.718   1.900   8.354  2.2867  0.6060 -0.0964
   27bbb     H6  819   6.737   2.072   8.402  0.9110  1.0953 -1.1499
   27bbb     C4  820   6.794   2.025   8.194 -0.3309  0.3591  0.0626
   27bbb     H7  821   6.805   2.130   8.163  1.4387 -0.1848 -1.3267
   27bbb     H8  822   6.732   1.988   8.112 -2.2877  3.7037 -0.1630
   27bbb     C5  823   6.383   1.934   8.139  0.4030 -0.6065  0.2106
   27bbb     H9  824   6.419   2.010   8.069  3.1485 -0.7051  1.3593
   27bbb    H10  825   6.309   1.977   8.208 -0.2278 -0.0009 -0.8189
   27bbb     C6  826   6.508   1.875   8.534 -0.1693  0.0379  0.2311
   27bbb    H11  827   6.615   1.880   8.557 -0.4387 -2.3431  2.4441
   27bbb    H12  828   6.482   1.784   8.478  1.1859 -1.0196  1.2493
   27bbb     C7  829   6.937   1.957   8.194  0.2056  0.3897 -0.4480
   27bbb    H13  830   6.994   1.996   8.280  0.9485 -1.4286 -0.0716
   27bbb    H14  831   6.998   1.999   8.113  0.0702 -1.3311 -1.4956
   27bbb     C8  832   6.419   1.897   8.652 -0.1011 -0.2094  0.0795
   27bbb    H15  833   6.455   1.985   8.707 -2.2446 -0.4012  1.9441
   27bbb    H16  834   6.422   1.820   8.730 -1.4261  0.3455  0.7175
   27bbb     C9  835   6.317   1.806   8.080 -0.2691  0.0089  0.0230
   27bbb    H17  836   6.399   1.746   8.039  0.1331 -2.1699  3.5776
   27bbb    H18  837   6.288   1.737   8.160  0.8387  0.2992  0.6882
   27bbb     O1  838   6.932   1.811   8.191  0.7567  0.3373  0.4256
   27bbb    H19  839   6.536   2.102   8.265 -2.7778  0.8604  3.2123
   28bbb     N1  840   8.002   0.694   9.773 -0.5763 -0.9220  0.1612
   28bbb     C1  841   7.870   0.654   9.820  0.0727 -0.3093 -0.4405
   28bbb     H1  842   7.821   0.617   9.730 -0.1191  2.8577 -1.7708
   28bbb     H2  843   7.822   0.742   9.861 -0.8568 -1.7685  1.7890
   28bbb     C2  844   8.085   0.597   9.694 -0.3898  0.1300  0.7768
   28bbb     H3  845   8.107   0.509   9.754 -1.1947 -1.3603 -0.9918
   28bbb     H4  846   8.181   0.640   9.665 -0.1880 -1.9216 -2.1326
   28bbb     C3  847   7.987   0.820   9.685  0.6895  0.3442 -0.0485
   28bbb     H5  848   7.930   0.899   9.733 -1.9210 -0.7976 -1.0765
   28bbb     H6  849   7.925   0.791   9.600  0.2366 -1.5584  0.8853
   28bbb     C4  850   8.112   0.883   9.622  0.0928 -0.5578 -0.5302
   28bbb     H7  851   8.169   0.826   9.548  1.9549  0.8616 -0.2789
   28bbb     H8  852   8.171   0.925   9.706 -0.7144  0.2392 -0.3489
   28bbb     C5  853   7.871   0.553   9.932 -0.3895 -0.3722 -0.4833
   28bbb     H9  854   7.960   0.572   9.994 -0.5962  0.9557 -0.5720
   28bbb    H10  855   7.875   0.456   9.881  2.6178 -0.4398 -0.2623
   28bbb     C6  856   8.024   0.553   9.553  0.1686  0.3511 -0.1892
   28bbb    H11  857   8.081   0.607   9.475  0.1032 -0.9456 -1.1639
   28bbb    H12  858   7.923   0.594   9.545 -0.2384 -0.9037 -2.1586
   28bbb     C7  859   8.071   1.016   9.554 -0.6959 -0.2594  0.0582
   28bbb    H13  860   8.170   1.056   9.530 -1.3269  1.1358 -0.3411
   28bbb    H14  861   8.027   1.078   9.633  0.6044 -0.3509  0.8951
   28bbb     C8  862   8.005   0.402   9.534  0.3408  0.5874 -0.4730
   28bbb    H15  863   7.929   0.366   9.605  1.3706 -0.9502 -0.0841
   28bbb    H16  864   7.960   0.376   9.437 -3.0942  0.3231  1.0604
   28bbb     C9  865   7.754   0.573  10.038 -0.2626  0.1534 -0.2513
   28bbb    H17  866   7.674   0.506  10.002  0.4869  0.1444 -2.0022
   28bbb    H18  867   7.711   0.673  10.048  0.5938  0.4476  0.5722
   28bbb     O1  868   7.991   1.003   9.435 -0.4229  0.4007 -0.1182
   28bbb    H19  869   8.059   0.721   9.854 -2.0092  3.1798 -0.0095
   29bbb     N1  870   8.608   1.253   9.006 -0.2055 -0.2889 -0.0140
   29bbb     C1  871   8.758   1.228   8.977  0.1941  0.2026 -0.8109
   29bbb     H1  872   8.765   1.172   8.884 -0.5235 -3.7637  1.2943
   29bbb     H2  873   8.786   1.155   9.054  2.1596  1.0108 -0.6918
   29bbb     C2  874   8.589   1.290   9.147  0.2857  0.2693 -0.1218
   29bbb     H3  875   8.630   1.390   9.156  0.0525  0.3802 -0.2895
   29bbb     H4  876   8.650   1.223   9.209 -0.2038 -0.5522 -0.5077
   29bbb     C3  877   8.554   1.356   8.907  0.2369  0.6159  0.4639
   29bbb     H5  878   8.620   1.441   8.894 -0.1237  1.0821  1.5198
   29bbb     H6  879   8.466   1.390   8.962 -0.6614  0.1298 -0.6370
   29bbb     C4  880   8.499   1.300   8.770  0.6555  0.0969  0.2190
   29bbb     H7  881   8.580   1.246   8.719 -0.6927 -1.4273 -0.3781
   29bbb     H8  882   8.474   1.381   8.701  2.4207  1.1243  0.7208
   29bbb     C5  883   8.854   1.354   8.980  0.6238  0.1285 -0.0000
   29bbb     H9  884   8.858   1.401   9.079  2.0590 -1.8532  0.9601
   29bbb    H10  885   8.833   1.434   8.908 -0.0573  0.1193  0.1851
   29bbb     C6  886   8.443   1.296   9.203 -0.4017  0.5943  0.0623
   29bbb    H11  887   8.399   1.197   9.183  0.0408  0.6450 -1.2447
   29bbb    H12  888   8.381   1.368   9.149 -0.8115 -0.6521 -1.2102
   29bbb     C7  889   8.392   1.199   8.793 -0.1951  0.0918  0.1354
   29bbb    H13  890   8.443   1.104   8.817  2.6468  1.4625 -0.0344
   29bbb    H14  891   8.345   1.184   8.695 -0.9152  0.8976  0.3437
   29bbb     C8  892   8.440   1.328   9.358  0.6062  0.0572 -0.1530
   29bbb    H15  893   8.339   1.316   9.397  0.3286  2.5922  0.0721
   29bbb    H16  894   8.506   1.266   9.420  0.2447 -0.5701 -0.3862
   29bbb     C9  895   8.999   1.313   8.955 -0.2494  0.3797  0.1116
   29bbb    H17  896   9.056   1.291   9.046  0.0392 -1.8727 -0.5576
   29bbb    H18  897   9.056   1.392   8.906  1.3959 -0.8954 -0.0976
   29bbb     O1  898   8.298   1.244   8.898  0.1254 -0.1019  0.3866
   29bbb    H19  899   8.550   1.170   8.991 -0.7972  0.2661 -0.8880
   30bbb     N1  900   8.258   0.563   5.385  0.5554 -0.3667  0.1312
   30bbb     C1  901   8.155   0.464   5.372 -0.7986  0.3748 -0.1027
   30bbb     H1  902   8.201   0.375   5.329 -1.9189 -0.8806  1.1790
   30bbb     H2  903   8.081   0.503   5.302 -0.3843  2.5549  0.6136
   30bbb     C2  904   8.306   0.609   5.246  0.1588  0.1842 -0.3994
   30bbb     H3  905   8.326   0.716   5.256 -0.7771  0.4287 -1.0368
   30bbb     H4  906   8.216   0.604   5.184  0.0445 -0.8471 -0.1621
   30bbb     C3  907   8.209   0.681   5.473 -0.0669 -0.2855 -0.0582
   30bbb     H5  908   8.148   0.646   5.556 -1.9644  2.0426 -0.3685
   30bbb     H6  909   8.142   0.740   5.410  1.0548 -1.3232 -2.3731
   30bbb     C4  910   8.315   0.782   5.530 -0.0568  0.0054 -0.1438
   30bbb     H7  911   8.257   0.853   5.591 -1.3227 -0.1214 -1.1364
   30bbb     H8  912   8.358   0.840   5.448  0.1879  0.1326  0.0745
   30bbb     C5  913   8.083   0.413   5.501 -0.3509  0.4258 -0.9374
   30bbb     H9  914   8.040   0.314   5.483  1.2998 -0.6040  0.3967
   30bbb    H10  915   8.003   0.484   5.525 -0.8651  0.2209 -2.0192
   30bbb     C6  916   8.431   0.543   5.187 -0.0849  0.2072 -0.0466
   30bbb    H11  917   8.500   0.529   5.271  0.1479  0.9717 -0.1060
   30bbb    H12  918   8.483   0.615   5.124  0.4863  1.3065  1.6206
   30bbb     C7  919   8.427   0.720   5.611  0.0933  0.3067 -0.0194
   30bbb    H13  920   8.371   0.683   5.698  1.9131 -2.9828 -0.0557
   30bbb    H14  921   8.499   0.796   5.640 -0.2069  0.1488  1.2102
   30bbb     C8  922   8.391   0.412   5.121 -0.4354 -1.0836 -0.3588
   30bbb    H15  923   8.289   0.418   5.081 -1.6674 -1.2465  2.5194
   30bbb    H16  924   8.452   0.381   5.035 -0.1986  2.1769 -1.5276
   30bbb     C9  925   8.178   0.388   5.627  0.4581 -0.3901 -0.2696
   30bbb    H17  926   8.107   0.361   5.705 -1.1604  2.9619 -0.4018
   30bbb    H18  927   8.221   0.479   5.671 -2.4123  0.7099  0.4639
   30bbb     O1  928   8.488   0.605   5.547 -0.5178  0.4141  0.4825
   30bbb    H19  929   8.340   0.528   5.437  0.7668  1.2144  0.9196
   31bbb     N1  930   8.795   1.309   4.974  0.4826  0.5477  0.0304
   31bbb     C1  931   8.765   1.441   4.902 -0.2678 -0.2276  0.6795
   31bbb     H1  932   8.850   1.458   4.836  1.1365  0.5167  2.5881
   31bbb     H2  933   8.767   1.515   4.982  1.0196 -0.4331  0.8575
   31bbb     C2  934   8.940   1.310   5.017 -0.5141 -0.8370 -0.9920
   31bbb     H3  935   9.001   1.325   4.929  0.6390 -1.1981 -0.2736
   31bbb     H4  936   8.967   1.212   5.056  0.4685 -0.4038 -0.5704
   31bbb     C3  937   8.702   1.294   5.097 -0.2661 -0.3367  0.6004
   31bbb     H5  938   8.607   1.337   5.067  0.4278 -0.0432 -1.3312
   31bbb     H6  939   8.740   1.359   5.175 -0.7080  0.3880  0.2237
   31bbb     C4  940   8.672   1.148   5.153 -0.3906  0.0975 -0.2123
   31bbb     H7  941   8.631   1.079   5.079 -0.0876 -0.9226  0.5473
   31bbb     H8  942   8.605   1.167   5.238  0.0736 -1.4076  0.5131
   31bbb     C5  943   8.631   1.459   4.824 -0.4929 -0.8310 -0.5410
   31bbb     H9  944   8.616   1.560   4.784  1.2961 -1.0973 -2.0443
   31bbb    H10  945   8.548   1.449   4.895  0.0197  2.3794  0.6936
   31bbb     C6  946   8.991   1.409   5.129  0.5934  0.0823 -0.4722
   31bbb    H11  947   8.943   1.373   5.221  0.8651 -2.0322 -1.1086
   31bbb    H12  948   8.946   1.508   5.110 -0.0048  0.0177  0.5292
   31bbb     C7  949   8.800   1.076   5.212 -0.5597  0.3740 -0.8426
   31bbb    H13  950   8.761   0.990   5.268 -1.1454  0.4849 -1.0725
   31bbb    H14  951   8.854   1.146   5.277  2.7617 -1.7081 -1.1374
   31bbb     C8  952   9.140   1.417   5.160 -0.1253 -0.3877 -0.0321
   31bbb    H15  953   9.175   1.335   5.225 -2.1868 -1.2939  0.0072
   31bbb    H16  954   9.201   1.401   5.070 -0.9099  0.3024 -0.7004
   31bbb     C9  955   8.618   1.361   4.702 -0.3120 -0.5557 -0.1188
   31bbb    H17  956   8.702   1.370   4.633 -0.6073 -0.5883 -0.4863
   31bbb    H18  957   8.523   1.375   4.650 -1.8929  0.0078  2.6994
   31bbb     O1  958   8.879   1.023   5.110 -0.0210  0.4965 -0.4970
   31bbb    H19  959   8.777   1.226   4.916 -1.5941  1.3848 -0.6071
   32bbb     N1  960   9.795   1.652   6.048 -1.1004 -0.5584  0.0508
   32bbb     C1  961   9.883   1.695   5.935 -0.4665 -0.5056  0.2646
   32bbb     H1  962   9.841   1.666   5.839 -1.5110 -3.0861  1.3915
   32bbb     H2  963   9.972   1.633   5.946  0.8760  1.0616 -1.2480
   32bbb     C2  964   9.866   1.675   6.179  0.3491  0.3280 -0.2189
   32bbb     H3  965   9.879   1.783   6.183  1.1912  0.2192  0.4245
   32bbb     H4  966   9.965   1.629   6.178 -0.6703 -1.9917 -0.6666
   32bbb     C3  967   9.664   1.731   6.056  0.7398  0.3395  0.0184
   32bbb     H5  968   9.676   1.839   6.067 -2.7353  0.5489  3.8407
   32bbb     H6  969   9.611   1.690   6.141 -0.2535  1.0680 -0.2379
   32bbb     C4  970   9.562   1.722   5.944  0.1447  0.1858  0.7772
   32bbb     H7  971   9.546   1.618   5.914 -1.4728  0.7268 -0.4477
   32bbb     H8  972   9.606   1.759   5.850  1.3474 -1.9570  0.4370
   32bbb     C5  973   9.926   1.845   5.913  0.3973  0.4997 -0.0420
   32bbb     H9  974   9.980   1.879   6.002 -1.2706 -1.6568  1.9053
   32bbb    H10  975   9.831   1.899   5.922 -0.4813 -1.1506  1.0707
   32bbb     C6  976   9.804   1.625   6.314 -0.3149 -0.8797  0.5333
   32bbb    H11  977   9.710   1.682   6.323 -0.1088  0.1862 -2.6787
   32bbb    H12  978   9.871   1.646   6.398  0.4997  0.5678 -0.4359
   32bbb     C7  979   9.436   1.795   5.972  0.2547  0.3170 -0.1324
   32bbb    H13  980   9.381   1.788   5.877  0.3885 -1.1548 -0.1206
   32bbb    H14  981   9.433   1.899   6.007 -2.2568 -0.2738  1.7568
   32bbb     C8  982   9.757   1.478   6.318 -0.3889 -0.0813 -0.1089
   32bbb    H15  983   9.715   1.471   6.419  0.1440 -0.0268  0.1204
   32bbb    H16  984   9.683   1.457   6.240 -1.0190  1.5194  0.0086
   32bbb     C9  985  10.006   1.871   5.787 -0.5904  0.2884 -0.8605
   32bbb    H17  986  10.055   1.775   5.767  1.1946  0.8863  0.4324
   32bbb    H18  987  10.070   1.958   5.807 -1.0582  0.1715  1.5153
   32bbb     O1  988   9.358   1.724   6.075 -0.4524  0.4620  0.3165
   32bbb    H19  989   9.776   1.551   6.041  2.1204 -1.4960  2.1980
   33bbb     N1  990   8.607   1.760   6.015 -0.0701 -0.2800 -0.0024
   33bbb     C1  991   8.671   1.860   6.105 -0.1682  0.5833 -0.2571
   33bbb     H1  992   8.765   1.876   6.052  0.3341  0.8472  0.6828
   33bbb     H2  993   8.704   1.799   6.190  1.1440  0.4391 -0.8439
   33bbb     C2  994   8.647   1.799   5.874 -0.5268 -0.1121  0.3575
   33bbb     H3  995   8.755   1.795   5.861 -0.6814 -1.4663 -0.7199
   33bbb     H4  996   8.629   1.904   5.852 -0.0762  0.5341  2.7394
   33bbb     C3  997   8.655   1.612   6.054  0.0056 -0.6872 -0.0338
   33bbb     H5  998   8.764   1.617   6.052 -0.0311 -0.0704 -1.0550
   33bbb     H6  999   8.615   1.544   5.980 -1.0077  0.3119 -0.4433
   33bbb     C4 1000   8.597   1.564   6.185  0.1663 -0.1322  0.5441
   33bbb     H7 1001   8.489   1.550   6.170 -0.2418  3.6744 -1.5005
   33bbb     H8 1002   8.601   1.648   6.256 -0.1608 -0.0846  0.5080
   33bbb     C5 1003   8.601   1.978   6.159  0.0227  0.4868 -0.2316
   33bbb     H9 1004   8.659   2.026   6.239  0.6089  1.7319 -1.3663
   33bbb    H10 1005   8.514   1.930   6.206  0.3166  0.4924  0.3275
   33bbb     C6 1006   8.588   1.701   5.765 -0.3672  0.1207  0.4294
   33bbb    H11 1007   8.479   1.692   5.774 -0.4501 -0.4207 -0.9419
   33bbb    H12 1008   8.625   1.601   5.793 -1.2718 -0.1611  0.6536
   33bbb     C7 1009   8.664   1.439   6.242  0.1032 -0.0795 -0.8190
   33bbb    H13 1010   8.657   1.360   6.167  1.9915 -1.0346 -0.0615
   33bbb    H14 1011   8.605   1.399   6.325 -0.6569  1.0490 -0.7933
   33bbb     C8 1012   8.634   1.736   5.620  0.7722  0.9604  0.1693
   33bbb    H15 1013   8.740   1.713   5.600  0.4699  0.0907 -0.4841
   33bbb    H16 1014   8.577   1.675   5.549  0.7366  0.9863  0.1755
   33bbb     C9 1015   8.541   2.078   6.061  0.3810 -0.4108 -0.2266
   33bbb    H17 1016   8.538   2.175   6.111  2.0058 -0.1013 -0.6760
   33bbb    H18 1017   8.438   2.047   6.039  0.0730  0.0135  0.5898
   33bbb     O1 1018   8.803   1.460   6.268  0.7269 -0.3985  0.1359
   33bbb    H19 1019   8.505   1.774   6.024  0.2043  2.8449 -0.6985
   34bbb     N1 1020  10.367   0.658   7.352  0.1832  1.1694 -0.4137
   34bbb     C1 1021  10.288   0.765   7.422  0.5501 -0.0192  0.4268
   34bbb     H1 1022  10.192   0.778   7.371  1.7357  2.0815 -1.4594
   34bbb     H2 1023  10.341   0.854   7.386  0.2025 -0.7738 -2.1817
   34bbb     C2 1024  10.304   0.519   7.363 -0.2174 -0.6432  0.1086
   34bbb     H3 1025  10.216   0.520   7.299  0.7425  1.7506 -1.2911
   34bbb     H4 1026  10.265   0.512   7.465  0.0183  0.8962  0.3180
   34bbb     C3 1027  10.379   0.698   7.208  0.1867 -0.3757 -0.2021
   34bbb     H5 1028  10.425   0.609   7.165  1.0527  0.0141 -0.0887
   34bbb     H6 1029  10.443   0.785   7.195 -0.0323  0.1539  1.9123
   34bbb     C4 1030  10.250   0.723   7.122 -0.8122 -0.8864 -0.0385
   34bbb     H7 1031  10.208   0.817   7.158 -0.3639 -1.2915  1.5940
   34bbb     H8 1032  10.172   0.650   7.147 -2.8598  1.8961  2.3588
   34bbb     C5 1033  10.281   0.765   7.577 -0.3171  0.0464 -0.1936
   34bbb     H9 1034  10.199   0.705   7.617 -0.9191  1.5515  0.9428
   34bbb    H10 1035  10.227   0.859   7.591 -2.6344 -1.0518 -1.3249
   34bbb     C6 1036  10.409   0.413   7.323  0.0111 -0.3592  0.1091
   34bbb    H11 1037  10.510   0.424   7.366 -0.3464 -0.3815  0.9564
   34bbb    H12 1038  10.416   0.416   7.213 -0.1556 -0.8361  0.0849
   34bbb     C7 1039  10.268   0.738   6.971 -0.2789 -0.7822 -0.3161
   34bbb    H13 1040  10.339   0.819   6.948  0.0842 -0.9199  0.2755
   34bbb    H14 1041  10.175   0.765   6.920 -0.0797  0.0104 -0.2738
   34bbb     C8 1042  10.356   0.272   7.343  0.1324 -0.4562 -0.0222
   34bbb    H15 1043  10.248   0.282   7.323 -0.4317 -1.2990  2.2834
   34bbb    H16 1044  10.400   0.191   7.284  1.2116  0.6984 -0.8612
   34bbb     C9 1045  10.411   0.758   7.652  0.0727  0.2283  0.1564
   34bbb    H17 1046  10.394   0.794   7.754 -1.3311  1.0265 -0.3248
   34bbb    H18 1047  10.490   0.816   7.602 -0.3081 -0.1856 -0.9480
   34bbb     O1 1048  10.321   0.611   6.914 -0.0887 -0.3765  0.7361
   34bbb    H19 1049  10.459   0.650   7.397 -0.6624  0.2559  1.2162
   35bbb     N1 1050  10.989  -0.003   7.421 -0.1467 -0.2210  0.4949
   35bbb     C1 1051  10.951  -0.148   7.421  0.0762  0.6755 -0.7612
   35bbb     H1 1052  10.920  -0.177   7.522  1.8942 -0.0651 -0.3949
   35bbb     H2 1053  11.049  -0.193   7.407  1.4419  2.7112  1.5327
   35bbb     C2 1054  11.084   0.019   7.531 -0.6847 -0.0065  0.0133
   35bbb     H3 1055  11.188   0.005   7.503  0.1763 -0.4206  3.0508
   35bbb     H4 1056  11.063  -0.054   7.609  1.5604 -0.8029 -0.0585
   35bbb     C3 1057  11.039   0.054   7.285  0.5666 -0.4824 -0.0116
   35bbb     H5 1058  10.955   0.049   7.214  0.0449  2.2127  0.3027
   35bbb     H6 1059  11.119  -0.003   7.238  1.0440  0.1878 -0.0146
   35bbb     C4 1060  11.082   0.206   7.284  0.6473  0.2335 -0.2617
   35bbb     H7 1061  11.174   0.217   7.343 -0.2524 -0.6158  1.3888
   35bbb     H8 1062  11.005   0.260   7.341  0.4939 -0.3594  0.1030
   35bbb     C5 1063  10.846  -0.192   7.321  0.6404  0.9982 -0.0918
   35bbb     H9 1064  10.866  -0.163   7.217  2.6275 -2.2081 -0.7162
   35bbb    H10 1065  10.754  -0.145   7.359  0.7018  0.9510  0.1183
   35bbb     C6 1066  11.064   0.151   7.611  0.5505 -0.2457 -0.7375
   35bbb    H11 1067  10.955   0.160   7.622  0.7809 -0.3699  3.8924
   35bbb    H12 1068  11.109   0.236   7.558  1.9907  1.4485  2.8055
   35bbb     C7 1069  11.085   0.259   7.133  0.5790  0.1805 -0.9539
   35bbb    H13 1070  11.155   0.191   7.084 -0.0788  0.0640 -1.7510
   35bbb    H14 1071  11.117   0.363   7.123  1.1381  0.1752  0.4748
   35bbb     C8 1072  11.131   0.137   7.747 -0.3109  0.5106  0.2074
   35bbb    H15 1073  11.124   0.225   7.812  2.0156  0.6741  0.3264
   35bbb    H16 1074  11.089   0.048   7.796 -0.5553 -0.0459 -0.9781
   35bbb     C9 1075  10.829  -0.341   7.326 -0.2923 -0.0151 -0.4787
   35bbb    H17 1076  10.922  -0.388   7.291  1.1676  1.1633  1.5863
   35bbb    H18 1077  10.745  -0.362   7.258 -1.4576  0.3604  0.8022
   35bbb     O1 1078  10.952   0.254   7.081  0.2237  0.0910 -0.0776
   35bbb    H19 1079  10.904   0.045   7.454  0.7918  1.9895 -0.0654
   36bbb     N1 1080  10.275  -0.509   5.680 -0.2080  0.3248 -0.7310
   36bbb     C1 1081  10.288  -0.562   5.541  0.3351  0.5314  0.5768
   36bbb     H1 1082  10.297  -0.475   5.476 -0.7597  1.7199  1.9342
   36bbb     H2 1083  10.191  -0.606   5.518  1.0197  0.0612 -1.6164
   36bbb     C2 1084  10.244  -0.629   5.771 -0.3004 -0.0051 -0.4415
   36bbb     H3 1085  10.247  -0.588   5.872  2.2561  0.6355 -0.7118
   36bbb     H4 1086  10.315  -0.709   5.754 -0.4073 -0.5065  1.2957
   36bbb     C3 1087  10.408  -0.455   5.728  0.5558  0.0464  0.7837
   36bbb     H5 1088  10.442  -0.398   5.641 -0.8613  0.5144  0.5014
   36bbb     H6 1089  10.492  -0.524   5.738  0.5334 -0.0285  0.4463
   36bbb     C4 1090  10.412  -0.363   5.851 -0.6274  0.1284 -0.0515
   36bbb     H7 1091  10.373  -0.419   5.937 -0.1119  1.0453  0.7971
   36bbb     H8 1092  10.342  -0.280   5.834  1.1441  2.3926  2.7423
   36bbb     C5 1093  10.408  -0.650   5.511 -0.0791 -0.3268 -0.1191
   36bbb     H9 1094  10.402  -0.743   5.569  0.5198 -0.2226  0.1235
   36bbb    H10 1095  10.501  -0.603   5.546  1.1688 -2.0725 -0.9573
   36bbb     C6 1096  10.109  -0.685   5.742  0.2191  0.3884  0.3013
   36bbb    H11 1097  10.120  -0.752   5.656 -0.0359 -0.7827  1.1622
   36bbb    H12 1098  10.036  -0.605   5.728  0.2332  0.2248 -0.8036
   36bbb     C7 1099  10.556  -0.318   5.877 -0.4780 -0.5942 -0.2118
   36bbb    H13 1100  10.618  -0.406   5.855 -1.2216 -1.2428  0.2564
   36bbb    H14 1101  10.574  -0.299   5.984  0.7744 -0.5086 -0.4218
   36bbb     C8 1102  10.059  -0.762   5.864  0.0773  0.0575  0.1357
   36bbb    H15 1103  10.018  -0.700   5.944 -2.2211 -0.9238 -0.1803
   36bbb    H16 1104   9.969  -0.806   5.819 -0.2210  1.1124 -0.3188
   36bbb     C9 1105  10.422  -0.677   5.359  0.4997  0.1758  0.4939
   36bbb    H17 1106  10.522  -0.719   5.346  0.0580 -0.9125  0.4830
   36bbb    H18 1107  10.426  -0.579   5.310  0.8227 -0.1897 -0.2184
   36bbb     O1 1108  10.591  -0.207   5.793  0.1840 -0.4993  0.0417
   36bbb    H19 1109  10.200  -0.439   5.681  2.4278  3.3905  1.0248
   37bbb     N1 1110  10.794  -0.115   5.023  0.4752  0.0386 -0.6046
   37bbb     C1 1111  10.752  -0.259   5.065 -0.8154  0.1776 -0.0128
   37bbb     H1 1112  10.681  -0.281   4.984  1.7705  1.5621 -2.8369
   37bbb     H2 1113  10.696  -0.248   5.158 -0.2460 -0.3967  0.4052
   37bbb     C2 1114  10.796  -0.091   4.873 -0.1804 -0.0021  0.1340
   37bbb     H3 1115  10.695  -0.090   4.831  0.3613  1.3133 -1.2102
   37bbb     H4 1116  10.847  -0.178   4.832  0.3587  0.0896  0.6062
   37bbb     C3 1117  10.687  -0.022   5.086 -1.1184  1.1169 -0.8149
   37bbb     H5 1118  10.730   0.076   5.065  0.4148  1.7785  4.1178
   37bbb     H6 1119  10.701  -0.041   5.193  1.1006  0.6042 -1.1433
   37bbb     C4 1120  10.539  -0.027   5.053  0.3662 -0.4642 -0.1777
   37bbb     H7 1121  10.481  -0.116   5.082 -1.9295  1.9231  3.3720
   37bbb     H8 1122  10.524  -0.015   4.945 -0.7501  0.5656  0.0620
   37bbb     C5 1123  10.867  -0.366   5.076  0.3322 -0.6337 -0.3022
   37bbb     H9 1124  10.831  -0.449   5.138  0.8683  0.1374  1.0651
   37bbb    H10 1125  10.945  -0.330   5.142  1.4529 -0.8397 -1.4741
   37bbb     C6 1126  10.874   0.035   4.837 -0.2186  0.1188 -0.1055
   37bbb    H11 1127  10.849   0.120   4.902  3.2243  1.6051 -0.5512
   37bbb    H12 1128  10.849   0.066   4.735  1.4356 -0.5292 -0.7362
   37bbb     C7 1129  10.461   0.092   5.118  0.2504 -0.3139 -0.1875
   37bbb    H13 1130  10.357   0.107   5.086 -0.1591  0.8027  1.4902
   37bbb    H14 1131  10.515   0.186   5.101 -1.7553  1.1996  1.3727
   37bbb     C8 1132  11.027   0.010   4.841 -0.5847  0.0142  0.0890
   37bbb    H15 1133  11.059  -0.064   4.766  1.5230  0.7291  0.2060
   37bbb    H16 1134  11.083   0.103   4.827 -0.7491  0.2657  1.0402
   37bbb     C9 1135  10.930  -0.418   4.939 -0.4739  0.0920  0.0185
   37bbb    H17 1136  10.989  -0.510   4.949  1.7806  1.6025  1.5554
   37bbb    H18 1137  10.994  -0.337   4.903  0.9911  0.5176  3.2385
   37bbb     O1 1138  10.462   0.066   5.264  0.0075 -0.3177 -0.9871
   37bbb    H19 1139  10.887  -0.102   5.066 -0.5611  0.2898  1.7044
   38bbb     N1 1140   9.166   4.182   7.388 -0.0314 -0.4538  0.1072
   38bbb     C1 1141   9.105   4.301   7.310  0.4731 -0.3489  0.6153
   38bbb     H1 1142   9.044   4.355   7.383 -0.6121  0.6521 -0.9667
   38bbb     H2 1143   9.041   4.271   7.227  1.3737 -0.7192  0.0436
   38bbb     C2 1144   9.058   4.099   7.450  0.5832  0.3181 -0.0227
   38bbb     H3 1145   9.111   4.024   7.509 -0.4065 -1.5853 -1.4584
   38bbb     H4 1146   9.004   4.038   7.377  0.7791 -0.1893  0.2486
   38bbb     C3 1147   9.248   4.088   7.294 -0.0259 -0.7749  0.0582
   38bbb     H5 1148   9.274   3.997   7.349 -2.1244 -0.7183  1.2169
   38bbb     H6 1149   9.344   4.137   7.274  0.3232 -1.2356  0.5651
   38bbb     C4 1150   9.173   4.039   7.161  0.1797 -0.2236  0.7737
   38bbb     H7 1151   9.138   4.123   7.099  1.2011  1.5114  2.4556
   38bbb     H8 1152   9.089   3.971   7.176  0.1573 -0.3774 -0.0201
   38bbb     C5 1153   9.206   4.405   7.258 -0.1900  0.4099  0.8581
   38bbb     H9 1154   9.265   4.372   7.171 -1.8895 -1.1898  0.2530
   38bbb    H10 1155   9.265   4.444   7.342  0.5314  0.1067  0.5018
   38bbb     C6 1156   8.944   4.170   7.542  1.0642 -0.0990 -0.1370
   38bbb    H11 1157   8.880   4.091   7.583 -0.9059  1.6944  0.4365
   38bbb    H12 1158   8.880   4.238   7.485  1.2447 -0.9695 -1.4136
   38bbb     C7 1159   9.271   3.948   7.077  0.3112  0.8034 -0.2876
   38bbb    H13 1160   9.359   4.009   7.054  0.6680 -0.1453 -1.5361
   38bbb    H14 1161   9.223   3.916   6.984 -0.1124 -1.3496  0.5887
   38bbb     C8 1162   8.988   4.258   7.667 -0.8100 -0.7187 -0.5287
   38bbb    H15 1163   8.900   4.302   7.716  0.0301 -0.7684  1.0668
   38bbb    H16 1164   9.033   4.195   7.744 -0.4262 -0.5587 -0.6242
   38bbb     C9 1165   9.136   4.533   7.198 -0.0605 -0.3041  0.1924
   38bbb    H17 1166   9.066   4.506   7.119 -0.0109  2.4513 -0.8930
   38bbb    H18 1167   9.210   4.593   7.144 -1.2671  1.1659  0.1044
   38bbb     O1 1168   9.302   3.840   7.169 -0.0595  0.1133  0.2888
   38bbb    H19 1169   9.227   4.225   7.459 -1.5468  0.3724  0.9776
   39bbb     N1 1170   9.928   3.047   7.005  0.1002  0.5496 -0.2200
   39bbb     C1 1171  10.010   3.176   6.975  0.0607 -0.0166 -0.7514
   39bbb     H1 1172  10.074   3.156   6.889 -0.5822 -1.1690 -0.9751
   39bbb     H2 1173  10.076   3.179   7.062  0.8230  1.1823 -1.3475
   39bbb     C2 1174   9.939   2.971   6.879  0.5671  0.3667  0.0224
   39bbb     H3 1175  10.042   2.938   6.863  0.8587  1.8543 -1.5336
   39bbb     H4 1176   9.913   3.038   6.796 -0.5560  0.2238  0.2479
   39bbb     C3 1177   9.996   2.969   7.119 -1.3700 -0.0817 -0.7004
   39bbb     H5 1178  10.103   2.961   7.101  0.4315  3.1224  5.6172
   39bbb     H6 1179   9.952   2.869   7.109 -1.0620 -0.1356 -1.5346
   39bbb     C4 1180   9.967   3.032   7.262 -0.1526  0.4721  0.1873
   39bbb     H7 1181   9.999   3.136   7.276  0.3400  0.2035  1.1264
   39bbb     H8 1182  10.025   2.979   7.339  2.3043  2.6771 -0.0070
   39bbb     C5 1183   9.930   3.311   6.969  0.7008  0.0572 -0.0927
   39bbb     H9 1184  10.002   3.392   6.986  0.2330  0.3275  0.6660
   39bbb    H10 1185   9.857   3.316   7.051 -0.8026  0.5812 -1.3946
   39bbb     C6 1186   9.853   2.847   6.865 -0.5251 -0.5396  0.5010
   39bbb    H11 1187   9.746   2.872   6.871 -0.1560  1.1614  0.4241
   39bbb    H12 1188   9.870   2.769   6.939 -1.0623 -1.9613 -0.8246
   39bbb     C7 1189   9.817   3.024   7.311 -0.3779 -0.1078 -0.2387
   39bbb    H13 1190   9.805   3.062   7.413 -4.4049  1.0022 -0.9590
   39bbb    H14 1191   9.780   2.921   7.318  0.5619 -0.3665  1.6181
   39bbb     C8 1192   9.866   2.770   6.730 -0.0786 -0.7842  0.1539
   39bbb    H15 1193   9.949   2.699   6.740  1.7189  1.3323  1.1777
   39bbb    H16 1194   9.770   2.721   6.706  0.5089 -3.3500  2.5220
   39bbb     C9 1195   9.853   3.323   6.837 -0.1369  0.0954 -0.2334
   39bbb    H17 1196   9.921   3.313   6.752  0.4648 -1.0928  0.3520
   39bbb    H18 1197   9.811   3.424   6.837 -0.4382 -0.0312 -0.2092
   39bbb     O1 1198   9.734   3.088   7.212  0.0572 -0.1577  0.5135
   39bbb    H19 1199   9.833   3.068   7.040  0.8460 -1.2357  3.4318
   40bbb     N1 1200   8.106   3.418   6.992  0.0857  0.2620 -0.1742
   40bbb     C1 1201   8.000   3.320   6.948  0.8046  0.2418  0.7012
   40bbb     H1 1202   7.901   3.364   6.951  0.4876 -0.2805 -0.9842
   40bbb     H2 1203   8.000   3.229   7.009 -3.1996 -0.5753 -0.2517
   40bbb     C2 1204   8.077   3.478   7.128  0.0282 -0.6953 -1.0972
   40bbb     H3 1205   8.168   3.522   7.167 -0.0970 -0.5985 -0.9151
   40bbb     H4 1206   8.047   3.398   7.196 -1.5774 -0.1704 -1.1312
   40bbb     C3 1207   8.244   3.346   6.993 -0.4057  0.0825 -0.4643
   40bbb     H5 1208   8.244   3.318   6.888 -0.5818 -2.5007  0.1656
   40bbb     H6 1209   8.237   3.253   7.049 -0.0292 -0.0544 -0.6356
   40bbb     C4 1210   8.369   3.439   7.021 -0.2721  0.6510  0.0120
   40bbb     H7 1211   8.344   3.506   7.103 -1.7088 -0.2732  0.3636
   40bbb     H8 1212   8.382   3.497   6.929 -0.1270 -1.6762 -1.5286
   40bbb     C5 1213   7.996   3.283   6.803 -0.0095  1.0574  0.3669
   40bbb     H9 1214   8.097   3.256   6.768 -0.7404 -1.3896 -0.0765
   40bbb    H10 1215   7.974   3.367   6.736  0.5270 -0.2402 -1.5333
   40bbb     C6 1216   7.970   3.588   7.128  0.3517 -0.2263  0.4197
   40bbb    H11 1217   7.872   3.544   7.107  1.2776 -2.1023 -0.2583
   40bbb    H12 1218   7.994   3.662   7.050 -2.2925  0.6921  0.3736
   40bbb     C7 1219   8.495   3.363   7.059 -0.0359  0.4630  0.2426
   40bbb    H13 1220   8.452   3.290   7.129 -0.3904  0.4298 -0.0076
   40bbb    H14 1221   8.564   3.438   7.099 -0.2845  1.9849 -1.9734
   40bbb     C8 1222   7.972   3.669   7.256 -0.3679  0.7430 -0.3151
   40bbb    H15 1223   8.075   3.700   7.278  0.3024 -1.5460  0.0589
   40bbb    H16 1224   7.901   3.752   7.267  1.1585  1.9926  0.6377
   40bbb     C9 1225   7.904   3.163   6.773  0.0657  1.0104 -0.6400
   40bbb    H17 1226   7.923   3.134   6.669 -0.4802 -1.6700 -0.0770
   40bbb    H18 1227   7.800   3.186   6.798 -0.2376 -2.1125  1.6799
   40bbb     O1 1228   8.546   3.306   6.940  0.0963 -0.1179 -0.2631
   40bbb    H19 1229   8.103   3.502   6.932 -2.1398  0.4762  0.1355
   41bbb     N1 1230   8.426   2.698   6.355  0.1225  0.0285  0.0051
   41bbb     C1 1231   8.369   2.604   6.254 -0.0686 -0.1530 -0.3799
   41bbb     H1 1232   8.441   2.602   6.172  0.5942  1.2926  0.1351
   41bbb     H2 1233   8.280   2.653   6.215  0.2246  1.6574  1.0810
   41bbb     C2 1234   8.561   2.642   6.403 -0.2346  0.6240  0.0556
   41bbb     H3 1235   8.645   2.659   6.336 -0.1140  0.2650  0.1137
   41bbb     H4 1236   8.547   2.533   6.404  2.0877  0.2628 -0.5380
   41bbb     C3 1237   8.445   2.841   6.297  0.1029  0.0991 -0.4764
   41bbb     H5 1238   8.486   2.902   6.378 -0.3519 -1.1855  0.7802
   41bbb     H6 1239   8.344   2.880   6.288  0.1703  1.3737  2.7657
   41bbb     C4 1240   8.526   2.868   6.167 -0.4606 -0.0770  0.1420
   41bbb     H7 1241   8.472   2.821   6.084 -0.6467  0.2723  0.0630
   41bbb     H8 1242   8.613   2.802   6.159 -0.9444 -0.4635 -3.4814
   41bbb     C5 1243   8.338   2.456   6.292 -0.2732  0.7244  0.2621
   41bbb     H9 1244   8.283   2.448   6.387 -1.3117 -0.6719 -0.4290
   41bbb    H10 1245   8.434   2.403   6.298 -0.2661  0.6016 -0.8542
   41bbb     C6 1246   8.605   2.683   6.549 -0.0411 -0.3249 -0.0515
   41bbb    H11 1247   8.646   2.785   6.560 -0.5081 -0.3069  1.8934
   41bbb    H12 1248   8.682   2.614   6.584 -0.5214  0.1408  2.0934
   41bbb     C7 1249   8.550   3.016   6.133  0.3287  0.4751  0.8361
   41bbb    H13 1250   8.466   3.072   6.174 -1.1468 -0.6641 -0.5044
   41bbb    H14 1251   8.544   3.024   6.024 -0.5206  1.1814  0.9243
   41bbb     C8 1252   8.480   2.663   6.636 -0.7128  0.1496 -0.5291
   41bbb    H15 1253   8.501   2.688   6.741 -1.0329  0.1159 -0.4573
   41bbb    H16 1254   8.402   2.737   6.614  0.1238  1.7863  1.6244
   41bbb     C9 1255   8.255   2.390   6.187 -0.3944 -0.3820 -0.3764
   41bbb    H17 1256   8.157   2.437   6.172 -0.4225  0.6057  2.2978
   41bbb    H18 1257   8.228   2.288   6.217  1.3163 -0.1595  2.2296
   41bbb     O1 1258   8.680   3.068   6.183 -0.1108 -0.1901  0.3836
   41bbb    H19 1259   8.352   2.706   6.426 -1.5251  0.5758 -1.7007
   42bbb     N1 1260  11.069   3.234   8.016  0.4208 -0.3373  0.1349
   42bbb     C1 1261  11.190   3.325   8.038 -0.5082  0.2069 -0.5685
   42bbb     H1 1262  11.166   3.400   8.114 -0.3619  2.0271 -2.2178
   42bbb     H2 1263  11.208   3.375   7.942 -0.3411 -0.1355 -0.7141
   42bbb     C2 1264  10.940   3.312   7.984  0.9257 -0.1342 -0.0057
   42bbb     H3 1265  10.858   3.240   7.999  2.8091 -2.0909  1.5201
   42bbb     H4 1266  10.949   3.343   7.880 -0.3034 -0.5343 -0.2537
   42bbb     C3 1267  11.081   3.141   7.903 -0.7550 -0.0918  0.1971
   42bbb     H5 1268  11.159   3.190   7.844 -1.2616  1.3314  0.6844
   42bbb     H6 1269  10.988   3.145   7.846  0.0408  0.7840 -1.1069
   42bbb     C4 1270  11.105   2.993   7.952  0.1078  0.3461  0.8218
   42bbb     H7 1271  11.167   3.007   8.042 -1.5549  2.0947  1.7629
   42bbb     H8 1272  11.153   2.940   7.869 -0.7787 -1.3101  1.3190
   42bbb     C5 1273  11.318   3.248   8.084 -0.9078  0.2105  0.5738
   42bbb     H9 1274  11.322   3.151   8.033  1.3434  0.8899 -0.6340
   42bbb    H10 1275  11.321   3.214   8.189 -0.0647  2.2197  1.2468
   42bbb     C6 1276  10.904   3.437   8.072 -0.8665 -0.1868  0.5000
   42bbb    H11 1277  10.971   3.522   8.049 -1.9351  0.8279  1.0428
   42bbb    H12 1278  10.907   3.405   8.177 -1.2263 -1.7893  0.0352
   42bbb     C7 1279  10.973   2.925   7.979  0.0911  0.7213 -0.0608
   42bbb    H13 1280  10.929   2.971   8.069  0.7762 -0.0693  0.6873
   42bbb    H14 1281  10.987   2.821   8.009  2.2025  0.2145 -2.4724
   42bbb     C8 1282  10.760   3.483   8.065 -0.1476  0.8714  0.4090
   42bbb    H15 1283  10.758   3.586   8.103 -0.3193  1.5458 -1.3715
   42bbb    H16 1284  10.730   3.489   7.960  1.6994 -1.0670 -0.2931
   42bbb     C9 1285  11.444   3.331   8.059  0.3520  0.6046 -1.1157
   42bbb    H17 1286  11.530   3.265   8.070  0.4390  0.8921  0.0390
   42bbb    H18 1287  11.443   3.422   8.121 -0.9657 -0.6139  0.7662
   42bbb     O1 1288  10.896   2.936   7.853  0.5578 -0.2147  0.0758
   42bbb    H19 1289  11.045   3.189   8.106 -1.4438 -1.8333 -1.0082
   43bbb     N1 1290  10.528   2.552   6.931 -0.0369 -0.3067 -0.0562
   43bbb     C1 1291  10.558   2.612   6.801  0.3563 -0.2115 -0.7056
   43bbb     H1 1292  10.469   2.594   6.739 -0.8818 -0.2641  1.0069
   43bbb     H2 1293  10.641   2.562   6.751  1.0298 -1.0397  1.1613
   43bbb     C2 1294  10.483   2.408   6.916 -0.4026 -0.2184  0.6424
   43bbb     H3 1295  10.568   2.342   6.901  0.8862  0.6418  3.3809
   43bbb     H4 1296  10.421   2.405   6.826 -0.0650 -0.8483  0.4271
   43bbb     C3 1297  10.631   2.573   7.035  0.2470 -0.0504  0.2879
   43bbb     H5 1298  10.599   2.533   7.131  1.6813 -1.4891  0.2171
   43bbb     H6 1299  10.649   2.681   7.046  2.0154 -0.4599  2.0361
   43bbb     C4 1300  10.772   2.523   6.997  0.7468 -0.6122 -0.0056
   43bbb     H7 1301  10.805   2.568   6.902  0.8945  0.0071  0.3326
   43bbb     H8 1302  10.774   2.414   6.992 -2.6351 -0.8322  0.9530
   43bbb     C5 1303  10.587   2.761   6.804 -0.1962 -0.0119 -0.5988
   43bbb     H9 1304  10.671   2.792   6.868  0.9020 -1.9780 -1.0025
   43bbb    H10 1305  10.506   2.813   6.856 -1.8579 -1.5175 -1.5787
   43bbb     C6 1306  10.404   2.354   7.036  0.9549 -0.3287  0.8646
   43bbb    H11 1307  10.334   2.433   7.064  0.6239 -0.5313  0.6264
   43bbb    H12 1308  10.465   2.335   7.125  2.5567 -1.0640 -0.3377
   43bbb     C7 1309  10.867   2.553   7.115  0.5324  0.1626 -0.3203
   43bbb    H13 1310  10.897   2.658   7.125  0.6554  0.3211 -2.0854
   43bbb    H14 1311  10.962   2.499   7.106 -0.1192 -0.8817 -1.2873
   43bbb     C8 1312  10.319   2.228   7.004 -0.0608 -0.1297  0.0573
   43bbb    H15 1313  10.392   2.150   6.980  0.2280  0.8517 -2.5087
   43bbb    H16 1314  10.253   2.200   7.087 -1.0985  0.3030 -0.6118
   43bbb     C9 1315  10.639   2.823   6.673  0.2830  0.6745  0.7635
   43bbb    H17 1316  10.747   2.812   6.658 -0.2143 -2.2130 -1.8081
   43bbb    H18 1317  10.616   2.930   6.674  0.0239  0.6591 -0.9193
   43bbb     O1 1318  10.801   2.510   7.237 -0.3365  0.7956  0.0568
   43bbb    H19 1319  10.442   2.602   6.959  0.7280 -0.0263  1.9827
   44bbb     N1 1320   9.680   2.770   8.817 -0.6659 -0.0814  0.1656
   44bbb     C1 1321   9.790   2.863   8.875 -0.3803 -0.7426 -0.8344
   44bbb     H1 1322   9.887   2.843   8.831  1.7388  0.7847  2.6655
   44bbb     H2 1323   9.800   2.838   8.981 -1.6254  0.8391 -0.2956
   44bbb     C2 1324   9.550   2.793   8.897 -0.1650  0.0046 -0.6095
   44bbb     H3 1325   9.483   2.718   8.856 -0.7145  0.7204 -1.0625
   44bbb     H4 1326   9.520   2.895   8.871 -0.5372  0.0049 -0.1994
   44bbb     C3 1327   9.670   2.807   8.665  0.1930 -0.6518  0.3868
   44bbb     H5 1328   9.693   2.912   8.648  1.7158 -1.2121 -1.3190
   44bbb     H6 1329   9.568   2.807   8.627  0.8281 -0.3636 -1.4002
   44bbb     C4 1330   9.758   2.731   8.564  0.4560  0.0079 -0.0431
   44bbb     H7 1331   9.733   2.746   8.458 -2.7676 -1.9939  0.2636
   44bbb     H8 1332   9.724   2.628   8.582 -1.9542  0.7098 -0.1012
   44bbb     C5 1333   9.760   3.015   8.875  0.3093 -0.3575 -0.2822
   44bbb     H9 1334   9.670   3.043   8.932  0.1657  0.2711 -0.7941
   44bbb    H10 1335   9.743   3.045   8.771 -1.7147 -1.6387 -0.3762
   44bbb     C6 1336   9.543   2.784   9.053  0.4128 -0.6479  0.1060
   44bbb    H11 1337   9.633   2.826   9.099  1.2239 -0.9239 -1.1739
   44bbb    H12 1338   9.534   2.679   9.083 -3.1957 -1.0601 -1.7452
   44bbb     C7 1339   9.911   2.724   8.582  0.0453 -0.2572 -0.1153
   44bbb    H13 1340   9.955   2.824   8.589  2.1973 -1.0543 -1.0152
   44bbb    H14 1341   9.956   2.666   8.500 -1.5963 -0.1944 -1.0791
   44bbb     C8 1342   9.429   2.874   9.104 -0.3133  0.4203 -0.5346
   44bbb    H15 1343   9.402   2.865   9.210  1.7524  0.5932  0.0483
   44bbb    H16 1344   9.455   2.979   9.085  2.8485 -0.4003 -1.1539
   44bbb     C9 1345   9.883   3.097   8.917  0.4346  0.0026  0.1006
   44bbb    H17 1346   9.926   3.067   9.014 -1.2039  1.1649  1.2487
   44bbb    H18 1347   9.864   3.203   8.934 -0.1144 -0.2671  1.3116
   44bbb     O1 1348   9.941   2.658   8.710 -0.0783  0.4476  0.0227
   44bbb    H19 1349   9.704   2.671   8.830  0.9319  0.4180  1.3555
   45bbb     N1 1350   9.393   2.305   9.250 -0.7120  0.1391  0.3767
   45bbb     C1 1351   9.390   2.250   9.391  0.8134 -0.4980  0.3554
   45bbb     H1 1352   9.463   2.306   9.451 -0.7812  2.1623 -0.0588
   45bbb     H2 1353   9.437   2.151   9.381 -0.6415 -1.0247 -1.7731
   45bbb     C2 1354   9.337   2.443   9.245 -0.0648 -0.6754  0.5716
   45bbb     H3 1355   9.420   2.496   9.292  0.5035 -1.4303  0.4263
   45bbb     H4 1356   9.246   2.450   9.304  1.6848  0.4362  3.3605
   45bbb     C3 1357   9.541   2.308   9.203 -0.1711  0.1731 -0.4045
   45bbb     H5 1358   9.600   2.350   9.284 -1.4711  1.5274 -0.1298
   45bbb     H6 1359   9.544   2.375   9.117  1.4300  0.2772 -0.3016
   45bbb     C4 1360   9.600   2.179   9.152  0.1701  0.0863  0.9494
   45bbb     H7 1361   9.541   2.147   9.066  2.6455  1.9430 -1.6567
   45bbb     H8 1362   9.601   2.106   9.233  0.8005  1.0197  1.8171
   45bbb     C5 1363   9.247   2.237   9.462 -0.5433 -0.1664  0.5192
   45bbb     H9 1364   9.209   2.143   9.421  0.8234 -1.6693  2.5158
   45bbb    H10 1365   9.181   2.323   9.444 -1.0573 -0.8472 -1.1264
   45bbb     C6 1366   9.314   2.510   9.105  0.1334 -0.0593  0.5500
   45bbb    H11 1367   9.410   2.509   9.050  0.1665 -0.1053  0.6087
   45bbb    H12 1368   9.299   2.616   9.129 -2.4778 -0.2139 -0.1221
   45bbb     C7 1369   9.747   2.199   9.105 -0.1005  0.3596 -0.0540
   45bbb    H13 1370   9.799   2.103   9.110  1.1624  1.0964  2.1394
   45bbb    H14 1371   9.800   2.265   9.175  0.2252  0.2030 -0.1504
   45bbb     C8 1372   9.188   2.467   9.018 -0.4321  0.1939 -0.1954
   45bbb    H15 1373   9.101   2.473   9.084 -0.1835  0.1025  0.1413
   45bbb    H16 1374   9.168   2.534   8.933  0.8426  1.4251  0.4283
   45bbb     C9 1375   9.267   2.211   9.616  0.6059 -0.5723 -0.3286
   45bbb    H17 1376   9.171   2.203   9.668  0.9543 -2.6871  0.0810
   45bbb    H18 1377   9.323   2.298   9.651  0.1927 -1.6190  3.3550
   45bbb     O1 1378   9.758   2.253   8.972 -0.1042 -0.1865 -0.1000
   45bbb    H19 1379   9.339   2.246   9.185  0.9227  0.3538 -1.2581
   46bbb     N1 1380   8.292  -1.023   6.612 -0.6301 -0.3731 -0.3781
   46bbb     C1 1381   8.246  -0.973   6.475  0.4303  0.1698  0.1642
   46bbb     H1 1382   8.142  -0.943   6.493 -0.2131 -0.6236 -1.9439
   46bbb     H2 1383   8.242  -1.063   6.413  2.4676  1.2991 -1.7713
   46bbb     C2 1384   8.400  -1.131   6.606 -0.2439 -0.0667  0.0869
   46bbb     H3 1385   8.491  -1.071   6.612 -1.8948  2.6611 -0.4805
   46bbb     H4 1386   8.405  -1.175   6.506  2.9273  0.9595 -0.3405
   46bbb     C3 1387   8.346  -0.907   6.703 -0.2290 -0.1699 -0.1292
   46bbb     H5 1388   8.428  -0.860   6.649 -0.3528 -0.8002 -0.8781
   46bbb     H6 1389   8.393  -0.945   6.794  2.2334  2.4478 -0.1700
   46bbb     C4 1390   8.238  -0.795   6.743  0.5691  0.6207 -0.3912
   46bbb     H7 1391   8.152  -0.847   6.787  1.3556 -0.3399  0.0779
   46bbb     H8 1392   8.201  -0.751   6.650 -0.1387  1.2969  0.2063
   46bbb     C5 1393   8.332  -0.864   6.398 -0.1883 -0.0442 -0.6409
   46bbb     H9 1394   8.437  -0.893   6.387  0.0206  0.6862 -0.5951
   46bbb    H10 1395   8.331  -0.770   6.454 -0.3518  0.9029 -2.1502
   46bbb     C6 1396   8.405  -1.233   6.719 -0.2079 -0.1303 -0.1674
   46bbb    H11 1397   8.330  -1.312   6.701 -0.7078 -0.0827  1.4749
   46bbb    H12 1398   8.369  -1.182   6.809  0.6162  1.4875 -0.7221
   46bbb     C7 1399   8.300  -0.690   6.834 -0.5961 -0.5203  0.6446
   46bbb    H13 1400   8.267  -0.591   6.801  1.4235  0.0717  0.2824
   46bbb    H14 1401   8.407  -0.678   6.816 -0.7450 -0.2243 -0.0687
   46bbb     C8 1402   8.544  -1.297   6.747 -0.6161 -0.3043  0.4471
   46bbb    H15 1403   8.545  -1.363   6.834  1.4872  0.7670  1.2904
   46bbb    H16 1404   8.587  -1.356   6.665  1.3501 -1.4320  2.1856
   46bbb     C9 1405   8.283  -0.835   6.253  0.4840  0.1236 -0.0853
   46bbb    H17 1406   8.348  -0.760   6.207  0.9611 -1.1723 -1.6006
   46bbb    H18 1407   8.174  -0.819   6.253  0.4483 -0.1148  0.0009
   46bbb     O1 1408   8.275  -0.728   6.971 -0.3049 -0.2730 -0.1606
   46bbb    H19 1409   8.212  -1.068   6.658 -0.6594 -0.1824 -0.2438
   47bbb     N1 1410   8.666  -0.948   7.488  0.2879 -0.2664  0.0540
   47bbb     C1 1411   8.557  -0.939   7.375 -0.2759 -1.3326  0.1950
   47bbb     H1 1412   8.556  -0.835   7.342 -0.7161 -0.3143  3.1071
   47bbb     H2 1413   8.465  -0.971   7.424 -0.9611  0.6505  0.2944
   47bbb     C2 1414   8.778  -0.851   7.457 -0.5303 -0.0344 -0.1788
   47bbb     H3 1415   8.772  -0.756   7.511  1.6884  1.2579 -2.0069
   47bbb     H4 1416   8.772  -0.823   7.351  0.9742  0.6080 -0.1159
   47bbb     C3 1417   8.612  -0.923   7.631 -0.3940  0.0282 -0.7784
   47bbb     H5 1418   8.560  -0.827   7.630 -1.1974 -0.3967 -1.6542
   47bbb     H6 1419   8.696  -0.904   7.697 -0.7144 -1.2142  0.0396
   47bbb     C4 1420   8.524  -1.030   7.706  0.3440  0.2468 -0.2050
   47bbb     H7 1421   8.503  -1.003   7.810 -3.0789  0.9818 -0.9668
   47bbb     H8 1422   8.571  -1.129   7.709 -1.5460 -0.7843 -1.8617
   47bbb     C5 1423   8.583  -1.035   7.250  0.4759 -0.4946  0.2921
   47bbb     H9 1424   8.584  -1.138   7.288 -4.8369 -0.3986  1.5594
   47bbb    H10 1425   8.671  -1.015   7.188 -0.6461  1.9707 -0.6314
   47bbb     C6 1426   8.917  -0.909   7.494  0.3377  0.1815 -0.1456
   47bbb    H11 1427   8.927  -0.982   7.413 -0.5779  0.2146 -0.2951
   47bbb    H12 1428   8.931  -0.954   7.593  1.4129 -1.1614 -0.8736
   47bbb     C7 1429   8.387  -1.058   7.651 -0.4212 -0.3389  0.1779
   47bbb    H13 1430   8.339  -1.136   7.712 -0.6003 -1.0811 -0.8901
   47bbb    H14 1431   8.398  -1.112   7.556 -1.7213 -0.7994  0.2648
   47bbb     C8 1432   9.035  -0.810   7.479 -0.0808 -0.8884 -0.0068
   47bbb    H15 1433   9.012  -0.712   7.522  0.4590 -0.2645 -1.0758
   47bbb    H16 1434   9.116  -0.853   7.538  0.5114 -0.0228 -0.1700
   47bbb     C9 1435   8.456  -1.028   7.156 -0.2294 -0.2014 -0.3396
   47bbb    H17 1436   8.461  -1.104   7.076  0.4830 -0.1908 -0.3101
   47bbb    H18 1437   8.460  -0.933   7.102 -0.8245  0.2900  0.4662
   47bbb     O1 1438   8.311  -0.938   7.640  0.0386  0.7521 -0.1287
   47bbb    H19 1439   8.712  -1.040   7.484  0.4316 -0.1681 -0.9480
   48bbb     N1 1440   8.115  -0.010   8.768 -0.2468  0.6045 -1.1732
   48bbb     C1 1441   8.058  -0.058   8.898  0.8032 -0.4416 -1.0143
   48bbb     H1 1442   8.025   0.029   8.956 -1.6944 -1.5015 -0.7254
   48bbb     H2 1443   8.145  -0.097   8.951  1.9810  3.6870  0.5390
   48bbb     C2 1444   8.187  -0.119   8.692 -0.0698 -0.3247 -0.2190
   48bbb     H3 1445   8.119  -0.204   8.695 -1.4081  0.6899  3.0228
   48bbb     H4 1446   8.272  -0.143   8.755 -0.0693  2.5676  1.0940
   48bbb     C3 1447   8.002   0.051   8.688 -0.0466  0.0531 -0.2120
   48bbb     H5 1448   7.928  -0.029   8.685 -0.8525  0.6693  1.7037
   48bbb     H6 1449   8.045   0.066   8.589  1.3570 -0.9740  0.2120
   48bbb     C4 1450   7.947   0.183   8.744  0.6359 -0.6086 -0.0302
   48bbb     H7 1451   8.029   0.256   8.738  1.0200 -1.0979 -0.9032
   48bbb     H8 1452   7.926   0.180   8.851 -0.8088 -0.7095 -0.3064
   48bbb     C5 1453   7.935  -0.153   8.883  0.3896  0.3616 -0.0063
   48bbb     H9 1454   7.957  -0.229   8.806 -0.0297  0.3400 -0.1105
   48bbb    H10 1455   7.845  -0.101   8.846  0.4745 -0.2776 -1.1869
   48bbb     C6 1456   8.245  -0.084   8.553 -0.5486 -0.1749  0.4801
   48bbb    H11 1457   8.163  -0.070   8.481 -0.1659 -0.9865 -0.1330
   48bbb    H12 1458   8.289  -0.181   8.528 -0.3308  0.3841 -1.4827
   48bbb     C7 1459   7.818   0.231   8.671  0.8399 -0.5184  0.0293
   48bbb    H13 1460   7.782   0.324   8.717 -0.9427 -1.2717  0.2015
   48bbb    H14 1461   7.740   0.155   8.677 -0.3065  0.5565 -0.7112
   48bbb     C8 1462   8.357   0.022   8.554  1.0712  0.5893  0.5722
   48bbb    H15 1463   8.428  -0.013   8.630  0.6822 -2.6910 -0.3851
   48bbb    H16 1464   8.404   0.007   8.456  0.3560  0.3991  0.2488
   48bbb     C9 1465   7.903  -0.218   9.020 -0.7459 -0.1365  0.1442
   48bbb    H17 1466   7.813  -0.280   9.021 -1.4981  0.8981 -1.0898
   48bbb    H18 1467   7.900  -0.144   9.101  0.1099 -0.5712  0.5932
   48bbb     O1 1468   7.850   0.251   8.530  0.1029 -0.6452 -0.4255
   48bbb    H19 1469   8.186   0.063   8.783  0.4150  0.1190 -1.8861
   49bbb     N1 1470   7.518  -0.774   8.286  0.4742 -0.8324 -0.0190
   49bbb     C1 1471   7.542  -0.909   8.229  0.3763  0.3366  0.1785
   49bbb     H1 1472   7.640  -0.940   8.265  0.2328 -0.4084 -0.0626
   49bbb     H2 1473   7.551  -0.897   8.121  1.7235  2.9799  0.4906
   49bbb     C2 1474   7.496  -0.767   8.439 -0.0176 -0.2857 -0.1604
   49bbb     H3 1475   7.582  -0.807   8.492 -0.2272  0.3735  0.7069
   49bbb     H4 1476   7.410  -0.830   8.463 -0.6309  1.3978  2.4265
   49bbb     C3 1477   7.636  -0.690   8.259 -0.5950  0.7923 -0.8320
   49bbb     H5 1478   7.722  -0.757   8.255 -1.8054 -1.0609  1.2827
   49bbb     H6 1479   7.641  -0.624   8.346 -1.7824 -1.2816  0.9174
   49bbb     C4 1480   7.641  -0.598   8.136  0.4815  0.2331  0.4293
   49bbb     H7 1481   7.559  -0.526   8.138 -0.4341 -0.7809  0.2834
   49bbb     H8 1482   7.631  -0.661   8.046  0.8253  0.0612  0.5104
   49bbb     C5 1483   7.428  -1.009   8.266 -0.9742  0.7727 -0.2739
   49bbb     H9 1484   7.335  -0.985   8.214 -2.1093 -0.5227  1.0801
   49bbb    H10 1485   7.402  -0.996   8.371 -0.6732  0.9782 -0.2230
   49bbb     C6 1486   7.450  -0.631   8.492  0.6877  0.1679  0.2548
   49bbb    H11 1487   7.373  -0.585   8.429  0.1189 -1.0085  0.0662
   49bbb    H12 1488   7.526  -0.553   8.478  1.9072 -0.4924  2.6388
   49bbb     C7 1489   7.777  -0.526   8.136  0.7570  0.1365 -0.5868
   49bbb    H13 1490   7.777  -0.462   8.047  1.7215  1.6466  0.4491
   49bbb    H14 1491   7.862  -0.592   8.119  0.6577 -0.9097  2.4499
   49bbb     C8 1492   7.397  -0.627   8.637 -0.0233 -0.1799 -0.6623
   49bbb    H15 1493   7.339  -0.535   8.653 -1.2111 -1.2550  1.6851
   49bbb    H16 1494   7.337  -0.716   8.658  1.6725 -0.8390  1.9407
   49bbb     C9 1495   7.470  -1.151   8.220 -0.5954  0.0579 -0.2927
   49bbb    H17 1496   7.507  -1.158   8.117 -0.6604 -1.9124 -0.2278
   49bbb    H18 1497   7.384  -1.218   8.229  0.4731 -1.2789  0.5166
   49bbb     O1 1498   7.787  -0.451   8.258 -0.2571 -0.1350  0.1772
   49bbb    H19 1499   7.436  -0.745   8.229  0.4200 -0.7906  0.0802
   50bbb     N1 1500   6.424   1.694   6.392 -0.0516  0.1552  0.0861
   50bbb     C1 1501   6.355   1.586   6.473 -0.4329  0.2013 -0.2039
   50bbb     H1 1502   6.409   1.555   6.563 -1.8027  0.9680  0.9115
   50bbb     H2 1503   6.359   1.495   6.413 -0.8043 -0.4236  0.7044
   50bbb     C2 1504   6.459   1.815   6.473 -0.2542  0.4044 -0.5693
   50bbb     H3 1505   6.565   1.821   6.497  0.6654 -0.9533 -3.8201
   50bbb     H4 1506   6.402   1.813   6.567 -1.3281 -2.6709 -1.1983
   50bbb     C3 1507   6.546   1.641   6.317 -0.5081  0.3491  0.0913
   50bbb     H5 1508   6.571   1.720   6.246 -3.1786  2.9511  1.8282
   50bbb     H6 1509   6.505   1.563   6.253 -0.8932  1.1739 -0.6905
   50bbb     C4 1510   6.665   1.580   6.400  0.6382 -0.2568 -0.3413
   50bbb     H7 1511   6.630   1.491   6.454 -1.5203  1.1904  0.7980
   50bbb     H8 1512   6.709   1.648   6.474  1.5066 -1.5628  0.3673
   50bbb     C5 1513   6.214   1.626   6.506 -0.1034 -0.5196 -0.5689
   50bbb     H9 1514   6.165   1.650   6.411  0.5048  1.0219 -0.5340
   50bbb    H10 1515   6.204   1.717   6.567 -2.2163 -1.4753  0.6302
   50bbb     C6 1516   6.423   1.939   6.395  0.5064 -0.4647 -1.2924
   50bbb    H11 1517   6.451   1.911   6.293 -0.9559  0.4314 -1.9697
   50bbb    H12 1518   6.486   2.023   6.425  0.5655 -0.5856 -1.0742
   50bbb     C7 1519   6.785   1.545   6.310 -0.0558 -0.3137 -0.1939
   50bbb    H13 1520   6.831   1.630   6.259 -1.7112 -0.2821 -1.7543
   50bbb    H14 1521   6.742   1.489   6.226 -2.9567  2.1100 -0.5093
   50bbb     C8 1522   6.275   1.975   6.380  0.4104  0.5754 -0.3823
   50bbb    H15 1523   6.250   2.060   6.314 -1.9914  0.5233  0.3582
   50bbb    H16 1524   6.239   1.883   6.332  2.8468  0.5901 -2.4363
   50bbb     C9 1525   6.136   1.509   6.570  0.7857  0.0589  0.2499
   50bbb    H17 1526   6.122   1.421   6.508 -1.5816 -0.3605  1.2652
   50bbb    H18 1527   6.033   1.545   6.585  0.1295 -1.5779 -0.1475
   50bbb     O1 1528   6.880   1.463   6.389  0.1275 -0.2185  0.3663
   50bbb    H19 1529   6.351   1.716   6.322 -1.4131  1.6027  1.8579
   51bbb     N1 1530   6.819   1.847   7.042  0.4826  0.0703  0.3299
   51bbb     C1 1531   6.764   1.767   7.162  0.4460  0.0538  0.6973
   51bbb     H1 1532   6.656   1.775   7.157  0.3894 -1.2557 -0.8471
   51bbb     H2 1533   6.801   1.812   7.254 -0.1350  2.1388 -0.0494
   51bbb     C2 1534   6.748   1.984   7.039  0.4080 -0.5319  0.2074
   51bbb     H3 1535   6.645   1.952   7.023  0.1886  0.0372  0.4590
   51bbb     H4 1536   6.788   2.040   6.955 -2.2586  0.8250 -0.2793
   51bbb     C3 1537   6.972   1.869   7.054  0.2658  0.1702  0.2367
   51bbb     H5 1538   7.018   1.770   7.054  0.8671  0.4064 -1.6263
   51bbb     H6 1539   6.994   1.932   7.141 -1.4833 -1.0386  1.6347
   51bbb     C4 1540   7.028   1.949   6.936 -0.5860 -0.5108  0.3395
   51bbb     H7 1541   7.025   2.056   6.962  0.3062 -0.1707 -0.8583
   51bbb     H8 1542   6.961   1.944   6.850 -1.0356 -0.6563  0.6967
   51bbb     C5 1543   6.793   1.614   7.159 -0.0786 -0.1564  0.4089
   51bbb     H9 1544   6.898   1.585   7.153 -0.0516  0.2590 -1.5251
   51bbb    H10 1545   6.746   1.585   7.065 -0.0527  0.3346  0.2436
   51bbb     C6 1546   6.761   2.076   7.160 -1.2606  0.2603 -0.1711
   51bbb    H11 1547   6.830   2.153   7.124 -1.8568  0.0889 -1.7230
   51bbb    H12 1548   6.814   2.032   7.246  1.2528  1.8223 -0.8165
   51bbb     C7 1549   7.175   1.916   6.899  0.1908  0.0435  0.4152
   51bbb    H13 1550   7.239   1.937   6.986 -0.1229 -2.1000  1.2414
   51bbb    H14 1551   7.203   1.968   6.807  1.2932 -1.0479  0.1013
   51bbb     C8 1552   6.620   2.123   7.196  0.4656 -0.2638 -0.2576
   51bbb    H15 1553   6.636   2.192   7.280  1.8162 -0.1872 -0.5491
   51bbb    H16 1554   6.583   2.178   7.108  0.1943  0.8942  0.5558
   51bbb     C9 1555   6.729   1.528   7.268  0.0754  0.1991 -0.1454
   51bbb    H17 1556   6.748   1.569   7.368 -0.2929  1.0715 -0.4218
   51bbb    H18 1557   6.776   1.430   7.261 -0.9747 -0.4453  1.3302
   51bbb     O1 1558   7.185   1.766   6.870 -0.4119 -0.0750 -0.3638
   51bbb    H19 1559   6.800   1.788   6.959  2.0830 -1.8215  1.2123
   52bbb     N1 1560   6.461   0.314   6.675  0.2185 -0.0639  0.3905
   52bbb     C1 1561   6.525   0.453   6.651 -0.3460  0.3144  0.4366
   52bbb     H1 1562   6.491   0.498   6.557  0.7584 -1.6825 -0.9976
   52bbb     H2 1563   6.631   0.431   6.635 -0.9733 -1.4895 -1.8199
   52bbb     C2 1564   6.501   0.214   6.563 -0.0336  0.9474  0.2409
   52bbb     H3 1565   6.476   0.112   6.593  0.4131  0.8814  0.3888
   52bbb     H4 1566   6.609   0.222   6.558  0.1208 -1.2621 -1.6967
   52bbb     C3 1567   6.516   0.251   6.803  0.2679  0.0244 -0.1907
   52bbb     H5 1568   6.464   0.156   6.810  1.3568 -0.5193  0.9685
   52bbb     H6 1569   6.487   0.321   6.882  0.4699 -1.0441  0.8586
   52bbb     C4 1570   6.672   0.225   6.829  0.0947  0.8463  0.2818
   52bbb     H7 1571   6.727   0.312   6.792 -1.6683  2.5694  1.5264
   52bbb     H8 1572   6.704   0.141   6.766  0.2790  1.1611 -0.0465
   52bbb     C5 1573   6.515   0.554   6.768  0.4631 -0.3586  0.0655
   52bbb     H9 1574   6.557   0.651   6.738  0.7238 -0.1823  0.9577
   52bbb    H10 1575   6.583   0.517   6.845 -1.2835 -2.8098  0.5762
   52bbb     C6 1576   6.446   0.249   6.421  0.0985  0.9013 -0.2035
   52bbb    H11 1577   6.501   0.185   6.350  1.0401  0.8931  0.5265
   52bbb    H12 1578   6.457   0.356   6.402  0.4314  0.9601  0.3131
   52bbb     C7 1579   6.702   0.191   6.979 -0.2062 -0.4854  1.3894
   52bbb    H13 1580   6.607   0.170   7.030 -0.5987  0.0359  0.8942
   52bbb    H14 1581   6.744   0.286   7.017  0.7986 -0.8145  1.1192
   52bbb     C8 1582   6.302   0.198   6.405  0.5698  0.2762  0.0901
   52bbb    H15 1583   6.234   0.272   6.449 -0.5543 -1.1055  0.7502
   52bbb    H16 1584   6.285   0.197   6.297  5.0745  1.8012 -0.8361
   52bbb     C9 1585   6.378   0.576   6.822  0.0226  0.5682 -0.7837
   52bbb    H17 1586   6.320   0.486   6.847 -1.0737  1.7789  1.4285
   52bbb    H18 1587   6.314   0.641   6.762  0.2740  1.2829 -0.2841
   52bbb     O1 1588   6.783   0.075   6.991  0.0464  0.1033  0.0269
   52bbb    H19 1589   6.358   0.323   6.681  0.0503 -0.7760 -0.9881
   53bbb     N1 1590   6.627  -0.414   6.321 -0.3860 -0.1904 -0.3478
   53bbb     C1 1591   6.536  -0.320   6.241  0.0895 -0.1591  0.2654
   53bbb     H1 1592   6.450  -0.377   6.206  0.3176  1.5072 -3.4206
   53bbb     H2 1593   6.595  -0.278   6.160 -1.7654  2.0098 -0.0589
   53bbb     C2 1594   6.671  -0.539   6.242  0.3993 -0.1036  0.4224
   53bbb     H3 1595   6.727  -0.604   6.309 -0.5364 -2.7197 -1.1532
   53bbb     H4 1596   6.747  -0.509   6.170 -0.8774  0.6049 -0.6863
   53bbb     C3 1597   6.756  -0.337   6.355 -0.3361  0.4614 -0.3887
   53bbb     H5 1598   6.732  -0.255   6.422  1.1911 -0.8048  1.8542
   53bbb     H6 1599   6.803  -0.310   6.261 -1.8378  0.3692 -1.1993
   53bbb     C4 1600   6.869  -0.420   6.427  0.2187 -0.3072 -0.7456
   53bbb     H7 1601   6.919  -0.492   6.362  2.6622  1.2662 -0.7337
   53bbb     H8 1602   6.826  -0.477   6.510  3.2488 -1.8977 -0.1293
   53bbb     C5 1603   6.478  -0.203   6.315 -0.5465  0.4494 -0.2422
   53bbb     H9 1604   6.556  -0.140   6.358 -0.7731 -0.2144  1.1882
   53bbb    H10 1605   6.424  -0.244   6.401  1.2511 -1.8993 -0.1521
   53bbb     C6 1606   6.561  -0.624   6.174  0.7669  0.1454 -0.2356
   53bbb    H11 1607   6.606  -0.706   6.117  2.0842  1.3435 -0.9925
   53bbb    H12 1608   6.501  -0.569   6.100 -0.7617 -1.8007 -0.5266
   53bbb     C7 1609   6.982  -0.335   6.490 -0.0414  0.8211 -0.1390
   53bbb    H13 1610   7.033  -0.279   6.412  0.9048 -0.6524 -0.6206
   53bbb    H14 1611   7.048  -0.404   6.545 -0.8292  0.0239 -0.1606
   53bbb     C8 1612   6.456  -0.691   6.266 -0.0249  0.9146  0.1621
   53bbb    H15 1613   6.395  -0.763   6.210  0.8008  0.5318 -0.2679
   53bbb    H16 1614   6.505  -0.751   6.344 -1.1051  0.4520  0.5113
   53bbb     C9 1615   6.379  -0.125   6.231  0.9256 -0.8792 -0.2540
   53bbb    H17 1616   6.408  -0.121   6.125 -2.0775 -0.4437 -1.1529
   53bbb    H18 1617   6.359  -0.023   6.264  1.4506 -0.7682 -0.2787
   53bbb     O1 1618   6.928  -0.241   6.582  0.8363  0.0595  0.4546
   53bbb    H19 1619   6.574  -0.451   6.401  0.5493 -1.4492 -0.2861
   54bbb     N1 1620   7.042   0.497   9.166  0.4805  0.1021 -0.1575
   54bbb     C1 1621   7.139   0.416   9.089 -0.2033  0.1909  0.7119
   54bbb     H1 1622   7.148   0.318   9.137 -1.1716  0.1502  0.8492
   54bbb     H2 1623   7.239   0.459   9.097 -0.5807  1.0497  1.0022
   54bbb     C2 1624   7.078   0.511   9.310 -0.2030 -0.1849  0.8055
   54bbb     H3 1625   7.090   0.407   9.339  1.1235 -0.5677 -0.9386
   54bbb     H4 1626   6.994   0.561   9.358  0.2708  0.4823  0.9561
   54bbb     C3 1627   7.031   0.636   9.102 -0.7356  0.1514 -0.6913
   54bbb     H5 1628   6.994   0.628   9.000 -0.3537 -0.2494 -0.8051
   54bbb     H6 1629   7.128   0.687   9.105 -0.4295 -0.4550  1.6061
   54bbb     C4 1630   6.924   0.725   9.172 -0.3404  0.2930 -0.0903
   54bbb     H7 1631   6.977   0.777   9.253 -0.1973  0.6750 -0.4272
   54bbb     H8 1632   6.850   0.673   9.234  0.1166 -1.2828 -0.7890
   54bbb     C5 1633   7.098   0.395   8.946 -0.3552  0.6024  0.3456
   54bbb     H9 1634   7.184   0.348   8.896 -0.0387 -1.4188  2.6352
   54bbb    H10 1635   7.071   0.491   8.900 -0.3274  0.5101  0.1362
   54bbb     C6 1636   7.205   0.598   9.348 -0.0152  0.3914  0.4040
   54bbb    H11 1637   7.192   0.696   9.300 -1.6615 -0.0074 -0.0493
   54bbb    H12 1638   7.297   0.549   9.315 -0.7515 -1.4819  0.9961
   54bbb     C7 1639   6.855   0.823   9.071 -0.0115 -0.1244 -0.0770
   54bbb    H13 1640   6.927   0.888   9.020 -3.1474  4.2298  0.4795
   54bbb    H14 1641   6.789   0.888   9.130  0.8405  0.3686  0.3483
   54bbb     C8 1642   7.209   0.621   9.498 -0.2989  0.6140 -0.4295
   54bbb    H15 1643   7.227   0.524   9.546  2.1968  0.9074 -0.6247
   54bbb    H16 1644   7.299   0.677   9.528 -0.5495  0.8540 -0.1196
   54bbb     C9 1645   6.984   0.291   8.930 -0.4639 -0.8075  0.2865
   54bbb    H17 1646   6.937   0.292   8.831  2.4483 -0.7716 -1.2227
   54bbb    H18 1647   6.911   0.311   9.009 -0.3360  0.7428  0.0390
   54bbb     O1 1648   6.771   0.747   8.978  1.0025 -0.4350 -0.1504
   54bbb    H19 1649   6.952   0.449   9.159  0.6518 -0.7870  2.6770
   55bbb     N1 1650   5.917   1.119   9.191  0.0606  0.0925 -0.0912
   55bbb     C1 1651   5.770   1.100   9.237 -0.2245 -0.1269 -0.4963
   55bbb     H1 1652   5.753   1.017   9.306 -0.5088  1.9145  2.0297
   55bbb     H2 1653   5.721   1.086   9.141  1.5864  0.6279 -1.5978
   55bbb     C2 1654   5.979   0.994   9.122  0.0535  0.1958 -0.1229
   55bbb     H3 1655   5.968   0.915   9.197  0.6909  0.2211  0.0001
   55bbb     H4 1656   6.087   1.000   9.116  0.0136  1.0719 -0.0731
   55bbb     C3 1657   5.928   1.230   9.095  0.0436  0.5136  0.2964
   55bbb     H5 1658   5.883   1.321   9.137 -3.9725 -1.3633  0.5482
   55bbb     H6 1659   5.864   1.207   9.010  2.1686  1.0448 -1.5486
   55bbb     C4 1660   6.065   1.271   9.037 -0.1656  0.3894  0.4684
   55bbb     H7 1661   6.063   1.353   8.964  1.2545  0.3532  0.3506
   55bbb     H8 1662   6.105   1.197   8.967 -5.2260  0.3503 -2.8728
   55bbb     C5 1663   5.710   1.230   9.308  0.1410 -0.0593 -0.4277
   55bbb     H9 1664   5.698   1.300   9.224  1.4219 -0.5051 -1.0047
   55bbb    H10 1665   5.786   1.265   9.379 -1.3664 -0.1748  1.3384
   55bbb     C6 1666   5.914   0.946   8.985  0.0572  0.2710 -0.1818
   55bbb    H11 1667   5.987   0.876   8.943 -0.1836 -1.0609  1.5102
   55bbb    H12 1668   5.903   1.027   8.911  1.9513 -0.7127 -1.6018
   55bbb     C7 1669   6.161   1.317   9.147 -0.6348 -0.0135 -0.5214
   55bbb    H13 1670   6.178   1.230   9.211 -0.2420 -0.2253 -0.9025
   55bbb    H14 1671   6.129   1.403   9.208  2.5865 -0.2394  1.7449
   55bbb     C8 1672   5.778   0.879   8.999 -0.8958 -0.0579 -0.0836
   55bbb    H15 1673   5.697   0.948   9.023 -0.2325  0.3378  1.1056
   55bbb    H16 1674   5.755   0.836   8.901  0.3274  1.3786 -1.0269
   55bbb     C9 1675   5.581   1.201   9.381  0.2472 -0.3094  0.0971
   55bbb    H17 1676   5.508   1.141   9.326 -1.0081 -0.2627  1.6448
   55bbb    H18 1677   5.529   1.294   9.407  0.2307 -0.5658  1.0382
   55bbb     O1 1678   6.285   1.356   9.074 -0.8489  0.2463 -0.6727
   55bbb    H19 1679   5.961   1.146   9.279 -2.3786  0.1185  1.2116
   56bbb     N1 1680   6.050   2.216   8.558  0.8996  0.3452 -0.6103
   56bbb     C1 1681   5.968   2.296   8.654  0.9029 -0.4155 -0.2881
   56bbb     H1 1682   5.952   2.236   8.744  1.7814  1.9639  1.5770
   56bbb     H2 1683   5.871   2.305   8.604 -0.0390  0.0232  1.5245
   56bbb     C2 1684   6.045   2.297   8.432 -0.0726  0.0157 -0.4015
   56bbb     H3 1685   6.084   2.397   8.453 -1.1113  0.2132  0.7291
   56bbb     H4 1686   5.940   2.325   8.416  0.1598  0.9752 -0.3419
   56bbb     C3 1687   6.189   2.196   8.617 -0.0972  0.3983 -0.1604
   56bbb     H5 1688   6.237   2.293   8.632 -0.8996  0.5891  1.4955
   56bbb     H6 1689   6.238   2.151   8.531 -0.0515  1.5458 -0.7540
   56bbb     C4 1690   6.209   2.106   8.748 -0.0361 -0.1924 -0.0823
   56bbb     H7 1691   6.137   2.140   8.823  1.3282 -0.5531  1.4684
   56bbb     H8 1692   6.311   2.134   8.776 -0.4673  2.1860 -0.6806
   56bbb     C5 1693   6.007   2.440   8.709 -0.6166 -0.3498 -0.5159
   56bbb     H9 1694   6.017   2.515   8.629  1.0835  1.5108  1.3075
   56bbb    H10 1695   6.102   2.458   8.760 -1.7824  2.2716  0.9643
   56bbb     C6 1696   6.101   2.244   8.302  0.0838  0.3297  0.6654
   56bbb    H11 1697   6.209   2.225   8.312  0.1569 -0.2345 -0.9225
   56bbb    H12 1698   6.090   2.320   8.224 -1.1235  1.4544  1.8790
   56bbb     C7 1699   6.197   1.952   8.725  0.7035 -0.1711 -0.5765
   56bbb    H13 1700   6.092   1.926   8.713  0.1864  0.7151  1.4723
   56bbb    H14 1701   6.230   1.894   8.813 -3.3547  0.8031  1.8486
   56bbb     C8 1702   6.030   2.121   8.246 -0.5253  0.6106 -0.1883
   56bbb    H15 1703   5.920   2.128   8.251 -0.5791  0.0444 -0.5778
   56bbb    H16 1704   6.065   2.099   8.145 -0.3888 -0.4000  0.0702
   56bbb     C9 1705   5.904   2.496   8.808  0.1515  0.1320 -0.0139
   56bbb    H17 1706   5.923   2.604   8.816 -0.1206  0.2620 -0.9552
   56bbb    H18 1707   5.905   2.454   8.909 -0.8076  1.2892  0.4989
   56bbb     O1 1708   6.283   1.917   8.612 -0.3524  0.0990 -0.2817
   56bbb    H19 1709   5.996   2.130   8.539 -1.5657  1.5701  0.4479
   57bbb     N1 1710   5.790   1.839   7.838 -0.1070  0.1974  0.1922
   57bbb     C1 1711   5.812   1.985   7.792 -0.2376  0.0158 -0.5692
   57bbb     H1 1712   5.717   2.031   7.766 -0.5728  0.6292  1.6244
   57bbb     H2 1713   5.881   1.981   7.707  0.2192  1.0052 -0.2499
   57bbb     C2 1714   5.753   1.761   7.722  0.3901  0.3663 -0.4718
   57bbb     H3 1715   5.746   1.659   7.760  0.7552 -0.2494 -1.9541
   57bbb     H4 1716   5.831   1.759   7.646 -1.7315 -1.3809 -2.7720
   57bbb     C3 1717   5.909   1.774   7.907  0.6990  0.8665  0.6651
   57bbb     H5 1718   5.869   1.679   7.941 -0.0824  1.3215  1.0543
   57bbb     H6 1719   5.934   1.833   7.995  0.7838  3.0071 -0.7138
   57bbb     C4 1720   6.045   1.767   7.822 -0.5543  0.1067 -0.7834
   57bbb     H7 1721   6.062   1.862   7.771 -2.7521  0.8713 -0.2137
   57bbb     H8 1722   6.038   1.698   7.737 -0.2138  0.3810 -1.0363
   57bbb     C5 1723   5.865   2.075   7.898  0.4937  0.1168  0.0645
   57bbb     H9 1724   5.968   2.045   7.921  0.6043  0.1640 -0.3716
   57bbb    H10 1725   5.801   2.091   7.986  0.7942  0.2442  0.2637
   57bbb     C6 1726   5.626   1.810   7.648 -0.0896  0.4354  0.1926
   57bbb    H11 1727   5.608   1.742   7.564  4.0525 -0.5180 -0.1549
   57bbb    H12 1728   5.655   1.900   7.593  1.5541 -0.6567 -0.8415
   57bbb     C7 1729   6.161   1.728   7.910  0.4821 -0.1321 -0.2439
   57bbb    H13 1730   6.244   1.690   7.848 -0.4147 -0.0289 -1.5604
   57bbb    H14 1731   6.139   1.640   7.971 -0.7569  1.1743  1.2742
   57bbb     C8 1732   5.501   1.828   7.732  0.4990  0.4761  0.5804
   57bbb    H15 1733   5.422   1.861   7.664  0.8601  1.5755  0.6742
   57bbb    H16 1734   5.485   1.729   7.777  0.3553  0.1499 -0.1740
   57bbb     C9 1735   5.878   2.218   7.842  0.0106  0.7461  0.2581
   57bbb    H17 1736   5.933   2.225   7.748 -0.3332  0.7239  0.0528
   57bbb    H18 1737   5.925   2.283   7.917 -3.7901  0.6565  3.0090
   57bbb     O1 1738   6.209   1.844   7.988  0.3160 -0.0681  0.0318
   57bbb    H19 1739   5.705   1.842   7.896 -1.0253 -1.6609 -0.9917
   58bbb     N1 1740   8.502   0.127   9.701 -0.0285 -0.0922 -0.2354
   58bbb     C1 1741   8.564   0.129   9.561 -0.5679  0.7749 -0.1987
   58bbb     H1 1742   8.568   0.232   9.528 -1.1964  0.6918 -0.5513
   58bbb     H2 1743   8.495   0.088   9.487 -1.8035 -0.1434  1.4077
   58bbb     C2 1744   8.589   0.201   9.797  0.2976  0.0629  0.1448
   58bbb     H3 1745   8.606   0.303   9.763  0.9592 -0.6975 -1.9341
   58bbb     H4 1746   8.683   0.147   9.800  0.9560  1.1659  0.0351
   58bbb     C3 1747   8.359   0.175   9.686 -0.1976 -0.1094 -0.1849
   58bbb     H5 1748   8.360   0.281   9.659  1.6589  0.5922  2.2316
   58bbb     H6 1749   8.314   0.185   9.785  0.8796  1.8727  0.1534
   58bbb     C4 1750   8.264   0.115   9.582 -0.2126 -0.3625 -0.3678
   58bbb     H7 1751   8.251   0.008   9.600 -0.6548 -0.3729 -0.7169
   58bbb     H8 1752   8.307   0.137   9.484  1.9730 -0.8550  0.4306
   58bbb     C5 1753   8.697   0.045   9.542 -0.2055  0.7797  0.0030
   58bbb     H9 1754   8.720  -0.040   9.607  1.3749  3.6256  3.5368
   58bbb    H10 1755   8.781   0.113   9.558 -0.9243  1.5135  0.7432
   58bbb     C6 1756   8.531   0.218   9.939  0.2410 -0.0612  0.4418
   58bbb    H11 1757   8.514   0.117   9.977  0.6264 -0.1186  0.4653
   58bbb    H12 1758   8.435   0.270   9.929 -0.1003 -0.7539  0.0109
   58bbb     C7 1759   8.127   0.191   9.590 -0.9636  0.1522 -0.2255
   58bbb    H13 1760   8.081   0.184   9.689 -2.1082  1.8712 -0.5891
   58bbb    H14 1761   8.060   0.122   9.538 -0.7821 -1.3449  1.3998
   58bbb     C8 1762   8.630   0.285  10.033 -1.0207 -0.3814  0.4849
   58bbb    H15 1763   8.725   0.230  10.022 -0.9074  0.0997 -1.1323
   58bbb    H16 1764   8.651   0.389  10.006 -1.0076  0.1442  2.3489
   58bbb     C9 1765   8.711  -0.003   9.395  0.2299 -0.3115  0.2329
   58bbb    H17 1766   8.813  -0.041   9.386  1.6065  3.2327 -0.9094
   58bbb    H18 1767   8.695   0.080   9.324  0.3278 -0.6391 -0.1747
   58bbb     O1 1768   8.132   0.336   9.553 -0.5811  0.4325  0.6056
   58bbb    H19 1769   8.495   0.032   9.740  1.5279  0.4202  1.4229
   59bbb     N1 1770   7.937   0.559  10.572 -0.1792  0.2544  0.0149
   59bbb     C1 1771   7.847   0.603  10.687  0.2025  0.1997  0.8330
   59bbb     H1 1772   7.911   0.581  10.773  2.3587  0.8242 -0.5336
   59bbb     H2 1773   7.756   0.543  10.695  0.0087 -0.0084 -2.0610
   59bbb     C2 1774   7.989   0.415  10.596 -0.0466  0.2741 -0.0424
   59bbb     H3 1775   7.901   0.352  10.611  1.0894 -1.0468  1.4077
   59bbb     H4 1776   8.046   0.400  10.688 -0.4327 -1.4382 -0.0406
   59bbb     C3 1777   7.869   0.576  10.440  0.1190 -0.1125  1.1163
   59bbb     H5 1778   7.950   0.556  10.370 -0.6568  0.8091 -0.0976
   59bbb     H6 1779   7.841   0.681  10.426 -0.0141 -0.0030  2.1250
   59bbb     C4 1780   7.744   0.494  10.400 -0.4284 -0.1409  0.3178
   59bbb     H7 1781   7.664   0.506  10.475 -0.8057 -2.1926  0.3105
   59bbb     H8 1782   7.764   0.386  10.403 -0.1201 -0.0872  0.1989
   59bbb     C5 1783   7.815   0.751  10.703 -0.5904  0.4025  0.4113
   59bbb     H9 1784   7.736   0.769  10.778 -0.5320  0.1108  0.5433
   59bbb    H10 1785   7.776   0.779  10.605  2.8336 -1.1797 -1.5429
   59bbb     C6 1786   8.081   0.353  10.487  0.1875 -0.1322  0.0945
   59bbb    H11 1787   8.161   0.420  10.451  0.8340 -0.2211  1.3096
   59bbb    H12 1788   8.024   0.332  10.395 -2.4619  0.0545  1.6020
   59bbb     C7 1789   7.697   0.532  10.263  0.3415 -0.4050  0.0559
   59bbb    H13 1790   7.658   0.634  10.273 -0.3901 -0.5067 -1.4250
   59bbb    H14 1791   7.617   0.466  10.229 -0.7956  2.0906 -2.6104
   59bbb     C8 1792   8.156   0.229  10.535  0.2683 -0.0207 -0.1344
   59bbb    H15 1793   8.080   0.154  10.559 -1.0172  1.2150 -0.2011
   59bbb    H16 1794   8.219   0.183  10.458  1.2990  0.1346  0.5834
   59bbb     C9 1795   7.940   0.837  10.735  0.4472  0.4412 -0.2341
   59bbb    H17 1796   7.920   0.943  10.752  0.2973  0.3349  0.2806
   59bbb    H18 1797   8.013   0.818  10.655  1.6490 -0.6308  1.0420
   59bbb     O1 1798   7.802   0.532  10.167 -0.1849 -0.9887  0.1049
   59bbb    H19 1799   8.018   0.623  10.568  0.0473 -0.0787 -1.4829
   60bbb     N1 1800   8.755   1.740   9.720 -0.2815 -0.2034 -0.0476
   60bbb     C1 1801   8.741   1.878   9.652 -0.1304  0.0670  0.6413
   60bbb     H1 1802   8.643   1.925   9.666 -1.4338 -1.5886 -2.1197
   60bbb     H2 1803   8.738   1.864   9.544 -1.5895 -0.6717  0.7483
   60bbb     C2 1804   8.765   1.757   9.870  1.1215 -1.0676 -0.1695
   60bbb     H3 1805   8.685   1.824   9.903  0.7623  0.4308 -3.6355
   60bbb     H4 1806   8.862   1.806   9.881 -0.1213  1.2694  1.3588
   60bbb     C3 1807   8.632   1.659   9.682  0.4340 -0.2503  0.3500
   60bbb     H5 1808   8.542   1.708   9.721 -0.5690 -1.9862  0.3484
   60bbb     H6 1809   8.638   1.572   9.748  1.6776 -0.6275 -0.2416
   60bbb     C4 1810   8.611   1.615   9.533  0.3543 -0.0514  0.4742
   60bbb     H7 1811   8.710   1.592   9.492  0.0812 -0.7068  0.1736
   60bbb     H8 1812   8.575   1.705   9.482  1.6282  0.2149  0.0351
   60bbb     C5 1813   8.845   1.987   9.688 -0.0479  0.0664 -0.0068
   60bbb     H9 1814   8.859   1.995   9.796  1.0395 -0.7931 -0.0574
   60bbb    H10 1815   8.816   2.085   9.648  0.3175 -0.3890 -1.4512
   60bbb     C6 1816   8.747   1.620   9.944 -0.2235 -0.4730  0.8326
   60bbb    H11 1817   8.647   1.576   9.940 -1.5179  2.2439  1.0772
   60bbb    H12 1818   8.764   1.644  10.050  2.4771  0.6920  0.2221
   60bbb     C7 1819   8.516   1.495   9.519  0.8052  0.3410  0.0442
   60bbb    H13 1820   8.419   1.515   9.567  2.3294 -0.0558  3.6008
   60bbb    H14 1821   8.558   1.415   9.582  0.5035  0.7841  0.8288
   60bbb     C8 1822   8.852   1.517   9.895  0.5088 -0.2118  0.0209
   60bbb    H15 1823   8.852   1.420   9.946 -1.6061  0.6167  1.7495
   60bbb    H16 1824   8.833   1.503   9.788  1.2817  1.2799 -0.3386
   60bbb     C9 1825   8.982   1.940   9.632  0.4454  0.0469  0.0831
   60bbb    H17 1826   9.013   1.841   9.669  3.2012  0.6255 -0.4907
   60bbb    H18 1827   9.062   2.002   9.674 -0.8537  2.4309 -0.7778
   60bbb     O1 1828   8.491   1.466   9.380  0.0857  1.1445  0.2838
   60bbb    H19 1829   8.842   1.696   9.687  1.3674  2.0434  1.0887
   61bbb     N1 1830   9.066   0.763   8.943  0.0502 -0.7342 -0.2567
   61bbb     C1 1831   8.930   0.688   8.959  0.5570  0.1238 -0.0512
   61bbb     H1 1832   8.946   0.599   8.898  0.7648 -0.9811  1.5554
   61bbb     H2 1833   8.862   0.755   8.906  3.7142  1.2898 -3.0240
   61bbb     C2 1834   9.149   0.695   8.840 -0.2407 -0.6467  0.5470
   61bbb     H3 1835   9.205   0.769   8.783 -0.3960 -0.6909  0.3363
   61bbb     H4 1836   9.078   0.646   8.773 -0.2265  1.0536 -0.7523
   61bbb     C3 1837   9.041   0.909   8.898 -0.1952 -0.1307  0.1990
   61bbb     H5 1838   8.985   0.960   8.976  0.8019  1.4382 -0.0632
   61bbb     H6 1839   8.981   0.908   8.807  1.8974  0.6097 -1.2882
   61bbb     C4 1840   9.166   0.998   8.888  0.9454  0.0348  0.8095
   61bbb     H7 1841   9.238   0.951   8.820 -1.5144 -1.0650 -1.1553
   61bbb     H8 1842   9.211   1.002   8.989  1.2522  1.1929  0.6522
   61bbb     C5 1843   8.874   0.652   9.103 -0.1062 -0.0430 -0.3870
   61bbb     H9 1844   8.772   0.617   9.088 -0.9887  3.0519 -2.5536
   61bbb    H10 1845   8.876   0.747   9.159 -1.4714  1.3405 -2.5207
   61bbb     C6 1846   9.249   0.592   8.890 -0.9005  0.0447  0.0518
   61bbb    H11 1847   9.317   0.563   8.810  1.4314  4.9648 -0.0916
   61bbb    H12 1848   9.195   0.502   8.924 -0.0304  0.1424  1.8253
   61bbb     C7 1849   9.138   1.143   8.839 -0.7447  0.6399 -0.2164
   61bbb    H13 1850   9.137   1.135   8.730  1.5044  2.2325 -0.4264
   61bbb    H14 1851   9.213   1.214   8.876  1.6829  0.3470 -4.0088
   61bbb     C8 1852   9.346   0.651   8.997 -0.5956 -0.1036 -0.5634
   61bbb    H15 1853   9.287   0.687   9.082 -0.5840  0.0469 -0.6187
   61bbb    H16 1854   9.403   0.572   9.047  0.2342  0.8871  0.0837
   61bbb     C9 1855   8.961   0.540   9.172  0.2142  0.2564  0.6036
   61bbb    H17 1856   8.923   0.526   9.274 -1.3563  1.9612  0.3122
   61bbb    H18 1857   9.068   0.563   9.184  0.3231 -0.2957  0.6922
   61bbb     O1 1858   9.002   1.186   8.886 -0.1018  0.4237  0.3500
   61bbb    H19 1859   9.117   0.762   9.033  0.9154 -2.9009 -0.7171
   62ccc     C1 1860   8.107   0.137   5.087 -0.2766  0.3689 -0.1103
   62ccc     C2 1861   8.094   0.023   5.190  0.3885 -0.4771  0.1831
   62ccc     H1 1862   8.150   0.108   4.991 -0.5297 -0.8167  0.1230
   62ccc     H2 1863   8.024  -0.050   5.148  0.3921 -0.6551  0.4830
   62ccc     C3 1864   8.230  -0.032   5.229 -0.0046  0.8504 -0.4968
   62ccc     C4 1865   8.329   0.083   5.267 -0.2050 -0.5182  0.0707
   62ccc     C5 1866   8.321   0.193   5.161  0.5069 -0.0550  0.4643
   62ccc     H3 1867   8.290   0.125   5.360  1.5190 -1.1269  1.1334
   62ccc     H4 1868   8.273  -0.091   5.147 -1.1425  0.9914 -1.2102
   62ccc     H5 1869   8.352   0.148   5.066 -0.7333  1.7383 -0.8676
   62ccc     O1 1870   8.398   0.302   5.211 -0.1776  0.1782  0.0816
   62ccc     O2 1871   8.456   0.025   5.295  0.2733  0.1368 -0.3354
   62ccc     O3 1872   8.233  -0.131   5.327 -0.3932  0.8131 -0.4206
   62ccc     O4 1873   8.019   0.074   5.303 -0.0110  0.2517  0.3505
   62ccc     C6 1874   7.973   0.196   5.048  0.5644 -1.0970 -0.5899
   62ccc     H6 1875   8.328  -0.127   5.347 -0.3873  2.8229 -0.6470
   62ccc     H7 1876   7.989  -0.003   5.354 -2.0157 -1.9592 -3.6472
   62ccc     H8 1877   8.461   0.040   5.391  0.2679  2.0330 -0.5903
   62ccc     H9 1878   7.955   0.285   5.110  0.3286 -2.1331  0.8770
   62ccc    H10 1879   7.890   0.129   5.073 -0.1117 -0.2979 -0.6494
   62ccc     O5 1880   7.965   0.226   4.910 -0.3193  0.0165 -0.1603
   62ccc    H11 1881   8.038   0.287   4.890 -1.3873  0.1924 -4.6297
   62ccc     O6 1882   8.184   0.236   5.148  0.1888  0.0380  0.0678
   63ccc     C1 1883   8.445   0.274   5.929  0.6549  0.0453  0.0607
   63ccc     C2 1884   8.589   0.226   5.887 -0.0169  0.3864 -0.0538
   63ccc     H1 1885   8.386   0.186   5.955  2.8239 -1.8371 -1.0391
   63ccc     H2 1886   8.644   0.179   5.970  3.4859  3.3136 -0.4944
   63ccc     C3 1887   8.590   0.125   5.763  0.5204 -0.2599  0.1011
   63ccc     C4 1888   8.492   0.167   5.651 -0.2826 -0.4010  0.2671
   63ccc     C5 1889   8.357   0.223   5.706  0.3720 -0.2351  0.3360
   63ccc     H3 1890   8.548   0.249   5.604  1.3523 -1.0161  1.0489
   63ccc     H4 1891   8.547   0.031   5.801  1.5542 -1.1027 -0.7328
   63ccc     H5 1892   8.289   0.144   5.740 -1.2793  0.2788 -1.5256
   63ccc     O1 1893   8.281   0.289   5.602  0.0218  0.0268 -0.0043
   63ccc     O2 1894   8.461   0.067   5.552  0.4106 -0.3607 -0.2477
   63ccc     O3 1895   8.718   0.100   5.706 -0.6628 -0.6220  0.0183
   63ccc     O4 1896   8.651   0.339   5.840  0.1460 -0.4199 -0.4670
   63ccc     C6 1897   8.439   0.381   6.043  0.4565  0.1792  0.2456
   63ccc     H6 1898   8.725   0.018   5.655  2.4940 -0.9991  0.8700
   63ccc     H7 1899   8.729   0.302   5.796 -1.2087 -1.1834 -2.3632
   63ccc     H8 1900   8.411  -0.002   5.599  0.6412 -0.9281 -0.8409
   63ccc     H9 1901   8.411   0.481   6.006  0.5506  0.8648  1.9392
   63ccc    H10 1902   8.540   0.392   6.085  0.1953 -0.6243  1.1055
   63ccc     O5 1903   8.352   0.324   6.143 -0.3189 -0.0187 -0.6134
   63ccc    H11 1904   8.391   0.338   6.231  0.4297 -3.5294 -0.2538
   63ccc     O6 1905   8.367   0.313   5.814 -0.5224  0.2977  0.0788
   64ccc     C1 1906   9.541   1.514   5.196  0.6450 -0.8461 -0.4919
   64ccc     C2 1907   9.577   1.649   5.265  0.0710 -0.2823  0.0063
   64ccc     H1 1908   9.546   1.525   5.086  0.3720 -1.0326 -0.5225
   64ccc     H2 1909   9.680   1.676   5.241  0.1190  1.1488  1.6151
   64ccc     C3 1910   9.474   1.763   5.217  0.2828 -0.4228 -0.7286
   64ccc     C4 1911   9.323   1.722   5.242  0.1311  0.5554 -0.2051
   64ccc     C5 1912   9.300   1.586   5.178 -0.2281 -0.0818  0.1099
   64ccc     H3 1913   9.305   1.708   5.350  1.5224 -1.8907 -0.2244
   64ccc     H4 1914   9.495   1.773   5.110  0.2957  2.3265 -0.5363
   64ccc     H5 1915   9.306   1.597   5.069  1.3592 -0.0894  0.1824
   64ccc     O1 1916   9.174   1.541   5.215 -0.2148  0.3934 -0.3054
   64ccc     O2 1917   9.231   1.811   5.181 -0.4940  0.1129 -0.4993
   64ccc     O3 1918   9.492   1.897   5.281 -0.5480 -0.1058  0.1486
   64ccc     O4 1919   9.572   1.624   5.403 -0.3335 -0.4475 -0.1196
   64ccc     C6 1920   9.634   1.397   5.233 -0.3822  0.3229  0.6248
   64ccc     H6 1921   9.422   1.959   5.253 -0.7314 -0.4383 -0.1281
   64ccc     H7 1922   9.596   1.708   5.444 -1.0842 -1.2471  2.1018
   64ccc     H8 1923   9.281   1.863   5.115  2.2908 -3.2653 -1.3451
   64ccc     H9 1924   9.742   1.405   5.215 -0.7797 -1.3027 -3.7368
   64ccc    H10 1925   9.598   1.306   5.183 -2.0938  0.3257  1.7761
   64ccc     O5 1926   9.620   1.372   5.364 -0.8723 -0.4729 -0.6588
   64ccc    H11 1927   9.587   1.459   5.395  0.2793 -0.6100  1.0962
   64ccc     O6 1928   9.400   1.480   5.219  0.5280 -0.3321 -0.3289
   65ccc     C1 1929   8.584   1.030   4.471 -0.3545  0.1285 -0.2238
   65ccc     C2 1930   8.430   0.989   4.478  0.1883 -0.1985  0.7701
   65ccc     H1 1931   8.635   0.940   4.506  1.1176  1.2736  0.7012
   65ccc     H2 1932   8.415   0.906   4.408 -1.4196  2.1459 -1.9038
   65ccc     C3 1933   8.389   0.970   4.622  0.5057  0.0540  0.1969
   65ccc     C4 1934   8.433   1.087   4.717 -0.9825  0.1056  0.6439
   65ccc     C5 1935   8.589   1.118   4.697  0.1383  0.1565 -0.2022
   65ccc     H3 1936   8.374   1.175   4.688 -0.6748 -0.3092 -1.3524
   65ccc     H4 1937   8.436   0.878   4.660 -3.9808 -1.3591  3.1557
   65ccc     H5 1938   8.647   1.029   4.724 -0.7772  0.0692  1.6328
   65ccc     O1 1939   8.624   1.242   4.768 -0.3009 -0.0064 -0.7261
   65ccc     O2 1940   8.412   1.048   4.857  0.4641 -0.3633 -0.1848
   65ccc     O3 1941   8.249   0.937   4.634  0.2639  0.5373  0.6527
   65ccc     O4 1942   8.348   1.095   4.424 -0.2629 -0.4778 -0.0224
   65ccc     C6 1943   8.631   1.060   4.325  0.5233  0.4518  0.6812
   65ccc     H6 1944   8.194   0.991   4.576 -0.5847 -1.4644 -0.4974
   65ccc     H7 1945   8.346   1.085   4.328 -0.4981 -0.7717  0.0104
   65ccc     H8 1946   8.463   0.967   4.875  0.1939 -1.2186 -2.7976
   65ccc     H9 1947   8.595   1.160   4.297 -0.9726 -0.4811 -0.9023
   65ccc    H10 1948   8.585   0.985   4.259 -1.0063  0.6839  1.4375
   65ccc     O5 1949   8.768   1.035   4.307 -0.7469  0.5078 -0.3940
   65ccc    H11 1950   8.811   1.054   4.392 -1.1874  1.0178 -0.2839
   65ccc     O6 1951   8.612   1.141   4.557  0.6513 -0.1446 -0.0538
   66ccc     C1 1952   9.734   1.054   6.366  0.0123  0.4824  0.0744
   66ccc     C2 1953   9.856   0.966   6.339 -0.2044 -0.6386 -0.5609
   66ccc     H1 1954   9.673   1.046   6.275  0.7486 -0.5380 -0.3576
   66ccc     H2 1955   9.816   0.867   6.311 -0.6510 -0.8298  0.6796
   66ccc     C3 1956   9.948   1.024   6.226 -0.0782 -0.4533 -0.3619
   66ccc     C4 1957   9.971   1.177   6.225 -0.2389  0.3549 -0.5982
   66ccc     C5 1958   9.839   1.247   6.263 -0.1078 -0.1852  0.4315
   66ccc     H3 1959  10.047   1.205   6.299  0.3145 -0.9113 -0.6638
   66ccc     H4 1960   9.897   0.997   6.133 -0.1289 -0.9705 -0.1842
   66ccc     H5 1961   9.779   1.240   6.172 -0.1972  1.7795  0.3043
   66ccc     O1 1962   9.872   1.396   6.288  0.3430  0.1258 -0.1394
   66ccc     O2 1963  10.010   1.216   6.088 -0.3985 -0.0674 -0.2311
   66ccc     O3 1964  10.082   0.959   6.242  0.5852  0.1368 -0.0188
   66ccc     O4 1965   9.933   0.968   6.459  0.0143 -0.9453 -0.3654
   66ccc     C6 1966   9.641   1.023   6.484 -1.0503  0.2821 -0.5746
   66ccc     H6 1967  10.077   0.876   6.192 -1.5931 -0.6482  1.3589
   66ccc     H7 1968  10.018   0.961   6.414  1.0031 -1.3673  1.4832
   66ccc     H8 1969  10.108   1.210   6.087 -0.2274  1.9219 -1.3316
   66ccc     H9 1970   9.582   0.932   6.468 -1.5934  1.0024 -3.0581
   66ccc    H10 1971   9.572   1.108   6.498  0.0101  1.3561 -1.6652
   66ccc     O5 1972   9.719   1.027   6.597 -0.0045 -0.3271 -0.6954
   66ccc    H11 1973   9.806   1.002   6.561  1.4354 -0.2944  2.4099
   66ccc     O6 1974   9.766   1.188   6.378  0.0501 -0.2132 -0.1342
   67ccc     C1 1975  10.084   1.968   5.376  0.3651 -0.0079 -0.4152
   67ccc     C2 1976   9.970   2.036   5.306  0.4854 -0.1950 -0.1712
   67ccc     H1 1977  10.085   1.865   5.336  0.5464 -0.7524  1.4202
   67ccc     H2 1978   9.979   2.037   5.197  0.4482  0.1215 -0.1724
   67ccc     C3 1979   9.839   1.963   5.330  0.1104  0.1798 -0.0343
   67ccc     C4 1980   9.808   1.941   5.478  0.1380 -0.1869  0.4480
   67ccc     C5 1981   9.933   1.891   5.557 -0.1466  0.1566 -0.3314
   67ccc     H3 1982   9.786   2.041   5.519 -0.4164 -0.0627 -0.1537
   67ccc     H4 1983   9.854   1.868   5.277  2.1850  2.1812 -3.4206
   67ccc     H5 1984   9.949   1.786   5.529  1.4109  0.9525 -2.6715
   67ccc     O1 1985   9.907   1.897   5.692 -0.1472 -0.7451  0.2496
   67ccc     O2 1986   9.697   1.855   5.496 -0.0075 -0.3634  0.2276
   67ccc     O3 1987   9.723   2.032   5.274 -0.2872 -0.3328  0.0169
   67ccc     O4 1988   9.962   2.168   5.363  0.2303  0.3440 -0.5247
   67ccc     C6 1989  10.225   2.025   5.357 -0.5664 -0.0970  0.3072
   67ccc     H6 1990   9.642   1.982   5.291 -0.6947  0.4437  0.3954
   67ccc     H7 1991   9.867   2.182   5.350  0.3712  0.9228 -0.9490
   67ccc     H8 1992   9.630   1.905   5.545 -1.0141 -1.2399 -0.2035
   67ccc     H9 1993  10.236   2.128   5.394 -2.9325  0.0597  0.7648
   67ccc    H10 1994  10.248   2.034   5.251 -0.8148 -0.9368  0.1748
   67ccc     O5 1995  10.323   1.937   5.414  0.2533 -0.0696  0.3399
   67ccc    H11 1996  10.325   1.860   5.354 -1.4524 -0.6279  0.9175
   67ccc     O6 1997  10.048   1.966   5.516 -0.3460  0.3386  0.3406
   68ccc     C1 1998   8.789   1.926   5.277  0.1846  0.4872 -0.2857
   68ccc     C2 1999   8.747   2.072   5.244 -0.0322 -0.5213 -0.3392
   68ccc     H1 2000   8.729   1.853   5.222  0.4593 -1.6244  2.0270
   68ccc     H2 2001   8.754   2.093   5.137  0.5927  1.1314  0.0003
   68ccc     C3 2002   8.609   2.119   5.298  0.1300 -0.0956 -0.0252
   68ccc     C4 2003   8.580   2.054   5.437  0.7626 -0.1770 -0.6286
   68ccc     C5 2004   8.624   1.906   5.451 -0.0768 -0.4110  0.0707
   68ccc     H3 2005   8.647   2.109   5.504 -2.0717  1.6686  0.9389
   68ccc     H4 2006   8.525   2.085   5.236 -0.7452  0.0356  1.0589
   68ccc     H5 2007   8.566   1.841   5.385 -1.5465  1.3962 -0.4866
   68ccc     O1 2008   8.601   1.869   5.585 -0.3755 -0.1621 -0.4190
   68ccc     O2 2009   8.445   2.082   5.489 -0.0429  0.0228  0.0771
   68ccc     O3 2010   8.608   2.260   5.305  0.1168 -0.0512 -0.9572
   68ccc     O4 2011   8.844   2.153   5.313 -0.0320 -0.2303 -0.0753
   68ccc     C6 2012   8.942   1.900   5.237  0.3708  0.2272  0.1660
   68ccc     H6 2013   8.566   2.296   5.226 -2.6359 -1.3878 -0.2385
   68ccc     H7 2014   8.791   2.230   5.339  0.2949  0.0183 -0.1335
   68ccc     H8 2015   8.441   2.179   5.498 -1.7583  0.0768 -0.9088
   68ccc     H9 2016   9.009   1.949   5.309 -0.4101 -0.3602  1.3254
   68ccc    H10 2017   8.961   1.951   5.142 -3.2165 -0.8712 -1.3036
   68ccc     O5 2018   8.972   1.760   5.245 -0.4759  0.0640 -0.0177
   68ccc    H11 2019   9.067   1.767   5.223 -0.7498 -0.7997 -1.6716
   68ccc     O6 2020   8.761   1.899   5.414 -0.2380 -0.3104 -0.0391
   69ccc     C1 2021   8.731   2.423   5.938 -0.4716 -0.6380  0.0324
   69ccc     C2 2022   8.766   2.450   5.794 -1.1285  0.1661  0.0887
   69ccc     H1 2023   8.827   2.410   5.989  0.0430  1.9442 -0.1151
   69ccc     H2 2024   8.834   2.536   5.789 -2.0027  0.8785  0.2757
   69ccc     C3 2025   8.840   2.326   5.731  0.1713 -0.0441 -0.3022
   69ccc     C4 2026   8.763   2.194   5.768  0.5638 -0.3100 -0.1165
   69ccc     C5 2027   8.723   2.180   5.919 -0.4593  0.2695  0.7842
   69ccc     H3 2028   8.673   2.198   5.706  0.5278 -0.8393 -0.1069
   69ccc     H4 2029   8.941   2.326   5.773  0.8255  0.2761 -1.8268
   69ccc     H5 2030   8.812   2.154   5.977  2.0319  1.2963 -2.2931
   69ccc     O1 2031   8.613   2.081   5.931  0.1406 -0.2574 -0.1070
   69ccc     O2 2032   8.848   2.086   5.734  0.5688 -0.2496 -0.0108
   69ccc     O3 2033   8.846   2.328   5.585 -0.4081 -0.1607  0.0977
   69ccc     O4 2034   8.647   2.475   5.724  0.3572  0.6725 -0.4114
   69ccc     C6 2035   8.648   2.540   5.998 -0.2568 -0.2516 -0.0520
   69ccc     H6 2036   8.886   2.412   5.556 -1.4366  0.0843 -0.6621
   69ccc     H7 2037   8.661   2.467   5.628 -0.0932  0.7251 -0.4826
   69ccc     H8 2038   8.848   2.101   5.638  1.6398 -1.5781 -0.2525
   69ccc     H9 2039   8.542   2.514   5.992 -0.4205  0.7534 -2.5749
   69ccc    H10 2040   8.674   2.634   5.948  0.3981 -0.5558 -0.2859
   69ccc     O5 2041   8.689   2.546   6.128 -0.0396  0.1827 -0.0219
   69ccc    H11 2042   8.702   2.457   6.164 -0.3114 -0.0030 -0.3891
   69ccc     O6 2043   8.658   2.304   5.957  1.2869 -0.3681 -0.0217
   70ccc     C1 2044  10.114   0.003   7.565  0.1812 -0.3799  0.3818
   70ccc     C2 2045  10.139  -0.024   7.709 -0.1327 -0.3244 -0.4272
   70ccc     H1 2046  10.164  -0.073   7.503 -1.8369  0.0661 -1.9129
   70ccc     H2 2047  10.096  -0.124   7.724  1.2908 -1.1150 -1.4239
   70ccc     C3 2048  10.289  -0.021   7.755 -0.0853  0.5085 -0.6830
   70ccc     C4 2049  10.365   0.100   7.694  0.2569  0.2259 -0.4107
   70ccc     C5 2050  10.328   0.126   7.540  0.3807 -0.3875  0.2595
   70ccc     H3 2051  10.323   0.186   7.747 -2.3699 -1.2567  0.0978
   70ccc     H4 2052  10.327  -0.112   7.706  0.4273  1.7579 -2.7673
   70ccc     H5 2053  10.366   0.041   7.483 -2.0914 -2.0811  0.9318
   70ccc     O1 2054  10.393   0.240   7.482  1.2429  0.1387  0.3486
   70ccc     O2 2055  10.508   0.093   7.722  0.0339 -0.3446  0.3669
   70ccc     O3 2056  10.310  -0.031   7.897  0.2381 -0.1094 -0.1908
   70ccc     O4 2057  10.055   0.052   7.794 -0.9314 -0.5482  0.0507
   70ccc     C6 2058   9.964   0.002   7.520 -0.0277  0.2096 -0.1740
   70ccc     H6 2059  10.313   0.059   7.935  1.1481 -0.8324  1.6008
   70ccc     H7 2060  10.078   0.008   7.878 -1.2216 -1.2003 -0.2070
   70ccc     H8 2061  10.530   0.002   7.747  0.9645 -0.1557  0.2766
   70ccc     H9 2062   9.916   0.092   7.561  1.7689  0.4781  1.4843
   70ccc    H10 2063   9.918  -0.091   7.557  2.0823 -0.6644  0.3713
   70ccc     O5 2064   9.968   0.003   7.382 -0.1917  0.2421 -0.0097
   70ccc    H11 2065  10.017  -0.079   7.366 -0.1583  0.4088 -0.8071
   70ccc     O6 2066  10.181   0.129   7.529 -0.3463  0.0699 -0.3189
   71ccc     C1 2067  10.784   0.548   7.693  0.4070  0.0429 -0.6695
   71ccc     C2 2068  10.780   0.408   7.748  0.1441  0.1593  0.3291
   71ccc     H1 2069  10.807   0.609   7.782  0.4700 -0.6349 -0.2128
   71ccc     H2 2070  10.873   0.380   7.800 -0.1017  0.1063  0.7492
   71ccc     C3 2071  10.659   0.390   7.846 -0.2549  0.0672 -0.2505
   71ccc     C4 2072  10.524   0.428   7.771  0.1438  0.2127  0.1529
   71ccc     C5 2073  10.545   0.578   7.731 -0.5121  1.1799  0.4269
   71ccc     H3 2074  10.522   0.376   7.674 -0.0993  1.2323 -0.4084
   71ccc     H4 2075  10.676   0.452   7.935 -1.0425  0.1467 -0.1505
   71ccc     H5 2076  10.565   0.649   7.812 -2.0739  1.1377  0.8677
   71ccc     O1 2077  10.435   0.617   7.656  0.1310  0.1453  0.2457
   71ccc     O2 2078  10.405   0.407   7.858 -0.1758 -0.7637  0.5426
   71ccc     O3 2079  10.655   0.256   7.893  0.2163 -0.1938  0.1133
   71ccc     O4 2080  10.763   0.323   7.637  0.3807 -0.0150  0.4213
   71ccc     C6 2081  10.888   0.586   7.590 -0.1624  0.4419  0.3621
   71ccc     H6 2082  10.602   0.213   7.823 -0.1066  1.5528 -0.7779
   71ccc     H7 2083  10.789   0.385   7.567  0.8453 -1.6791 -0.9670
   71ccc     H8 2084  10.420   0.470   7.931  1.0473 -0.5960  0.1740
   71ccc     H9 2085  10.988   0.578   7.637 -0.1574  1.6716  0.5923
   71ccc    H10 2086  10.876   0.690   7.558  0.6417  0.8964  1.4260
   71ccc     O5 2087  10.878   0.488   7.484  0.1750  0.2576 -0.0744
   71ccc    H11 2088  10.964   0.500   7.439 -0.1392  1.4043 -0.3907
   71ccc     O6 2089  10.653   0.585   7.639 -0.4187 -0.2808 -0.0530
   72ccc     C1 2090  11.442   0.189   8.054  0.0296 -0.0899 -0.9729
   72ccc     C2 2091  11.589   0.186   8.001 -0.3274  0.0864  0.1940
   72ccc     H1 2092  11.419   0.106   8.122  0.6763 -0.3649 -1.0771
   72ccc     H2 2093  11.664   0.186   8.080  0.5911  0.6227 -0.6616
   72ccc     C3 2094  11.611   0.063   7.912 -0.2399 -0.3471  0.0551
   72ccc     C4 2095  11.511   0.061   7.792 -0.3323 -0.4489  0.9292
   72ccc     C5 2096  11.357   0.080   7.842  0.5886 -0.9840  0.1143
   72ccc     H3 2097  11.533   0.147   7.728  1.9815 -1.3717  0.3668
   72ccc     H4 2098  11.588  -0.030   7.965  0.5835  1.1228  3.2677
   72ccc     H5 2099  11.320  -0.013   7.886 -0.8321 -0.4752  0.0286
   72ccc     O1 2100  11.277   0.117   7.724  0.0952 -0.0168 -0.0338
   72ccc     O2 2101  11.518  -0.067   7.729  0.1071 -0.6154  0.0411
   72ccc     O3 2102  11.741   0.057   7.856 -0.5057 -0.4370 -0.4272
   72ccc     O4 2103  11.607   0.304   7.925  0.1930  0.2563  0.6841
   72ccc     C6 2104  11.419   0.317   8.139 -0.0353  0.8877 -0.6851
   72ccc     H6 2105  11.795   0.033   7.933  0.8775  1.7264 -0.6619
   72ccc     H7 2106  11.681   0.283   7.866  0.6222  0.9611  0.9476
   72ccc     H8 2107  11.565  -0.046   7.647  0.6740 -1.7387  0.0546
   72ccc     H9 2108  11.401   0.408   8.079 -0.4360  1.0123 -0.3772
   72ccc    H10 2109  11.514   0.328   8.195  0.7736 -2.6627 -1.1378
   72ccc     O5 2110  11.307   0.287   8.217  0.3290  0.4965 -0.7254
   72ccc    H11 2111  11.239   0.303   8.150  1.3119  2.9479 -1.2396
   72ccc     O6 2112  11.347   0.184   7.949 -0.0668 -0.5063  0.5507
   73ccc     C1 2113  10.772  -0.740   7.396 -0.0212  0.6839 -0.3169
   73ccc     C2 2114  10.625  -0.756   7.376  0.7573  0.2156 -0.3674
   73ccc     H1 2115  10.801  -0.765   7.499  0.2065  0.9261 -0.3186
   73ccc     H2 2116  10.592  -0.857   7.402 -0.2382  1.3646  3.4688
   73ccc     C3 2117  10.538  -0.666   7.472  0.3612  0.0314 -0.3770
   73ccc     C4 2118  10.582  -0.517   7.466  0.4427  0.2433 -0.4552
   73ccc     C5 2119  10.739  -0.509   7.476  0.5080 -0.1204 -0.2425
   73ccc     H3 2120  10.557  -0.461   7.375 -0.8212  1.6944  0.7412
   73ccc     H4 2121  10.572  -0.707   7.568 -0.2943  0.3472 -0.0056
   73ccc     H5 2122  10.756  -0.560   7.572 -0.4321  0.1832  0.1031
   73ccc     O1 2123  10.794  -0.376   7.464  0.0323 -0.5169 -0.4562
   73ccc     O2 2124  10.515  -0.445   7.575 -0.5642 -0.0287  0.1915
   73ccc     O3 2125  10.393  -0.688   7.454 -0.3578 -0.0479  0.3287
   73ccc     O4 2126  10.600  -0.721   7.243 -0.4873  0.2812  0.0700
   73ccc     C6 2127  10.853  -0.831   7.301  0.6357 -0.2627  0.4254
   73ccc     H6 2128  10.370  -0.773   7.496  0.7722 -0.0596  0.9621
   73ccc     H7 2129  10.536  -0.785   7.208 -0.1916 -1.6960  2.8300
   73ccc     H8 2130  10.443  -0.507   7.595 -0.5169 -0.7771 -1.7543
   73ccc     H9 2131  10.847  -0.784   7.202 -1.3371  1.4506  1.2807
   73ccc    H10 2132  10.808  -0.930   7.298 -1.9466  0.8505 -1.6962
   73ccc     O5 2133  10.988  -0.841   7.350 -0.0697  0.2877 -0.6060
   73ccc    H11 2134  11.035  -0.905   7.293 -2.0713 -1.0632 -0.8682
   73ccc     O6 2135  10.809  -0.596   7.379  0.2101  0.3476  0.3909
   74ccc     C1 2136  10.064  -1.072   6.193 -0.7365 -0.0395  0.5515
   74ccc     C2 2137  10.164  -1.185   6.170 -0.2991 -0.0931 -0.0791
   74ccc     H1 2138   9.962  -1.100   6.166 -1.5034  1.0625  2.1044
   74ccc     H2 2139  10.125  -1.278   6.213  0.3214  0.1143  0.9748
   74ccc     C3 2140  10.195  -1.226   6.018 -0.5318 -1.2433 -0.3209
   74ccc     C4 2141  10.216  -1.091   5.935 -0.4472  0.8361  0.4989
   74ccc     C5 2142  10.109  -0.985   5.964  0.1530 -0.0946  0.0793
   74ccc     H3 2143  10.315  -1.053   5.959  0.1423  1.0281 -1.9982
   74ccc     H4 2144  10.103  -1.278   5.987 -0.5297 -0.6203 -1.4410
   74ccc     H5 2145  10.016  -1.020   5.918 -0.2699  0.3438  0.5978
   74ccc     O1 2146  10.158  -0.867   5.898 -0.0365  0.4690  0.1535
   74ccc     O2 2147  10.223  -1.128   5.797 -0.1577  0.6058  0.4192
   74ccc     O3 2148  10.309  -1.309   6.014  0.2939  0.1112  0.2897
   74ccc     O4 2149  10.282  -1.144   6.232  0.1055  0.6812  0.0206
   74ccc     C6 2150  10.047  -1.018   6.333  0.6142  0.7716 -0.6405
   74ccc     H6 2151  10.317  -1.326   5.918 -0.6176  1.3715 -0.0471
   74ccc     H7 2152  10.346  -1.211   6.201  2.2376  2.7842 -0.4000
   74ccc     H8 2153  10.136  -1.156   5.762  0.7653 -0.8475 -0.8521
   74ccc     H9 2154  10.148  -0.991   6.369  2.6939 -5.5559 -0.5185
   74ccc    H10 2155  10.018  -1.100   6.400 -2.0842  2.2013  0.0768
   74ccc     O5 2156   9.945  -0.913   6.353 -0.7378  0.2733  0.4957
   74ccc    H11 2157   9.862  -0.960   6.337  1.2083 -3.2827 -0.1537
   74ccc     O6 2158  10.091  -0.962   6.107 -0.5980 -0.6154 -0.7157
   75ccc     C1 2159  10.403  -0.790   4.955 -0.3586 -1.0971 -0.2186
   75ccc     C2 2160  10.281  -0.860   4.892  0.0792 -0.2708  0.3354
   75ccc     H1 2161  10.482  -0.865   4.947 -0.2705 -0.8375 -2.5537
   75ccc     H2 2162  10.317  -0.931   4.816  0.8180 -0.8275  1.1849
   75ccc     C3 2163  10.190  -0.940   4.992 -0.0565  0.6765 -0.3484
   75ccc     C4 2164  10.187  -0.885   5.140  0.4200  0.6543  1.1581
   75ccc     C5 2165  10.327  -0.834   5.189 -0.7948  0.2220  1.0095
   75ccc     H3 2166  10.104  -0.813   5.144 -1.6225 -1.3727 -0.8702
   75ccc     H4 2167  10.225  -1.044   4.999 -2.2265 -0.0878 -0.2865
   75ccc     H5 2168  10.397  -0.918   5.195 -0.1291  0.7658  0.9807
   75ccc     O1 2169  10.318  -0.767   5.318  0.1354 -0.1091  0.1778
   75ccc     O2 2170  10.128  -0.995   5.218 -0.0819  0.0835  0.7128
   75ccc     O3 2171  10.061  -0.943   4.940 -0.0673 -0.1129 -0.2605
   75ccc     O4 2172  10.201  -0.756   4.829  0.1265  0.0670 -0.8130
   75ccc     C6 2173  10.457  -0.678   4.866  0.7766 -0.1534 -0.0050
   75ccc     H6 2174  10.017  -1.024   4.971 -2.4604  1.0463 -0.3695
   75ccc     H7 2175  10.115  -0.791   4.859  1.2060  0.0679  2.7154
   75ccc     H8 2176  10.064  -0.948   5.274  1.4053  2.5338  0.5171
   75ccc     H9 2177  10.392  -0.591   4.849  0.3297 -0.3054  0.8817
   75ccc    H10 2178  10.478  -0.726   4.769  0.8284 -0.2362  0.0477
   75ccc     O5 2179  10.582  -0.644   4.932  0.3540  0.1959 -0.3466
   75ccc    H11 2180  10.640  -0.619   4.857  1.1916  0.7765  0.4802
   75ccc     O6 2181  10.372  -0.742   5.085 -0.2001 -0.3137  0.2072
   76ccc     C1 2182  11.340  -0.274   4.922 -0.0394 -0.3650  0.1306
   76ccc     C2 2183  11.333  -0.329   5.066  0.0274  0.3581  0.4740
   76ccc     H1 2184  11.431  -0.216   4.902  0.3819 -1.0134  0.1315
   76ccc     H2 2185  11.423  -0.389   5.083 -1.4318 -1.6705  1.5368
   76ccc     C3 2186  11.332  -0.218   5.171  0.1848  0.0340 -0.1105
   76ccc     C4 2187  11.223  -0.113   5.140  0.2376  0.4471 -0.1926
   76ccc     C5 2188  11.210  -0.075   4.986  0.3925  0.6869 -0.7145
   76ccc     H3 2189  11.135  -0.166   5.177  0.4264  1.1078  1.2744
   76ccc     H4 2190  11.425  -0.163   5.153  1.6231 -2.1492  0.2009
   76ccc     H5 2191  11.274   0.011   4.963  0.3593  0.9709  0.1911
   76ccc     O1 2192  11.071  -0.037   4.972 -0.5386 -0.2030  0.1383
   76ccc     O2 2193  11.237   0.010   5.223  0.2671  0.2907  0.0942
   76ccc     O3 2194  11.344  -0.270   5.312  0.3290  0.0288  0.1577
   76ccc     O4 2195  11.212  -0.412   5.080 -0.3211 -0.4788  0.0299
   76ccc     C6 2196  11.339  -0.385   4.808  0.0221 -0.5053 -0.1114
   76ccc     H6 2197  11.345  -0.194   5.373 -0.9931  0.7066 -0.5964
   76ccc     H7 2198  11.220  -0.443   4.989  0.1842  1.9166 -0.8304
   76ccc     H8 2199  11.330   0.011   5.252 -0.6477 -0.6095  3.4595
   76ccc     H9 2200  11.435  -0.435   4.789  0.0953  0.1037 -1.4943
   76ccc    H10 2201  11.315  -0.331   4.715  1.2518  1.1833  0.5048
   76ccc     O5 2202  11.236  -0.486   4.829 -0.1135 -0.1907 -0.3912
   76ccc    H11 2203  11.235  -0.547   4.754 -2.4905 -1.4003  0.5463
   76ccc     O6 2204  11.220  -0.190   4.903 -0.5603 -0.8247 -0.1206
   77ccc     C1 2205  10.968  -0.363   4.520 -0.0606  0.0471 -0.4324
   77ccc     C2 2206  10.847  -0.384   4.430  0.4228 -0.8387 -0.2464
   77ccc     H1 2207  11.035  -0.448   4.500 -1.5984 -1.7565  1.5359
   77ccc     H2 2208  10.879  -0.398   4.327  1.3764  0.2940 -0.1203
   77ccc     C3 2209  10.774  -0.512   4.473 -0.0166  0.3986 -0.0519
   77ccc     C4 2210  10.749  -0.520   4.625  0.0922 -0.5527 -0.6974
   77ccc     C5 2211  10.868  -0.478   4.715  0.8721  0.0365  0.6551
   77ccc     H3 2212  10.670  -0.446   4.647 -0.5309 -2.0114  2.4559
   77ccc     H4 2213  10.851  -0.583   4.441  0.2727  0.2689  0.9158
   77ccc     H5 2214  10.942  -0.559   4.716  0.4813 -0.5689 -3.4330
   77ccc     O1 2215  10.818  -0.437   4.847 -0.4381 -0.1820  0.0557
   77ccc     O2 2216  10.700  -0.649   4.664  0.3108  0.2941  0.2373
   77ccc     O3 2217  10.651  -0.535   4.399 -0.5976  0.5577  0.0242
   77ccc     O4 2218  10.764  -0.263   4.443 -0.6840  0.2388  0.0220
   77ccc     C6 2219  11.043  -0.238   4.483 -0.3841 -0.1295  0.4039
   77ccc     H6 2220  10.670  -0.517   4.305 -1.5158 -0.7477 -0.4542
   77ccc     H7 2221  10.696  -0.263   4.373  1.6341 -0.4142 -2.3564
   77ccc     H8 2222  10.651  -0.678   4.585  2.5952 -0.1594 -1.0961
   77ccc     H9 2223  10.994  -0.142   4.507  0.5812  1.0326 -1.9303
   77ccc    H10 2224  11.055  -0.230   4.375 -1.2828  1.4021  0.3920
   77ccc     O5 2225  11.160  -0.247   4.560  0.3946 -0.3193  0.4434
   77ccc    H11 2226  11.128  -0.267   4.650  1.3229 -1.3969  0.5638
   77ccc     O6 2227  10.932  -0.362   4.658 -0.3167  0.4890  0.0457
   78ccc     C1 2228   9.075   4.633   7.878  0.2102  0.0035  0.0066
   78ccc     C2 2229   9.179   4.720   7.799  1.4801 -0.3861 -0.7852
   78ccc     H1 2230   9.130   4.582   7.957  0.2989  1.7774  1.1596
   78ccc     H2 2231   9.210   4.794   7.874 -3.2269  1.6809 -0.5234
   78ccc     C3 2232   9.298   4.642   7.747  0.5680  0.4425 -0.4850
   78ccc     C4 2233   9.249   4.524   7.660 -0.3158  0.0571  1.0162
   78ccc     C5 2234   9.135   4.442   7.733 -0.5535 -0.2712  0.0320
   78ccc     H3 2235   9.207   4.572   7.571  0.3672 -1.8132 -0.3702
   78ccc     H4 2236   9.345   4.610   7.841  0.6285  0.5343 -0.4839
   78ccc     H5 2237   9.167   4.388   7.823  0.1530  0.9803  0.5602
   78ccc     O1 2238   9.082   4.354   7.631  0.1451  0.2212 -0.0202
   78ccc     O2 2239   9.366   4.444   7.631 -0.1685 -0.5195 -0.1990
   78ccc     O3 2240   9.389   4.737   7.683  0.3328  0.5410 -0.0261
   78ccc     O4 2241   9.111   4.780   7.693 -0.2245 -0.4548  0.4364
   78ccc     C6 2242   8.944   4.690   7.936  0.2432 -0.4466  0.3701
   78ccc     H6 2243   9.359   4.740   7.591  3.1746 -0.9538 -1.1327
   78ccc     H7 2244   9.148   4.869   7.698  0.1531 -0.6224  0.7353
   78ccc     H8 2245   9.441   4.495   7.597 -0.2810 -1.4143 -1.8881
   78ccc     H9 2246   8.873   4.720   7.858 -1.4571  0.6167  2.2245
   78ccc    H10 2247   8.961   4.774   8.004 -0.8393 -0.2781  0.4495
   78ccc     O5 2248   8.880   4.583   8.010  0.5647 -0.0681 -0.0189
   78ccc    H11 2249   8.909   4.499   7.970  2.3037  0.1022  0.7880
   78ccc     O6 2250   9.032   4.529   7.783  0.5463  0.1996 -0.7775
   79ccc     C1 2251   8.915   4.884   7.146 -0.3661 -0.9235  0.1645
   79ccc     C2 2252   8.905   4.979   7.263  0.2274 -1.0915 -0.2361
   79ccc     H1 2253   8.814   4.846   7.124 -0.4700 -0.8060  0.4386
   79ccc     H2 2254   8.831   5.058   7.244  1.3381 -0.0815 -0.4690
   79ccc     C3 2255   8.872   4.910   7.397  0.1071  0.3009  0.0833
   79ccc     C4 2256   8.954   4.787   7.417  0.1599  0.5984 -0.8014
   79ccc     C5 2257   8.971   4.697   7.287 -0.4202  0.0161 -0.2761
   79ccc     H3 2258   9.060   4.805   7.440  0.4662 -1.1153 -0.7112
   79ccc     H4 2259   8.765   4.885   7.399 -0.7282  3.2910 -1.9074
   79ccc     H5 2260   8.883   4.638   7.259 -0.0391 -0.5654 -0.2636
   79ccc     O1 2261   9.076   4.604   7.312  0.2623  0.3889 -0.1830
   79ccc     O2 2262   8.901   4.710   7.532 -0.0391  0.3438  0.7590
   79ccc     O3 2263   8.895   5.007   7.502  0.0056  0.4405  0.1451
   79ccc     O4 2264   9.037   5.045   7.286 -0.0135 -0.5208  0.1454
   79ccc     C6 2265   8.977   4.956   7.018 -0.1545  0.3629 -0.5485
   79ccc     H6 2266   8.836   4.992   7.578 -0.8374 -0.5094 -0.6778
   79ccc     H7 2267   9.008   5.090   7.367 -0.7673  2.2881 -1.5335
   79ccc     H8 2268   8.970   4.728   7.598  1.7419  1.5531 -1.2814
   79ccc     H9 2269   9.082   4.987   7.022 -0.3122  0.7595  2.3826
   79ccc    H10 2270   8.912   5.043   6.999  2.4395  2.1243 -1.9093
   79ccc     O5 2271   8.964   4.843   6.925 -0.0055 -0.1772 -0.0565
   79ccc    H11 2272   9.050   4.831   6.880 -0.4088 -2.9173 -0.2548
   79ccc     O6 2273   9.020   4.783   7.180  0.4741 -0.6643  0.5880
   80ccc     C1 2274   9.890   2.620   6.359  0.4697 -0.3347 -0.1847
   80ccc     C2 2275   9.997   2.685   6.268  0.0630 -0.0874  0.5233
   80ccc     H1 2276   9.792   2.627   6.310  1.0855 -0.2425 -1.4574
   80ccc     H2 2277  10.004   2.634   6.171 -1.2988  1.9188 -0.6956
   80ccc     C3 2278   9.976   2.833   6.247  0.1910 -0.9895  0.6297
   80ccc     C4 2279   9.963   2.910   6.387  0.5143  0.3437 -0.1950
   80ccc     C5 2280   9.871   2.830   6.486 -0.1070  0.1780 -0.3155
   80ccc     H3 2281  10.063   2.902   6.430  1.0711  1.2617 -1.2624
   80ccc     H4 2282   9.886   2.847   6.186  0.2245 -2.4840  0.1949
   80ccc     H5 2283   9.766   2.844   6.460 -0.4566 -0.8825  0.4889
   80ccc     O1 2284   9.897   2.871   6.627  0.2465  0.0159  0.2561
   80ccc     O2 2285   9.914   3.041   6.361  0.1437  0.0817 -0.0603
   80ccc     O3 2286  10.075   2.898   6.169 -0.1375  0.3084  0.5692
   80ccc     O4 2287  10.129   2.661   6.331  0.5926 -0.6608  0.2185
   80ccc     C6 2288   9.920   2.465   6.380  0.2044  0.4233  0.0045
   80ccc     H6 2289  10.151   2.903   6.230 -0.4945  0.0978  1.0350
   80ccc     H7 2290  10.194   2.687   6.264  1.1844 -3.3442 -0.3585
   80ccc     H8 2291   9.965   3.072   6.284 -0.5792 -1.6536 -1.3023
   80ccc     H9 2292   9.931   2.404   6.290 -0.9159  1.7492 -1.0708
   80ccc    H10 2293   9.841   2.429   6.447  0.1536  1.2322  0.4001
   80ccc     O5 2294  10.045   2.452   6.453 -0.0845 -0.1138  0.2451
   80ccc    H11 2295  10.114   2.504   6.409  2.4025 -3.6049 -0.3470
   80ccc     O6 2296   9.898   2.688   6.486 -0.4580 -0.5308  0.0901
   81ccc     C1 2297   9.418   3.193   6.671 -0.2476 -0.2732 -0.2812
   81ccc     C2 2298   9.455   3.089   6.561 -0.6869 -0.4864  0.0757
   81ccc     H1 2299   9.405   3.291   6.621  1.7768  0.7615  1.1094
   81ccc     H2 2300   9.372   3.082   6.490  0.0696  0.9114 -0.9734
   81ccc     C3 2301   9.585   3.131   6.495  0.2618 -0.3171  0.1078
   81ccc     C4 2302   9.702   3.148   6.604 -0.3197 -0.2146  0.5397
   81ccc     C5 2303   9.659   3.237   6.727  1.2840  0.4499 -0.5197
   81ccc     H3 2304   9.724   3.046   6.638  2.4554 -0.1458 -0.7630
   81ccc     H4 2305   9.572   3.231   6.452  0.2370 -0.3173  0.1152
   81ccc     H5 2306   9.647   3.342   6.696 -1.0884  0.3331 -0.1612
   81ccc     O1 2307   9.745   3.222   6.839  0.0683  0.1078  0.1351
   81ccc     O2 2308   9.819   3.200   6.544 -0.3981  0.4624 -0.1268
   81ccc     O3 2309   9.632   3.040   6.404 -0.4887 -0.9013  0.1723
   81ccc     O4 2310   9.456   2.956   6.626 -1.2032 -1.0058  0.2725
   81ccc     C6 2311   9.283   3.171   6.740  0.2259  0.7856 -0.1980
   81ccc     H6 2312   9.709   3.082   6.360  0.0642  0.3142  2.1717
   81ccc     H7 2313   9.428   2.892   6.558 -1.2567 -1.4163  0.6742
   81ccc     H8 2314   9.848   3.137   6.476 -0.0295  2.1885 -1.6548
   81ccc     H9 2315   9.268   3.080   6.798  2.6389  1.0321  0.9184
   81ccc    H10 2316   9.209   3.176   6.658 -0.4850  1.3226  0.4641
   81ccc     O5 2317   9.256   3.282   6.832 -0.2842  0.0197  0.1951
   81ccc    H11 2318   9.183   3.253   6.889 -0.2272  0.1506  0.3336
   81ccc     O6 2319   9.523   3.186   6.767 -0.5930 -0.1836  0.2195
   82ccc     C1 2320   8.085   3.729   7.660  0.2522 -0.1734 -0.0005
   82ccc     C2 2321   8.029   3.639   7.770 -0.1808  0.1130  0.4545
   82ccc     H1 2322   8.036   3.827   7.660  1.9180  0.7134 -1.0563
   82ccc     H2 2323   8.018   3.700   7.861  1.6708  1.6121 -0.2679
   82ccc     C3 2324   7.887   3.575   7.733  0.5875 -1.3110 -0.2678
   82ccc     C4 2325   7.888   3.521   7.593  0.5536 -0.0720  0.6563
   82ccc     C5 2326   7.929   3.630   7.491 -0.1504 -0.2943  0.1606
   82ccc     H3 2327   7.959   3.439   7.577 -0.0451 -0.1902 -2.0563
   82ccc     H4 2328   7.818   3.660   7.741  0.4285 -1.5200  0.7595
   82ccc     H5 2329   7.852   3.708   7.481 -1.9992 -2.1398 -1.0541
   82ccc     O1 2330   7.940   3.567   7.360  0.2307 -0.1013  0.4409
   82ccc     O2 2331   7.752   3.475   7.560 -0.2098 -0.2379 -0.0199
   82ccc     O3 2332   7.834   3.476   7.827  0.0592  0.1419 -0.5365
   82ccc     O4 2333   8.124   3.530   7.780 -0.2269 -0.3999 -0.3480
   82ccc     C6 2334   8.233   3.756   7.679 -0.4172  0.0141  0.4054
   82ccc     H6 2335   7.854   3.518   7.912 -0.5463  0.2288 -0.4317
   82ccc     H7 2336   8.101   3.473   7.856 -1.2044  1.4690  0.8354
   82ccc     H8 2337   7.727   3.398   7.614 -0.9172  0.3253  0.4720
   82ccc     H9 2338   8.306   3.678   7.656  2.9159  2.6216  1.3167
   82ccc    H10 2339   8.254   3.795   7.780  0.6095 -0.1978  0.2848
   82ccc     O5 2340   8.258   3.867   7.594  0.4208 -0.4984  0.2153
   82ccc    H11 2341   8.249   3.825   7.507  1.4655 -1.7682  0.6871
   82ccc     O6 2342   8.057   3.681   7.526  0.9621 -0.1472 -0.6666
   83ccc     C1 2343   7.674   2.885   7.047  0.3160 -0.1039  0.4678
   83ccc     C2 2344   7.753   2.758   7.090 -0.0076  0.1106 -0.2311
   83ccc     H1 2345   7.600   2.855   6.972 -0.8963  1.4997  0.9887
   83ccc     H2 2346   7.675   2.683   7.110 -0.2851 -0.3579 -2.6987
   83ccc     C3 2347   7.853   2.708   6.981 -0.2082 -0.3031  0.6216
   83ccc     C4 2348   7.939   2.835   6.943 -0.8889  0.5619 -0.4459
   83ccc     C5 2349   7.854   2.948   6.887  0.7983 -0.1631  0.2374
   83ccc     H3 2350   7.983   2.856   7.041  0.9381 -0.0980 -1.0810
   83ccc     H4 2351   7.803   2.685   6.886  0.0437 -0.9245  0.6343
   83ccc     H5 2352   7.801   2.927   6.794 -1.1063 -2.7198  1.7533
   83ccc     O1 2353   7.945   3.061   6.865 -0.4614 -0.0619  0.3424
   83ccc     O2 2354   8.033   2.789   6.844 -0.3906 -0.0795  0.2160
   83ccc     O3 2355   7.934   2.595   7.021  0.1376 -0.2233  0.5522
   83ccc     O4 2356   7.824   2.778   7.212  0.3673 -0.6715 -0.0069
   83ccc     C6 2357   7.614   2.951   7.166  0.0450  0.4782  0.2512
   83ccc     H6 2358   8.026   2.624   7.011 -0.0956  1.5215  2.5149
   83ccc     H7 2359   7.871   2.692   7.218 -1.3945 -2.1199 -3.8980
   83ccc     H8 2360   8.082   2.869   6.815  0.6566 -0.1309  1.7125
   83ccc     H9 2361   7.655   3.051   7.185  1.0123  0.4985 -1.7080
   83ccc    H10 2362   7.606   2.878   7.247 -0.1328 -1.6183 -1.5508
   83ccc     O5 2363   7.480   2.970   7.128  0.1773  0.2092 -0.1335
   83ccc    H11 2364   7.476   3.051   7.074 -0.2065 -0.5873 -1.3527
   83ccc     O6 2365   7.757   2.990   6.990 -0.1903  0.2960  0.5537
   84ccc     C1 2366   8.241   2.485   6.938 -0.6434  0.0904 -0.1175
   84ccc     C2 2367   8.247   2.327   6.938 -0.5062  0.2596  0.7538
   84ccc     H1 2368   8.138   2.515   6.912 -0.9489 -0.3519  0.5529
   84ccc     H2 2369   8.168   2.284   7.001 -1.4380  0.9584  0.0886
   84ccc     C3 2370   8.208   2.274   6.797 -0.2603 -0.2573 -0.1379
   84ccc     C4 2371   8.302   2.327   6.690 -0.2267 -0.7368  0.1782
   84ccc     C5 2372   8.320   2.487   6.696 -0.7486 -0.6179 -0.3332
   84ccc     H3 2373   8.406   2.297   6.713 -0.2914 -0.4869  0.8377
   84ccc     H4 2374   8.110   2.322   6.786  0.9593  3.0362  2.0958
   84ccc     H5 2375   8.227   2.531   6.658  0.3155  1.9192 -0.2037
   84ccc     O1 2376   8.439   2.527   6.619 -0.0122  0.6835 -0.2094
   84ccc     O2 2377   8.260   2.273   6.563 -0.1302 -0.0094 -0.0558
   84ccc     O3 2378   8.204   2.127   6.795  0.4800 -0.1007  0.3523
   84ccc     O4 2379   8.372   2.289   6.990 -0.2174  0.5311  0.4868
   84ccc     C6 2380   8.273   2.550   7.071 -0.0101 -0.2585  0.9271
   84ccc     H6 2381   8.139   2.095   6.859  0.2408 -0.8074 -0.2361
   84ccc     H7 2382   8.356   2.200   7.025  0.7217  0.4851  0.8052
   84ccc     H8 2383   8.210   2.196   6.594 -1.0751  0.4518 -0.4006
   84ccc     H9 2384   8.381   2.562   7.079  0.0897 -0.4084 -0.0830
   84ccc    H10 2385   8.245   2.478   7.150 -0.4827 -0.8734  0.2110
   84ccc     O5 2386   8.202   2.671   7.086  0.6147  0.0657 -0.2319
   84ccc    H11 2387   8.249   2.743   7.040 -1.2060  1.1946 -0.4324
   84ccc     O6 2388   8.328   2.541   6.829 -0.2819  0.3288 -0.9959
   85ccc     C1 2389   8.159   2.167   5.819 -0.3663 -0.1458  0.0948
   85ccc     C2 2390   8.254   2.169   5.699 -0.6510 -0.2666  0.4334
   85ccc     H1 2391   8.076   2.234   5.794  1.1190  1.4861 -0.6641
   85ccc     H2 2392   8.202   2.139   5.607 -3.3709 -0.7881  2.0126
   85ccc     C3 2393   8.305   2.314   5.683 -0.3201 -0.4490  0.9349
   85ccc     C4 2394   8.367   2.368   5.817  1.0871  0.0982 -0.5153
   85ccc     C5 2395   8.269   2.350   5.938  1.0325 -0.3025 -0.4818
   85ccc     H3 2396   8.457   2.308   5.838  1.1950  0.2194 -0.6331
   85ccc     H4 2397   8.220   2.383   5.668 -0.1966 -0.2501  1.1364
   85ccc     H5 2398   8.183   2.413   5.917  0.2853 -1.1532 -0.0552
   85ccc     O1 2399   8.340   2.383   6.066 -0.3206 -0.0631 -0.1035
   85ccc     O2 2400   8.399   2.511   5.807 -0.2203  0.0584  0.2557
   85ccc     O3 2401   8.392   2.325   5.566  0.0496 -0.3325  0.1473
   85ccc     O4 2402   8.368   2.081   5.731 -0.0068  0.6082  0.1329
   85ccc     C6 2403   8.104   2.030   5.855  0.3349  0.0838 -0.4103
   85ccc     H6 2404   8.381   2.416   5.531  0.3548 -0.5326 -0.4850
   85ccc     H7 2405   8.421   2.070   5.650  1.9220  0.8972  1.2998
   85ccc     H8 2406   8.482   2.510   5.758 -0.3802 -2.3530 -0.0759
   85ccc     H9 2407   8.061   1.988   5.763 -0.4509 -1.2279  0.5261
   85ccc    H10 2408   8.021   2.027   5.926  0.5970 -1.2631 -0.1269
   85ccc     O5 2409   8.206   1.938   5.897  0.5937  0.4179  0.3887
   85ccc    H11 2410   8.276   1.965   5.835 -0.2094 -1.3472 -1.4187
   85ccc     O6 2411   8.219   2.217   5.947 -1.0758 -0.9347  0.4404
   86ccc     C1 2412  10.381   3.587   8.206 -0.6758 -0.8965 -0.2379
   86ccc     C2 2413  10.303   3.500   8.297 -0.4529 -0.0707 -0.7063
   86ccc     H1 2414  10.335   3.569   8.108  1.6930  2.9651 -2.3394
   86ccc     H2 2415  10.197   3.523   8.278 -0.5978  0.0438  0.1852
   86ccc     C3 2416  10.314   3.346   8.268  0.3926 -0.2589 -0.0017
   86ccc     C4 2417  10.463   3.305   8.242 -0.0206 -0.1804  0.3430
   86ccc     C5 2418  10.539   3.406   8.147 -0.1431 -0.4561 -0.5686
   86ccc     H3 2419  10.514   3.325   8.337 -0.5082  0.9070  0.3906
   86ccc     H4 2420  10.259   3.335   8.173 -1.2173  3.8439  0.2730
   86ccc     H5 2421  10.504   3.400   8.044  1.0655 -0.3596 -1.0083
   86ccc     O1 2422  10.688   3.387   8.148  0.4542  0.5973  0.3061
   86ccc     O2 2423  10.468   3.168   8.193  0.2914  0.3297  0.1722
   86ccc     O3 2424  10.252   3.262   8.360  0.0964 -0.1604 -0.7117
   86ccc     O4 2425  10.341   3.534   8.424 -0.0787  0.1417  0.3094
   86ccc     C6 2426  10.381   3.743   8.226 -0.4179 -0.3638  0.3900
   86ccc     H6 2427  10.318   3.252   8.430  0.5101  0.5305 -1.0008
   86ccc     H7 2428  10.376   3.625   8.414  1.5579 -0.5278 -0.4100
   86ccc     H8 2429  10.562   3.145   8.201  0.8174  2.0877 -0.4505
   86ccc     H9 2430  10.276   3.775   8.219  0.2730  1.7107 -2.3687
   86ccc    H10 2431  10.430   3.805   8.150 -2.1018  0.5720  0.0052
   86ccc     O5 2432  10.426   3.769   8.354  0.3473  0.3439  0.3354
   86ccc    H11 2433  10.400   3.858   8.384  0.0493  0.3949 -0.0575
   86ccc     O6 2434  10.518   3.543   8.210 -0.8405 -0.1478  0.3689
   87ccc     C1 2435  11.733   3.550   7.832 -0.1391 -0.3800  0.0852
   87ccc     C2 2436  11.676   3.612   7.701 -0.2553 -0.9018 -0.0539
   87ccc     H1 2437  11.806   3.475   7.800  0.4702  0.1138  0.3205
   87ccc     H2 2438  11.757   3.655   7.641  0.6604 -0.1287  1.6649
   87ccc     C3 2439  11.612   3.499   7.613 -0.2083  0.2942 -0.1521
   87ccc     C4 2440  11.510   3.419   7.694  0.3116  0.6107 -0.8462
   87ccc     C5 2441  11.556   3.383   7.840 -0.1391  0.2907  0.2345
   87ccc     H3 2442  11.423   3.482   7.716 -0.0738 -0.1908 -0.0436
   87ccc     H4 2443  11.696   3.429   7.600  0.5833  1.1243  0.3638
   87ccc     H5 2444  11.621   3.294   7.832  1.9330  1.5210  2.0394
   87ccc     O1 2445  11.437   3.354   7.918  0.0601 -0.0080 -0.0985
   87ccc     O2 2446  11.467   3.300   7.622 -0.0696  0.3449 -0.2903
   87ccc     O3 2447  11.569   3.547   7.486  0.2377 -0.6495  0.1401
   87ccc     O4 2448  11.587   3.716   7.735 -0.1411  0.1019 -0.8039
   87ccc     C6 2449  11.810   3.652   7.920 -0.1640  0.1523  1.0251
   87ccc     H6 2450  11.606   3.493   7.414  0.0174  0.0023 -0.4804
   87ccc     H7 2451  11.554   3.758   7.654  0.3419  4.0688  0.8291
   87ccc     H8 2452  11.411   3.329   7.548  0.0635  0.4064 -0.3663
   87ccc     H9 2453  11.892   3.684   7.855 -0.5890 -0.9904 -0.1156
   87ccc    H10 2454  11.855   3.603   8.008 -0.0429 -0.6980  0.4999
   87ccc     O5 2455  11.715   3.748   7.955 -0.0333  0.7813 -0.2507
   87ccc    H11 2456  11.659   3.742   7.876 -1.1241  2.3956  0.3501
   87ccc     O6 2457  11.630   3.486   7.908  0.4567  1.0842 -0.0712
   88ccc     C1 2458  10.193   1.917   6.746 -0.3555 -0.0731 -0.4221
   88ccc     C2 2459  10.208   1.960   6.598 -0.0723  0.9843 -0.2435
   88ccc     H1 2460  10.086   1.908   6.768 -0.4210  1.7044  0.1357
   88ccc     H2 2461  10.176   1.868   6.548  0.1724  0.3996  0.6485
   88ccc     C3 2462  10.109   2.078   6.571 -0.2917 -0.1100 -0.1649
   88ccc     C4 2463  10.141   2.199   6.671  0.1731  0.2673  0.3465
   88ccc     C5 2464  10.168   2.147   6.816 -0.1190 -0.2820  0.6835
   88ccc     H3 2465  10.230   2.251   6.635  0.4484  0.2331  0.9666
   88ccc     H4 2466  10.009   2.040   6.593  0.4434 -1.3557  1.2150
   88ccc     H5 2467  10.068   2.139   6.859 -0.3987  0.4504  0.2087
   88ccc     O1 2468  10.248   2.246   6.886 -0.4571  0.1567 -0.4569
   88ccc     O2 2469  10.039   2.299   6.679  0.4156 -0.3176  0.6093
   88ccc     O3 2470  10.123   2.115   6.430  0.0500  0.0369 -0.4311
   88ccc     O4 2471  10.344   1.996   6.581  0.5511  0.5180  0.2932
   88ccc     C6 2472  10.269   1.780   6.782  0.1058 -0.3327 -0.2350
   88ccc     H6 2473  10.144   2.033   6.381 -0.4783  0.0497 -0.6798
   88ccc     H7 2474  10.379   1.912   6.615 -1.0385 -0.0783  0.5427
   88ccc     H8 2475  10.044   2.343   6.592 -0.0549  0.2310  0.8483
   88ccc     H9 2476  10.233   1.697   6.720  1.0409  0.4194 -1.8760
   88ccc    H10 2477  10.263   1.743   6.885  2.7370  2.0438  0.8956
   88ccc     O5 2478  10.396   1.793   6.733  0.0918  0.0462  0.2881
   88ccc    H11 2479  10.420   1.703   6.704 -0.1700  0.4670 -1.3360
   88ccc     O6 2480  10.244   2.024   6.828  0.4289 -0.4203 -0.3162
   89ccc     C1 2481  10.507   3.000   6.312 -0.0244 -0.1430  0.5491
   89ccc     C2 2482  10.395   2.926   6.234  0.3462 -0.4845  0.2803
   89ccc     H1 2483  10.602   2.988   6.258 -0.8898 -0.9241 -0.8665
   89ccc     H2 2484  10.376   2.978   6.139 -3.0189 -0.3498  0.8812
   89ccc     C3 2485  10.442   2.777   6.212 -0.2572 -0.1138 -0.3636
   89ccc     C4 2486  10.494   2.706   6.346 -0.2785 -0.2660 -1.1221
   89ccc     C5 2487  10.578   2.798   6.443 -0.4047 -0.0006 -0.1630
   89ccc     H3 2488  10.403   2.700   6.406 -0.0185  3.1964 -0.1823
   89ccc     H4 2489  10.528   2.791   6.146  1.1150  1.3488  1.6096
   89ccc     H5 2490  10.682   2.792   6.409  0.1341  1.4701  1.0688
   89ccc     O1 2491  10.552   2.761   6.578  0.4125 -0.4564  0.5438
   89ccc     O2 2492  10.556   2.575   6.320  0.4771  0.5929  0.3704
   89ccc     O3 2493  10.335   2.697   6.151 -0.0020  0.3352  0.3299
   89ccc     O4 2494  10.282   2.940   6.321  0.9949  0.1965 -0.5552
   89ccc     C6 2495  10.494   3.157   6.327 -0.6356 -0.1113  0.0222
   89ccc     H6 2496  10.380   2.656   6.076  1.7997  1.3282  0.8071
   89ccc     H7 2497  10.292   3.026   6.364 -1.9287 -0.2775  1.3186
   89ccc     H8 2498  10.482   2.514   6.304  1.4018 -0.2159 -1.1301
   89ccc     H9 2499  10.522   3.209   6.235 -1.1157 -0.4941 -0.3533
   89ccc    H10 2500  10.568   3.186   6.402 -2.3299  0.0591  1.7136
   89ccc     O5 2501  10.360   3.189   6.374  0.0164 -0.1668 -0.0044
   89ccc    H11 2502  10.342   3.271   6.324  0.6541 -0.8484 -1.3818
   89ccc     O6 2503  10.532   2.940   6.437  0.4651  0.4575  0.9331
   90ccc     C1 2504   9.039   3.019   9.198  0.4215  0.2757 -0.0612
   90ccc     C2 2505   8.918   2.950   9.131  0.1223  0.3369  0.8802
   90ccc     H1 2506   9.038   3.124   9.168 -1.5870  0.4474  0.4560
   90ccc     H2 2507   8.831   3.013   9.152  0.2469  0.5023  0.8979
   90ccc     C3 2508   8.948   2.942   8.979  0.2520  0.4469 -0.4788
   90ccc     C4 2509   9.078   2.864   8.960  0.9533  0.7882 -0.0247
   90ccc     C5 2510   9.197   2.929   9.030 -0.6100 -0.0476 -0.6341
   90ccc     H3 2511   9.056   2.769   9.009  1.2849 -0.1390 -1.6100
   90ccc     H4 2512   8.964   3.039   8.931 -0.4020  0.0260 -1.5871
   90ccc     H5 2513   9.227   3.027   8.991  0.1628  0.0128  0.1141
   90ccc     O1 2514   9.308   2.837   9.035  0.1701  0.2825 -0.1570
   90ccc     O2 2515   9.099   2.835   8.823  0.4262  0.4133  0.0800
   90ccc     O3 2516   8.843   2.870   8.903  0.6222 -0.1997 -0.1364
   90ccc     O4 2517   8.903   2.816   9.183 -0.3168 -0.4540 -0.3899
   90ccc     C6 2518   9.026   3.022   9.346  0.6547 -0.1056  0.2237
   90ccc     H6 2519   8.865   2.775   8.912  2.4004  0.2479  0.7577
   90ccc     H7 2520   8.811   2.793   9.164  0.2658 -0.8632 -3.2243
   90ccc     H8 2521   9.010   2.818   8.789  0.6544  0.8058 -0.7551
   90ccc     H9 2522   9.059   2.930   9.396  0.9436  0.1923  0.5870
   90ccc    H10 2523   8.920   3.037   9.373  0.5678  0.2660 -0.3085
   90ccc     O5 2524   9.102   3.134   9.395  0.5952  0.0931  0.0970
   90ccc    H11 2525   9.100   3.106   9.488 -1.8241 -0.9094 -0.1926
   90ccc     O6 2526   9.160   2.944   9.172  0.2797 -0.5538 -0.4957
   91ccc     C1 2527  10.179   3.393   8.847  0.0287  0.4750  0.4278
   91ccc     C2 2528  10.267   3.392   8.714  0.0961 -0.3376  0.4593
   91ccc     H1 2529  10.246   3.367   8.930  0.8053  1.7553  0.2313
   91ccc     H2 2530  10.348   3.466   8.721 -2.1150  2.2914  0.0946
   91ccc     C3 2531  10.303   3.244   8.685 -0.2457  0.3354  0.2439
   91ccc     C4 2532  10.177   3.143   8.677 -0.0288  0.4047 -0.2129
   91ccc     C5 2533  10.101   3.158   8.811  0.0367 -0.2545  0.0888
   91ccc     H3 2534  10.114   3.175   8.593 -1.6046 -1.3354  0.2672
   91ccc     H4 2535  10.368   3.203   8.764  0.7984 -0.8038 -1.1591
   91ccc     H5 2536  10.160   3.122   8.896  0.9062 -0.6585 -0.6780
   91ccc     O1 2537   9.975   3.088   8.806  0.0002 -0.2019 -0.3447
   91ccc     O2 2538  10.223   3.007   8.668 -0.1101 -0.0909  0.0866
   91ccc     O3 2539  10.403   3.238   8.583 -0.2505 -0.2169 -0.3757
   91ccc     O4 2540  10.181   3.446   8.620 -0.1917  0.1602  0.1881
   91ccc     C6 2541  10.118   3.529   8.885  0.1823 -0.2013  0.3722
   91ccc     H6 2542  10.439   3.147   8.589 -0.8324 -0.4353 -0.1596
   91ccc     H7 2543  10.227   3.473   8.538 -1.0656  0.1404 -0.3179
   91ccc     H8 2544  10.181   2.974   8.587 -0.7504  0.4718  0.1743
   91ccc     H9 2545  10.052   3.571   8.808  1.1373  0.7775  0.0599
   91ccc    H10 2546  10.185   3.610   8.919  1.1407 -1.1559  0.8071
   91ccc     O5 2547  10.045   3.511   9.007  0.2836 -0.4304  0.6042
   91ccc    H11 2548  10.036   3.417   9.029  1.9432 -0.6966  0.2537
   91ccc     O6 2549  10.070   3.298   8.825 -0.0054 -0.3503  0.2269
   92ccc     C1 2550   8.974   2.319   8.688 -0.0957 -0.3080 -0.7508
   92ccc     C2 2551   8.911   2.178   8.707 -0.0305  0.0954 -0.4485
   92ccc     H1 2552   9.049   2.316   8.608  2.8894 -1.9279  1.8387
   92ccc     H2 2553   8.866   2.140   8.614 -0.3147 -2.0568  0.5288
   92ccc     C3 2554   9.031   2.088   8.746  0.1034  0.2126 -0.4537
   92ccc     C4 2555   9.094   2.145   8.877 -0.8892  0.5303 -0.7708
   92ccc     C5 2556   9.150   2.287   8.855 -0.1534  0.5640  0.3576
   92ccc     H3 2557   9.006   2.145   8.942 -1.5602 -2.2485 -1.5503
   92ccc     H4 2558   9.110   2.098   8.672 -0.5500 -0.1079 -1.2094
   92ccc     H5 2559   9.236   2.277   8.788  1.3968 -0.0460  2.3257
   92ccc     O1 2560   9.207   2.332   8.984  0.5367  0.1855  0.6062
   92ccc     O2 2561   9.193   2.050   8.929  1.0187 -0.1850 -0.3886
   92ccc     O3 2562   8.989   1.950   8.765 -0.0871  0.9300  0.3487
   92ccc     O4 2563   8.813   2.180   8.806 -0.2624  1.0338  0.2965
   92ccc     C6 2564   8.866   2.426   8.658 -0.5460 -0.1232 -0.9876
   92ccc     H6 2565   8.907   1.943   8.818 -0.3574  1.5304  0.0172
   92ccc     H7 2566   8.769   2.093   8.808  0.1343  0.8160 -0.2473
   92ccc     H8 2567   9.142   1.968   8.923  0.3182  0.2872 -1.2541
   92ccc     H9 2568   8.792   2.425   8.739  0.4522 -2.2515 -0.0094
   92ccc    H10 2569   8.820   2.403   8.561  1.1798 -0.9036 -1.6685
   92ccc     O5 2570   8.940   2.549   8.647  0.2003  0.1319 -0.1395
   92ccc    H11 2571   8.880   2.620   8.618 -0.1598  1.0986  2.6622
   92ccc     O6 2572   9.041   2.365   8.811  0.0940  0.4754 -0.1383
   93ccc     C1 2573   9.476   2.136   9.972  0.0735  0.4591  0.1937
   93ccc     C2 2574   9.588   2.020   9.971  0.8091 -0.3123 -0.0267
   93ccc     H1 2575   9.387   2.109  10.030  0.7478  0.1897  1.1304
   93ccc     H2 2576   9.600   1.981  10.073  1.5003  0.9460  0.3988
   93ccc     C3 2577   9.540   1.898   9.892 -0.9465 -0.0387 -0.5351
   93ccc     C4 2578   9.482   1.930   9.754 -0.1482 -0.5319  0.1959
   93ccc     C5 2579   9.384   2.053   9.759  0.3922  0.4584  0.4219
   93ccc     H3 2580   9.570   1.967   9.701 -1.4876  1.3157 -0.8611
   93ccc     H4 2581   9.456   1.860   9.952 -0.5685  1.7436  1.2511
   93ccc     H5 2582   9.298   2.021   9.819 -0.8217  0.0948 -1.4450
   93ccc     O1 2583   9.344   2.090   9.623  0.4376 -0.0799 -0.2701
   93ccc     O2 2584   9.416   1.813   9.701  0.1478 -0.1094 -0.3070
   93ccc     O3 2585   9.637   1.795   9.887  0.1418  0.0631 -0.2335
   93ccc     O4 2586   9.703   2.069   9.906  0.2886  0.2354  0.0502
   93ccc     C6 2587   9.523   2.268  10.032  0.0505  0.5389 -0.0446
   93ccc     H6 2588   9.582   1.716   9.902 -0.9539  0.9590  0.6416
   93ccc     H7 2589   9.762   1.996   9.931 -1.3400 -1.1080  0.1256
   93ccc     H8 2590   9.346   1.789   9.765 -1.8503  2.1297 -1.4825
   93ccc     H9 2591   9.585   2.319   9.956 -0.4092  1.0103 -0.1124
   93ccc    H10 2592   9.590   2.250  10.117 -1.7593 -1.5788  1.0250
   93ccc     O5 2593   9.410   2.352  10.071  0.2917 -0.3751 -0.0721
   93ccc    H11 2594   9.377   2.304  10.149  2.0880  0.2406  1.1150
   93ccc     O6 2595   9.433   2.163   9.836 -0.3943  0.6256 -0.1285
   94ccc     C1 2596   8.892  -1.336   6.986  0.4165  0.1870  0.0554
   94ccc     C2 2597   8.978  -1.217   7.012  0.2812 -1.0730 -0.5975
   94ccc     H1 2598   8.937  -1.414   6.923 -0.3289  0.0392 -0.3049
   94ccc     H2 2599   9.077  -1.247   7.047 -0.3041  0.5784  2.8444
   94ccc     C3 2600   8.992  -1.130   6.881 -0.2432  0.0809 -0.3084
   94ccc     C4 2601   8.853  -1.100   6.825  0.5800 -0.1468  0.7590
   94ccc     C5 2602   8.774  -1.232   6.795  0.3609  0.4897  0.0737
   94ccc     H3 2603   8.790  -1.046   6.896 -1.8882 -0.0366 -1.3843
   94ccc     H4 2604   9.036  -1.201   6.810 -2.2477 -2.1771  0.5939
   94ccc     H5 2605   8.816  -1.292   6.715  1.2636  2.2690 -0.8442
   94ccc     O1 2606   8.638  -1.189   6.766  0.4558 -0.2039  0.3147
   94ccc     O2 2607   8.866  -1.017   6.710 -0.2939  0.1031 -0.0377
   94ccc     O3 2608   9.080  -1.015   6.903  0.2249 -0.6283  0.0705
   94ccc     O4 2609   8.915  -1.134   7.119  0.3375 -0.2234  0.1380
   94ccc     C6 2610   8.862  -1.422   7.113  0.6166  0.4021  0.2206
   94ccc     H6 2611   9.040  -0.948   6.846 -1.3457 -2.1768 -0.7335
   94ccc     H7 2612   8.938  -1.170   7.207  0.1640 -0.7179 -0.0144
   94ccc     H8 2613   8.894  -1.076   6.638 -1.0860 -1.0877  0.5983
   94ccc     H9 2614   8.809  -1.362   7.189 -0.6176  0.1458 -0.4214
   94ccc    H10 2615   8.955  -1.453   7.162  0.0704  0.7340  1.5308
   94ccc     O5 2616   8.781  -1.533   7.079  0.9637  0.7416  0.2202
   94ccc    H11 2617   8.692  -1.495   7.070  0.2077 -0.8104  0.6576
   94ccc     O6 2618   8.768  -1.308   6.914 -0.0057  0.1719  0.0809
   95ccc     C1 2619   8.112  -0.960   5.894 -0.7984  0.1872  0.1156
   95ccc     C2 2620   8.128  -1.108   5.844 -0.5560 -0.8193 -0.4314
   95ccc     H1 2621   8.178  -0.893   5.836 -1.0639  1.4060  1.1673
   95ccc     H2 2622   8.109  -1.112   5.736 -0.2098 -0.3321 -0.5156
   95ccc     C3 2623   8.269  -1.171   5.861  0.1305  0.6204  0.4131
   95ccc     C4 2624   8.323  -1.133   6.005 -0.4385  0.6377  0.2546
   95ccc     C5 2625   8.301  -0.982   6.053  0.2357  0.2052 -0.1585
   95ccc     H3 2626   8.289  -1.203   6.082  1.0377 -2.0510 -1.4173
   95ccc     H4 2627   8.334  -1.129   5.783 -0.5828  0.1167 -0.4717
   95ccc     H5 2628   8.359  -0.908   5.996  0.0875 -0.3621 -1.0713
   95ccc     O1 2629   8.323  -0.965   6.194 -0.2541  0.0414 -0.7346
   95ccc     O2 2630   8.464  -1.153   5.995  0.3221 -0.2172 -0.3259
   95ccc     O3 2631   8.252  -1.313   5.853 -0.6727 -0.5271  0.6635
   95ccc     O4 2632   8.037  -1.183   5.919  0.0296 -0.1990 -0.3455
   95ccc     C6 2633   7.973  -0.900   5.898 -0.3006 -0.3247  0.1155
   95ccc     H6 2634   8.325  -1.358   5.901  0.1476 -1.3509 -1.2596
   95ccc     H7 2635   8.077  -1.271   5.921 -1.6682 -0.9996  0.0445
   95ccc     H8 2636   8.501  -1.151   6.085 -0.5480 -0.0871  0.0396
   95ccc     H9 2637   7.914  -0.941   5.981  0.0302 -2.5152 -0.6634
   95ccc    H10 2638   7.916  -0.927   5.808  0.5288 -2.2584  0.1128
   95ccc     O5 2639   7.988  -0.762   5.906 -0.7497  0.1368 -0.2257
   95ccc    H11 2640   8.042  -0.741   5.828 -0.3043 -1.7834 -0.4703
   95ccc     O6 2641   8.163  -0.947   6.027  0.6740 -0.3308  0.0739
   96ccc     C1 2642   8.828  -0.577   7.181 -0.0121  0.5130  0.1513
   96ccc     C2 2643   8.827  -0.646   7.043  0.2978 -0.5422  0.5219
   96ccc     H1 2644   8.887  -0.487   7.160  2.5123 -1.0778  0.0448
   96ccc     H2 2645   8.785  -0.573   6.972  1.8674 -0.8048 -0.7546
   96ccc     C3 2646   8.970  -0.689   7.003 -0.3803  0.5818  0.2815
   96ccc     C4 2647   9.030  -0.784   7.107  0.7928  0.4338 -0.6328
   96ccc     C5 2648   9.032  -0.718   7.245 -0.7353  0.2670 -0.1003
   96ccc     H3 2649   8.963  -0.872   7.106 -0.1719  1.0419 -4.0047
   96ccc     H4 2650   9.038  -0.603   7.004 -0.1294  0.4216 -1.0909
   96ccc     H5 2651   9.099  -0.631   7.236 -0.5172 -0.0260 -1.4610
   96ccc     O1 2652   9.080  -0.805   7.344 -0.1125  0.2563 -0.1139
   96ccc     O2 2653   9.162  -0.817   7.059  0.2839 -0.3771 -0.1336
   96ccc     O3 2654   8.975  -0.740   6.865 -0.3418  0.2729  0.5160
   96ccc     O4 2655   8.744  -0.756   7.059 -0.0585  0.0702  0.4767
   96ccc     C6 2656   8.692  -0.530   7.246 -0.2374  0.0603 -0.0259
   96ccc     H6 2657   8.920  -0.680   6.811  0.9794  1.2181  0.1678
   96ccc     H7 2658   8.734  -0.799   6.973 -0.0083  0.2537  0.3792
   96ccc     H8 2659   9.153  -0.889   6.994  2.1333  0.9633 -1.9938
   96ccc     H9 2660   8.642  -0.458   7.180 -1.7594 -0.3308  0.6504
   96ccc    H10 2661   8.711  -0.481   7.343  2.2612 -0.9136  0.0472
   96ccc     O5 2662   8.612  -0.647   7.268 -0.4375 -0.5143 -0.3590
   96ccc    H11 2663   8.640  -0.703   7.194  3.0369  1.4885 -0.7500
   96ccc     O6 2664   8.901  -0.665   7.277 -0.0599 -0.2227 -0.5998
   97ccc     C1 2665   8.332  -1.416   7.198  0.9571 -0.4823  0.1718
   97ccc     C2 2666   8.219  -1.432   7.092  0.1888  0.3132 -0.4250
   97ccc     H1 2667   8.292  -1.433   7.299 -0.9980 -1.0126 -0.6447
   97ccc     H2 2668   8.185  -1.536   7.095  0.3944  0.2688  0.9148
   97ccc     C3 2669   8.103  -1.337   7.114  0.4855  0.0533 -0.4766
   97ccc     C4 2670   8.148  -1.191   7.138 -0.4587  0.2751  0.4896
   97ccc     C5 2671   8.274  -1.187   7.234  0.3538  0.8248 -0.4026
   97ccc     H3 2672   8.182  -1.141   7.047  1.1195 -0.5137  0.5953
   97ccc     H4 2673   8.054  -1.377   7.203  2.3348  0.0327  0.5945
   97ccc     H5 2674   8.255  -1.213   7.339  1.0195 -4.8690 -1.3671
   97ccc     O1 2675   8.328  -1.052   7.232  0.4408  0.0782 -0.2819
   97ccc     O2 2676   8.047  -1.106   7.200  0.5467  0.1603  0.1241
   97ccc     O3 2677   8.017  -1.344   6.993 -0.1949 -0.1736 -0.1894
   97ccc     O4 2678   8.278  -1.400   6.966  0.0184 -0.5252  0.4523
   97ccc     C6 2679   8.452  -1.503   7.187  0.5824  0.7004  0.4445
   97ccc     H6 2680   7.937  -1.290   7.002  1.0491  1.4188  2.3320
   97ccc     H7 2681   8.196  -1.402   6.914 -0.7231  1.3397  1.4876
   97ccc     H8 2682   8.040  -1.029   7.140  0.4570  0.0662  0.0117
   97ccc     H9 2683   8.423  -1.608   7.198 -1.3483  1.0825 -0.4747
   97ccc    H10 2684   8.528  -1.481   7.262  1.3358 -2.3142  0.6951
   97ccc     O5 2685   8.506  -1.477   7.066  0.2708  0.2135  0.6595
   97ccc    H11 2686   8.427  -1.434   7.029  0.3644 -0.5881 -0.5238
   97ccc     O6 2687   8.374  -1.282   7.195  0.1868  0.3321  0.4594
   98ccc     C1 2688   8.596   0.332   8.718 -0.0736 -0.5567  0.2640
   98ccc     C2 2689   8.515   0.456   8.775  0.3680  0.0617  0.5858
   98ccc     H1 2690   8.647   0.364   8.627 -0.1434 -1.8640 -0.2549
   98ccc     H2 2691   8.587   0.537   8.789  0.5983 -0.2821  1.4648
   98ccc     C3 2692   8.406   0.503   8.671  0.3038  0.4420 -0.3473
   98ccc     C4 2693   8.323   0.387   8.617 -0.7657  0.5756  0.5172
   98ccc     C5 2694   8.406   0.261   8.583 -0.5693  0.0107 -0.0949
   98ccc     H3 2695   8.253   0.353   8.695  0.9623 -0.7901  1.5629
   98ccc     H4 2696   8.458   0.549   8.586 -1.4217  3.5261  0.0989
   98ccc     H5 2697   8.459   0.269   8.488  0.4069  1.2612  0.5181
   98ccc     O1 2698   8.306   0.153   8.575  0.2763  0.0740  0.1332
   98ccc     O2 2699   8.261   0.429   8.503 -0.0121  0.1251 -0.0164
   98ccc     O3 2700   8.314   0.607   8.724 -0.3450 -0.1918  0.1744
   98ccc     O4 2701   8.444   0.416   8.890  0.2706  0.2224  0.0071
   98ccc     C6 2702   8.694   0.296   8.827 -0.2779  0.2515  0.5292
   98ccc     H6 2703   8.343   0.692   8.687  0.3958 -0.1199  0.8806
   98ccc     H7 2704   8.441   0.497   8.944 -0.9899  0.9355 -1.0798
   98ccc     H8 2705   8.206   0.503   8.536  1.2051  1.2756 -0.4890
   98ccc     H9 2706   8.636   0.255   8.910 -0.3851 -1.3510 -0.2999
   98ccc    H10 2707   8.753   0.385   8.855 -1.0631  2.0132 -2.8539
   98ccc     O5 2708   8.777   0.191   8.760  0.2020  0.2254 -0.1132
   98ccc    H11 2709   8.842   0.243   8.710 -1.2345  2.0093 -0.2366
   98ccc     O6 2710   8.498   0.227   8.684 -0.0423  0.2716  0.0182
   99ccc     C1 2711   7.970  -0.365   9.402  0.8769 -0.6296  0.1801
   99ccc     C2 2712   8.105  -0.417   9.439  0.1126  0.0162 -0.3431
   99ccc     H1 2713   7.897  -0.446   9.389 -0.0182  0.4060 -1.8143
   99ccc     H2 2714   8.110  -0.481   9.529  1.0667  0.1413 -0.3019
   99ccc     C3 2715   8.172  -0.506   9.328 -0.5182 -0.4610  0.0619
   99ccc     C4 2716   8.156  -0.440   9.187 -1.1655  0.2607  0.3747
   99ccc     C5 2717   8.016  -0.382   9.163 -0.7429 -0.1407 -0.1917
   99ccc     H3 2718   8.233  -0.363   9.197  1.3081 -2.1996  1.7608
   99ccc     H4 2719   8.119  -0.602   9.319  1.1257 -1.4136  0.1343
   99ccc     H5 2720   7.949  -0.467   9.146 -0.1549 -0.2889 -1.9134
   99ccc     O1 2721   8.020  -0.301   9.046 -0.0184  0.4592 -0.6924
   99ccc     O2 2722   8.196  -0.521   9.081  0.1632 -0.1527  0.3412
   99ccc     O3 2723   8.303  -0.546   9.361  0.0052  0.2499 -0.1342
   99ccc     O4 2724   8.190  -0.300   9.465  0.3681  0.0191 -0.4019
   99ccc     C6 2725   7.921  -0.276   9.515 -0.0392  0.7349 -0.0680
   99ccc     H6 2726   8.294  -0.597   9.443  1.2343  1.7552  1.0085
   99ccc     H7 2727   8.256  -0.324   9.533 -1.0586  1.9447  1.8223
   99ccc     H8 2728   8.292  -0.509   9.082  0.0367  1.3544 -1.2111
   99ccc     H9 2729   7.989  -0.192   9.534 -0.9446  1.2741  0.8854
   99ccc    H10 2730   7.917  -0.331   9.611 -0.4089 -0.6310 -0.8417
   99ccc     O5 2731   7.786  -0.233   9.473 -0.5746  0.2453 -0.2482
   99ccc    H11 2732   7.728  -0.300   9.513  2.9084 -1.7279  1.9284
   99ccc     O6 2733   7.980  -0.301   9.271 -0.1237 -0.6851 -0.0033
  100ccc     C1 2734   7.304  -0.632   9.035 -0.0022 -0.2149  0.2180
  100ccc     C2 2735   7.401  -0.601   9.149  0.1773 -0.3496  0.2101
  100ccc     H1 2736   7.304  -0.742   9.040 -0.9391 -0.1983  0.8129
  100ccc     H2 2737   7.368  -0.634   9.248  0.6950 -0.0203  0.5012
  100ccc     C3 2738   7.539  -0.662   9.105  0.0648  0.5263 -0.9627
  100ccc     C4 2739   7.581  -0.616   8.964  0.3937 -0.4809 -0.1760
  100ccc     C5 2740   7.476  -0.656   8.862  0.0781  0.6556 -0.1259
  100ccc     H3 2741   7.580  -0.506   8.971 -1.6705 -0.4370 -0.5412
  100ccc     H4 2742   7.517  -0.768   9.086 -1.8756  0.6152  0.4551
  100ccc     H5 2743   7.463  -0.765   8.873  0.2831  0.7880  1.7131
  100ccc     O1 2744   7.511  -0.623   8.727  0.6144 -0.4127  0.0153
  100ccc     O2 2745   7.710  -0.668   8.941  0.1410  0.1596  0.6589
  100ccc     O3 2746   7.642  -0.645   9.201  0.3536 -0.0892  0.4617
  100ccc     O4 2747   7.409  -0.458   9.150 -0.3440 -0.3274 -0.3107
  100ccc     C6 2748   7.161  -0.584   9.050  0.0082  0.0571 -0.0304
  100ccc     H6 2749   7.648  -0.549   9.215 -0.3860 -0.0623  0.6157
  100ccc     H7 2750   7.318  -0.434   9.125  0.1267  0.9500 -0.8599
  100ccc     H8 2751   7.751  -0.688   9.027  0.6190 -1.1270  0.1552
  100ccc     H9 2752   7.118  -0.623   9.144 -0.6617  0.1752 -0.2815
  100ccc    H10 2753   7.093  -0.616   8.971 -1.0249  0.7822  0.5307
  100ccc     O5 2754   7.161  -0.446   9.063 -0.2516  0.2101  0.3904
  100ccc    H11 2755   7.129  -0.417   8.975 -0.4120 -1.7842 -0.2637
  100ccc     O6 2756   7.358  -0.588   8.904 -0.0202 -0.1884  0.0081
  101ccc     C1 2757   7.620  -1.551   8.268 -0.5064  0.0074 -0.5857
  101ccc     C2 2758   7.698  -1.583   8.394 -0.1717 -0.1379 -0.2739
  101ccc     H1 2759   7.695  -1.548   8.188  0.5559 -1.2164  0.3269
  101ccc     H2 2760   7.736  -1.686   8.399 -3.2223 -1.3398  0.1768
  101ccc     C3 2761   7.813  -1.485   8.413  0.1698 -0.5588  0.1190
  101ccc     C4 2762   7.757  -1.339   8.403  0.4656  0.0671 -0.4310
  101ccc     C5 2763   7.653  -1.316   8.286  0.4611 -0.4301  0.5378
  101ccc     H3 2764   7.698  -1.306   8.489 -0.7060  1.3825 -1.6825
  101ccc     H4 2765   7.876  -1.501   8.324 -0.0514  1.1756 -0.3797
  101ccc     H5 2766   7.707  -1.303   8.192  0.3174  1.8333  0.7272
  101ccc     O1 2767   7.577  -1.200   8.318 -0.1818 -0.2039  0.5328
  101ccc     O2 2768   7.862  -1.247   8.388  0.0763 -0.5888 -0.1060
  101ccc     O3 2769   7.885  -1.497   8.535  0.7371  0.5028 -0.3837
  101ccc     O4 2770   7.608  -1.578   8.508 -0.0236  0.0997  0.0212
  101ccc     C6 2771   7.520  -1.663   8.241  0.7970 -0.0574  0.7094
  101ccc     H6 2772   7.979  -1.482   8.514  0.5185  4.9673  0.6509
  101ccc     H7 2773   7.674  -1.605   8.574  0.5377 -1.5561 -1.1159
  101ccc     H8 2774   7.909  -1.254   8.473  0.3491  2.4718  0.1185
  101ccc     H9 2775   7.452  -1.691   8.322 -0.0835 -0.2950 -0.1051
  101ccc    H10 2776   7.569  -1.757   8.211 -2.6221 -1.8397  0.2338
  101ccc     O5 2777   7.443  -1.625   8.131 -0.7272  0.0969  0.6558
  101ccc    H11 2778   7.358  -1.608   8.176 -1.3522  0.1956 -0.5153
  101ccc     O6 2779   7.557  -1.423   8.278  0.7492 -0.5698  0.9166
  102ccc     C1 2780   5.875   2.065   6.395 -0.5982  0.6832  0.0091
  102ccc     C2 2781   5.859   2.205   6.459  0.2341 -0.9859  0.9296
  102ccc     H1 2782   5.816   1.985   6.442  2.3745 -3.1907 -2.2766
  102ccc     H2 2783   5.751   2.219   6.470  0.0783 -0.6705 -0.6879
  102ccc     C3 2784   5.912   2.221   6.597  0.2507  0.2296 -0.6697
  102ccc     C4 2785   6.054   2.167   6.601 -0.2155 -0.2048  0.1530
  102ccc     C5 2786   6.082   2.033   6.533 -0.0272 -0.0270  0.9482
  102ccc     H3 2787   6.128   2.235   6.556  3.0676 -2.6579  1.4592
  102ccc     H4 2788   5.853   2.158   6.665  1.2167 -1.2091 -1.1173
  102ccc     H5 2789   6.031   1.958   6.596 -1.6427  0.5649  0.3926
  102ccc     O1 2790   6.225   2.011   6.510  0.3021 -0.1178  0.3043
  102ccc     O2 2791   6.102   2.163   6.735  0.0612  0.1156 -0.0043
  102ccc     O3 2792   5.902   2.359   6.630 -0.1305 -0.4078 -0.0514
  102ccc     O4 2793   5.921   2.311   6.377  0.2566 -0.6139 -0.6700
  102ccc     C6 2794   5.818   2.056   6.247 -0.1797 -0.4196  0.5143
  102ccc     H6 2795   5.965   2.396   6.567  0.4751  0.6366  1.1159
  102ccc     H7 2796   5.865   2.389   6.363  0.0222 -1.1425 -3.1831
  102ccc     H8 2797   6.135   2.251   6.762  3.1824 -0.5442 -1.3452
  102ccc     H9 2798   5.894   2.097   6.179  1.2005  0.5826  2.5556
  102ccc    H10 2799   5.717   2.097   6.243 -0.7611 -1.8904 -1.6751
  102ccc     O5 2800   5.811   1.916   6.216  0.5178 -0.0572 -0.0119
  102ccc    H11 2801   5.794   1.921   6.121 -2.9976  0.1110  0.5023
  102ccc     O6 2802   6.016   2.035   6.400  0.1116 -0.3108  0.0797
  103ccc     C1 2803   5.911   1.434   6.936  0.3961 -0.1413 -0.0450
  103ccc     C2 2804   5.989   1.378   7.055 -0.0746  0.0897  0.2417
  103ccc     H1 2805   5.855   1.356   6.882  0.0124 -0.1707  0.3915
  103ccc     H2 2806   5.915   1.333   7.121  0.6352  0.2808  1.1893
  103ccc     C3 2807   6.085   1.269   7.005 -0.1694  0.6073  0.0727
  103ccc     C4 2808   6.179   1.330   6.899  0.5462  0.7958 -0.6722
  103ccc     C5 2809   6.105   1.402   6.786  0.2810 -0.8548  0.7089
  103ccc     H3 2810   6.254   1.391   6.951  2.6986 -1.1983 -1.2462
  103ccc     H4 2811   6.023   1.199   6.947  0.9068  1.0743 -1.7157
  103ccc     H5 2812   6.054   1.324   6.729 -1.1344  1.6916 -1.7414
  103ccc     O1 2813   6.200   1.477   6.699  0.1656 -0.2872 -0.1441
  103ccc     O2 2814   6.251   1.216   6.848  0.0679 -0.3410 -0.1671
  103ccc     O3 2815   6.150   1.190   7.110  0.4082 -0.3258  0.1072
  103ccc     O4 2816   6.065   1.480   7.120 -0.0671 -0.2809 -0.0372
  103ccc     C6 2817   5.806   1.536   6.989 -0.2195 -0.1189  0.2136
  103ccc     H6 2818   6.137   1.094   7.102 -0.3244 -0.1208 -1.4078
  103ccc     H7 2819   6.011   1.560   7.104  0.5463 -0.0514 -1.0720
  103ccc     H8 2820   6.279   1.170   6.929 -0.9290 -2.6449 -1.0401
  103ccc     H9 2821   5.725   1.485   7.043 -0.3723  0.9714  1.0378
  103ccc    H10 2822   5.756   1.556   6.894 -0.3318 -0.7054  0.1471
  103ccc     O5 2823   5.866   1.650   7.047  0.6455 -0.1716  0.3445
  103ccc    H11 2824   5.793   1.692   7.096  1.9852 -0.9894  3.2231
  103ccc     O6 2825   6.005   1.490   6.836  0.7581 -0.9138  0.0582
  104ccc     C1 2826   6.255   2.156   7.398 -0.3145 -0.7665  0.1042
  104ccc     C2 2827   6.205   2.025   7.467 -1.1622 -0.4335 -0.4543
  104ccc     H1 2828   6.181   2.166   7.317  0.2763 -2.0623 -0.6409
  104ccc     H2 2829   6.106   2.049   7.507 -1.1608  1.0142 -1.2602
  104ccc     C3 2830   6.210   1.904   7.373  0.6185 -0.8137 -0.8145
  104ccc     C4 2831   6.349   1.893   7.297  0.1280 -0.1850 -0.1236
  104ccc     C5 2832   6.404   2.032   7.251 -0.6378  0.9064  0.4648
  104ccc     H3 2833   6.422   1.852   7.369  2.3491 -2.0318 -3.1846
  104ccc     H4 2834   6.127   1.929   7.306 -0.9094 -0.8661  0.9808
  104ccc     H5 2835   6.352   2.069   7.162  0.2233 -0.7379 -0.7756
  104ccc     O1 2836   6.539   2.007   7.224  0.5414  0.0635  0.0965
  104ccc     O2 2837   6.343   1.797   7.190  0.2563 -0.1737 -0.0456
  104ccc     O3 2838   6.173   1.787   7.440 -0.1945  0.6722 -0.6207
  104ccc     O4 2839   6.294   2.005   7.582  1.0006  0.0418  0.0248
  104ccc     C6 2840   6.247   2.283   7.481 -0.5982 -0.9466 -0.1009
  104ccc     H6 2841   6.238   1.782   7.512 -3.5626 -2.1362  2.6657
  104ccc     H7 2842   6.309   2.100   7.599 -0.5270  1.2143 -3.9570
  104ccc     H8 2843   6.325   1.710   7.231  0.2885 -0.9823 -1.6597
  104ccc     H9 2844   6.145   2.309   7.509 -0.1849 -0.0783  0.6500
  104ccc    H10 2845   6.290   2.366   7.424 -1.7784 -0.7294 -0.6838
  104ccc     O5 2846   6.323   2.264   7.600 -0.2740 -0.2349  0.0021
  104ccc    H11 2847   6.359   2.353   7.609  0.2467 -0.2428 -1.6542
  104ccc     O6 2848   6.394   2.136   7.357 -0.5847  1.0293  0.4268
  105ccc     C1 2849   6.503   1.246   7.487  0.6080 -0.4939 -0.7444
  105ccc     C2 2850   6.371   1.199   7.429 -0.2197 -0.4909 -0.3905
  105ccc     H1 2851   6.477   1.295   7.582  3.1894  2.4777 -1.3957
  105ccc     H2 2852   6.317   1.144   7.507 -0.1279  3.3475  2.7295
  105ccc     C3 2853   6.284   1.326   7.393 -0.4215 -0.3350 -0.0071
  105ccc     C4 2854   6.361   1.418   7.285 -0.0393 -0.2528 -0.5256
  105ccc     C5 2855   6.500   1.455   7.347 -0.6891  0.3205 -0.6476
  105ccc     H3 2856   6.384   1.352   7.201  2.5491 -0.4821  0.2797
  105ccc     H4 2857   6.282   1.386   7.484  1.0437  0.1983 -0.3061
  105ccc     H5 2858   6.492   1.524   7.431 -1.5359 -0.1019 -0.3722
  105ccc     O1 2859   6.584   1.514   7.244  0.2601 -0.3763  0.9478
  105ccc     O2 2860   6.281   1.536   7.250  0.2450 -0.4684 -0.5413
  105ccc     O3 2861   6.155   1.283   7.350  0.1380  0.1116 -0.1200
  105ccc     O4 2862   6.392   1.123   7.314 -0.5656  0.1101  0.0226
  105ccc     C6 2863   6.597   1.136   7.527  0.5348 -0.5811 -0.5141
  105ccc     H6 2864   6.151   1.280   7.253 -0.1392  1.4899 -0.1829
  105ccc     H7 2865   6.320   1.058   7.313  0.0199 -0.5743  0.8157
  105ccc     H8 2866   6.206   1.505   7.197  0.1230  0.4874 -0.9540
  105ccc     H9 2867   6.549   1.063   7.592 -1.2714  0.9209 -0.0579
  105ccc    H10 2868   6.685   1.176   7.580  0.8541 -3.6269  1.4627
  105ccc     O5 2869   6.635   1.075   7.407 -0.1830  0.4562 -0.1238
  105ccc    H11 2870   6.559   1.111   7.358 -1.6415 -1.7438  0.3516
  105ccc     O6 2871   6.568   1.335   7.386  0.0881  0.9101  0.0241
  106ccc     C1 2872   5.945   0.126   6.613 -0.7245 -0.7234 -0.6616
  106ccc     C2 2873   5.964   0.051   6.742  0.7725 -0.1529 -0.9042
  106ccc     H1 2874   5.880   0.073   6.543  0.0892  0.9965 -2.8266
  106ccc     H2 2875   5.865   0.039   6.786  0.8454  1.1672 -0.3185
  106ccc     C3 2876   6.036  -0.083   6.708 -0.0500  0.5822 -0.0588
  106ccc     C4 2877   6.166  -0.043   6.644  0.2314 -0.0966 -0.3814
  106ccc     C5 2878   6.150   0.029   6.513  0.1977 -0.0325 -0.6128
  106ccc     H3 2879   6.226   0.023   6.708  0.1245 -1.2793  0.9875
  106ccc     H4 2880   5.969  -0.134   6.637  0.1182 -0.2021  0.3413
  106ccc     H5 2881   6.108  -0.031   6.431 -0.8568  0.1670 -0.2387
  106ccc     O1 2882   6.281   0.068   6.469  0.5299 -0.3606  0.2199
  106ccc     O2 2883   6.243  -0.165   6.620 -0.4657  0.3112  0.2122
  106ccc     O3 2884   6.073  -0.166   6.821  0.2014  0.8247  0.7719
  106ccc     O4 2885   6.050   0.129   6.818 -0.6582  0.3634  0.0676
  106ccc     C6 2886   5.876   0.265   6.620  0.6500  0.3832  0.0095
  106ccc     H6 2887   6.151  -0.218   6.794 -0.9928 -0.5573 -0.1951
  106ccc     H7 2888   6.031   0.218   6.784  2.1917  1.1316  0.2110
  106ccc     H8 2889   6.339  -0.152   6.629  0.1480 -3.5113  0.7277
  106ccc     H9 2890   5.773   0.261   6.655 -0.0685 -0.7955 -2.0500
  106ccc    H10 2891   5.880   0.314   6.522  0.8431 -1.3143 -0.8745
  106ccc     O5 2892   5.949   0.345   6.705  0.0854 -0.5972 -0.6703
  106ccc    H11 2893   5.916   0.436   6.699  0.8105 -0.2426  0.2950
  106ccc     O6 2894   6.068   0.148   6.537 -0.1464  0.0929  0.3591
  107ccc     C1 2895   6.055   0.699   7.073  0.5664  0.6375 -0.2298
  107ccc     C2 2896   6.081   0.826   7.160  0.4885 -0.2185 -0.0406
  107ccc     H1 2897   6.049   0.615   7.142  0.5204  0.7917 -0.0457
  107ccc     H2 2898   5.998   0.845   7.229  1.3642  0.4556  0.8522
  107ccc     C3 2899   6.209   0.798   7.241  0.2870 -0.2183 -0.1449
  107ccc     C4 2900   6.329   0.761   7.138  0.1680 -0.4793  0.2252
  107ccc     C5 2901   6.287   0.653   7.043  0.7586  0.4388  0.4052
  107ccc     H3 2902   6.356   0.843   7.072  0.0158 -0.3374  0.3366
  107ccc     H4 2903   6.190   0.715   7.309  0.0352 -0.1476 -0.1301
  107ccc     H5 2904   6.271   0.560   7.100 -1.6026 -0.1800 -1.1287
  107ccc     O1 2905   6.396   0.640   6.951  0.7722  0.6125  0.0106
  107ccc     O2 2906   6.436   0.705   7.220 -0.0061 -0.3429 -0.4915
  107ccc     O3 2907   6.253   0.909   7.321  0.7406  0.6773 -0.1852
  107ccc     O4 2908   6.098   0.934   7.070  0.1366 -0.5304  0.7378
  107ccc     C6 2909   5.920   0.699   6.997 -0.0779  0.5840 -0.7508
  107ccc     H6 2910   6.288   0.861   7.398  0.4610 -0.0980 -0.5363
  107ccc     H7 2911   6.031   0.909   7.005  2.4765  1.1452 -2.5713
  107ccc     H8 2912   6.494   0.782   7.232 -1.7332  1.2269 -1.6744
  107ccc     H9 2913   5.851   0.688   7.082  1.7254 -1.3368  0.5590
  107ccc    H10 2914   5.915   0.611   6.931 -0.7012  0.4771 -0.5679
  107ccc     O5 2915   5.903   0.823   6.928 -0.0762 -0.4470 -0.2138
  107ccc    H11 2916   5.809   0.833   6.905 -0.1351  0.7342  0.4292
  107ccc     O6 2917   6.159   0.670   6.973  0.4040  0.0099 -0.2578
  108ccc     C1 2918   6.053  -0.754   6.359  0.1465 -0.1107 -0.1698
  108ccc     C2 2919   5.975  -0.630   6.418  0.7784  0.0082 -0.2847
  108ccc     H1 2920   6.082  -0.822   6.440 -0.3381  0.0506  0.1390
  108ccc     H2 2921   5.886  -0.668   6.470  0.6776 -0.4220 -0.7671
  108ccc     C3 2922   6.050  -0.546   6.525 -0.1630 -0.3125 -0.2263
  108ccc     C4 2923   6.184  -0.502   6.464 -0.2391  0.3750  1.1204
  108ccc     C5 2924   6.258  -0.626   6.397  0.3486 -0.3545  0.0744
  108ccc     H3 2925   6.179  -0.424   6.387 -0.1320  1.1114  1.8373
  108ccc     H4 2926   6.076  -0.618   6.604 -1.5285 -2.3693 -1.5311
  108ccc     H5 2927   6.282  -0.699   6.475 -0.6009  0.4270  1.1253
  108ccc     O1 2928   6.375  -0.590   6.322  0.0952  0.3492  0.7200
  108ccc     O2 2929   6.262  -0.451   6.577  0.4590  0.6153  0.1566
  108ccc     O3 2930   5.983  -0.436   6.583 -0.0311 -0.7001  0.2558
  108ccc     O4 2931   5.944  -0.548   6.308 -0.1782  0.4717  0.1135
  108ccc     C6 2932   5.983  -0.836   6.243  0.0172 -0.5315  0.1776
  108ccc     H6 2933   5.911  -0.475   6.635 -3.4321  3.7595 -0.5809
  108ccc     H7 2934   5.954  -0.614   6.237 -0.5382 -0.0731  0.5618
  108ccc     H8 2935   6.218  -0.368   6.602 -0.3395 -0.0366  0.9590
  108ccc     H9 2936   5.892  -0.885   6.279 -0.5316  1.1183  1.1496
  108ccc    H10 2937   6.048  -0.905   6.188 -0.9249 -1.7285  0.5231
  108ccc     O5 2938   5.941  -0.743   6.138 -0.1389 -0.4903 -0.4348
  108ccc    H11 2939   6.025  -0.730   6.090  0.2716  0.7071  0.5479
  108ccc     O6 2940   6.171  -0.692   6.303  0.2811  0.6968  0.1836
  109ccc     C1 2941   6.028   0.063   6.100  0.3373 -0.2383 -0.0867
  109ccc     C2 2942   5.897   0.009   6.156  0.2236  0.3509  0.1358
  109ccc     H1 2943   6.033   0.032   5.995  3.0933  0.9077 -0.3977
  109ccc     H2 2944   5.814   0.057   6.102  0.0783  0.4606  0.4563
  109ccc     C3 2945   5.895  -0.143   6.129 -0.1711 -0.1570  0.0782
  109ccc     C4 2946   6.018  -0.219   6.188  0.0668  0.0780 -0.2227
  109ccc     C5 2947   6.147  -0.143   6.150 -0.2656  0.5593 -0.0910
  109ccc     H3 2948   6.001  -0.217   6.296 -0.4546 -0.7616 -0.2850
  109ccc     H4 2949   5.894  -0.150   6.019  0.5673 -1.5900  0.1321
  109ccc     H5 2950   6.168  -0.164   6.044  1.8153 -0.9714  0.5636
  109ccc     O1 2951   6.255  -0.197   6.234  0.1544  0.2426 -0.0908
  109ccc     O2 2952   6.031  -0.357   6.132 -0.3644 -0.6401 -0.2584
  109ccc     O3 2953   5.772  -0.205   6.165  0.0717 -0.1265 -0.1809
  109ccc     O4 2954   5.890   0.043   6.285  0.2632  0.2708 -0.6569
  109ccc     C6 2955   6.039   0.215   6.112  0.0438  0.6725 -0.4981
  109ccc     H6 2956   5.784  -0.211   6.261  1.6007 -0.3593 -0.3594
  109ccc     H7 2957   5.930   0.132   6.275  1.8590 -0.2307  0.9112
  109ccc     H8 2958   5.990  -0.420   6.193 -1.1348  0.3998  0.3400
  109ccc     H9 2959   5.966   0.261   6.044 -1.1211 -1.3018 -0.6541
  109ccc    H10 2960   6.140   0.245   6.083  0.3482 -0.2936 -0.4709
  109ccc     O5 2961   6.025   0.261   6.248 -0.2960  0.3111  0.1570
  109ccc    H11 2962   6.062   0.348   6.224  1.7104 -1.0354 -2.0587
  109ccc     O6 2963   6.135   0.001   6.168  0.5901  0.2519  0.1394
  110ccc     C1 2964   7.142   0.653   9.894 -0.1888  0.9827 -0.2630
  110ccc     C2 2965   7.004   0.701   9.945 -0.3319  0.4809 -0.6941
  110ccc     H1 2966   7.210   0.737   9.914  1.1241 -0.2373  0.5397
  110ccc     H2 2967   7.000   0.726  10.052  0.9175 -1.5760 -0.1142
  110ccc     C3 2968   6.945   0.825   9.865 -0.7339 -0.2254  0.7609
  110ccc     C4 2969   6.952   0.784   9.714 -0.3215 -0.1643 -0.2948
  110ccc     C5 2970   7.096   0.741   9.678 -0.0725  0.1788  0.4657
  110ccc     H3 2971   6.887   0.699   9.691  0.8147 -1.0457 -0.3646
  110ccc     H4 2972   7.002   0.916   9.886 -1.6517  0.9591 -1.5236
  110ccc     H5 2973   7.165   0.825   9.693  1.8478 -0.8532 -2.0463
  110ccc     O1 2974   7.093   0.699   9.541 -0.0687  0.0646 -0.6026
  110ccc     O2 2975   6.909   0.898   9.623  0.6256  0.3417 -0.3437
  110ccc     O3 2976   6.807   0.848   9.899 -0.3760 -0.5326 -0.4900
  110ccc     O4 2977   6.908   0.599   9.935  0.2792  0.7809  0.5635
  110ccc     C6 2978   7.179   0.523   9.983 -0.6490  0.1001  0.3134
  110ccc     H6 2979   6.786   0.937   9.866  1.2095 -0.7587 -2.2900
  110ccc     H7 2980   6.832   0.660   9.931 -1.0435 -0.7730  0.9037
  110ccc     H8 2981   6.846   0.944   9.681 -1.2431 -0.7842 -1.4037
  110ccc     H9 2982   7.141   0.432   9.935  0.0245  0.5541 -1.1175
  110ccc    H10 2983   7.131   0.538  10.081 -0.6868  0.4174  0.2487
  110ccc     O5 2984   7.323   0.527   9.993 -0.1259  0.7696 -0.3743
  110ccc    H11 2985   7.344   0.596  10.059 -1.3625  1.1034 -0.2965
  110ccc     O6 2986   7.137   0.624   9.750 -0.0882 -0.6668 -0.1307
  111ccc     C1 2987   6.760  -0.052   9.034 -0.0729 -0.3489  1.1901
  111ccc     C2 2988   6.830  -0.147   9.129 -0.0133 -0.5433  0.7921
  111ccc     H1 2989   6.731  -0.108   8.945 -0.5057  1.4549  0.1387
  111ccc     H2 2990   6.771  -0.238   9.144 -0.9656 -0.0374  0.1785
  111ccc     C3 2991   6.967  -0.180   9.081  0.2717 -0.3969  0.3406
  111ccc     C4 2992   7.049  -0.055   9.051 -0.0477 -0.2507 -0.1470
  111ccc     C5 2993   6.970   0.037   8.955  0.3132  0.0127 -0.0423
  111ccc     H3 2994   7.073  -0.010   9.147  0.3958  0.2230 -0.4746
  111ccc     H4 2995   6.942  -0.234   8.989 -1.0349 -0.5529  0.7689
  111ccc     H5 2996   6.968   0.004   8.851  1.8149 -0.2269 -0.0185
  111ccc     O1 2997   7.049   0.163   8.939 -0.0807 -0.2799 -0.1971
  111ccc     O2 2998   7.176  -0.093   8.995  0.3477  0.5560 -0.0391
  111ccc     O3 2999   7.028  -0.257   9.184 -0.5603 -0.0591  0.3162
  111ccc     O4 3000   6.851  -0.085   9.253 -0.5374 -0.2763 -0.3785
  111ccc     C6 3001   6.630  -0.001   9.093  0.3897 -0.0309 -0.4485
  111ccc     H6 3002   7.084  -0.324   9.141 -2.4384 -0.7584 -1.2270
  111ccc     H7 3003   6.927  -0.127   9.296 -0.6505 -0.3763 -0.2748
  111ccc     H8 3004   7.221  -0.131   9.072 -0.3883 -0.3204 -0.0295
  111ccc     H9 3005   6.637   0.090   9.154 -0.1721  0.9555 -1.7976
  111ccc    H10 3006   6.583  -0.083   9.149 -1.3472  0.5150 -1.0287
  111ccc     O5 3007   6.543   0.029   8.983 -0.3208 -0.2309 -0.0179
  111ccc    H11 3008   6.578   0.114   8.950  0.0936 -1.3317 -2.7270
  111ccc     O6 3009   6.832   0.065   9.002 -0.1774 -0.0825  0.5832
  112ccc     C1 3010   5.458   0.631   9.112 -0.4217 -0.3116  0.2937
  112ccc     C2 3011   5.402   0.696   9.239  0.0522 -0.1331  0.1519
  112ccc     H1 3012   5.480   0.524   9.126 -1.9209 -0.8788 -1.3424
  112ccc     H2 3013   5.318   0.638   9.278  1.0548 -1.3425  0.5822
  112ccc     C3 3014   5.510   0.714   9.353 -0.2591  0.6249  0.1694
  112ccc     C4 3015   5.634   0.788   9.290 -0.0066 -0.3675  0.3664
  112ccc     C5 3016   5.679   0.715   9.162  0.3632 -0.3482 -0.0130
  112ccc     H3 3017   5.591   0.884   9.258  0.8071 -0.2108 -0.2966
  112ccc     H4 3018   5.555   0.617   9.377  0.4917  0.2824 -2.3539
  112ccc     H5 3019   5.701   0.611   9.189 -0.2073 -0.7932 -1.2004
  112ccc     O1 3020   5.797   0.774   9.098 -0.2931 -0.2884  0.1267
  112ccc     O2 3021   5.748   0.808   9.387  0.1618  0.3575 -0.0348
  112ccc     O3 3022   5.462   0.774   9.471  0.0258  0.0402  0.2965
  112ccc     O4 3023   5.357   0.827   9.201 -0.3259  0.6538 -0.5171
  112ccc     C6 3024   5.357   0.622   9.005  0.7209 -0.4187 -0.5031
  112ccc     H6 3025   5.499   0.743   9.555 -1.8959  1.9586  1.9586
  112ccc     H7 3026   5.280   0.852   9.254 -1.1566 -2.2675 -0.2060
  112ccc     H8 3027   5.715   0.851   9.468  1.1681 -0.6865  0.9688
  112ccc     H9 3028   5.330   0.723   8.970  2.1945  0.6347  1.2379
  112ccc    H10 3029   5.264   0.580   9.046  0.0810 -0.1854 -1.6499
  112ccc     O5 3030   5.422   0.538   8.906 -0.4694 -0.0618  0.3712
  112ccc    H11 3031   5.451   0.459   8.954  1.6776  0.4425  0.0114
  112ccc     O6 3032   5.568   0.715   9.064  0.0501  0.5590  0.0648
  113ccc     C1 3033   5.351   1.168   9.747  0.4097 -0.7645 -0.3850
  113ccc     C2 3034   5.421   1.096   9.865  0.5779  0.6503  0.7272
  113ccc     H1 3035   5.270   1.107   9.707 -1.2958  0.8786  0.4413
  113ccc     H2 3036   5.346   1.064   9.937  0.6967 -0.5604  0.3435
  113ccc     C3 3037   5.511   0.978   9.820  0.3289  0.0826 -0.1243
  113ccc     C4 3038   5.603   1.009   9.701 -0.1372 -0.2029  0.4631
  113ccc     C5 3039   5.524   1.075   9.589  0.6251 -0.6509  0.1583
  113ccc     H3 3040   5.677   1.082   9.737 -1.6731 -0.0821  3.6991
  113ccc     H4 3041   5.435   0.904   9.791  0.7224 -0.0868 -0.7345
  113ccc     H5 3042   5.452   1.002   9.550 -1.2764  0.4260  1.4833
  113ccc     O1 3043   5.616   1.129   9.496  0.2412  0.0830 -0.0258
  113ccc     O2 3044   5.664   0.882   9.658  0.0177  0.2693  0.2777
  113ccc     O3 3045   5.582   0.922   9.930 -0.1344 -0.5766 -0.1020
  113ccc     O4 3046   5.501   1.189   9.925  0.1122  0.1983 -0.1277
  113ccc     C6 3047   5.283   1.307   9.786 -0.2169 -0.7127  0.1968
  113ccc     H6 3048   5.651   0.989   9.946 -0.5904 -0.1422  0.0773
  113ccc     H7 3049   5.497   1.154  10.016  1.5129 -2.5048 -0.9630
  113ccc     H8 3050   5.663   0.834   9.742  0.0714  0.8808  0.6345
  113ccc     H9 3051   5.356   1.381   9.823 -1.1548 -0.6999  2.1400
  113ccc    H10 3052   5.207   1.301   9.864  1.4508  2.2338  2.2290
  113ccc     O5 3053   5.202   1.347   9.679 -0.3262  0.0569 -0.1437
  113ccc    H11 3054   5.169   1.432   9.714  0.2823 -0.0545  0.7585
  113ccc     O6 3055   5.449   1.192   9.641 -0.2714 -0.1270 -0.3346
  114ccc     C1 3056   5.845   1.749   8.264  0.1889 -0.0501  0.5910
  114ccc     C2 3057   5.879   1.652   8.379 -0.3640  0.1656 -0.4530
  114ccc     H1 3058   5.889   1.716   8.170 -0.3511  0.8390  0.0143
  114ccc     H2 3059   5.834   1.557   8.350 -0.5183  0.5988 -1.7115
  114ccc     C3 3060   6.035   1.643   8.392  0.1641  0.1242  0.2100
  114ccc     C4 3061   6.094   1.788   8.411 -0.6056 -0.1691 -0.3425
  114ccc     C5 3062   6.048   1.886   8.297  0.6296  0.6099 -0.4423
  114ccc     H3 3063   6.069   1.832   8.509  3.0706  3.3050 -0.7055
  114ccc     H4 3064   6.072   1.606   8.295 -1.3624  0.8037 -0.6598
  114ccc     H5 3065   6.074   1.847   8.198  0.3446 -0.7085 -0.0234
  114ccc     O1 3066   6.085   2.015   8.330 -0.0593 -0.2940 -0.2054
  114ccc     O2 3067   6.238   1.767   8.410  0.5264 -0.1068  0.0220
  114ccc     O3 3068   6.078   1.553   8.501 -0.1120  0.0021  0.6947
  114ccc     O4 3069   5.818   1.710   8.498  0.2847  0.2959 -0.2511
  114ccc     C6 3070   5.689   1.765   8.252 -0.3654  0.2923  0.3922
  114ccc     H6 3071   6.072   1.606   8.582 -1.6187  1.9800 -0.6499
  114ccc     H7 3072   5.744   1.653   8.527  0.7425 -0.4962 -0.5910
  114ccc     H8 3073   6.270   1.816   8.488  0.3868  0.0268 -0.0061
  114ccc     H9 3074   5.655   1.855   8.305  1.0899 -0.6524  3.1339
  114ccc    H10 3075   5.647   1.672   8.292 -0.7052  0.7072  1.0133
  114ccc     O5 3076   5.662   1.772   8.112  0.2855  0.1625  0.3738
  114ccc    H11 3077   5.635   1.866   8.110  0.5701  0.2367 -0.1082
  114ccc     O6 3078   5.898   1.878   8.301 -0.1363  0.4812  0.0903
  115ccc     C1 3079   5.572   2.759   8.859 -0.9159  0.2499 -0.2666
  115ccc     C2 3080   5.505   2.706   8.993 -0.0723  0.1086 -0.0206
  115ccc     H1 3081   5.498   2.761   8.778  0.4735 -1.3186 -1.6680
  115ccc     H2 3082   5.415   2.766   9.012  1.5518  2.7835 -0.2798
  115ccc     C3 3083   5.463   2.557   8.962  0.2409  0.2823  0.3313
  115ccc     C4 3084   5.584   2.474   8.933  0.2950  0.0328 -0.0783
  115ccc     C5 3085   5.648   2.529   8.799  0.0858  0.2781  0.6966
  115ccc     H3 3086   5.665   2.483   9.006  0.8238  0.0281 -0.6542
  115ccc     H4 3087   5.400   2.557   8.872 -0.1464 -2.5780  0.5059
  115ccc     H5 3088   5.580   2.531   8.713 -0.0113 -0.9742  0.7221
  115ccc     O1 3089   5.776   2.467   8.758  0.2215 -0.4691  0.5391
  115ccc     O2 3090   5.550   2.334   8.917  0.4389  0.0295  0.0811
  115ccc     O3 3091   5.387   2.489   9.068  0.0187  0.4133 -0.1943
  115ccc     O4 3092   5.598   2.714   9.101  0.4880 -0.1899 -0.4271
  115ccc     C6 3093   5.625   2.907   8.872 -0.5364  0.7941 -0.0964
  115ccc     H6 3094   5.445   2.469   9.143 -1.9078  0.9076  1.5349
  115ccc     H7 3095   5.554   2.746   9.182 -0.0257 -0.9268 -0.4087
  115ccc     H8 3096   5.501   2.311   8.998  2.7562  1.2086  1.9574
  115ccc     H9 3097   5.544   2.975   8.899 -2.0283 -0.5135 -1.0640
  115ccc    H10 3098   5.655   2.937   8.771  0.8322  2.1240  0.6676
  115ccc     O5 3099   5.738   2.903   8.956  0.0797 -0.1310  0.0371
  115ccc    H11 3100   5.707   2.834   9.017  0.7774 -0.2735  0.2458
  115ccc     O6 3101   5.683   2.668   8.820 -0.3675  0.2127 -0.3895
  116ccc     C1 3102   5.190   2.027   7.965 -0.0213 -0.0024 -0.2068
  116ccc     C2 3103   5.242   2.149   8.043 -0.3813 -0.0972 -0.2525
  116ccc     H1 3104   5.175   1.944   8.035 -1.6442  0.4386 -0.0029
  116ccc     H2 3105   5.170   2.175   8.121  0.1827 -1.8244  0.8998
  116ccc     C3 3106   5.372   2.116   8.116 -0.4123  0.0225 -0.2888
  116ccc     C4 3107   5.478   2.071   8.021 -0.4034 -0.8947  0.0551
  116ccc     C5 3108   5.427   1.966   7.923  0.2381 -0.0732  0.0064
  116ccc     H3 3109   5.508   2.158   7.961 -0.2732 -0.2990  0.9594
  116ccc     H4 3110   5.349   2.027   8.175  3.0898 -1.1086 -0.4122
  116ccc     H5 3111   5.407   1.872   7.976 -1.0296 -1.0895 -2.1236
  116ccc     O1 3112   5.528   1.944   7.816  0.2937 -0.1733 -0.0235
  116ccc     O2 3113   5.581   2.029   8.111 -0.0150  0.3378  0.1916
  116ccc     O3 3114   5.423   2.226   8.192  0.2480  0.3464  0.0157
  116ccc     O4 3115   5.255   2.261   7.949 -0.1713 -0.2343 -0.1836
  116ccc     C6 3116   5.056   2.069   7.901 -0.6205  0.4730 -0.0560
  116ccc     H6 3117   5.367   2.250   8.268 -2.0017  0.2281 -1.4905
  116ccc     H7 3118   5.284   2.347   7.984 -0.5480  0.6791 -2.0056
  116ccc     H8 3119   5.597   2.112   8.160  0.1177  0.9516 -0.8618
  116ccc     H9 3120   5.078   2.126   7.809 -0.3375  0.4645  0.0044
  116ccc    H10 3121   5.001   2.121   7.980 -0.5953  1.7708 -0.8661
  116ccc     O5 3122   4.979   1.946   7.860 -0.0186 -0.4462 -0.1156
  116ccc    H11 3123   4.936   1.973   7.777 -1.4464 -1.5821  0.2204
  116ccc     O6 3124   5.297   2.006   7.868 -0.4997  0.1550  0.2898
  117ccc     C1 3125   5.755   2.623   7.726 -0.1670  0.1513 -0.6252
  117ccc     C2 3126   5.609   2.654   7.782 -0.8043  0.2339  0.5136
  117ccc     H1 3127   5.756   2.623   7.617 -0.2548  0.4461 -0.6264
  117ccc     H2 3128   5.577   2.742   7.724  0.7841  1.7339  1.7804
  117ccc     C3 3129   5.524   2.540   7.729  0.0943 -0.9016 -0.4819
  117ccc     C4 3130   5.567   2.399   7.786 -0.1861  0.9673  0.3016
  117ccc     C5 3131   5.708   2.370   7.756 -0.6167 -0.4238 -0.9019
  117ccc     H3 3132   5.566   2.403   7.895  1.0778 -1.0681  0.4449
  117ccc     H4 3133   5.543   2.543   7.621  0.7689  0.4167 -0.3383
  117ccc     H5 3134   5.718   2.355   7.648 -0.2607  1.6364 -1.1814
  117ccc     O1 3135   5.742   2.255   7.834 -0.1766 -0.1012  0.1955
  117ccc     O2 3136   5.479   2.301   7.727  0.2856 -0.2034  0.4619
  117ccc     O3 3137   5.386   2.568   7.755  0.3215  0.8314 -0.7041
  117ccc     O4 3138   5.600   2.670   7.923 -0.2852  0.4201 -0.5045
  117ccc     C6 3139   5.857   2.718   7.777 -0.2264  0.4596  0.2490
  117ccc     H6 3140   5.362   2.646   7.700  0.3564  1.7454  0.5312
  117ccc     H7 3141   5.613   2.766   7.933 -0.8660  0.3140  1.8102
  117ccc     H8 3142   5.397   2.295   7.777  0.2517 -0.3081  0.3948
  117ccc     H9 3143   5.879   2.689   7.881  0.3028 -1.8566 -0.4523
  117ccc    H10 3144   5.816   2.819   7.779 -0.2822  0.4703 -0.9948
  117ccc     O5 3145   5.968   2.700   7.697 -0.4692 -0.4695  0.3235
  117ccc    H11 3146   6.004   2.610   7.713 -0.1346 -0.5004 -0.5406
  117ccc     O6 3147   5.794   2.488   7.787  0.2268  0.1613 -0.2717
  118ccc     C1 3148   8.844   0.279  10.405 -0.5513  0.0890  0.5327
  118ccc     C2 3149   8.774   0.325  10.535 -0.7206 -0.3187 -0.0226
  118ccc     H1 3150   8.911   0.355  10.361 -0.0592  0.1178  1.3116
  118ccc     H2 3151   8.856   0.366  10.595 -0.1963 -2.2632  0.6572
  118ccc     C3 3152   8.666   0.432  10.511  0.8277 -0.5863  0.2681
  118ccc     C4 3153   8.570   0.390  10.397  0.1988  0.2532  0.3735
  118ccc     C5 3154   8.653   0.349  10.269  0.2571 -0.3557 -0.1836
  118ccc     H3 3155   8.523   0.297  10.431  1.7775 -2.0646 -3.2318
  118ccc     H4 3156   8.712   0.528  10.482 -0.1816  0.0347  0.6760
  118ccc     H5 3157   8.696   0.442  10.232  1.8093 -1.3495 -0.9723
  118ccc     O1 3158   8.570   0.289  10.165  0.4041  0.1305 -0.2648
  118ccc     O2 3159   8.480   0.500  10.365  0.0002  0.1693 -0.2924
  118ccc     O3 3160   8.579   0.439  10.634 -0.2716  0.1042 -0.2329
  118ccc     O4 3161   8.700   0.224  10.598  0.1812  0.1340 -0.2949
  118ccc     C6 3162   8.928   0.151  10.439  0.2669 -0.6562  0.6791
  118ccc     H6 3163   8.508   0.501  10.610 -0.2498  0.5266  0.7643
  118ccc     H7 3164   8.635   0.277  10.647 -1.4579 -0.3400 -1.8426
  118ccc     H8 3165   8.405   0.451  10.327  0.3121 -0.2257 -0.4120
  118ccc     H9 3166   8.854   0.070  10.438 -1.8612  1.1974 -0.0107
  118ccc    H10 3167   8.973   0.173  10.537  0.6924  1.2930  0.0847
  118ccc     O5 3168   9.022   0.141  10.327 -0.6074  0.2455  0.2676
  118ccc    H11 3169   8.963   0.107  10.259  1.4217  1.8807 -2.5525
  118ccc     O6 3170   8.752   0.251  10.303  0.4450  0.3283 -0.1474
  119ccc     C1 3171   8.671  -0.190   9.013 -0.5213  0.7819 -0.2824
  119ccc     C2 3172   8.554  -0.286   8.991  0.2452 -0.3625 -0.9532
  119ccc     H1 3173   8.754  -0.260   9.005 -0.4433  0.6492  1.2933
  119ccc     H2 3174   8.566  -0.350   8.903  2.6305 -1.1535 -0.1349
  119ccc     C3 3175   8.540  -0.379   9.112 -0.2559  0.4673 -0.0923
  119ccc     C4 3176   8.525  -0.299   9.242 -0.3391  0.3936 -0.3212
  119ccc     C5 3177   8.639  -0.194   9.259 -0.3490  0.7052  0.3364
  119ccc     H3 3178   8.429  -0.246   9.241 -0.1007  0.8257 -0.8768
  119ccc     H4 3179   8.638  -0.430   9.117  0.1521  1.0582 -1.4598
  119ccc     H5 3180   8.733  -0.247   9.277 -0.5448  0.6731  1.3205
  119ccc     O1 3181   8.614  -0.111   9.374  1.3632  0.7077  0.4738
  119ccc     O2 3182   8.525  -0.395   9.349  0.2723  0.0767  0.5861
  119ccc     O3 3183   8.442  -0.484   9.104 -0.6574 -0.1745 -0.2337
  119ccc     O4 3184   8.435  -0.205   8.976 -0.2432  0.1172 -0.4529
  119ccc     C6 3185   8.683  -0.092   8.903  0.7796 -0.2240  0.1839
  119ccc     H6 3186   8.493  -0.554   9.060  0.1715 -0.4853  1.1447
  119ccc     H7 3187   8.386  -0.276   8.932  0.7583 -1.5828  1.0548
  119ccc     H8 3188   8.453  -0.455   9.324  2.0444 -1.3283 -1.5241
  119ccc     H9 3189   8.596  -0.025   8.905  1.9477  1.3273  0.7423
  119ccc    H10 3190   8.675  -0.150   8.811 -0.5022 -1.2774  0.9201
  119ccc     O5 3191   8.799  -0.015   8.910 -0.1005  0.4348 -0.2863
  119ccc    H11 3192   8.785   0.064   8.856  0.3677  0.6398 -0.1151
  119ccc     O6 3193   8.663  -0.122   9.139 -0.0868 -0.5838 -0.4699
  120ccc     C1 3194   8.470  -0.025  10.673 -0.2110 -0.4854  0.0455
  120ccc     C2 3195   8.376  -0.098  10.764  0.5236  0.4663  0.5053
  120ccc     H1 3196   8.548   0.022  10.734  2.0648 -2.3046 -1.3297
  120ccc     H2 3197   8.431  -0.182  10.807 -0.3454 -0.8141 -0.7808
  120ccc     C3 3198   8.332  -0.008  10.886  0.0847 -0.2259  0.6713
  120ccc     C4 3199   8.245   0.109  10.831 -0.2366 -0.7938 -0.3144
  120ccc     C5 3200   8.326   0.174  10.713  0.4667  0.2177 -0.5577
  120ccc     H3 3201   8.147   0.065  10.808  0.2539 -2.0669 -0.0820
  120ccc     H4 3202   8.421   0.031  10.938 -0.0156 -0.8221  1.3098
  120ccc     H5 3203   8.410   0.221  10.765  0.9745 -1.0930 -0.1490
  120ccc     O1 3204   8.240   0.265  10.644  0.1968 -0.2603  0.0657
  120ccc     O2 3205   8.233   0.206  10.942  0.1618  0.5073 -0.0082
  120ccc     O3 3206   8.257  -0.084  10.985 -0.0008  0.0053  0.6204
  120ccc     O4 3207   8.265  -0.154  10.688  0.5908  0.3481 -0.5580
  120ccc     C6 3208   8.524  -0.107  10.559 -0.3059 -0.5447  0.5124
  120ccc     H6 3209   8.310  -0.164  10.998  0.9929  0.9542  3.0520
  120ccc     H7 3210   8.236  -0.235  10.732  1.2667  0.5571  0.3041
  120ccc     H8 3211   8.176   0.169  11.012  1.4951 -3.1152 -0.6200
  120ccc     H9 3212   8.453  -0.106  10.476 -1.1184 -1.3352  1.1780
  120ccc    H10 3213   8.537  -0.212  10.587 -1.1095 -0.7778  0.0417
  120ccc     O5 3214   8.636  -0.040  10.509 -0.0353  0.1240 -0.4679
  120ccc    H11 3215   8.636   0.052  10.539 -0.5037  0.6065 -1.8373
  120ccc     O6 3216   8.384   0.074  10.621 -0.3842 -0.5649 -0.4986
  121ccc     C1 3217   8.341   0.764  10.818 -0.1081 -0.5641  0.7847
  121ccc     C2 3218   8.376   0.652  10.920  0.5710 -0.0401 -0.3359
  121ccc     H1 3219   8.389   0.854  10.860  0.3823  0.4401 -1.7310
  121ccc     H2 3220   8.483   0.644  10.943  0.6859 -3.1063 -1.3888
  121ccc     C3 3221   8.296   0.674  11.051 -0.4798 -0.1050  0.4351
  121ccc     C4 3222   8.148   0.711  11.017 -0.4465  0.2051 -0.2515
  121ccc     C5 3223   8.111   0.807  10.904 -0.5622  0.2168  0.6781
  121ccc     H3 3224   8.105   0.625  10.963  0.8556  0.1748 -1.2880
  121ccc     H4 3225   8.343   0.761  11.099  0.1613  0.1002 -0.5262
  121ccc     H5 3226   8.119   0.910  10.942  2.1758 -0.2502  1.5133
  121ccc     O1 3227   7.990   0.776  10.853  0.0112  0.3445  0.3178
  121ccc     O2 3228   8.083   0.738  11.144 -0.0716  0.6238 -0.1783
  121ccc     O3 3229   8.316   0.562  11.140 -0.1825 -0.0664  0.2823
  121ccc     O4 3230   8.326   0.533  10.865  0.2894  0.0219 -0.0380
  121ccc     C6 3231   8.415   0.748  10.679  0.3193  0.2815  0.3690
  121ccc     H6 3232   8.342   0.603  11.224 -1.4942 -2.0977  1.8021
  121ccc     H7 3233   8.343   0.544  10.770  1.1852 -0.4976  0.0523
  121ccc     H8 3234   7.987   0.723  11.140 -0.3408  1.5070  1.6778
  121ccc     H9 3235   8.525   0.747  10.679  0.3222 -0.1822 -0.6834
  121ccc    H10 3236   8.381   0.822  10.606 -1.1714  0.3676  1.1217
  121ccc     O5 3237   8.381   0.620  10.629 -0.4960 -0.6176  0.2290
  121ccc    H11 3238   8.329   0.643  10.550 -3.0524 -1.5051  1.5353
  121ccc     O6 3239   8.199   0.777  10.796 -0.2643 -0.1100  0.0422
  122ccc     C1 3240   9.218   1.308   9.832 -0.2309 -0.3358 -0.8965
  122ccc     C2 3241   9.343   1.372   9.906  0.4604  0.7192 -0.1120
  122ccc     H1 3242   9.240   1.323   9.725  1.3367  0.7587 -0.4482
  122ccc     H2 3243   9.431   1.315   9.872 -0.1962  0.9327 -2.3160
  122ccc     C3 3244   9.366   1.517   9.864  0.0753 -0.1697  0.4308
  122ccc     C4 3245   9.224   1.597   9.901 -0.3069 -0.1946 -0.2044
  122ccc     C5 3246   9.102   1.523   9.839 -0.1278  0.5437  0.8557
  122ccc     H3 3247   9.211   1.578  10.009  1.0998  0.1870  0.0537
  122ccc     H4 3248   9.377   1.521   9.755 -1.9692 -4.6772 -0.1754
  122ccc     H5 3249   9.103   1.542   9.731  0.3543  2.3897  1.1508
  122ccc     O1 3250   8.978   1.587   9.893 -0.4193 -0.6395 -0.3319
  122ccc     O2 3251   9.229   1.745   9.862  1.0619  0.7124 -0.2930
  122ccc     O3 3252   9.485   1.557   9.946  0.1806 -0.1891  0.1662
  122ccc     O4 3253   9.325   1.362  10.047 -0.6424  0.2468  0.3998
  122ccc     C6 3254   9.191   1.156   9.852  0.0006  1.0303 -0.1210
  122ccc     H6 3255   9.458   1.581  10.036 -2.5896 -0.5937 -0.4822
  122ccc     H7 3256   9.411   1.352  10.091 -0.7920 -0.4546  0.5405
  122ccc     H8 3257   9.167   1.779   9.929  0.6488  0.3466 -0.4850
  122ccc     H9 3258   9.179   1.133   9.958  1.2319  1.0686  0.0328
  122ccc    H10 3259   9.281   1.102   9.820 -0.0760 -0.3217  1.8273
  122ccc     O5 3260   9.072   1.117   9.785 -0.1971  0.4568 -0.3358
  122ccc    H11 3261   9.006   1.133   9.854  1.5078  0.5194  1.3619
  122ccc     O6 3262   9.100   1.382   9.871 -0.4420 -0.0262 -0.0122
  123ccc     C1 3263   9.266   1.812   9.324  0.3335 -0.7665 -0.5786
  123ccc     C2 3264   9.240   1.868   9.183  0.2831  0.3912 -0.7327
  123ccc     H1 3265   9.235   1.707   9.321 -1.3101 -0.4585  2.1488
  123ccc     H2 3266   9.316   1.818   9.122  0.8931 -0.6825  0.8382
  123ccc     C3 3267   9.102   1.823   9.152  0.1692  0.1309 -0.5615
  123ccc     C4 3268   9.000   1.890   9.246 -0.1412 -0.3153  0.5255
  123ccc     C5 3269   9.037   1.867   9.396  0.2484 -0.4278  0.2860
  123ccc     H3 3270   9.012   1.996   9.219 -0.5014 -0.2000  0.8043
  123ccc     H4 3271   9.091   1.717   9.177 -1.2609  0.7719  1.8436
  123ccc     H5 3272   9.025   1.762   9.424 -0.4048 -0.3118  0.4607
  123ccc     O1 3273   8.966   1.956   9.486  0.9654 -0.7635  0.7124
  123ccc     O2 3274   8.868   1.826   9.216  0.8820 -0.3636  0.3063
  123ccc     O3 3275   9.065   1.835   9.013  0.8611  0.2195  0.7719
  123ccc     O4 3276   9.259   2.010   9.168  0.2544 -0.7264  0.0096
  123ccc     C6 3277   9.412   1.819   9.367  0.2599 -0.7766 -0.5343
  123ccc     H6 3278   8.988   1.778   8.995  1.7313 -1.1348  1.2021
  123ccc     H7 3279   9.243   2.030   9.074  1.8658  0.3420 -0.0821
  123ccc     H8 3280   8.815   1.904   9.190  3.9832  0.6618 -4.3788
  123ccc     H9 3281   9.425   1.920   9.408 -0.1723  0.0181 -2.2708
  123ccc    H10 3282   9.475   1.809   9.278 -0.2272 -2.3869 -0.7327
  123ccc     O5 3283   9.427   1.714   9.460  0.3904 -0.1710  0.1520
  123ccc    H11 3284   9.418   1.748   9.551  1.0629 -2.7849  1.3121
  123ccc     O6 3285   9.179   1.886   9.414  0.1290  0.1414 -0.3229
  124ccc     C1 3286   9.516   0.966   9.236 -0.4586  0.4913  0.4015
  124ccc     C2 3287   9.553   1.092   9.152  0.1418 -0.3972  0.2013
  124ccc     H1 3288   9.613   0.923   9.264 -0.0058 -0.5718 -2.4777
  124ccc     H2 3289   9.606   1.162   9.218 -1.1098 -0.3979  1.2572
  124ccc     C3 3290   9.646   1.048   9.042 -0.7624 -0.7148  0.3937
  124ccc     C4 3291   9.575   0.945   8.948 -0.3527 -0.4697  0.2027
  124ccc     C5 3292   9.522   0.822   9.031 -0.1203  0.2157 -0.1219
  124ccc     H3 3293   9.490   1.001   8.908  0.1429 -1.1072 -1.8692
  124ccc     H4 3294   9.728   0.992   9.089  0.3165  0.4981  0.0156
  124ccc     H5 3295   9.599   0.749   9.058 -1.6302 -2.5014 -2.6092
  124ccc     O1 3296   9.429   0.757   8.947 -0.0113 -0.0309  0.3036
  124ccc     O2 3297   9.671   0.905   8.849  0.0941  0.3538  0.5168
  124ccc     O3 3298   9.714   1.158   8.972 -0.2964 -0.2034 -0.4685
  124ccc     O4 3299   9.431   1.147   9.113 -0.1089 -0.3823  0.1023
  124ccc     C6 3300   9.434   0.991   9.366 -0.3593  0.2700 -0.1492
  124ccc     H6 3301   9.654   1.177   8.898 -0.5896 -1.4949 -0.5944
  124ccc     H7 3302   9.377   1.109   9.185 -0.1621  2.5493  1.7660
  124ccc     H8 3303   9.692   0.811   8.864  0.5619  0.3533 -0.1117
  124ccc     H9 3304   9.477   1.070   9.428  1.5705 -0.9447  0.1232
  124ccc    H10 3305   9.422   0.896   9.420  0.5126  0.2279 -0.0244
  124ccc     O5 3306   9.306   1.037   9.332  0.6229  0.5872  0.2021
  124ccc    H11 3307   9.255   1.060   9.412  0.5830  4.0803 -0.6891
  124ccc     O6 3308   9.453   0.867   9.151 -0.0410 -0.2183  0.3140
  125ccc     C1 3309   9.248   0.215   9.184 -0.5459  0.0964  0.8114
  125ccc     C2 3310   9.210   0.087   9.100 -0.2545 -0.2210  0.2462
  125ccc     H1 3311   9.240   0.189   9.290 -0.4250  0.1761  0.8405
  125ccc     H2 3312   9.266  -0.000   9.135  1.5189  0.5887 -0.4214
  125ccc     C3 3313   9.058   0.055   9.114 -0.0227  0.5407  0.3088
  125ccc     C4 3314   8.967   0.177   9.073  0.1995  0.4806 -0.1900
  125ccc     C5 3315   9.011   0.303   9.150 -0.3366  0.5896  0.3018
  125ccc     H3 3316   8.970   0.205   8.966  0.7059  3.1100  0.4342
  125ccc     H4 3317   9.044   0.040   9.222 -3.4570  0.3740 -0.0541
  125ccc     H5 3318   8.977   0.289   9.253 -1.6354 -0.8554 -0.2867
  125ccc     O1 3319   8.946   0.421   9.097  0.4758 -0.2703 -0.2705
  125ccc     O2 3320   8.833   0.146   9.115  0.9010 -0.5295 -0.0604
  125ccc     O3 3321   9.024  -0.064   9.041  0.1651  0.0078  0.3276
  125ccc     O4 3322   9.246   0.115   8.964  0.4359 -0.2582 -0.6050
  125ccc     C6 3323   9.394   0.253   9.153  0.7901  0.2065  0.0371
  125ccc     H6 3324   8.947  -0.046   8.985  0.4264 -0.8463 -0.3218
  125ccc     H7 3325   9.183   0.056   8.919 -1.2337  0.3988  0.7445
  125ccc     H8 3326   8.796   0.069   9.069 -1.7378 -0.8264  2.2496
  125ccc     H9 3327   9.405   0.298   9.053 -0.0888 -0.1616 -0.2388
  125ccc    H10 3328   9.461   0.167   9.161  0.3492 -0.0345  1.4094
  125ccc     O5 3329   9.436   0.345   9.249 -0.0314  0.3306 -0.1163
  125ccc    H11 3330   9.354   0.397   9.255 -0.2007 -0.0153  0.7286
  125ccc     O6 3331   9.158   0.322   9.145  0.7680 -0.3562  0.4113
  126SOL     OW 3332   1.225   9.068   8.643  0.0812  0.3399 -1.1702
  126SOL    HW1 3333   1.136   9.094   8.667  0.4866  0.6175  0.1525
  126SOL    HW2 3334   1.261   9.144   8.598  0.5432  1.3643  0.7822
  127SOL     OW 3335  10.015   0.606   3.920  0.1856 -0.1070  1.0117
  127SOL    HW1 3336  10.058   0.688   3.945  0.4555 -0.6159  2.2553
  127SOL    HW2 3337  10.067   0.538   3.961 -0.3479 -0.8874  0.4265
  128SOL     OW 3338   2.759   5.757   5.853  0.6143  0.3267 -0.0580
  128SOL    HW1 3339   2.675   5.712   5.854  1.0235 -0.4845 -0.8705
  128SOL    HW2 3340   2.741   5.843   5.889  0.2508 -1.2118  3.8753
  129SOL     OW 3341   0.074  10.545   2.452 -0.4492 -0.4415 -0.0831
  129SOL    HW1 3342   0.163  10.519   2.429 -0.5488 -1.9399  1.0215
  129SOL    HW2 3343   0.081  10.579   2.541 -0.6869  1.4232 -0.7368
  130SOL     OW 3344   8.398   5.855   9.143  0.1783 -0.0580 -0.1051
  130SOL    HW1 3345   8.482   5.894   9.122 -0.5313  0.9005 -1.3034
  130SOL    HW2 3346   8.365   5.821   9.060 -0.4345 -0.7827  0.4176
  131SOL     OW 3347   6.808   6.941   4.251 -0.3620  0.1191  0.1810
  131SOL    HW1 3348   6.803   6.878   4.322 -2.5480  1.0222  0.9284
  131SOL    HW2 3349   6.827   7.025   4.294  0.5946  0.3100 -0.5796
  132SOL     OW 3350   4.118  10.122   9.690  0.2037  0.0842 -0.0832
  132SOL    HW1 3351   4.209  10.143   9.713 -0.0029 -2.1827  3.5704
  132SOL    HW2 3352   4.066  10.172   9.752 -0.7097 -2.4060  1.2844
  133SOL     OW 3353   0.805   4.147   6.275  0.3021  0.7503 -0.2871
  133SOL    HW1 3354   0.772   4.225   6.321  0.5562  0.1056  1.0413
  133SOL    HW2 3355   0.873   4.181   6.217 -0.0794  1.6093 -0.2585
  134SOL     OW 3356   6.142   9.954   4.792  0.0162  0.4597  0.4504
  134SOL    HW1 3357   6.182   9.917   4.713 -2.5823  0.1904 -0.8448
  134SOL    HW2 3358   6.153   9.886   4.858  3.8470  1.3828  1.0349
  135SOL     OW 3359   6.793   9.484  10.106  0.1976  0.1298  0.5234
  135SOL    HW1 3360   6.820   9.407  10.157 -0.1552  0.1410  0.7293
  135SOL    HW2 3361   6.870   9.506  10.053  0.4643 -0.0684  0.8244
  136SOL     OW 3362   5.671   1.024   5.280 -0.2479 -0.1895 -0.2205
  136SOL    HW1 3363   5.651   1.075   5.202  0.2202 -0.6803 -0.6664
  136SOL    HW2 3364   5.612   0.948   5.274 -0.2509 -0.2001 -0.0643
  137SOL     OW 3365   4.033   1.595   7.019  0.0213 -0.2830 -0.2776
  137SOL    HW1 3366   4.032   1.529   7.088 -2.7854 -1.7735 -1.5630
  137SOL    HW2 3367   4.060   1.548   6.940  3.4961  1.4540 -0.3259
  138SOL     OW 3368   5.347   4.739   8.322 -0.1143  0.1287 -0.1440
  138SOL    HW1 3369   5.309   4.683   8.254 -0.2133 -0.7468  0.6137
  138SOL    HW2 3370   5.275   4.795   8.349 -0.5543 -0.7019  0.4388
  139SOL     OW 3371   2.832   4.720   4.808 -0.8653  0.4234  0.5773
  139SOL    HW1 3372   2.866   4.808   4.793  0.9248 -0.2590  0.3025
  139SOL    HW2 3373   2.866   4.696   4.894 -0.5656 -0.3279  0.2545
  140SOL     OW 3374   8.363   7.849   6.140  0.2084 -0.4976 -0.0373
  140SOL    HW1 3375   8.406   7.788   6.080 -0.7024 -0.1353 -1.0969
  140SOL    HW2 3376   8.339   7.923   6.085  1.6570  1.0494  1.2924
  141SOL     OW 3377   9.197   0.080   1.243  0.2652 -0.4461  0.8852
  141SOL    HW1 3378   9.282   0.070   1.198  0.8794 -0.8029  2.0825
  141SOL    HW2 3379   9.215   0.052   1.333 -1.3198 -1.2817  0.9655
  142SOL     OW 3380  10.417   5.686   9.008 -0.8262  0.4294  0.1307
  142SOL    HW1 3381  10.507   5.656   9.017 -0.5856  1.1334  0.1876
  142SOL    HW2 3382  10.424   5.782   9.010 -1.6276  0.4832  0.6393
  143SOL     OW 3383   6.684   2.434   0.452 -0.5343  0.2940 -0.4923
  143SOL    HW1 3384   6.747   2.384   0.400 -2.2457 -0.4865 -1.8839
  143SOL    HW2 3385   6.631   2.480   0.388 -0.9100  1.5745  0.6885
  144SOL     OW 3386   9.853   8.161   6.617 -0.2349 -0.1986 -0.2776
  144SOL    HW1 3387   9.835   8.243   6.662 -0.5521 -0.8360  0.7774
  144SOL    HW2 3388   9.776   8.146   6.562 -0.4983 -0.1706  0.0876
  145SOL     OW 3389   3.771   3.175   7.901  0.6725  0.0940  0.6247
  145SOL    HW1 3390   3.684   3.212   7.889  1.2073  1.0264 -0.6101
  145SOL    HW2 3391   3.827   3.226   7.842  1.9195 -0.9670  0.8472
  146SOL     OW 3392   2.410   4.457   1.097  0.1996  0.4264 -0.3177
  146SOL    HW1 3393   2.344   4.519   1.066  0.9095  1.8032  0.8100
  146SOL    HW2 3394   2.473   4.511   1.146  0.3187 -1.3012  1.5866
  147SOL     OW 3395   8.296   7.596   5.756 -0.1335 -0.1055 -0.1606
  147SOL    HW1 3396   8.214   7.604   5.805  0.7438  3.3542  1.1152
  147SOL    HW2 3397   8.274   7.626   5.668 -0.5297 -0.6317 -0.2443
  148SOL     OW 3398   2.963   7.774   6.781  0.1791  0.1397  0.3271
  148SOL    HW1 3399   2.932   7.844   6.839  0.2753 -0.3290  0.9591
  148SOL    HW2 3400   2.883   7.731   6.751  0.1566 -0.1066  0.7360
  149SOL     OW 3401   8.259   9.612  10.190 -0.1398  0.0170  0.0775
  149SOL    HW1 3402   8.247   9.688  10.132  0.0533  0.3332  0.4482
  149SOL    HW2 3403   8.189   9.552  10.165  0.1465  0.0002 -0.7205
  150SOL     OW 3404   8.302   6.727   3.393  0.0853  0.3595  0.4091
  150SOL    HW1 3405   8.289   6.633   3.387 -0.9125  0.4469  1.0852
  150SOL    HW2 3406   8.292   6.747   3.486  0.6873  1.0787  0.3304
  151SOL     OW 3407   7.531   3.687   3.474  0.5630  0.6454 -0.4596
  151SOL    HW1 3408   7.444   3.716   3.501  0.7127 -0.3723  1.3140
  151SOL    HW2 3409   7.589   3.760   3.497  0.4255  0.5287  0.2973
  152SOL     OW 3410   4.445   1.116  10.031 -0.4272  0.0577 -0.1989
  152SOL    HW1 3411   4.362   1.164  10.020 -0.5585 -0.1543 -0.1344
  152SOL    HW2 3412   4.433   1.066  10.112 -1.1143 -1.7764 -1.3936
  153SOL     OW 3413   6.996   6.250   0.236 -0.5746 -0.4688 -0.3650
  153SOL    HW1 3414   7.041   6.333   0.217  0.1137 -0.7213  0.1380
  153SOL    HW2 3415   6.905   6.267   0.212 -0.0896 -0.2107 -2.2398
  154SOL     OW 3416   6.784   9.501   8.761  0.1475  0.6061 -0.5766
  154SOL    HW1 3417   6.839   9.447   8.704  0.2134  0.9020 -0.7974
  154SOL    HW2 3418   6.718   9.538   8.702  0.0134  0.6497 -0.4002
  155SOL     OW 3419   1.572   4.468   7.293  0.0783 -0.1086 -0.0069
  155SOL    HW1 3420   1.511   4.444   7.363  0.9089  0.0558  0.7981
  155SOL    HW2 3421   1.558   4.561   7.280 -0.5485 -0.2754 -0.5319
  156SOL     OW 3422   9.989   6.735   8.425  0.1305 -0.2121 -0.2903
  156SOL    HW1 3423  10.013   6.646   8.399 -1.7141 -0.2196 -2.2234
  156SOL    HW2 3424   9.914   6.757   8.369 -0.8972  1.7286  1.6980
  157SOL     OW 3425  10.506   8.655   0.219 -0.3309 -0.7149  0.2455
  157SOL    HW1 3426  10.434   8.669   0.158  0.3901 -0.2016 -0.4980
  157SOL    HW2 3427  10.553   8.580   0.183  0.2574 -0.2377  0.0229
  158SOL     OW 3428   7.920   2.035   0.336  0.3103  0.1396 -0.5931
  158SOL    HW1 3429   7.880   2.122   0.338 -1.5370 -0.6696 -0.2839
  158SOL    HW2 3430   7.869   1.986   0.271  0.2487 -1.1779  0.3969
  159SOL     OW 3431  10.629   9.312   2.674 -0.6189  0.4233 -0.1279
  159SOL    HW1 3432  10.536   9.337   2.670 -0.7903  0.4949  2.3906
  159SOL    HW2 3433  10.676   9.392   2.652 -1.1378  0.5091 -0.9875
  160SOL     OW 3434   8.398   9.168   0.305  0.7049 -0.1464 -0.5525
  160SOL    HW1 3435   8.404   9.259   0.335 -0.7781  0.3517 -1.6647
  160SOL    HW2 3436   8.373   9.175   0.213  0.5841 -1.6954 -0.6570
  161SOL     OW 3437   0.563   6.819   5.721 -0.4497  0.2301 -0.2229
  161SOL    HW1 3438   0.588   6.859   5.804 -2.1153  2.6063 -0.7602
  161SOL    HW2 3439   0.469   6.802   5.730 -0.3343 -0.9750 -1.0773
  162SOL     OW 3440   4.501   6.375   9.264  0.3781  0.2903  0.2577
  162SOL    HW1 3441   4.558   6.299   9.253  0.9039  0.6200  0.7039
  162SOL    HW2 3442   4.440   6.369   9.190  1.4660  0.3722 -0.6724
  163SOL     OW 3443   9.866   5.737   4.254  0.4541 -0.0366  0.2614
  163SOL    HW1 3444   9.929   5.766   4.321  0.6666 -0.0988  0.0911
  163SOL    HW2 3445   9.911   5.753   4.171  0.2427 -0.0820  0.1384
  164SOL     OW 3446   5.588   4.214   5.721  0.3988  0.6854 -0.2758
  164SOL    HW1 3447   5.563   4.123   5.706 -2.3352  0.9452  1.8953
  164SOL    HW2 3448   5.640   4.211   5.801  1.9208  0.9122 -1.2065
  165SOL     OW 3449   9.716   3.785   9.649  0.5795  0.3792  0.0114
  165SOL    HW1 3450   9.743   3.822   9.733  0.2140  1.6686 -0.4114
  165SOL    HW2 3451   9.770   3.831   9.584 -0.3664  0.6858 -0.5833
  166SOL     OW 3452   9.999   0.001   2.255  0.3208  0.1923 -0.3219
  166SOL    HW1 3453  10.032   0.051   2.181  1.5628 -0.6811 -0.3775
  166SOL    HW2 3454   9.999  -0.090   2.226  1.6366 -0.2681  1.0009
  167SOL     OW 3455   6.897   9.491   5.146  0.2823  0.3866 -0.6058
  167SOL    HW1 3456   6.810   9.516   5.178  0.2748  0.1827 -0.4659
  167SOL    HW2 3457   6.958   9.537   5.204  0.2781  1.6755 -1.5902
  168SOL     OW 3458   1.941   1.082   8.112 -0.2198  0.0717 -0.6992
  168SOL    HW1 3459   2.008   1.149   8.128  0.1456 -0.8210  1.9886
  168SOL    HW2 3460   1.860   1.131   8.097  0.0950  1.1363  0.8954
  169SOL     OW 3461   3.142   6.043   5.470 -0.2764  0.1275 -0.3084
  169SOL    HW1 3462   3.085   5.982   5.423  0.2814 -1.4336  0.9454
  169SOL    HW2 3463   3.213   5.989   5.504  2.5911  2.1150 -2.6058
  170SOL     OW 3464   8.082   1.515   5.483  0.0638  0.0086 -0.0379
  170SOL    HW1 3465   8.024   1.562   5.424 -0.8018 -1.7518 -0.6763
  170SOL    HW2 3466   8.035   1.434   5.503  1.7558 -0.8974  0.4545
  171SOL     OW 3467   2.519   1.393   3.617  0.0173 -0.7655  0.5507
  171SOL    HW1 3468   2.592   1.453   3.633 -0.2266 -1.0204  2.9843
  171SOL    HW2 3469   2.442   1.449   3.616  0.1053 -0.6286 -0.9652
  172SOL     OW 3470   2.959   2.522   1.510  0.2351 -0.2016 -0.5323
  172SOL    HW1 3471   2.901   2.594   1.533  0.9405 -0.4427  2.4043
  172SOL    HW2 3472   2.925   2.489   1.427 -0.4769  3.0656 -1.6914
  173SOL     OW 3473   0.185   8.386   7.287  0.2525  0.2283  0.1136
  173SOL    HW1 3474   0.270   8.361   7.325  0.3081  0.3598  0.0771
  173SOL    HW2 3475   0.196   8.478   7.264  0.5214 -0.0811 -1.0456
  174SOL     OW 3476   7.007  10.656   3.602 -0.0653  0.3511  0.1405
  174SOL    HW1 3477   7.017  10.563   3.626  0.8575  0.3162 -0.3271
  174SOL    HW2 3478   7.039  10.704   3.678 -3.0561  0.3701  1.5053
  175SOL     OW 3479   6.762   4.385   7.116  0.0307 -0.7601 -0.3452
  175SOL    HW1 3480   6.809   4.449   7.170 -1.0327 -0.8262  0.6980
  175SOL    HW2 3481   6.677   4.377   7.157 -1.1845 -0.1221 -2.5859
  176SOL     OW 3482   6.574   3.722   7.884  0.2128 -0.0018 -0.4854
  176SOL    HW1 3483   6.605   3.641   7.924  0.1177  0.3577  0.3253
  176SOL    HW2 3484   6.479   3.711   7.878  0.1993  0.0561 -0.3692
  177SOL     OW 3485   7.247   7.122   7.063  0.0782  0.1198 -0.2042
  177SOL    HW1 3486   7.159   7.093   7.042  0.1986 -0.5508  0.1983
  177SOL    HW2 3487   7.291   7.131   6.978  0.0894 -1.0376 -0.3343
  178SOL     OW 3488   1.767   1.569  10.564  0.3098  0.3018 -0.6413
  178SOL    HW1 3489   1.862   1.572  10.555  0.3875  0.5430  0.1582
  178SOL    HW2 3490   1.741   1.660  10.574  0.2306  0.1170  1.2212
  179SOL     OW 3491   8.211   4.743   1.568 -0.5153  0.2189  0.6271
  179SOL    HW1 3492   8.140   4.791   1.609 -2.3057 -1.3543 -0.4381
  179SOL    HW2 3493   8.190   4.651   1.584  0.8390 -0.3146 -0.4310
  180SOL     OW 3494   8.303   4.323   4.611 -0.0700  0.0904  0.3546
  180SOL    HW1 3495   8.226   4.286   4.567 -0.2131 -0.9450  1.4324
  180SOL    HW2 3496   8.373   4.315   4.547 -0.7939  0.8381 -0.5652
  181SOL     OW 3497   7.378   6.495   4.487  0.5594 -0.0612  0.3394
  181SOL    HW1 3498   7.295   6.503   4.440  0.4464  0.5835  0.6352
  181SOL    HW2 3499   7.359   6.435   4.558 -0.0955  1.2549  1.3272
  182SOL     OW 3500   8.169   2.573   8.299  0.2353  0.3977 -0.1468
  182SOL    HW1 3501   8.128   2.491   8.272 -0.6124  1.1999 -1.4478
  182SOL    HW2 3502   8.115   2.641   8.259  1.9298  1.5524 -0.6101
  183SOL     OW 3503   2.991   4.313   2.062 -0.1418  0.3467  0.4293
  183SOL    HW1 3504   3.016   4.228   2.098  1.3357 -0.0512 -1.3725
  183SOL    HW2 3505   2.900   4.302   2.035  0.5405 -1.3108 -1.4150
  184SOL     OW 3506   7.153   2.735   9.003  0.3636  0.7736  0.3003
  184SOL    HW1 3507   7.139   2.641   9.017  0.0796  0.6022 -1.0154
  184SOL    HW2 3508   7.154   2.746   8.908 -0.3096  2.2021  0.4199
  185SOL     OW 3509   2.546   2.596   7.865  0.4643 -0.1473 -0.1735
  185SOL    HW1 3510   2.638   2.569   7.862  0.6344  0.4113 -0.0994
  185SOL    HW2 3511   2.519   2.582   7.955  1.1233  1.7396  0.3623
  186SOL     OW 3512   6.361   6.250   9.468  0.0654 -0.0657 -0.2303
  186SOL    HW1 3513   6.304   6.220   9.397 -0.9808  0.4724  0.3578
  186SOL    HW2 3514   6.432   6.295   9.425 -0.8683  0.7763 -0.9292
  187SOL     OW 3515   9.685  10.149   8.006  0.0678  0.0544 -0.0972
  187SOL    HW1 3516   9.748  10.132   8.076  0.5182 -0.5207 -0.6292
  187SOL    HW2 3517   9.722  10.224   7.958 -0.5876  0.8909  0.6750
  188SOL     OW 3518   6.953   7.996   2.700 -0.0474  0.8527 -0.1756
  188SOL    HW1 3519   7.033   8.049   2.701  0.9860 -0.6252 -0.7024
  188SOL    HW2 3520   6.897   8.039   2.635  1.6591  0.1401 -2.2537
  189SOL     OW 3521   7.971   5.998   5.815 -0.4210 -0.2497  0.1375
  189SOL    HW1 3522   8.023   5.990   5.735 -0.4246  1.8925 -0.1310
  189SOL    HW2 3523   7.880   6.001   5.784 -0.6340 -2.1833  0.4700
  190SOL     OW 3524   5.353   9.061   1.095  0.7464  0.0442 -0.1948
  190SOL    HW1 3525   5.402   9.013   1.028  1.7886  0.5007  0.2109
  190SOL    HW2 3526   5.337   9.147   1.057  0.5801  0.0176 -0.1865
  191SOL     OW 3527   6.572   5.257   5.149 -0.2451 -0.2781  0.1959
  191SOL    HW1 3528   6.597   5.164   5.143  2.0429  0.1909  1.4098
  191SOL    HW2 3529   6.638   5.303   5.097 -1.9853  0.6333 -1.3049
  192SOL     OW 3530  10.151   0.208   2.395 -0.6808 -0.1168 -0.2576
  192SOL    HW1 3531  10.189   0.238   2.313  0.4430 -0.5172  0.0985
  192SOL    HW2 3532  10.108   0.125   2.372 -1.1595  0.2298 -0.6205
  193SOL     OW 3533   7.342  10.603   6.117  0.0187 -0.0734 -0.2700
  193SOL    HW1 3534   7.284  10.629   6.046 -0.0458  0.1792 -0.1272
  193SOL    HW2 3535   7.384  10.523   6.086  0.3342  0.2828 -0.7858
  194SOL     OW 3536   0.614   2.412   9.075  0.7272  0.2422  0.4603
  194SOL    HW1 3537   0.682   2.447   9.132  1.3955 -2.6080  1.5984
  194SOL    HW2 3538   0.662   2.366   9.006  0.0059 -0.7961  0.6194
  195SOL     OW 3539   5.530   0.633   9.701 -0.0872  0.2044  0.0608
  195SOL    HW1 3540   5.610   0.604   9.746 -0.5872 -2.9963 -0.9336
  195SOL    HW2 3541   5.464   0.637   9.770  0.2272 -0.1032  0.3845
  196SOL     OW 3542   7.449   9.036   4.562 -0.5214 -0.1280 -0.0085
  196SOL    HW1 3543   7.543   9.023   4.573 -0.4341 -1.5188 -2.0191
  196SOL    HW2 3544   7.441   9.124   4.526  0.1722 -0.6452 -1.4814
  197SOL     OW 3545   3.003   4.019   5.622 -0.6189 -0.2235  0.1768
  197SOL    HW1 3546   3.037   4.071   5.549  1.5024  0.2940  1.4710
  197SOL    HW2 3547   2.938   4.075   5.664  0.7147  0.9208  0.7779
  198SOL     OW 3548   1.997   9.942  10.200 -0.1003  0.1890 -0.6063
  198SOL    HW1 3549   2.071   9.949  10.260  0.4509  1.8725 -1.4363
  198SOL    HW2 3550   1.920   9.957  10.256  0.1803 -0.9779  0.1447
  199SOL     OW 3551   8.688   4.172   2.769 -0.3363  0.3325 -0.4597
  199SOL    HW1 3552   8.696   4.104   2.836  1.3867  2.0666  1.2276
  199SOL    HW2 3553   8.768   4.164   2.717  0.9601  2.2928  1.0817
  200SOL     OW 3554   0.655   3.934   8.032 -0.1082 -0.1008 -0.6788
  200SOL    HW1 3555   0.627   3.932   7.940 -1.3703  2.2978 -0.4281
  200SOL    HW2 3556   0.597   3.872   8.076 -0.4088 -0.2502 -1.2706
  201SOL     OW 3557   2.374   8.376   9.469 -0.2218  0.0961  0.1670
  201SOL    HW1 3558   2.454   8.352   9.515  0.3428  2.7021  0.7100
  201SOL    HW2 3559   2.404   8.411   9.385 -1.0183 -1.4894 -0.8149
  202SOL     OW 3560   4.962  10.063   4.142  0.0348 -0.2551 -0.6106
  202SOL    HW1 3561   4.881  10.090   4.185  0.3139 -0.5715  0.1291
  202SOL    HW2 3562   5.016  10.027   4.212 -0.1550 -2.3644 -1.4728
  203SOL     OW 3563   5.658   5.170   6.008  0.3255 -0.3495 -0.1079
  203SOL    HW1 3564   5.658   5.078   5.981 -0.5072  0.1404 -1.9345
  203SOL    HW2 3565   5.677   5.168   6.102  0.6017 -2.3542 -0.1708
  204SOL     OW 3566   0.233   3.331   5.756  0.3920 -0.0059  0.1821
  204SOL    HW1 3567   0.292   3.406   5.747  0.2708  0.1077  0.3373
  204SOL    HW2 3568   0.282   3.257   5.718  0.4284  0.1926 -0.1649
  205SOL     OW 3569   5.397   7.569   0.257 -0.3148  0.3741  0.4305
  205SOL    HW1 3570   5.308   7.573   0.292 -0.3842  1.2019  0.1811
  205SOL    HW2 3571   5.413   7.475   0.244 -0.9355  0.1748  1.0081
  206SOL     OW 3572   8.407  10.411   1.825  0.0436  0.1005 -0.0662
  206SOL    HW1 3573   8.386  10.493   1.871  0.2993 -0.0488  0.3188
  206SOL    HW2 3574   8.445  10.440   1.742 -0.9835  0.3731 -0.4640
  207SOL     OW 3575   5.139   2.705   6.371 -0.0050 -0.5155 -0.5597
  207SOL    HW1 3576   5.188   2.626   6.394  0.0422  0.3593  2.9096
  207SOL    HW2 3577   5.154   2.716   6.277  2.5513 -2.8810 -0.5588
  208SOL     OW 3578   8.508   1.836   0.674 -0.2954  0.3612 -0.2264
  208SOL    HW1 3579   8.592   1.830   0.628  0.0285  1.1741  0.2409
  208SOL    HW2 3580   8.520   1.785   0.754 -1.0818 -1.6390 -1.3068
  209SOL     OW 3581   0.296   0.772   9.047  0.0125 -0.5383  0.1219
  209SOL    HW1 3582   0.325   0.681   9.059 -0.8403 -0.5827  2.3473
  209SOL    HW2 3583   0.209   0.765   9.008  0.1526 -0.6433 -0.1772
  210SOL     OW 3584   2.967   1.827   8.290  0.8677 -0.0933  0.0210
  210SOL    HW1 3585   2.982   1.882   8.366  0.2736 -0.7872  0.6524
  210SOL    HW2 3586   2.983   1.738   8.320 -1.3406 -0.5803 -0.0795
  211SOL     OW 3587   5.301   1.833   1.846  0.5280 -0.3967 -0.3334
  211SOL    HW1 3588   5.321   1.764   1.782 -0.7168 -0.4541 -0.6921
  211SOL    HW2 3589   5.350   1.909   1.814 -0.1950 -0.3786 -1.4846
  212SOL     OW 3590   5.658   6.064   7.182  0.2287 -0.3293  0.6834
  212SOL    HW1 3591   5.703   5.981   7.165  0.4955 -0.6744  2.8100
  212SOL    HW2 3592   5.723   6.117   7.228 -0.1518  0.8481 -0.0888
  213SOL     OW 3593   9.917   0.695   8.191 -0.0095 -0.3817  0.3357
  213SOL    HW1 3594   9.934   0.701   8.097 -2.3958 -0.7795 -0.1960
  213SOL    HW2 3595  10.000   0.720   8.232  1.0167  0.0856 -1.8547
  214SOL     OW 3596   3.996   6.711   6.113  0.8615 -0.2226 -0.1367
  214SOL    HW1 3597   3.969   6.634   6.063  1.3856 -0.0047 -0.7675
  214SOL    HW2 3598   4.089   6.722   6.093  0.6000  1.0751 -0.7371
  215SOL     OW 3599   6.289   0.622   0.615  0.2617  0.4496  0.3538
  215SOL    HW1 3600   6.264   0.606   0.525 -0.7327  2.6184  0.1764
  215SOL    HW2 3601   6.382   0.598   0.619 -0.0166 -0.9519 -0.8544
  216SOL     OW 3602   3.725  10.038   5.659  0.0053 -0.2035  0.2165
  216SOL    HW1 3603   3.751   9.946   5.656  0.5903 -0.0652  0.7870
  216SOL    HW2 3604   3.656  10.041   5.726 -1.9455 -0.6630 -1.6742
  217SOL     OW 3605   2.711   1.557   8.960 -0.0706 -1.0487  0.1713
  217SOL    HW1 3606   2.710   1.623   9.029 -0.3678  1.1008 -1.7704
  217SOL    HW2 3607   2.798   1.565   8.920 -0.9263 -0.1173 -1.5905
  218SOL     OW 3608   0.885   0.821   8.277 -0.1691  0.4622 -0.0476
  218SOL    HW1 3609   0.871   0.914   8.260 -1.0346  0.4518  0.4939
  218SOL    HW2 3610   0.955   0.795   8.218 -0.4551  1.2826 -0.7601
  219SOL     OW 3611   8.717   6.409   0.545  0.5317 -0.2946 -0.3285
  219SOL    HW1 3612   8.767   6.456   0.478  0.3103  0.8779  0.2994
  219SOL    HW2 3613   8.625   6.421   0.519  0.5059 -1.4646 -0.8469
  220SOL     OW 3614   0.514   6.885  10.011  0.1478 -0.0818 -0.4272
  220SOL    HW1 3615   0.601   6.857   9.983 -0.7007 -1.3615 -2.0018
  220SOL    HW2 3616   0.467   6.803  10.028 -0.6270  0.5986  0.8391
  221SOL     OW 3617   9.680   3.901   1.463  0.1599 -0.7973  0.0407
  221SOL    HW1 3618   9.676   3.995   1.445 -0.5588 -0.8919 -0.3416
  221SOL    HW2 3619   9.757   3.871   1.414 -0.1729 -0.5710 -0.6345
  222SOL     OW 3620  10.649   0.846  10.632 -0.7312 -0.4169 -0.0617
  222SOL    HW1 3621  10.613   0.758  10.634 -0.3546 -0.5627  0.5154
  222SOL    HW2 3622  10.581   0.901  10.671  0.6747 -1.0895  3.7635
  223SOL     OW 3623   6.815   6.394   4.076  0.5468 -0.1800  0.2048
  223SOL    HW1 3624   6.762   6.333   4.128 -0.2612  0.1578 -0.2085
  223SOL    HW2 3625   6.846   6.343   4.002  0.5693 -0.3008  0.2969
  224SOL     OW 3626   2.195   2.408   8.546 -0.5176 -0.4480 -0.1610
  224SOL    HW1 3627   2.206   2.401   8.451 -1.6733  0.8517 -0.4263
  224SOL    HW2 3628   2.116   2.356   8.564 -0.7405 -0.0717 -0.0362
  225SOL     OW 3629   7.510   3.518   9.348 -0.2159 -0.3487 -0.1063
  225SOL    HW1 3630   7.449   3.456   9.308 -2.2386  0.7493  1.1016
  225SOL    HW2 3631   7.496   3.600   9.300  1.2592 -0.3797 -0.6300
  226SOL     OW 3632   2.564   0.680   9.384  0.0891  0.0520  0.1413
  226SOL    HW1 3633   2.499   0.750   9.396 -0.9531 -0.8218 -0.2322
  226SOL    HW2 3634   2.647   0.726   9.372 -0.3092  1.1811  1.4753
  227SOL     OW 3635   9.105   8.889   7.777  0.1379  0.0650  0.2432
  227SOL    HW1 3636   9.090   8.933   7.693 -0.0809  0.4249  0.4670
  227SOL    HW2 3637   9.199   8.897   7.792 -0.1387  2.0482  1.1388
  228SOL     OW 3638   2.593   4.957   8.757 -0.0698  0.4220  0.7574
  228SOL    HW1 3639   2.593   5.050   8.735  1.5230  0.7405  1.8995
  228SOL    HW2 3640   2.527   4.948   8.826 -1.2841  0.4090 -0.3886
  229SOL     OW 3641   7.230   3.258   4.202 -0.0674  0.0007 -0.0458
  229SOL    HW1 3642   7.320   3.249   4.231 -0.1577  0.1903  0.2983
  229SOL    HW2 3643   7.225   3.344   4.161  0.1383 -0.3966 -0.9218
  230SOL     OW 3644   6.527   7.572   2.141  0.5054 -0.0819  0.4787
  230SOL    HW1 3645   6.451   7.515   2.135 -0.3002  0.8697  1.1334
  230SOL    HW2 3646   6.602   7.513   2.153 -0.3885 -0.9672  1.9772
  231SOL     OW 3647   1.344   3.646   3.606 -0.1015 -0.2436  0.3431
  231SOL    HW1 3648   1.279   3.578   3.623 -0.9607  0.6661  0.7765
  231SOL    HW2 3649   1.322   3.678   3.518 -1.3256  1.2086  1.1400
  232SOL     OW 3650   8.742   0.525   0.279  0.2163  0.0777  0.4801
  232SOL    HW1 3651   8.746   0.577   0.199  1.0699  1.5622  1.4351
  232SOL    HW2 3652   8.818   0.467   0.274 -0.6857 -1.0732 -0.5445
  233SOL     OW 3653   5.470   2.926   2.780 -0.4262  0.0633 -0.5808
  233SOL    HW1 3654   5.404   2.941   2.712 -1.9256 -0.2303  0.7414
  233SOL    HW2 3655   5.519   3.008   2.784  0.5516 -0.3474 -2.8552
  234SOL     OW 3656   4.442   9.871   2.519  0.0286 -0.5029 -0.1274
  234SOL    HW1 3657   4.535   9.865   2.539 -0.2915 -1.4133  1.2687
  234SOL    HW2 3658   4.433   9.829   2.433  0.8021 -1.1772  0.1061
  235SOL     OW 3659   9.860   5.312   0.024 -0.2947  0.5498  0.4364
  235SOL    HW1 3660   9.906   5.275  -0.051  0.0900  1.8090  0.0283
  235SOL    HW2 3661   9.850   5.238   0.084 -0.1147 -0.3522 -0.6031
  236SOL     OW 3662  10.222   3.934   5.708  0.1414 -0.4480 -0.0759
  236SOL    HW1 3663  10.265   3.982   5.779  1.4830  1.4801 -2.0566
  236SOL    HW2 3664  10.130   3.959   5.714  0.5099  0.9233  0.0745
  237SOL     OW 3665   3.857   8.615   9.844  0.6514  0.5539  0.1489
  237SOL    HW1 3666   3.930   8.629   9.784  0.5557 -1.6942 -0.5865
  237SOL    HW2 3667   3.806   8.697   9.839  1.0921  0.7511 -2.2136
  238SOL     OW 3668   0.888   1.573   6.928  0.6379  0.3674  0.1044
  238SOL    HW1 3669   0.918   1.648   6.877  1.2619  0.7803  1.0548
  238SOL    HW2 3670   0.961   1.552   6.986  0.0584 -0.2794  0.6185
  239SOL     OW 3671   6.712   4.892   1.264 -0.6630 -0.2692 -0.1738
  239SOL    HW1 3672   6.698   4.806   1.225  0.8889 -0.7777  0.2991
  239SOL    HW2 3673   6.659   4.890   1.344  0.8243 -1.5927  0.8643
  240SOL     OW 3674   4.471   0.198   8.280 -0.1854 -0.2290  0.2959
  240SOL    HW1 3675   4.500   0.173   8.367 -1.4301 -0.4234  0.6722
  240SOL    HW2 3676   4.551   0.194   8.226  0.5005 -0.5798  1.3051
  241SOL     OW 3677   4.922   7.840   9.394  0.4749  0.5473 -0.4486
  241SOL    HW1 3678   4.973   7.873   9.468 -0.4603 -1.2594  1.0673
  241SOL    HW2 3679   4.906   7.918   9.340  2.1369  1.7122  0.6316
  242SOL     OW 3680   4.237   5.384   0.278 -0.1292  0.2224  0.3633
  242SOL    HW1 3681   4.205   5.399   0.189 -1.8098 -1.3447  0.6358
  242SOL    HW2 3682   4.161   5.403   0.334  0.1695 -1.0664  1.2472
  243SOL     OW 3683   5.001   7.989   3.820 -0.5721  0.0071  0.0177
  243SOL    HW1 3684   5.059   7.975   3.746 -0.0371 -0.7794  0.5724
  243SOL    HW2 3685   4.968   8.078   3.808 -0.3963 -0.0638 -1.0841
  244SOL     OW 3686  10.305   6.630   8.660  0.1293  0.1920 -0.1595
  244SOL    HW1 3687  10.324   6.547   8.704  1.1517  0.7491  0.4824
  244SOL    HW2 3688  10.210   6.629   8.647 -0.5058  0.6540  3.4495
  245SOL     OW 3689  10.164   9.820   8.657 -0.2664 -0.7202  0.1048
  245SOL    HW1 3690  10.188   9.788   8.744  1.1779 -0.2234 -0.0864
  245SOL    HW2 3691  10.093   9.882   8.673 -0.2319 -0.8739  0.8869
  246SOL     OW 3692   9.719   6.436   7.270  0.2376  0.0545  0.1738
  246SOL    HW1 3693   9.740   6.344   7.283 -0.6392 -0.1610  0.1216
  246SOL    HW2 3694   9.750   6.456   7.182  1.3342  0.0888  0.5478
  247SOL     OW 3695   3.263   7.288   0.298 -0.4301 -0.2899  0.1421
  247SOL    HW1 3696   3.302   7.324   0.219 -2.2625 -0.6381 -0.9952
  247SOL    HW2 3697   3.337   7.261   0.352  0.8769  0.3713 -1.2438
  248SOL     OW 3698   0.837   2.124   2.182  0.1022 -0.0629  0.1700
  248SOL    HW1 3699   0.810   2.041   2.142 -0.0201 -0.8373  1.7681
  248SOL    HW2 3700   0.764   2.149   2.239  0.4660  0.7283  0.3079
  249SOL     OW 3701   0.108   9.486   6.190  0.1007  0.0711 -0.1299
  249SOL    HW1 3702   0.054   9.565   6.182 -0.6800 -0.4757 -0.3158
  249SOL    HW2 3703   0.183   9.514   6.244  0.3469  1.1919 -0.9995
  250SOL     OW 3704   8.441   3.975   0.271  0.6286 -0.3748 -0.0353
  250SOL    HW1 3705   8.529   3.996   0.302  1.2696 -4.5455  1.7003
  250SOL    HW2 3706   8.455   3.939   0.184  0.6074 -0.6957  0.0927
  251SOL     OW 3707   5.323   2.367   6.170  0.2431 -0.2524 -0.7310
  251SOL    HW1 3708   5.369   2.376   6.253  0.5528  0.0569 -0.9320
  251SOL    HW2 3709   5.266   2.291   6.182  0.5814 -0.4516 -0.3744
  252SOL     OW 3710   7.374  10.096   0.419  0.1513 -0.2590  0.1043
  252SOL    HW1 3711   7.404  10.064   0.504  0.1082 -1.7764 -0.4217
  252SOL    HW2 3712   7.288  10.055   0.407 -0.3304  0.8111 -0.2023
  253SOL     OW 3713   6.471  10.182   3.513 -0.1213  0.1614  0.0934
  253SOL    HW1 3714   6.408  10.226   3.455 -0.0661  1.5473  1.0442
  253SOL    HW2 3715   6.554  10.188   3.467 -0.5024 -0.9900 -0.8115
  254SOL     OW 3716   4.905   2.135   9.685 -0.1158  0.0261 -0.1226
  254SOL    HW1 3717   4.965   2.154   9.756 -0.3473  0.2231  0.0204
  254SOL    HW2 3718   4.905   2.040   9.678  1.3815  0.0703 -1.1295
  255SOL     OW 3719   7.774   4.103   8.234  0.2360 -0.6022  0.3392
  255SOL    HW1 3720   7.684   4.132   8.252  1.1731  0.9125  3.2152
  255SOL    HW2 3721   7.799   4.150   8.154 -1.0030  0.2165  0.4107
  256SOL     OW 3722   6.337   2.711   3.355  0.3848  0.1871  0.6022
  256SOL    HW1 3723   6.251   2.741   3.325  0.6943  0.1020 -0.3857
  256SOL    HW2 3724   6.393   2.789   3.347  0.2586  0.4506  1.9315
  257SOL     OW 3725  10.346   5.404   7.528 -0.0981 -0.9624 -0.0561
  257SOL    HW1 3726  10.350   5.309   7.543 -0.4999 -1.0194 -0.2926
  257SOL    HW2 3727  10.253   5.422   7.513  0.1795 -0.8384 -1.9643
  258SOL     OW 3728   0.161   2.367   9.970 -0.3666  0.5320  0.3165
  258SOL    HW1 3729   0.082   2.416   9.946 -0.3449 -0.3130 -1.6790
  258SOL    HW2 3730   0.128   2.284  10.005 -0.3655  1.2928  2.2818
  259SOL     OW 3731   4.444   8.813   2.685  0.3498  0.1973  0.3780
  259SOL    HW1 3732   4.464   8.830   2.777 -1.8778  1.4501  0.7025
  259SOL    HW2 3733   4.368   8.868   2.666 -0.7984 -1.8678 -1.5440
  260SOL     OW 3734   8.462   3.063  10.560  0.4017  0.2401  0.4631
  260SOL    HW1 3735   8.509   3.032  10.482 -2.0806 -2.3794 -0.1461
  260SOL    HW2 3736   8.375   3.085  10.528 -0.4084 -0.0558  2.3506
  261SOL     OW 3737   2.544   3.298   9.500  0.5222  0.4108  0.2909
  261SOL    HW1 3738   2.502   3.242   9.435  2.2698  0.9525 -1.4150
  261SOL    HW2 3739   2.520   3.260   9.584 -0.2682 -1.4700 -0.7205
  262SOL     OW 3740   4.515  10.010   3.773  0.8059 -0.1097  0.2715
  262SOL    HW1 3741   4.518  10.065   3.694 -0.5041  0.8241  0.8326
  262SOL    HW2 3742   4.441   9.951   3.759  2.0993 -1.6661 -0.2496
  263SOL     OW 3743   3.623   6.885   3.559 -0.1003 -0.7507  0.2453
  263SOL    HW1 3744   3.582   6.896   3.645  0.9287 -0.4112  0.7025
  263SOL    HW2 3745   3.598   6.964   3.510  0.4821 -0.2806  0.7124
  264SOL     OW 3746   8.012   1.738   3.337  0.0824  0.0502  0.2387
  264SOL    HW1 3747   7.951   1.761   3.267 -0.2124 -1.5592 -0.0656
  264SOL    HW2 3748   8.090   1.706   3.292 -0.3313 -1.5628  0.5958
  265SOL     OW 3749   4.902   1.871   9.796 -0.6248 -0.4412  0.5170
  265SOL    HW1 3750   4.966   1.853   9.728 -1.5493 -0.1636 -0.4454
  265SOL    HW2 3751   4.879   1.785   9.831 -0.5922 -0.6367  0.0673
  266SOL     OW 3752   5.420   0.097   6.624  0.3003 -0.0287  0.1084
  266SOL    HW1 3753   5.508   0.063   6.606  0.6357  0.6086  0.5308
  266SOL    HW2 3754   5.425   0.190   6.604 -0.8720 -0.3555 -1.9374
  267SOL     OW 3755   9.921   3.406   9.702  0.1835  0.2153  0.0250
  267SOL    HW1 3756   9.926   3.451   9.787  2.4656  0.2672 -0.0856
  267SOL    HW2 3757   9.927   3.313   9.724 -1.5923  0.0561  0.0317
  268SOL     OW 3758   5.593   3.971   3.828 -0.2043  0.1222  0.4380
  268SOL    HW1 3759   5.622   3.918   3.902 -0.9379 -0.2783  0.4458
  268SOL    HW2 3760   5.675   4.002   3.787  0.2411 -1.0252  0.4272
  269SOL     OW 3761   1.864   4.419   0.482  0.5132  0.7230 -0.8781
  269SOL    HW1 3762   1.956   4.411   0.455  0.1991  1.2134 -2.1509
  269SOL    HW2 3763   1.814   4.402   0.403 -0.6341 -2.3794  0.3384
  270SOL     OW 3764   6.452   5.521   6.419 -0.0820 -0.3410  0.3752
  270SOL    HW1 3765   6.389   5.518   6.491 -0.7404  0.0055 -0.1759
  270SOL    HW2 3766   6.528   5.474   6.452 -0.6744 -0.8787  1.0123
  271SOL     OW 3767   9.038  10.375   9.036  0.1356 -0.2370 -0.4227
  271SOL    HW1 3768   9.045  10.470   9.022  0.0426 -0.0575  0.6602
  271SOL    HW2 3769   9.099  10.337   8.972  1.3866  0.6422  0.2044
  272SOL     OW 3770   4.076   7.108   5.702 -0.2763 -0.3411  0.0886
  272SOL    HW1 3771   4.131   7.052   5.756 -0.0515  1.4353  1.8027
  272SOL    HW2 3772   4.078   7.193   5.745 -3.2806  0.1597 -0.5173
  273SOL     OW 3773   4.911   7.240   0.645  0.1933  0.5713 -0.5631
  273SOL    HW1 3774   5.005   7.229   0.629  0.0196  0.8240 -1.8404
  273SOL    HW2 3775   4.906   7.282   0.731  1.3038  1.9181 -1.1295
  274SOL     OW 3776   2.568   4.953   4.089  0.3529  0.1597 -0.2006
  274SOL    HW1 3777   2.478   4.920   4.088  0.1348  0.7586 -1.7441
  274SOL    HW2 3778   2.610   4.904   4.160 -0.7927 -1.1809 -0.4119
  275SOL     OW 3779   2.563   9.857   7.378 -0.0310 -0.3056  0.2684
  275SOL    HW1 3780   2.525   9.844   7.291  1.9084 -0.6268 -0.5750
  275SOL    HW2 3781   2.489   9.882   7.433 -1.3200 -0.1973 -1.4464
  276SOL     OW 3782   2.798   5.835   0.697 -0.0008  0.4158  0.2780
  276SOL    HW1 3783   2.815   5.895   0.624 -1.3571  1.4449  0.7532
  276SOL    HW2 3784   2.884   5.815   0.733  0.5212  1.9591 -0.0230
  277SOL     OW 3785  10.661   4.301   0.637 -0.0239 -0.1259  0.0304
  277SOL    HW1 3786  10.656   4.313   0.542  2.0036  0.8431 -0.0129
  277SOL    HW2 3787  10.673   4.390   0.672  1.9757 -0.6766  0.9190
  278SOL     OW 3788   4.172  10.124   0.298 -0.1392  0.1809  0.3823
  278SOL    HW1 3789   4.189  10.143   0.390  0.1432 -0.1902  0.4115
  278SOL    HW2 3790   4.246  10.070   0.271  0.6108  1.6075 -0.5106
  279SOL     OW 3791   3.673   9.314   5.670 -0.1510  0.9242  0.5788
  279SOL    HW1 3792   3.650   9.297   5.761  1.5331 -3.5327  0.3961
  279SOL    HW2 3793   3.611   9.263   5.619 -1.4840  3.8446 -0.9974
  280SOL     OW 3794  10.111   7.395   1.060  0.2320  0.1084  0.2583
  280SOL    HW1 3795  10.167   7.348   1.122 -1.1532 -1.3536  0.4584
  280SOL    HW2 3796  10.171   7.453   1.013  2.2227 -2.4845 -0.6393
  281SOL     OW 3797   6.896   4.779   3.935 -0.7474 -0.0812  0.0890
  281SOL    HW1 3798   6.976   4.765   3.985 -0.5372  1.3357  0.1971
  281SOL    HW2 3799   6.925   4.782   3.843 -0.9544 -1.3913 -0.0402
  282SOL     OW 3800   7.413   4.055   1.685 -0.0510  0.3176 -0.1003
  282SOL    HW1 3801   7.474   4.096   1.747 -0.1422 -0.0969  0.2632
  282SOL    HW2 3802   7.406   3.964   1.714  0.0879  0.0577 -0.8557
  283SOL     OW 3803   3.566  10.301   4.822  0.0943  0.9137 -0.1097
  283SOL    HW1 3804   3.646  10.341   4.789  0.3062  1.2948  0.8352
  283SOL    HW2 3805   3.590  10.265   4.907 -0.5309  0.2784 -0.1888
  284SOL     OW 3806  10.629   7.245   2.140  0.3011 -0.2083 -0.0366
  284SOL    HW1 3807  10.723   7.263   2.138 -0.2574  3.2338 -0.1765
  284SOL    HW2 3808  10.596   7.295   2.215 -1.5515 -0.6828 -0.4843
  285SOL     OW 3809   8.585   7.571  10.065  0.2314  0.3518  0.8664
  285SOL    HW1 3810   8.654   7.568  10.131  0.1353 -0.0236  0.9546
  285SOL    HW2 3811   8.508   7.603  10.113  0.2393  0.3682  0.8685
  286SOL     OW 3812   9.466   9.025   1.131 -0.6881  1.0126 -0.0468
  286SOL    HW1 3813   9.422   9.110   1.130  0.1357  1.4554  0.5392
  286SOL    HW2 3814   9.509   9.019   1.046 -1.1737  0.9544 -0.2887
  287SOL     OW 3815   8.550   5.764   3.215  0.6214  0.6950  0.3321
  287SOL    HW1 3816   8.488   5.791   3.148 -1.4340  3.3935  2.9986
  287SOL    HW2 3817   8.636   5.780   3.177 -0.4602  3.7572 -1.1802
  288SOL     OW 3818   2.089   9.127   0.672  0.1482  0.0478 -0.3812
  288SOL    HW1 3819   2.072   9.221   0.670 -1.4310 -0.2303 -1.5955
  288SOL    HW2 3820   2.015   9.090   0.719  0.7434 -0.6157  0.0527
  289SOL     OW 3821   0.868   0.141   4.962  0.0964  0.2023 -0.1754
  289SOL    HW1 3822   0.905   0.054   4.946  0.5404  0.4038 -0.2547
  289SOL    HW2 3823   0.904   0.167   5.047  0.9256  0.8057 -0.6944
  290SOL     OW 3824   9.600   5.696   6.041 -0.2751 -0.0856 -0.4340
  290SOL    HW1 3825   9.595   5.643   6.121 -0.2682 -0.4166 -0.6519
  290SOL    HW2 3826   9.680   5.666   5.998 -0.3772 -0.0362 -0.6583
  291SOL     OW 3827   9.327   0.330   1.034 -0.1232  0.0382  0.3947
  291SOL    HW1 3828   9.287   0.394   0.975 -0.0451  1.7690  2.1041
  291SOL    HW2 3829   9.421   0.340   1.019 -0.1302  0.0219  0.3430
  292SOL     OW 3830   2.557   1.428   7.999  0.1746 -0.0574  0.1717
  292SOL    HW1 3831   2.520   1.389   8.078 -0.8380  1.2039  0.3483
  292SOL    HW2 3832   2.642   1.463   8.027 -0.5150  1.0717  0.9195
  293SOL     OW 3833   4.877   5.697   7.531  0.2208 -0.1191  0.7490
  293SOL    HW1 3834   4.842   5.624   7.481 -0.7868  0.8424 -0.0024
  293SOL    HW2 3835   4.956   5.723   7.483  0.4612 -0.5639  0.8978
  294SOL     OW 3836   0.972   8.798   2.364  0.0338 -0.3125 -0.1472
  294SOL    HW1 3837   0.900   8.860   2.361  0.0893 -0.0671  1.8919
  294SOL    HW2 3838   1.036   8.833   2.302 -0.1784  1.3866  0.5269
  295SOL     OW 3839   9.901  10.186  10.337 -0.6940 -0.4355 -0.3869
  295SOL    HW1 3840   9.957  10.127  10.389 -0.3239  0.0314 -0.2469
  295SOL    HW2 3841   9.819  10.139  10.328 -0.7120 -0.5968  0.4948
  296SOL     OW 3842   8.216   0.783   4.332 -0.1576  0.0735 -0.1637
  296SOL    HW1 3843   8.162   0.862   4.337 -1.1249 -0.6356  1.5339
  296SOL    HW2 3844   8.260   0.790   4.248 -0.7368  2.0813 -0.3644
  297SOL     OW 3845   0.797   8.749   0.503 -0.0519  0.2914  0.1241
  297SOL    HW1 3846   0.795   8.691   0.579 -1.0623 -0.4517 -0.4485
  297SOL    HW2 3847   0.726   8.718   0.447 -0.9353  2.3628 -0.0148
  298SOL     OW 3848  10.260   7.155   2.793  0.4147  0.7192 -0.1629
  298SOL    HW1 3849  10.208   7.204   2.856  0.8252  1.9133 -0.7160
  298SOL    HW2 3850  10.234   7.190   2.707 -0.7667 -1.4579 -0.7919
  299SOL     OW 3851   0.179   0.639   8.566 -0.2573  0.0065 -0.5624
  299SOL    HW1 3852   0.088   0.626   8.541 -0.2114  0.9310 -1.2529
  299SOL    HW2 3853   0.220   0.677   8.488  0.0427  2.4006  0.6707
  300SOL     OW 3854   5.577   3.959   5.635 -0.4003 -0.3557  0.0476
  300SOL    HW1 3855   5.485   3.937   5.625 -0.3660 -0.5905  0.2311
  300SOL    HW2 3856   5.622   3.874   5.638 -0.1203 -0.2383 -0.5524
  301SOL     OW 3857   1.191   7.209   2.748 -0.0872  0.2952  0.1116
  301SOL    HW1 3858   1.240   7.127   2.750 -0.6741 -0.0867 -0.4201
  301SOL    HW2 3859   1.102   7.182   2.726 -0.4583  1.0072  0.7116
  302SOL     OW 3860   1.672  10.166   8.435 -0.4983 -0.0203  0.0283
  302SOL    HW1 3861   1.691  10.083   8.392  1.8075  1.5817 -2.3275
  302SOL    HW2 3862   1.606  10.208   8.379 -0.8950  0.2004  0.6384
  303SOL     OW 3863   0.233   4.531   7.782 -0.0338  0.1119 -0.5450
  303SOL    HW1 3864   0.153   4.580   7.761  1.0857  2.0548 -0.4515
  303SOL    HW2 3865   0.242   4.540   7.877 -0.0880 -0.7462 -0.4534
  304SOL     OW 3866  10.574   4.536   6.597 -0.2043 -0.3513  0.2036
  304SOL    HW1 3867  10.613   4.484   6.667  0.2905  0.0528  0.2391
  304SOL    HW2 3868  10.578   4.626   6.629  1.6053  0.0501 -1.0205
  305SOL     OW 3869  10.438   1.426   1.541  0.3779 -0.4647 -0.0696
  305SOL    HW1 3870  10.487   1.484   1.484  0.3720 -0.5744 -0.1867
  305SOL    HW2 3871  10.481   1.341   1.531  0.2761 -0.5206 -0.0349
  306SOL     OW 3872   5.277   7.422   4.375  0.2555  0.0803 -0.3946
  306SOL    HW1 3873   5.363   7.458   4.399  0.1334  0.4419 -0.5118
  306SOL    HW2 3874   5.214   7.490   4.399  0.0708  0.1662 -1.1028
  307SOL     OW 3875   2.849   6.206   0.114 -0.4301 -0.4976 -0.2446
  307SOL    HW1 3876   2.848   6.111   0.109  0.3583 -0.5015 -0.5070
  307SOL    HW2 3877   2.770   6.229   0.164 -0.3435 -1.3118  0.2793
  308SOL     OW 3878   9.269   3.232   8.386 -0.8593  0.1183  0.1615
  308SOL    HW1 3879   9.343   3.194   8.339 -0.4461 -0.0127  0.8948
  308SOL    HW2 3880   9.302   3.315   8.419  0.5973 -1.8405  4.3979
  309SOL     OW 3881  10.077   7.139   5.011  0.1949  0.3944  0.6758
  309SOL    HW1 3882  10.132   7.123   4.934  2.5729 -0.1486  2.3836
  309SOL    HW2 3883  10.057   7.233   5.008  1.0814  0.5668 -0.0935
  310SOL     OW 3884   5.119   8.677   2.117 -0.6967  0.9988 -0.0803
  310SOL    HW1 3885   5.042   8.634   2.080 -1.7280  1.8423  1.0109
  310SOL    HW2 3886   5.132   8.755   2.063  0.3514  0.0639 -1.2181
  311SOL     OW 3887   5.820   8.588   0.455  0.1679 -0.4341 -0.0943
  311SOL    HW1 3888   5.852   8.547   0.375 -0.8021 -0.9751 -0.2171
  311SOL    HW2 3889   5.725   8.584   0.448  0.0576  0.5881  0.5404
  312SOL     OW 3890   3.852   4.245   8.440  0.2199  0.0878  0.3734
  312SOL    HW1 3891   3.761   4.261   8.463  0.2096  0.1311  0.2998
  312SOL    HW2 3892   3.849   4.171   8.379  0.2566 -0.1026  0.5983
  313SOL     OW 3893   2.272   8.978   4.849  0.2548  0.7937 -0.0261
  313SOL    HW1 3894   2.349   8.929   4.881 -0.6026 -0.9271 -0.4601
  313SOL    HW2 3895   2.201   8.951   4.908 -1.0088 -1.2230 -2.3214
  314SOL     OW 3896   5.224   5.252   4.071 -0.5207 -0.0237  0.1176
  314SOL    HW1 3897   5.281   5.323   4.044  0.0488  0.0352  1.4024
  314SOL    HW2 3898   5.284   5.181   4.094 -0.9720 -0.0587  1.2117
  315SOL     OW 3899   0.053   9.937   0.634 -0.5526  0.0189 -0.2612
  315SOL    HW1 3900  -0.018   9.990   0.670 -1.4744  1.0243 -3.3198
  315SOL    HW2 3901   0.123  10.000   0.617 -0.3334 -0.3424 -0.7081
  316SOL     OW 3902   7.201   2.369   2.639  0.3704 -0.5184  0.3646
  316SOL    HW1 3903   7.117   2.351   2.598  0.6723 -2.1773  0.3733
  316SOL    HW2 3904   7.181   2.379   2.732  0.1763 -0.9995  0.3801
  317SOL     OW 3905   1.548   6.915   3.755 -0.7928  0.1060 -0.2249
  317SOL    HW1 3906   1.508   6.869   3.829 -1.9371  1.0275 -0.2429
  317SOL    HW2 3907   1.642   6.907   3.770 -0.9821 -1.3230  0.3176
  318SOL     OW 3908   9.695   3.824   4.267  0.6583  0.1196 -0.4724
  318SOL    HW1 3909   9.694   3.775   4.349  0.8329  0.9572  0.0403
  318SOL    HW2 3910   9.604   3.822   4.236  0.9656 -2.0931 -1.4344
  319SOL     OW 3911   5.067   0.803   9.295  0.2310  0.6936 -0.2307
  319SOL    HW1 3912   5.052   0.717   9.256 -1.2946  1.9234 -2.5954
  319SOL    HW2 3913   4.983   0.848   9.288  1.0212  2.4383  0.7801
  320SOL     OW 3914   1.920   5.516   9.445 -0.0039 -0.1098  0.3834
  320SOL    HW1 3915   1.832   5.497   9.477  0.6777  1.6922  3.6760
  320SOL    HW2 3916   1.915   5.605   9.412  0.4552 -0.2682 -0.1374
  321SOL     OW 3917   8.728   2.039   9.148  0.4093  0.3479 -0.1846
  321SOL    HW1 3918   8.652   1.988   9.175  0.9395 -0.3813 -0.0357
  321SOL    HW2 3919   8.692   2.122   9.117 -0.3675  0.5179  1.0741
  322SOL     OW 3920   0.619   1.278   1.731  0.1815 -0.4529  0.2703
  322SOL    HW1 3921   0.598   1.185   1.737 -1.4641 -0.0720  0.8863
  322SOL    HW2 3922   0.566   1.310   1.658 -0.9459  0.4113  1.4360
  323SOL     OW 3923   6.196   8.605  10.132 -0.6206  0.2677 -0.0041
  323SOL    HW1 3924   6.135   8.679  10.125 -0.7111  0.4561  2.1095
  323SOL    HW2 3925   6.275   8.634  10.085 -2.2562 -0.2317 -3.3511
  324SOL     OW 3926   7.998   8.963   5.969 -0.5365 -0.7998 -0.0570
  324SOL    HW1 3927   7.924   9.021   5.988 -1.1119 -1.4361 -0.3238
  324SOL    HW2 3928   8.058   8.975   6.043 -0.2140  0.8113 -0.5557
  325SOL     OW 3929   7.640   9.052   2.774 -0.3327  0.4711  0.4325
  325SOL    HW1 3930   7.729   9.082   2.754 -0.0217 -0.2133  0.7458
  325SOL    HW2 3931   7.585   9.093   2.707  0.4745 -0.6203 -0.9478
  326SOL     OW 3932   1.379   8.169   6.320  0.4906  0.2895  0.0034
  326SOL    HW1 3933   1.445   8.234   6.344 -1.7906  2.8236 -0.1312
  326SOL    HW2 3934   1.426   8.085   6.323  3.2507  1.7425  1.5276
  327SOL     OW 3935   7.887   0.993   2.991  0.0628  0.0345 -0.1504
  327SOL    HW1 3936   7.979   0.970   2.976 -0.0668 -1.7145  1.3827
  327SOL    HW2 3937   7.887   1.036   3.076 -0.5914 -0.4345  0.0927
  328SOL     OW 3938   1.844   0.757   5.662  0.5897 -0.1598  0.2232
  328SOL    HW1 3939   1.886   0.745   5.577 -1.2294 -0.5968 -0.6544
  328SOL    HW2 3940   1.800   0.842   5.655  0.2529 -0.2955  0.6502
  329SOL     OW 3941   8.049   8.022   4.605 -0.1884  0.3350 -0.1779
  329SOL    HW1 3942   8.033   8.115   4.594 -0.8492  0.1945 -0.4044
  329SOL    HW2 3943   8.033   8.006   4.698  1.7841  0.7975  0.2985
  330SOL     OW 3944   6.584   9.228   3.715  0.6644  0.2661 -0.2998
  330SOL    HW1 3945   6.491   9.218   3.692  0.8007 -2.1463 -0.1263
  330SOL    HW2 3946   6.584   9.287   3.791 -0.5642  1.4744 -1.1988
  331SOL     OW 3947   4.277   6.173   5.482 -0.1421 -0.1860 -0.7487
  331SOL    HW1 3948   4.347   6.202   5.540 -1.9867  0.1823  1.4461
  331SOL    HW2 3949   4.321   6.153   5.399  2.1588  2.4188 -0.2921
  332SOL     OW 3950   8.387   9.987   2.563  0.0399  0.3351 -0.0544
  332SOL    HW1 3951   8.339   9.928   2.506 -2.5705  3.0406 -0.9401
  332SOL    HW2 3952   8.414   9.933   2.637  1.0465 -2.6700 -2.4198
  333SOL     OW 3953   3.071   9.679   6.459  0.5922  0.3266 -0.1222
  333SOL    HW1 3954   3.086   9.668   6.365 -0.5177 -0.9775 -0.1790
  333SOL    HW2 3955   3.158   9.681   6.498  1.0415 -0.5695 -1.0439
  334SOL     OW 3956   8.730   5.213   9.496 -0.7564 -0.0418  0.4489
  334SOL    HW1 3957   8.671   5.268   9.547  0.4660  0.3833  1.4588
  334SOL    HW2 3958   8.805   5.269   9.477 -1.2937 -0.0755 -2.1574
  335SOL     OW 3959   4.231   4.135  10.142  0.1416 -0.1489 -0.3024
  335SOL    HW1 3960   4.304   4.180  10.185 -0.3780 -0.0383  0.4688
  335SOL    HW2 3961   4.250   4.143  10.048  1.9748 -1.5124 -0.1040
  336SOL     OW 3962   4.243   5.875   1.397  0.2038 -0.5954 -0.3072
  336SOL    HW1 3963   4.240   5.861   1.303 -1.6283  1.1251 -0.5659
  336SOL    HW2 3964   4.166   5.828   1.431  0.8911 -1.2725  0.3536
  337SOL     OW 3965   5.155   9.408  10.289  0.2705  0.9551  0.0724
  337SOL    HW1 3966   5.241   9.373  10.265 -0.2391 -0.4289  0.1601
  337SOL    HW2 3967   5.148   9.490  10.241  1.3814  0.7616 -0.4445
  338SOL     OW 3968   7.584   2.980   8.043 -0.2659 -0.5909  0.6515
  338SOL    HW1 3969   7.574   2.908   8.106  2.5444  0.8878  3.0479
  338SOL    HW2 3970   7.663   2.959   7.994 -0.4959 -0.0279  0.0260
  339SOL     OW 3971  10.314   1.675   5.284 -0.8851 -0.1195  0.3636
  339SOL    HW1 3972  10.305   1.666   5.190  0.5586 -0.5728  0.2459
  339SOL    HW2 3973  10.244   1.621   5.321 -2.0413  0.7889 -0.4282
  340SOL     OW 3974   4.558   7.987   1.396 -0.3657 -0.5519  0.1329
  340SOL    HW1 3975   4.634   7.950   1.351 -0.7940 -1.4283  0.1087
  340SOL    HW2 3976   4.575   7.973   1.489 -0.2208 -0.1852  0.1656
  341SOL     OW 3977   0.259   1.294   9.491 -0.1547 -0.0603  0.1562
  341SOL    HW1 3978   0.237   1.371   9.439 -1.3328 -0.4039  0.1153
  341SOL    HW2 3979   0.256   1.221   9.429  0.2875 -0.2372  0.3324
  342SOL     OW 3980   7.906   3.105   5.197  0.0295 -0.1431  0.2479
  342SOL    HW1 3981   7.872   3.074   5.113 -0.9885  0.0758  0.5626
  342SOL    HW2 3982   7.873   3.041   5.261  1.4299 -0.7390  0.4092
  343SOL     OW 3983   1.184   2.501   0.297 -0.3699  0.0409 -0.0081
  343SOL    HW1 3984   1.127   2.578   0.307  0.6437  0.8654 -0.3564
  343SOL    HW2 3985   1.179   2.479   0.205  0.2257  0.4162 -0.1380
  344SOL     OW 3986   9.989   4.500   5.128  0.1970 -0.6195  0.0192
  344SOL    HW1 3987   9.974   4.451   5.209  0.3190  1.4504  1.3752
  344SOL    HW2 3988  10.047   4.572   5.154 -0.9925  1.0011 -1.5709
  345SOL     OW 3989   9.409   8.620   2.739 -0.1026 -0.2841  0.8558
  345SOL    HW1 3990   9.432   8.698   2.789 -0.2876 -0.7845  1.7439
  345SOL    HW2 3991   9.461   8.626   2.659 -0.1750  0.7801  0.8798
  346SOL     OW 3992   9.807   7.201  10.167  0.1101 -0.1217 -0.5334
  346SOL    HW1 3993   9.779   7.281  10.209 -0.8282 -0.7780  0.1259
  346SOL    HW2 3994   9.768   7.205  10.080  0.1472  0.1784 -0.5379
  347SOL     OW 3995   5.143   2.324   5.486  0.2020  0.0715  0.6437
  347SOL    HW1 3996   5.200   2.392   5.451 -1.6153  1.0312 -0.6207
  347SOL    HW2 3997   5.173   2.244   5.444  0.2544  0.6628 -0.4918
  348SOL     OW 3998   2.980   8.298   0.015  0.5588  0.3524 -0.5515
  348SOL    HW1 3999   2.909   8.301  -0.049  1.6723 -0.0978 -1.8504
  348SOL    HW2 4000   2.988   8.388   0.047 -0.4021  0.4593 -0.5828
  349SOL     OW 4001   4.459   9.645   0.668 -0.0412  0.1931 -0.1477
  349SOL    HW1 4002   4.491   9.685   0.749 -0.3146  0.7416 -0.3028
  349SOL    HW2 4003   4.472   9.713   0.602  0.0278 -0.1924 -0.5356
  350SOL     OW 4004   3.068   1.168   5.518  0.2601  0.4679 -0.3470
  350SOL    HW1 4005   3.110   1.229   5.458  0.3107  1.5215  0.7205
  350SOL    HW2 4006   3.118   1.177   5.599 -1.1016  0.6560  0.4974
  351SOL     OW 4007   3.031   5.868   8.186 -0.2731 -0.1444  0.2264
  351SOL    HW1 4008   3.011   5.882   8.093  0.4942 -0.4086  0.0127
  351SOL    HW2 4009   3.015   5.953   8.227 -0.3575  0.0457 -0.1937
  352SOL     OW 4010   2.415   6.812   9.344  0.8910  0.3347 -0.5250
  352SOL    HW1 4011   2.412   6.760   9.424  3.6542  0.6770 -0.0900
  352SOL    HW2 4012   2.414   6.747   9.273 -0.6361 -0.0160 -0.2028
  353SOL     OW 4013   9.140   9.990  10.350 -0.1909  0.4480 -0.2816
  353SOL    HW1 4014   9.121  10.064  10.293 -0.5051  1.3418  0.9442
  353SOL    HW2 4015   9.217  10.017  10.399  1.4268 -1.1867 -1.7529
  354SOL     OW 4016   9.106   5.181   4.631  0.0118  0.1613  0.7819
  354SOL    HW1 4017   9.183   5.210   4.582 -0.0095 -1.2272 -0.1483
  354SOL    HW2 4018   9.059   5.261   4.653  1.2345  0.9697  0.5371
  355SOL     OW 4019   4.269   6.427   2.782  0.6212 -0.3443 -0.1699
  355SOL    HW1 4020   4.220   6.469   2.853  1.7748  1.3795 -0.3520
  355SOL    HW2 4021   4.205   6.415   2.713  0.3535  1.6877 -0.3286
  356SOL     OW 4022   0.389   4.197   5.159 -0.1103  1.0723 -0.2186
  356SOL    HW1 4023   0.314   4.140   5.174  0.4107 -0.0539 -1.5535
  356SOL    HW2 4024   0.371   4.276   5.209 -1.7151  0.4405  0.2515
  357SOL     OW 4025   5.119   6.025   8.117  0.1995  0.1779  0.1338
  357SOL    HW1 4026   5.146   5.940   8.081  1.5554  0.4402  0.4529
  357SOL    HW2 4027   5.160   6.089   8.059 -0.2644  0.6163  0.2867
  358SOL     OW 4028   4.565   7.428   7.226 -0.4033 -0.4642 -0.7276
  358SOL    HW1 4029   4.523   7.344   7.208  0.7860 -1.4607  0.9063
  358SOL    HW2 4030   4.656   7.406   7.244 -0.6275  0.7238  2.6200
  359SOL     OW 4031   6.454  10.676   4.533  0.0420 -0.1962  0.3962
  359SOL    HW1 4032   6.458  10.750   4.593 -1.1103 -0.1346  0.4365
  359SOL    HW2 4033   6.363  10.676   4.503  0.3533 -0.8388 -0.5667
  360SOL     OW 4034   3.327   4.885   2.759  0.0316 -0.3985  0.2673
  360SOL    HW1 4035   3.383   4.859   2.833  1.9098 -0.0368 -0.9529
  360SOL    HW2 4036   3.378   4.950   2.712 -0.9410 -0.8911 -1.5646
  361SOL     OW 4037   0.298   9.722   4.966  0.0847  0.6904 -0.6198
  361SOL    HW1 4038   0.345   9.729   4.883  0.4651  0.0548 -0.4717
  361SOL    HW2 4039   0.207   9.709   4.941  0.3207 -0.4322 -0.9758
  362SOL     OW 4040   6.341   2.125   5.800 -0.0391  0.2698  0.1027
  362SOL    HW1 4041   6.285   2.159   5.870  0.4204 -1.7510  1.5351
  362SOL    HW2 4042   6.304   2.040   5.779  0.8106  0.1480 -0.9754
  363SOL     OW 4043   5.858   6.937   1.656  0.4416  0.2863 -0.5463
  363SOL    HW1 4044   5.836   6.912   1.566 -0.6371 -0.7925 -0.0248
  363SOL    HW2 4045   5.953   6.937   1.659  0.5931 -3.1354 -0.8615
  364SOL     OW 4046   2.812   4.755   6.816  0.7846 -0.9650  0.2072
  364SOL    HW1 4047   2.888   4.696   6.817  1.0365 -0.6506 -0.2481
  364SOL    HW2 4048   2.784   4.759   6.908  1.0794 -1.3913  0.3180
  365SOL     OW 4049   5.414   7.193   0.507 -0.0343 -0.2938 -0.6545
  365SOL    HW1 4050   5.410   7.180   0.412 -1.0251 -1.1928 -0.5147
  365SOL    HW2 4051   5.351   7.130   0.542 -0.5037  0.7908  0.5340
  366SOL     OW 4052   8.691   0.408   0.529  0.3957  0.5959 -0.3222
  366SOL    HW1 4053   8.690   0.446   0.441 -0.5025 -0.4613 -0.7828
  366SOL    HW2 4054   8.599   0.401   0.553  0.5358 -1.1345 -0.1956
  367SOL     OW 4055   1.183   2.736   8.914  0.6234  0.3597  0.0203
  367SOL    HW1 4056   1.230   2.807   8.869  0.7378  0.2879  0.0277
  367SOL    HW2 4057   1.131   2.694   8.845 -2.1767  2.6254  0.5539
  368SOL     OW 4058   3.943   9.258   3.131 -0.0705 -0.3940  0.0649
  368SOL    HW1 4059   3.850   9.238   3.116 -0.0410 -0.3098 -0.2526
  368SOL    HW2 4060   3.942   9.326   3.198 -0.2821  0.2424 -0.5734
  369SOL     OW 4061   4.328   4.907   7.006  0.0157  0.0181  0.3843
  369SOL    HW1 4062   4.323   4.868   7.093 -0.5777 -0.5084  0.1163
  369SOL    HW2 4063   4.383   4.846   6.956  0.5990  0.4682  0.4586
  370SOL     OW 4064   8.979   8.079   7.459  0.1826  0.0178 -0.7083
  370SOL    HW1 4065   8.927   8.134   7.401  0.5180 -0.0164 -1.0423
  370SOL    HW2 4066   9.061   8.127   7.471 -0.4031  0.7089  0.8652
  371SOL     OW 4067   8.659   4.558   7.789 -0.6649  0.3087 -0.4051
  371SOL    HW1 4068   8.688   4.507   7.865  0.2924 -0.4141 -1.2252
  371SOL    HW2 4069   8.564   4.554   7.792 -0.6275 -0.2070  0.4220
  372SOL     OW 4070   0.888   1.776   9.506 -0.1323  0.7280  0.5369
  372SOL    HW1 4071   0.922   1.864   9.488 -0.7031  1.1244  1.3343
  372SOL    HW2 4072   0.966   1.720   9.507  0.3297  1.3709  0.8639
  373SOL     OW 4073   8.352   4.067  10.510  0.1575  0.1838 -0.2416
  373SOL    HW1 4074   8.398   4.028  10.585 -0.4037  0.4064  0.2269
  373SOL    HW2 4075   8.301   4.139  10.548 -0.0009  0.4064 -0.8665
  374SOL     OW 4076   7.151  10.529  10.161  0.1268 -0.0351  0.4625
  374SOL    HW1 4077   7.237  10.555  10.197 -0.3906  3.2814 -0.3732
  374SOL    HW2 4078   7.092  10.535  10.236  0.1726  0.3600  0.4702
  375SOL     OW 4079   2.591   5.861  10.357 -0.6371 -0.3318 -0.1135
  375SOL    HW1 4080   2.669   5.904  10.322 -0.3189  0.6040  1.6202
  375SOL    HW2 4081   2.518   5.912  10.322 -0.4661 -0.8598 -1.2815
  376SOL     OW 4082   6.449   9.982   8.467 -0.5292 -0.6436 -0.1395
  376SOL    HW1 4083   6.452  10.071   8.433 -4.3937 -0.6815 -1.0539
  376SOL    HW2 4084   6.387   9.986   8.539 -0.3777 -2.5038  0.1445
  377SOL     OW 4085   1.874   6.914   7.417  0.3086  1.0157  0.0379
  377SOL    HW1 4086   1.919   6.882   7.339 -0.8237 -1.7397  0.4273
  377SOL    HW2 4087   1.790   6.946   7.384 -0.2340 -0.2932  0.1198
  378SOL     OW 4088   2.047   0.078   2.014  0.0486  0.6086  0.0558
  378SOL    HW1 4089   2.063   0.169   1.988  1.2255  0.5266  0.4498
  378SOL    HW2 4090   1.984   0.085   2.086  1.3688  1.2597  1.2106
  379SOL     OW 4091   7.136   0.437   1.730 -0.0938  0.0710 -0.5477
  379SOL    HW1 4092   7.061   0.424   1.787 -0.1820  0.3106 -0.6068
  379SOL    HW2 4093   7.120   0.522   1.688  0.5488  0.4728 -0.0190
  380SOL     OW 4094   4.968   0.308   8.239  0.0999  0.1363 -0.4625
  380SOL    HW1 4095   5.021   0.250   8.295 -1.5096  0.4039  1.4763
  380SOL    HW2 4096   4.978   0.272   8.151  3.3223  0.0879 -0.2037
  381SOL     OW 4097   0.731   6.530   8.154  0.1041 -0.2358 -0.4041
  381SOL    HW1 4098   0.705   6.576   8.233  0.1110 -3.4630  1.6822
  381SOL    HW2 4099   0.657   6.473   8.134  1.5686 -2.2873 -0.3192
  382SOL     OW 4100   3.038   0.887   5.500  0.3051  0.1507  0.3499
  382SOL    HW1 4101   2.946   0.872   5.480 -0.3560  2.0824  1.7011
  382SOL    HW2 4102   3.044   0.981   5.518  2.1065 -0.2671  2.3376
  383SOL     OW 4103   8.641   0.198   3.474  0.0305 -0.7901  0.3906
  383SOL    HW1 4104   8.616   0.258   3.544  1.5893 -0.1138  0.3951
  383SOL    HW2 4105   8.645   0.112   3.517 -1.2292 -0.7634  0.6011
  384SOL     OW 4106   3.621   6.051   2.494  0.2783  0.1168 -0.6354
  384SOL    HW1 4107   3.662   6.007   2.568  0.2328 -0.0184 -0.6901
  384SOL    HW2 4108   3.536   6.008   2.485  0.2507  0.1883 -0.7152
  385SOL     OW 4109   7.240   6.632   2.445 -0.4189  0.7407  0.1586
  385SOL    HW1 4110   7.325   6.630   2.489  0.0356 -0.0119 -0.7183
  385SOL    HW2 4111   7.217   6.539   2.433 -0.2534  0.9201 -1.6980
  386SOL     OW 4112   3.309   5.447   9.643 -0.0218  0.4759  0.1177
  386SOL    HW1 4113   3.284   5.477   9.730  0.8525  0.4814  0.3706
  386SOL    HW2 4114   3.400   5.473   9.633 -0.4731  1.6729 -1.3343
  387SOL     OW 4115   6.822   8.602   6.005 -0.3044  0.0778  0.4745
  387SOL    HW1 4116   6.875   8.679   6.023  0.3485 -0.0253 -0.8550
  387SOL    HW2 4117   6.732   8.634   5.998  0.1882  1.1166 -2.0995
  388SOL     OW 4118   7.154   2.169   0.368  0.0923 -0.0632 -0.0586
  388SOL    HW1 4119   7.082   2.193   0.426 -0.3976 -2.1143  0.2338
  388SOL    HW2 4120   7.113   2.119   0.298  1.0403  0.0713 -0.7290
  389SOL     OW 4121   1.465   8.425   7.511 -0.7486 -0.1453 -0.5597
  389SOL    HW1 4122   1.465   8.512   7.551  1.9239 -0.3545  0.0442
  389SOL    HW2 4123   1.418   8.437   7.429  0.4207  2.1437 -0.9734
  390SOL     OW 4124   3.454   6.535   8.510 -0.5386 -0.6891 -0.3060
  390SOL    HW1 4125   3.424   6.510   8.598  1.8892 -0.7107  0.5881
  390SOL    HW2 4126   3.397   6.486   8.451 -0.8687 -2.3601  1.2985
  391SOL     OW 4127   8.435   4.371   3.808 -0.1977  0.3884  0.4552
  391SOL    HW1 4128   8.491   4.341   3.737 -0.3121  0.5354  0.3001
  391SOL    HW2 4129   8.349   4.333   3.789  0.1996 -1.1359  1.5374
  392SOL     OW 4130   9.233   0.831   1.215 -0.4685 -0.3434  0.1772
  392SOL    HW1 4131   9.284   0.758   1.251 -1.9937 -1.4095  0.2982
  392SOL    HW2 4132   9.159   0.789   1.171  0.1282  1.0288 -2.3309
  393SOL     OW 4133   8.764   0.511   6.724  0.3994  0.1841  0.0936
  393SOL    HW1 4134   8.694   0.500   6.789 -0.7122 -0.0773 -1.1195
  393SOL    HW2 4135   8.802   0.596   6.745 -0.0678  0.1858  0.9807
  394SOL     OW 4136   6.238   3.539   6.654 -0.6826  0.1953  0.2465
  394SOL    HW1 4137   6.184   3.524   6.576 -0.4705  0.6706 -0.0001
  394SOL    HW2 4138   6.241   3.635   6.662 -2.5258  0.1566  2.1274
  395SOL     OW 4139   4.366   6.405   9.679  0.3316  0.2822  0.2087
  395SOL    HW1 4140   4.279   6.393   9.718  0.6623  1.4033  1.3036
  395SOL    HW2 4141   4.348   6.438   9.591 -0.4135 -2.3300 -0.7389
  396SOL     OW 4142   5.374   4.625   4.657  0.2987 -0.0990 -0.0759
  396SOL    HW1 4143   5.382   4.602   4.749  0.9137  2.7331  0.6849
  396SOL    HW2 4144   5.455   4.596   4.616 -0.1247 -1.6779  0.1568
  397SOL     OW 4145   2.314   9.082   2.261 -0.2443  0.3074 -0.1137
  397SOL    HW1 4146   2.220   9.073   2.241  0.0773  0.6928 -2.0822
  397SOL    HW2 4147   2.322   9.171   2.296 -0.4199  0.9106 -1.5304
  398SOL     OW 4148   7.001   8.669   3.120  0.1696 -0.3003 -0.2635
  398SOL    HW1 4149   6.966   8.672   3.031 -0.8229  2.2309  0.1350
  398SOL    HW2 4150   6.950   8.601   3.163 -0.1360 -0.7626 -1.3126
  399SOL     OW 4151   7.012   9.737   6.652  0.0444 -0.3501  0.4647
  399SOL    HW1 4152   7.005   9.832   6.651  0.9980 -0.2647 -0.0842
  399SOL    HW2 4153   7.029   9.715   6.744  0.0815  0.0316  0.5507
  400SOL     OW 4154   2.305   2.391   2.895 -0.4026  0.1133 -0.2056
  400SOL    HW1 4155   2.332   2.400   2.987 -0.0810 -0.3452 -0.2486
  400SOL    HW2 4156   2.369   2.331   2.858 -0.6714  0.1149 -0.6733
  401SOL     OW 4157   4.548   2.715   6.042 -0.3247 -0.3592 -0.1895
  401SOL    HW1 4158   4.603   2.793   6.036  0.2810 -0.7881 -0.2823
  401SOL    HW2 4159   4.581   2.668   6.119 -1.5638  0.1354  0.6743
  402SOL     OW 4160   6.023   5.101   5.239  0.6107  0.3471 -0.2156
  402SOL    HW1 4161   5.955   5.151   5.195 -0.1210 -0.6398 -0.2279
  402SOL    HW2 4162   5.982   5.070   5.319 -0.2243 -3.3302 -1.8851
  403SOL     OW 4163   7.952   2.485  10.442  0.1503  0.5930  0.2808
  403SOL    HW1 4164   8.005   2.405  10.446  0.4360  0.8038  0.9937
  403SOL    HW2 4165   7.945   2.504  10.349  0.2438 -0.1549  0.1116
  404SOL     OW 4166   5.430   8.535   6.670 -0.7260  0.9291  0.3024
  404SOL    HW1 4167   5.355   8.534   6.729 -0.8673  1.2424  0.1306
  404SOL    HW2 4168   5.498   8.583   6.717 -0.3369 -0.0983  0.8121
  405SOL     OW 4169   5.505  10.615   3.085 -0.2650 -0.1909  0.1838
  405SOL    HW1 4170   5.466  10.530   3.107 -0.1127 -0.1175  0.7509
  405SOL    HW2 4171   5.553  10.640   3.163  1.3820 -0.5153 -0.6776
  406SOL     OW 4172   5.554   1.604   5.889  0.5229  0.2859 -0.6714
  406SOL    HW1 4173   5.490   1.554   5.839  2.3888 -1.2749 -1.5990
  406SOL    HW2 4174   5.535   1.695   5.868  1.0009 -0.2929 -4.0289
  407SOL     OW 4175   1.919   3.325  10.258 -0.6017 -0.0855 -0.2278
  407SOL    HW1 4176   1.836   3.310  10.304  0.3358 -3.3683  0.7099
  407SOL    HW2 4177   1.982   3.341  10.328 -0.1640  0.8651 -0.8307
  408SOL     OW 4178   0.356   4.068   2.720  0.3934 -0.3603 -0.1830
  408SOL    HW1 4179   0.367   4.152   2.676 -0.7484  0.2698  0.6850
  408SOL    HW2 4180   0.385   4.083   2.810 -1.2994 -0.4161  0.4101
  409SOL     OW 4181   7.678   0.258   4.834  0.3834 -0.2445 -0.1213
  409SOL    HW1 4182   7.670   0.264   4.739  0.6228 -0.7617 -0.1792
  409SOL    HW2 4183   7.761   0.212   4.848 -0.6273 -2.0400  0.2879
  410SOL     OW 4184   2.422   8.373   2.309  0.2862 -0.4158  0.5067
  410SOL    HW1 4185   2.357   8.351   2.242 -1.9417  0.9249  2.0954
  410SOL    HW2 4186   2.471   8.446   2.271 -0.6620  0.0530  0.1382
  411SOL     OW 4187   4.610  10.479  10.456 -0.3543 -0.1908  0.0948
  411SOL    HW1 4188   4.523  10.513  10.480 -0.2801  0.3284 -0.3669
  411SOL    HW2 4189   4.597  10.439  10.370  0.1245  0.9942 -0.5509
  412SOL     OW 4190   1.294   8.274   9.369  0.5582 -0.4679 -0.1538
  412SOL    HW1 4191   1.273   8.357   9.324 -1.2018 -0.3298  0.8596
  412SOL    HW2 4192   1.383   8.254   9.339  0.3555  0.8379 -1.8435
  413SOL     OW 4193   8.832   8.279  10.512 -0.7741  0.1265  0.3894
  413SOL    HW1 4194   8.803   8.190  10.527  0.9149 -0.4632  0.4089
  413SOL    HW2 4195   8.871   8.307  10.595 -1.2827  0.8933  0.3845
  414SOL     OW 4196   2.719   2.762   0.584 -0.2854 -0.0189  0.7107
  414SOL    HW1 4197   2.762   2.847   0.591 -1.8515  1.1272 -1.9282
  414SOL    HW2 4198   2.641   2.770   0.639  0.1093 -0.1680  1.3042
  415SOL     OW 4199   7.160   2.810   8.443 -0.1953 -0.1047  0.2283
  415SOL    HW1 4200   7.144   2.829   8.351 -0.3798  0.7040  0.4165
  415SOL    HW2 4201   7.081   2.764   8.472  0.7377 -2.2694 -0.5184
  416SOL     OW 4202   3.048   7.552   2.589  0.1860  0.4222 -0.2396
  416SOL    HW1 4203   3.005   7.611   2.651  0.1732  0.4502 -0.2749
  416SOL    HW2 4204   3.140   7.551   2.616  0.1352  0.2434 -0.0708
  417SOL     OW 4205   2.785  10.555   3.473  0.0950  0.0767  0.3809
  417SOL    HW1 4206   2.776  10.640   3.515 -1.9183 -0.1247  0.4692
  417SOL    HW2 4207   2.743  10.493   3.533  1.1836 -0.9423  0.1400
  418SOL     OW 4208   8.888   9.692   1.651 -0.2232  0.4934  0.3866
  418SOL    HW1 4209   8.900   9.755   1.580  1.7185  0.1532  0.3552
  418SOL    HW2 4210   8.805   9.649   1.631 -0.0599  0.8835 -1.2885
  419SOL     OW 4211   3.723   3.569   1.215  0.3790 -0.3609 -0.6498
  419SOL    HW1 4212   3.715   3.499   1.150  0.2589 -0.9504 -0.0166
  419SOL    HW2 4213   3.650   3.627   1.197  0.7536 -0.1372 -1.4834
  420SOL     OW 4214   1.350   2.674  10.582 -0.2420  0.0774 -0.1101
  420SOL    HW1 4215   1.437   2.642  10.557 -0.7753 -0.7438 -0.9940
  420SOL    HW2 4216   1.360   2.769  10.586  0.3615  0.0958 -1.5674
  421SOL     OW 4217   4.718   9.690   4.371  0.4343 -0.2649  0.2886
  421SOL    HW1 4218   4.664   9.614   4.349  0.3911 -0.1219 -0.1007
  421SOL    HW2 4219   4.730   9.683   4.466 -0.0166 -0.4635  0.3368
  422SOL     OW 4220   3.723   0.059   6.779 -0.2358  0.1616  0.2935
  422SOL    HW1 4221   3.630   0.078   6.777 -0.1964  0.4385  0.8643
  422SOL    HW2 4222   3.757   0.095   6.697 -0.5654  0.3926  0.2585
  423SOL     OW 4223   7.637   1.174   6.817  0.1076 -0.7214 -0.1227
  423SOL    HW1 4224   7.672   1.248   6.767  1.3994 -0.8967  0.4742
  423SOL    HW2 4225   7.583   1.215   6.885 -1.1259 -0.4568 -1.2296
  424SOL     OW 4226   1.034   8.624   5.312  0.1941 -0.5075 -0.1840
  424SOL    HW1 4227   1.128   8.631   5.294  0.1826 -2.7646 -1.5135
  424SOL    HW2 4228   1.029   8.586   5.399  0.6097 -2.1341 -0.8302
  425SOL     OW 4229  10.046   6.285   6.651 -0.3407  0.0715  0.2552
  425SOL    HW1 4230   9.983   6.227   6.695 -1.2606 -0.9343 -2.2366
  425SOL    HW2 4231  10.007   6.372   6.658 -0.5757 -0.0987  1.1979
  426SOL     OW 4232   3.029   8.832   3.660  0.5679 -0.2821  0.4394
  426SOL    HW1 4233   3.113   8.784   3.660 -0.4507 -2.1983 -0.7470
  426SOL    HW2 4234   3.003   8.835   3.752  1.1672 -1.1250  0.6498
  427SOL     OW 4235   7.726   9.488   2.555 -0.8867  0.1694 -0.0964
  427SOL    HW1 4236   7.661   9.520   2.617  0.1017  1.1717  0.4798
  427SOL    HW2 4237   7.681   9.421   2.504 -2.7517  1.7333 -0.6215
  428SOL     OW 4238   9.343   2.368   3.840 -0.3353 -0.4192  0.0144
  428SOL    HW1 4239   9.349   2.461   3.861 -0.1931 -0.1254 -1.2275
  428SOL    HW2 4240   9.344   2.365   3.744 -0.6067 -1.6834  0.0304
  429SOL     OW 4241   1.606   9.252   7.066 -0.5942 -0.4924  0.6502
  429SOL    HW1 4242   1.617   9.320   7.000 -1.3088 -1.1221 -0.1444
  429SOL    HW2 4243   1.534   9.198   7.033  0.4693 -2.1121  0.8261
  430SOL     OW 4244   2.985   5.399  10.299  0.0682 -0.3612  0.3822
  430SOL    HW1 4245   2.928   5.475  10.292  2.5036  1.5021 -0.7184
  430SOL    HW2 4246   3.017   5.400  10.389  0.0729 -0.0742  0.3783
  431SOL     OW 4247   3.683   8.837   1.666  0.1914  0.6063 -0.4563
  431SOL    HW1 4248   3.756   8.783   1.695 -0.7431 -0.6602 -0.3629
  431SOL    HW2 4249   3.699   8.923   1.706  1.1460  0.1049  0.2846
  432SOL     OW 4250   5.541   0.676   6.641 -0.0125 -0.6576  0.9948
  432SOL    HW1 4251   5.449   0.652   6.650 -0.4010  0.4917  0.3078
  432SOL    HW2 4252   5.541   0.751   6.581  1.2521  0.0790  1.8469
  433SOL     OW 4253   7.004   3.733  10.014 -0.0001  0.5935 -0.5947
  433SOL    HW1 4254   7.076   3.679  10.048 -3.0842 -1.3785  3.6373
  433SOL    HW2 4255   6.969   3.682   9.941  0.0960 -0.8526  0.3106
  434SOL     OW 4256   5.400   1.815   9.395  0.1751 -0.5301  0.6120
  434SOL    HW1 4257   5.408   1.720   9.400 -2.8069 -0.9188 -0.1102
  434SOL    HW2 4258   5.385   1.833   9.302 -0.2105  0.5318  0.8602
  435SOL     OW 4259   4.853   5.411   0.351 -0.1819  0.4679 -0.0695
  435SOL    HW1 4260   4.828   5.417   0.259 -0.0558 -1.7608 -0.2913
  435SOL    HW2 4261   4.775   5.376   0.394 -0.0906  1.0791  0.6036
  436SOL     OW 4262   6.786   7.295   7.135  0.1033  0.0202 -0.0230
  436SOL    HW1 4263   6.767   7.203   7.152 -1.3906  0.3116  0.0319
  436SOL    HW2 4264   6.745   7.313   7.050  2.7000 -0.0049 -1.3698
  437SOL     OW 4265   9.043   9.062   3.931 -0.4387  0.0973  1.1674
  437SOL    HW1 4266   8.982   9.051   3.858 -0.1838  0.7852  0.8428
  437SOL    HW2 4267   8.990   9.047   4.010 -0.8865  0.1086  0.8708
  438SOL     OW 4268   2.177   9.704   6.221  0.6945 -0.1296  0.3561
  438SOL    HW1 4269   2.129   9.786   6.213 -1.8027 -1.4539  0.8624
  438SOL    HW2 4270   2.239   9.719   6.293  0.2278  1.2630  0.4892
  439SOL     OW 4271   9.309   3.188   4.338  0.3214  0.0498  0.0969
  439SOL    HW1 4272   9.308   3.220   4.248  0.5849 -0.1736  0.0145
  439SOL    HW2 4273   9.323   3.267   4.391 -0.0166  0.2049 -0.0467
  440SOL     OW 4274   1.709   6.170   0.093 -0.2525  0.7750  0.2695
  440SOL    HW1 4275   1.794   6.212   0.093 -0.0445  0.3698  1.1591
  440SOL    HW2 4276   1.693   6.146   0.184 -0.1094 -1.5434 -0.2382
  441SOL     OW 4277   1.636   3.210   5.927  0.3059  0.2288  0.0869
  441SOL    HW1 4278   1.571   3.264   5.971  0.6456  0.7368 -0.0249
  441SOL    HW2 4279   1.627   3.124   5.968 -1.1383  0.0065 -0.6516
  442SOL     OW 4280   5.065   9.809   8.015  0.1583 -0.5540  0.0449
  442SOL    HW1 4281   5.149   9.846   7.986  0.9953 -0.5842  2.1969
  442SOL    HW2 4282   5.013   9.886   8.038 -0.2262 -0.5541 -0.7979
  443SOL     OW 4283   2.201   5.239   0.174 -0.0072  0.0875 -0.8323
  443SOL    HW1 4284   2.257   5.185   0.118  0.0709 -0.8354  0.1060
  443SOL    HW2 4285   2.232   5.329   0.159  2.6397 -0.4789  0.5547
  444SOL     OW 4286   2.281   0.313   7.389 -0.0020 -0.0366 -0.3248
  444SOL    HW1 4287   2.333   0.279   7.316  1.9807  0.0219  1.0036
  444SOL    HW2 4288   2.316   0.400   7.405 -1.1392  0.3718  0.0330
  445SOL     OW 4289   4.535   0.560  10.360 -0.2173 -0.0092  0.8440
  445SOL    HW1 4290   4.580   0.487  10.317 -0.3972  0.1337  0.4024
  445SOL    HW2 4291   4.606   0.612  10.398 -0.0877 -0.4003  1.1486
  446SOL     OW 4292   1.505   3.120   3.357 -0.0410 -0.4330 -0.0268
  446SOL    HW1 4293   1.558   3.112   3.436  0.4426  0.7189 -0.2255
  446SOL    HW2 4294   1.449   3.197   3.373 -0.2462 -0.4515 -0.6275
  447SOL     OW 4295   5.592   9.301   5.155 -0.8199  0.6847  0.1967
  447SOL    HW1 4296   5.666   9.280   5.098  0.3415  1.1851  1.4727
  447SOL    HW2 4297   5.516   9.301   5.096  0.0920 -0.4031 -1.0404
  448SOL     OW 4298   1.579  10.308   1.080 -0.8352 -0.3117 -0.2131
  448SOL    HW1 4299   1.532  10.388   1.057  0.5643  0.4349 -0.6442
  448SOL    HW2 4300   1.577  10.305   1.175 -1.3465 -0.0389 -0.2123
  449SOL     OW 4301   4.282   9.256   2.174 -0.3880 -0.0084 -0.1348
  449SOL    HW1 4302   4.327   9.191   2.227 -0.1368  0.6441  0.4660
  449SOL    HW2 4303   4.303   9.340   2.215 -1.4272  0.3851 -0.3717
  450SOL     OW 4304   0.055   8.980   8.457 -0.2032 -0.4955 -0.0134
  450SOL    HW1 4305  -0.038   8.991   8.436 -0.4774 -0.3812  1.1763
  450SOL    HW2 4306   0.075   9.052   8.517  0.1997 -1.4933  1.0871
  451SOL     OW 4307   5.455   4.627   9.188 -0.2153  0.2503 -0.1656
  451SOL    HW1 4308   5.487   4.668   9.108  1.2507 -0.4262  0.0380
  451SOL    HW2 4309   5.366   4.601   9.167  0.7493 -1.7354 -2.3292
  452SOL     OW 4310   9.621   6.486   8.887  0.4281 -0.2694 -0.3048
  452SOL    HW1 4311   9.657   6.486   8.798  1.1692 -0.4055 -0.0114
  452SOL    HW2 4312   9.691   6.522   8.941 -0.3487  0.6713  0.1050
  453SOL     OW 4313   4.193   3.598   3.473  0.5438  0.6757 -0.2566
  453SOL    HW1 4314   4.269   3.569   3.423  0.8886  0.1986  0.5283
  453SOL    HW2 4315   4.117   3.572   3.420  0.7717 -2.6191  0.8315
  454SOL     OW 4316   8.667   5.291   8.321 -0.1767  0.5352 -0.5609
  454SOL    HW1 4317   8.575   5.317   8.328  0.2965  2.0272  0.6854
  454SOL    HW2 4318   8.665   5.195   8.316 -1.7900  0.5346 -0.3578
  455SOL     OW 4319   2.430   0.541   2.184  0.3096  0.2158  0.4913
  455SOL    HW1 4320   2.514   0.585   2.169  0.0973  0.3426 -0.3912
  455SOL    HW2 4321   2.381   0.603   2.237  0.6287  0.3132  0.6788
  456SOL     OW 4322   4.565   0.398   3.663 -0.1906  0.2099 -0.7267
  456SOL    HW1 4323   4.596   0.325   3.716 -0.3275  1.1303  0.6674
  456SOL    HW2 4324   4.613   0.389   3.580 -0.9733 -2.0366 -1.0091
  457SOL     OW 4325   0.652   1.773   2.090  0.6844  0.0028 -0.2325
  457SOL    HW1 4326   0.707   1.732   2.156  0.9373  0.9853  0.1801
  457SOL    HW2 4327   0.565   1.735   2.104  0.1235  1.9515  2.3286
  458SOL     OW 4328   8.492   1.011   0.633 -0.9229 -0.2189 -0.3007
  458SOL    HW1 4329   8.508   1.105   0.637  0.1945 -0.3971 -0.4061
  458SOL    HW2 4330   8.458   0.997   0.545  0.2124 -0.0976 -0.7711
  459SOL     OW 4331   3.349   4.520   9.691  0.7051  0.4791  0.6130
  459SOL    HW1 4332   3.355   4.615   9.696 -0.3584  0.6647 -0.9929
  459SOL    HW2 4333   3.374   4.499   9.601 -3.7942 -0.2273 -0.7277
  460SOL     OW 4334   6.396   6.980   6.086 -0.0218 -0.4319 -0.1790
  460SOL    HW1 4335   6.481   6.956   6.049 -0.1789 -0.8832 -0.2488
  460SOL    HW2 4336   6.347   7.015   6.011  0.4677  0.8381  0.0678
  461SOL     OW 4337   5.195   0.991   8.515 -0.5342 -0.0530 -0.3644
  461SOL    HW1 4338   5.274   1.007   8.464  0.9604 -0.5615  1.6572
  461SOL    HW2 4339   5.123   1.010   8.455  1.0981 -0.0924 -2.4451
  462SOL     OW 4340   9.333   9.519   6.619 -0.1798 -0.2527 -0.0590
  462SOL    HW1 4341   9.294   9.552   6.538 -0.5804 -1.3075 -0.3214
  462SOL    HW2 4342   9.408   9.467   6.589  0.0670 -0.1015  0.2942
  463SOL     OW 4343   6.485   5.490  10.293  0.3776  0.4998  0.1370
  463SOL    HW1 4344   6.533   5.411  10.317 -0.2912  0.4228  1.2984
  463SOL    HW2 4345   6.457   5.474  10.203  0.7949 -0.3197  0.1390
  464SOL     OW 4346   9.378  10.579   0.785 -0.2632  0.1805 -0.5834
  464SOL    HW1 4347   9.314  10.650   0.783 -0.3322  0.1707 -3.2200
  464SOL    HW2 4348   9.368  10.535   0.700  2.3489 -0.6142 -0.5930
  465SOL     OW 4349   4.302   8.600   8.140 -0.1805 -0.0201 -0.4086
  465SOL    HW1 4350   4.267   8.520   8.102  1.4572  0.3292 -2.8847
  465SOL    HW2 4351   4.365   8.570   8.206 -0.4401 -0.7504 -0.4849
  466SOL     OW 4352   6.381   4.085   0.889 -0.1459 -0.1837 -0.3796
  466SOL    HW1 4353   6.466   4.043   0.882  0.2415  0.6813 -1.1370
  466SOL    HW2 4354   6.330   4.028   0.947  2.3082  1.4529  3.8196
  467SOL     OW 4355   1.137   0.883   3.539  0.2314  0.0806  0.1756
  467SOL    HW1 4356   1.105   0.969   3.511  0.0915 -0.0544 -0.0792
  467SOL    HW2 4357   1.121   0.882   3.634 -0.6803 -0.0466  0.0357
  468SOL     OW 4358   1.469   9.343   2.517  0.4124 -0.0228  0.4818
  468SOL    HW1 4359   1.412   9.334   2.594 -0.4576 -0.5312 -0.1977
  468SOL    HW2 4360   1.530   9.270   2.523  1.1535  0.6569  1.3409
  469SOL     OW 4361   1.089   6.348   0.117 -0.0324 -0.0197  0.2303
  469SOL    HW1 4362   1.134   6.378   0.038 -0.5344 -0.4919 -0.2443
  469SOL    HW2 4363   0.998   6.375   0.104 -0.0843  0.0576  0.7330
  470SOL     OW 4364  10.205   6.418   1.583  0.7997 -0.0111 -0.4330
  470SOL    HW1 4365  10.169   6.418   1.672 -0.0888  1.6681 -0.7489
  470SOL    HW2 4366  10.146   6.361   1.533 -0.0123  0.7816 -0.4027
  471SOL     OW 4367  10.096   6.865   6.927 -0.0878  0.1858  0.2067
  471SOL    HW1 4368  10.076   6.956   6.950  2.9101  1.2830 -1.0799
  471SOL    HW2 4369  10.068   6.856   6.836 -0.8355 -0.3504  0.4853
  472SOL     OW 4370   2.935   6.021   2.930  0.1537  0.8026  0.2282
  472SOL    HW1 4371   2.848   6.060   2.939 -0.0262  0.2807  0.8429
  472SOL    HW2 4372   2.920   5.940   2.881  0.1926  0.3781  0.9126
  473SOL     OW 4373   1.024   1.651   4.650 -0.3342  0.3226 -0.0948
  473SOL    HW1 4374   1.024   1.746   4.662  1.2866  0.5082 -1.1918
  473SOL    HW2 4375   1.063   1.617   4.731  0.0740  0.6771 -0.1381
  474SOL     OW 4376   5.403   9.884   8.620 -0.3299  0.4187  0.3383
  474SOL    HW1 4377   5.329   9.930   8.660  0.3277  1.4177  0.4330
  474SOL    HW2 4378   5.416   9.929   8.536 -0.2699 -0.2081  0.0072
  475SOL     OW 4379   1.691   3.128   8.936  0.1838  0.2108 -0.5547
  475SOL    HW1 4380   1.669   3.221   8.930 -0.5130  0.0655 -0.2379
  475SOL    HW2 4381   1.786   3.127   8.949  0.0627  0.9172  0.5019
  476SOL     OW 4382   9.183   1.641   4.850  0.4653 -0.0781 -0.0043
  476SOL    HW1 4383   9.221   1.701   4.785 -0.9121  1.2452  0.3665
  476SOL    HW2 4384   9.105   1.686   4.882 -0.2794 -1.8190  0.7509
  477SOL     OW 4385   1.757  10.459   8.356  0.5564  0.0173 -0.1107
  477SOL    HW1 4386   1.771  10.391   8.422 -2.7530 -1.2848 -0.5618
  477SOL    HW2 4387   1.731  10.536   8.406 -2.5944 -1.1419  0.2812
  478SOL     OW 4388  10.323   5.833   2.285  0.2464  0.7507  0.4937
  478SOL    HW1 4389  10.307   5.744   2.314  0.5557  1.2353  2.2376
  478SOL    HW2 4390  10.257   5.849   2.217 -0.4669 -0.4507  0.8843
  479SOL     OW 4391   5.093   0.322   3.959  0.2720  0.0945  0.4374
  479SOL    HW1 4392   5.104   0.370   4.041  1.8949 -0.0094  0.3071
  479SOL    HW2 4393   5.013   0.358   3.920 -0.0439  0.7426  1.6454
  480SOL     OW 4394   1.071   8.894   4.927 -0.3022  0.0715 -0.4602
  480SOL    HW1 4395   1.030   8.934   4.851 -0.0537  1.8962  0.3192
  480SOL    HW2 4396   1.109   8.967   4.976  0.5959 -1.1712  0.7954
  481SOL     OW 4397   9.409   4.458   8.056  0.1795  0.4999  0.3615
  481SOL    HW1 4398   9.412   4.527   8.122  2.4103 -1.0631  2.0320
  481SOL    HW2 4399   9.493   4.466   8.010  1.0987 -1.8306  1.4877
  482SOL     OW 4400   5.906   7.679   9.987 -0.5041  0.0382  0.1890
  482SOL    HW1 4401   5.948   7.747  10.039 -1.8913  1.5131 -0.5482
  482SOL    HW2 4402   5.941   7.597  10.022  1.6279  1.1164  0.7468
  483SOL     OW 4403   0.448   3.935   7.790  0.1947 -0.0748  0.2369
  483SOL    HW1 4404   0.505   3.953   7.715  2.4531 -3.6959  0.8162
  483SOL    HW2 4405   0.373   3.889   7.754  0.6329 -0.6381  0.0284
  484SOL     OW 4406  10.186   1.240   5.564 -0.0859  0.6124  0.1708
  484SOL    HW1 4407  10.277   1.233   5.536 -0.2815 -1.5660 -0.0532
  484SOL    HW2 4408  10.145   1.295   5.496  0.9476  1.2666  0.0552
  485SOL     OW 4409   8.139   1.311   1.871 -0.0120  0.2066 -0.3152
  485SOL    HW1 4410   8.209   1.287   1.931  1.6825 -0.6693 -2.5137
  485SOL    HW2 4411   8.184   1.347   1.795 -2.0208  0.4576 -1.4507
  486SOL     OW 4412  10.441   2.283   5.744  0.0705  0.1861  0.2487
  486SOL    HW1 4413  10.375   2.352   5.736 -0.2913 -0.3152 -1.3857
  486SOL    HW2 4414  10.392   2.201   5.742  0.4519 -0.1770  2.6992
  487SOL     OW 4415   1.187   5.463   0.086 -0.4749 -0.2377  0.7939
  487SOL    HW1 4416   1.167   5.393   0.023 -0.0229 -0.9255  1.3928
  487SOL    HW2 4417   1.230   5.417   0.159  2.8166  1.0489 -0.1754
  488SOL     OW 4418   0.788   3.056   0.786  0.1372 -0.0896  0.0282
  488SOL    HW1 4419   0.715   3.050   0.724  0.6039  0.4895 -0.5974
  488SOL    HW2 4420   0.804   2.966   0.813  0.3785 -0.4497 -1.2450
  489SOL     OW 4421   0.013   5.154   2.980 -0.4880 -0.5192 -0.3522
  489SOL    HW1 4422   0.036   5.069   2.943 -0.2364  0.0566 -1.5688
  489SOL    HW2 4423  -0.050   5.191   2.919 -1.6571 -0.3920  0.8787
  490SOL     OW 4424   8.986   4.679   0.159  0.6013  0.1410  0.7027
  490SOL    HW1 4425   8.969   4.698   0.066  3.0631  0.4927  0.2521
  490SOL    HW2 4426   9.030   4.594   0.158  1.0371  0.3508  1.5008
  491SOL     OW 4427   5.502   4.393   1.892  0.0400  0.2636 -0.2530
  491SOL    HW1 4428   5.487   4.364   1.802 -0.1266  2.5274 -1.0126
  491SOL    HW2 4429   5.593   4.419   1.894 -0.1525  0.9190  0.0251
  492SOL     OW 4430   5.888   9.255   8.591 -0.3055 -0.0814  0.0199
  492SOL    HW1 4431   5.814   9.203   8.622 -0.4967 -0.0973 -0.4529
  492SOL    HW2 4432   5.849   9.332   8.551 -0.0347  0.2675  0.4195
  493SOL     OW 4433   2.855   8.478   2.945  0.1232  0.2989  0.0628
  493SOL    HW1 4434   2.819   8.416   3.009  1.5417  0.5310  1.1353
  493SOL    HW2 4435   2.781   8.533   2.921 -0.9502 -1.1973 -0.2013
  494SOL     OW 4436   7.498   0.486   8.168  0.1344  0.1428  0.1127
  494SOL    HW1 4437   7.458   0.534   8.240 -0.2435  0.0285 -0.0210
  494SOL    HW2 4438   7.479   0.394   8.186  0.3468  0.0863  0.0562
  495SOL     OW 4439   8.640  10.629   7.572  0.2038 -0.4546  0.1728
  495SOL    HW1 4440   8.579  10.667   7.510 -1.8143 -1.0602  1.6753
  495SOL    HW2 4441   8.662  10.700   7.632  2.4634  0.2375 -1.3546
  496SOL     OW 4442   3.760   5.129   3.468 -0.2714  0.8223 -0.2876
  496SOL    HW1 4443   3.815   5.055   3.445  1.8059  2.1682  0.0310
  496SOL    HW2 4444   3.725   5.161   3.385 -1.7412 -0.8542 -0.3644
  497SOL     OW 4445   4.566   5.373   4.852  0.2135 -0.0822 -0.0837
  497SOL    HW1 4446   4.611   5.449   4.815  1.4251 -0.8326 -0.1862
  497SOL    HW2 4447   4.477   5.380   4.818 -0.3552  2.4835  1.6303
  498SOL     OW 4448   2.600   6.672   8.712  0.3807  0.5942  0.2666
  498SOL    HW1 4449   2.558   6.656   8.627  0.5700 -0.6911  0.4017
  498SOL    HW2 4450   2.689   6.699   8.690  1.1329 -1.8450  0.0476
  499SOL     OW 4451   0.464   7.840   6.556 -0.6187 -0.8369  0.5896
  499SOL    HW1 4452   0.540   7.782   6.543  0.2692  0.6729 -1.4986
  499SOL    HW2 4453   0.501   7.924   6.581 -1.6517 -0.2571  0.2500
  500SOL     OW 4454   9.195   9.153   7.164 -0.3106 -0.4232  0.2030
  500SOL    HW1 4455   9.179   9.171   7.257 -0.2708 -0.6313  0.2501
  500SOL    HW2 4456   9.287   9.129   7.160  0.2705  1.6474 -0.1905
  501SOL     OW 4457   7.945   7.014   8.568 -0.7681 -0.1719  0.3910
  501SOL    HW1 4458   8.025   6.964   8.587 -0.9295 -1.0137 -0.9871
  501SOL    HW2 4459   7.975   7.086   8.513 -1.1159 -1.4644 -1.6151
  502SOL     OW 4460   0.583  10.599   5.513  0.1071  0.1409 -0.4228
  502SOL    HW1 4461   0.494  10.564   5.505  0.1005  0.3225 -1.1971
  502SOL    HW2 4462   0.580  10.653   5.592 -0.3774 -0.1302 -0.2527
  503SOL     OW 4463   0.677   3.089   7.765 -0.6423  0.5414 -0.1819
  503SOL    HW1 4464   0.588   3.117   7.745 -1.2968 -0.7343  0.8029
  503SOL    HW2 4465   0.733   3.158   7.728 -2.0404  1.5929 -0.4098
  504SOL     OW 4466   0.804   1.132   1.222 -0.5205 -0.2801  0.5286
  504SOL    HW1 4467   0.835   1.141   1.312  1.5569 -0.4036 -0.1205
  504SOL    HW2 4468   0.773   1.220   1.199  0.4595  0.1786  0.8727
  505SOL     OW 4469   1.462   7.838   7.352  0.1890  0.2962  0.0275
  505SOL    HW1 4470   1.426   7.926   7.338  0.9529  0.7582  0.8880
  505SOL    HW2 4471   1.386   7.784   7.372 -0.2694  0.7940 -0.3307
  506SOL     OW 4472   8.744   6.145   6.002 -0.1352  0.5686  0.0583
  506SOL    HW1 4473   8.696   6.136   6.084  0.9458 -1.5141  0.5494
  506SOL    HW2 4474   8.696   6.211   5.953 -1.6805  0.7893  1.7529
  507SOL     OW 4475  10.553   2.002   0.181 -0.2377 -0.1284 -0.6979
  507SOL    HW1 4476  10.527   2.093   0.198 -1.4688 -0.5400 -0.3032
  507SOL    HW2 4477  10.584   2.003   0.091  0.6341  0.8624 -0.4091
  508SOL     OW 4478   0.409   2.057   1.570 -0.5786  0.6472  0.6299
  508SOL    HW1 4479   0.328   2.007   1.582 -1.0459  1.3210  0.3366
  508SOL    HW2 4480   0.439   2.076   1.659 -0.7435  0.4004  0.7401
  509SOL     OW 4481   6.083   5.646   0.724 -0.2133  0.3655 -0.1100
  509SOL    HW1 4482   6.168   5.616   0.692 -1.0461 -1.3459 -0.8479
  509SOL    HW2 4483   6.082   5.620   0.816 -0.5876 -1.2229 -0.5324
  510SOL     OW 4484  10.502   8.020   8.396  0.4080 -0.2812  0.5950
  510SOL    HW1 4485  10.589   8.048   8.424  0.4995 -0.0168  0.0703
  510SOL    HW2 4486  10.504   7.924   8.401  1.1983 -0.3638 -0.6966
  511SOL     OW 4487   3.625  10.261   3.361 -0.4151  0.3564 -0.1735
  511SOL    HW1 4488   3.612  10.323   3.290 -3.2415 -0.2250 -0.2817
  511SOL    HW2 4489   3.565  10.189   3.342  1.5966 -1.6949  0.7844
  512SOL     OW 4490   9.222   7.364   6.875  0.4949  0.4574  0.1261
  512SOL    HW1 4491   9.177   7.442   6.905  1.3588  1.7460 -1.6965
  512SOL    HW2 4492   9.151   7.305   6.848 -0.1959  1.7806 -1.1464
  513SOL     OW 4493   9.593   2.942   0.204  0.1917 -0.2813 -0.3392
  513SOL    HW1 4494   9.560   2.894   0.281 -0.1949  0.2150 -0.1914
  513SOL    HW2 4495   9.516   2.986   0.169  0.3809 -0.4521 -0.9816
  514SOL     OW 4496   5.496  10.192  10.355 -0.3750  0.0332  0.1416
  514SOL    HW1 4497   5.427  10.258  10.366  1.3533  2.1477 -0.8451
  514SOL    HW2 4498   5.556  10.209  10.429 -0.7360 -1.6134  0.8524
  515SOL     OW 4499   7.560   7.518   9.628  0.1567  0.2085 -0.4495
  515SOL    HW1 4500   7.513   7.443   9.665  1.2990 -0.0753  0.5121
  515SOL    HW2 4501   7.577   7.574   9.704  0.7438  0.6418 -0.8958
  516SOL     OW 4502   0.856   6.705   6.659 -0.1029  0.0329 -0.2349
  516SOL    HW1 4503   0.775   6.753   6.679 -0.1515 -0.2630  0.2844
  516SOL    HW2 4504   0.834   6.613   6.674  0.3844 -0.0329  0.1008
  517SOL     OW 4505   8.444   4.283   8.063  0.1559  0.4745 -0.3299
  517SOL    HW1 4506   8.497   4.234   7.999  0.4552 -1.9087  1.5841
  517SOL    HW2 4507   8.500   4.357   8.089  0.8162  0.3578 -1.3710
  518SOL     OW 4508   1.584   7.478   5.363 -0.3189  0.0879  0.0245
  518SOL    HW1 4509   1.559   7.561   5.323  0.1118 -0.0530 -0.5624
  518SOL    HW2 4510   1.503   7.441   5.397 -0.4979  0.7850  0.3648
  519SOL     OW 4511   3.468   5.235   2.725  0.3787  0.1675  0.5416
  519SOL    HW1 4512   3.534   5.291   2.684 -1.4715  3.0505  1.1371
  519SOL    HW2 4513   3.461   5.159   2.668  2.3890  0.9743 -0.8928
  520SOL     OW 4514   1.743   3.740  10.219  0.0652  0.0205 -0.0224
  520SOL    HW1 4515   1.808   3.791  10.267  0.6212  0.3362 -1.0762
  520SOL    HW2 4516   1.791   3.705  10.144 -1.1068  0.7872 -1.1729
  521SOL     OW 4517   2.784   7.310  10.527 -0.4394 -0.1254  0.1884
  521SOL    HW1 4518   2.838   7.304  10.448 -0.1452 -0.2362  0.3957
  521SOL    HW2 4519   2.721   7.239  10.519 -0.7676  0.2021 -0.2107
  522SOL     OW 4520   7.599   8.295   6.588  0.3975 -0.4124 -0.2281
  522SOL    HW1 4521   7.645   8.321   6.667 -1.7110  2.7392  0.1149
  522SOL    HW2 4522   7.517   8.257   6.619 -1.3837  2.7009 -0.7082
  523SOL     OW 4523   8.823   9.134   5.679 -0.5229 -0.2692 -0.4034
  523SOL    HW1 4524   8.813   9.039   5.678  0.9154 -0.4367 -0.2826
  523SOL    HW2 4525   8.802   9.160   5.769  0.6752 -0.6819  0.0149
  524SOL     OW 4526   3.780   8.815   2.253 -0.0226  0.0910 -0.6904
  524SOL    HW1 4527   3.701   8.788   2.205 -0.7001  1.3021 -0.2983
  524SOL    HW2 4528   3.815   8.733   2.288 -0.4494 -0.6118 -1.8391
  525SOL     OW 4529   5.443   6.924   7.245 -0.1791 -0.3406  0.0078
  525SOL    HW1 4530   5.504   6.866   7.200  0.6007  1.0839 -0.8301
  525SOL    HW2 4531   5.428   6.996   7.184 -0.3740  0.8257  1.3648
  526SOL     OW 4532   1.075   6.533   2.150 -0.0288 -0.6069 -0.0252
  526SOL    HW1 4533   1.000   6.565   2.201  0.4128  0.0100  0.2520
  526SOL    HW2 4534   1.045   6.450   2.113 -0.8611 -0.3543  0.0529
  527SOL     OW 4535   2.638  10.109   3.500  0.4552  0.3441  0.7035
  527SOL    HW1 4536   2.612  10.022   3.531  0.1372 -0.0415 -0.5794
  527SOL    HW2 4537   2.598  10.169   3.563 -1.3094 -0.3496  0.3183
  528SOL     OW 4538   5.288   5.750   5.686  0.0381 -0.1605 -0.1280
  528SOL    HW1 4539   5.329   5.712   5.608 -0.8252 -1.0704 -0.1544
  528SOL    HW2 4540   5.206   5.702   5.696 -1.1308  1.7138 -0.1610
  529SOL     OW 4541  10.489   2.318   6.076 -0.0392 -0.2357 -0.0439
  529SOL    HW1 4542  10.540   2.241   6.100 -0.0948  0.1616  1.4971
  529SOL    HW2 4543  10.400   2.297   6.104  0.0473  0.5763  0.8941
  530SOL     OW 4544   1.059   4.851   8.841  0.1467 -0.4789  0.0620
  530SOL    HW1 4545   1.034   4.760   8.858  1.6505 -0.9567 -0.1643
  530SOL    HW2 4546   1.052   4.894   8.926 -1.2116 -0.6212  0.0488
  531SOL     OW 4547   8.457   7.910   9.994 -0.1158  0.0916 -0.0773
  531SOL    HW1 4548   8.446   7.819  10.023  0.7536  0.5293  1.7648
  531SOL    HW2 4549   8.551   7.922   9.988 -0.2126  0.9984  0.0854
  532SOL     OW 4550   3.638   3.135   7.448 -0.0946  0.5928 -0.0315
  532SOL    HW1 4551   3.626   3.187   7.527 -0.2071 -2.1960  1.9373
  532SOL    HW2 4552   3.721   3.167   7.411  1.3841  0.2765  2.7320
  533SOL     OW 4553   0.523   1.539   8.005 -0.2686  0.3658 -0.2752
  533SOL    HW1 4554   0.570   1.464   8.042 -0.1687  0.5476 -0.0331
  533SOL    HW2 4555   0.440   1.503   7.974 -0.5271  0.2885  0.4950
  534SOL     OW 4556   4.358   9.387   8.057  0.2980 -0.2235 -0.3827
  534SOL    HW1 4557   4.327   9.478   8.053 -0.3207 -0.4066 -0.0315
  534SOL    HW2 4558   4.407   9.382   8.140 -1.1350 -0.6254  0.4826
  535SOL     OW 4559   5.283   8.444   3.812  0.3302 -0.3264 -0.4385
  535SOL    HW1 4560   5.270   8.404   3.898  1.1938 -1.1506 -0.6721
  535SOL    HW2 4561   5.298   8.370   3.753 -0.5683  0.1983 -1.3725
  536SOL     OW 4562   8.034   9.937   0.614  0.4244 -0.3197  0.0208
  536SOL    HW1 4563   8.053   9.886   0.693  1.1438 -0.8020 -0.4630
  536SOL    HW2 4564   8.027   9.872   0.544 -0.4741  0.0839 -0.2755
  537SOL     OW 4565   3.032   7.128   3.971 -0.2264 -0.7888  0.3716
  537SOL    HW1 4566   2.997   7.215   3.948 -1.9646 -1.4479  0.3843
  537SOL    HW2 4567   3.118   7.147   4.010 -1.1582  1.0570  1.7222
  538SOL     OW 4568   2.261   5.963   2.493  0.3052  0.0376 -0.2499
  538SOL    HW1 4569   2.229   5.905   2.424 -0.6210 -0.7941  0.8241
  538SOL    HW2 4570   2.211   6.044   2.482  2.1462  1.0080 -2.2364
  539SOL     OW 4571   4.958   1.169   1.391  0.2574 -0.8427 -0.4894
  539SOL    HW1 4572   4.967   1.260   1.363  4.7761 -1.0219 -0.4159
  539SOL    HW2 4573   4.897   1.130   1.329  1.3116  1.3577 -3.1148
  540SOL     OW 4574   8.199   8.313   5.621 -0.3026  0.2986 -0.2003
  540SOL    HW1 4575   8.154   8.272   5.547 -0.5104  0.8563 -0.3881
  540SOL    HW2 4576   8.129   8.352   5.674 -0.0086  2.9990 -1.5867
  541SOL     OW 4577   7.016   4.712   6.835  0.6315  0.1187 -0.3859
  541SOL    HW1 4578   7.053   4.799   6.820  1.2408 -0.1933 -0.6952
  541SOL    HW2 4579   7.088   4.661   6.872  0.6004 -0.5644 -1.2481
  542SOL     OW 4580   0.314   4.144   7.929  0.1752 -0.1761  0.2186
  542SOL    HW1 4581   0.353   4.063   7.896  2.0223  0.6585  0.2204
  542SOL    HW2 4582   0.248   4.115   7.992  0.7082 -1.6837  0.1181
  543SOL     OW 4583  10.624   3.411   8.596  0.0036 -0.6212  0.2336
  543SOL    HW1 4584  10.658   3.356   8.667 -2.0368 -2.6144 -0.2220
  543SOL    HW2 4585  10.540   3.372   8.574 -1.2301  2.2838 -0.6742
  544SOL     OW 4586   2.247  10.394   7.767  0.5057  0.6852  0.2153
  544SOL    HW1 4587   2.215  10.389   7.857 -1.0540 -0.2772 -0.3347
  544SOL    HW2 4588   2.342  10.399   7.775  0.3460  1.7922  1.9264
  545SOL     OW 4589   7.763   1.546   9.297  0.0533  0.4531  0.1308
  545SOL    HW1 4590   7.695   1.611   9.281  0.4415  1.2239  1.4631
  545SOL    HW2 4591   7.720   1.462   9.282 -0.8673  0.9682 -0.1874
  546SOL     OW 4592   3.735   0.387   1.838  0.0618 -0.3346  0.2493
  546SOL    HW1 4593   3.794   0.380   1.762  0.3805  0.5647  0.4072
  546SOL    HW2 4594   3.759   0.469   1.879 -1.9207  0.5080 -0.1727
  547SOL     OW 4595   0.943   5.675   6.247  0.1721 -0.0102 -0.0293
  547SOL    HW1 4596   0.989   5.659   6.165  0.8349 -1.0683  0.5315
  547SOL    HW2 4597   1.011   5.696   6.310 -0.4200  1.8825  0.0287
  548SOL     OW 4598   9.575   0.558   6.066  0.8643  0.4664 -0.3435
  548SOL    HW1 4599   9.595   0.528   5.977 -0.1328  0.8897 -0.7242
  548SOL    HW2 4600   9.627   0.501   6.122 -0.9036 -2.0241 -1.0216
  549SOL     OW 4601   0.350   5.050   3.604 -0.0865 -0.3019 -0.5511
  549SOL    HW1 4602   0.398   4.968   3.592 -0.7236 -0.8081  0.2139
  549SOL    HW2 4603   0.300   5.037   3.685  0.8331  1.3575  0.3281
  550SOL     OW 4604   9.728   2.470   8.356 -0.1374  0.2878 -0.1175
  550SOL    HW1 4605   9.740   2.546   8.298 -1.7578  0.6051 -0.0724
  550SOL    HW2 4606   9.634   2.464   8.369  0.1395  0.1428  2.3937
  551SOL     OW 4607   0.394   4.475   5.244 -0.1062 -0.2514 -0.4187
  551SOL    HW1 4608   0.399   4.530   5.166  0.6441 -1.3184 -1.1487
  551SOL    HW2 4609   0.470   4.499   5.296 -1.9736  2.3720  1.3608
  552SOL     OW 4610   0.460   6.201   1.498  0.1601 -0.1371 -0.3623
  552SOL    HW1 4611   0.474   6.109   1.478  1.1319  0.1165 -0.8688
  552SOL    HW2 4612   0.511   6.217   1.577  0.6805  0.1685 -0.7557
  553SOL     OW 4613   5.571   3.712   5.460  0.6005 -0.3945  0.1659
  553SOL    HW1 4614   5.603   3.713   5.551 -0.1638 -0.9929  0.4570
  553SOL    HW2 4615   5.476   3.717   5.469  0.4108 -2.0825 -0.5196
  554SOL     OW 4616   8.122   6.051   1.880  0.0744 -0.2332  0.5797
  554SOL    HW1 4617   8.209   6.024   1.911  0.4998  1.7951  1.2956
  554SOL    HW2 4618   8.112   6.141   1.912 -1.9840 -0.1538 -0.1518
  555SOL     OW 4619   4.163  10.617   3.432 -0.3592 -0.1376 -0.2773
  555SOL    HW1 4620   4.096  10.609   3.364  0.2479  3.1094 -1.4501
  555SOL    HW2 4621   4.125  10.675   3.497 -0.3382 -1.9745  1.4820
  556SOL     OW 4622   1.036  10.614   8.489  0.0259  0.1257  0.2653
  556SOL    HW1 4623   0.955  10.629   8.538  0.1841  1.6676  0.0978
  556SOL    HW2 4624   1.105  10.633   8.553  0.2672 -0.8283  0.3001
  557SOL     OW 4625   9.061   5.609  10.366  0.0723 -0.2544  0.5220
  557SOL    HW1 4626   9.017   5.539  10.319  1.7020 -1.5805  0.8618
  557SOL    HW2 4627   9.154   5.584  10.365  0.7034  1.8428  0.7613
  558SOL     OW 4628   5.898   6.896   5.685 -0.6655 -0.0566  0.8655
  558SOL    HW1 4629   5.956   6.820   5.680 -0.2192  0.3475 -0.5594
  558SOL    HW2 4630   5.920   6.938   5.769  0.5757 -0.3266  0.6879
  559SOL     OW 4631   3.916   6.779   1.647  0.4370 -0.1810  0.3976
  559SOL    HW1 4632   3.976   6.719   1.604  0.6661 -0.2102  0.7572
  559SOL    HW2 4633   3.939   6.774   1.740  2.0034  2.1527  0.2118
  560SOL     OW 4634   9.706   2.155   7.684 -0.0644 -0.7206 -0.1007
  560SOL    HW1 4635   9.699   2.136   7.590 -1.8492 -1.7235  0.1983
  560SOL    HW2 4636   9.702   2.069   7.726  1.1043 -0.3138  0.9151
  561SOL     OW 4637   3.712   0.174   3.235  0.5587  0.1759 -0.4912
  561SOL    HW1 4638   3.706   0.200   3.327 -0.4253 -0.0166 -0.4826
  561SOL    HW2 4639   3.805   0.156   3.221  0.8509  1.0653  0.2184
  562SOL     OW 4640   9.464   7.511   1.045 -0.7220  0.6413  0.3370
  562SOL    HW1 4641   9.555   7.481   1.043 -0.6934  0.7152  0.5679
  562SOL    HW2 4642   9.415   7.440   1.004 -0.5504  0.6368  0.1365
  563SOL     OW 4643   4.387   8.630   7.831 -0.2133 -0.0717  0.0762
  563SOL    HW1 4644   4.320   8.586   7.779  0.6895 -1.5638  0.1132
  563SOL    HW2 4645   4.383   8.588   7.917  0.7814 -0.2180  0.0662
  564SOL     OW 4646   8.735   8.418   9.305 -0.2174 -0.2994  1.0911
  564SOL    HW1 4647   8.829   8.434   9.304 -0.5169  1.6933  1.2080
  564SOL    HW2 4648   8.718   8.368   9.224  0.7760  0.3920  0.4316
  565SOL     OW 4649  10.102   4.007   8.103 -0.0717 -0.0813  0.8345
  565SOL    HW1 4650  10.158   4.084   8.110 -0.9470  0.7609 -0.9195
  565SOL    HW2 4651  10.013   4.040   8.112 -0.5152 -0.6840 -0.9381
  566SOL     OW 4652   7.712   3.844   6.267  0.0379  0.2097  0.9409
  566SOL    HW1 4653   7.639   3.826   6.208 -0.1033  1.0781  0.8259
  566SOL    HW2 4654   7.741   3.932   6.242  1.4721 -0.3270  0.6256
  567SOL     OW 4655   5.439  10.444   7.394 -0.6695 -0.3294 -0.0303
  567SOL    HW1 4656   5.528  10.448   7.427  0.1048 -4.8150 -0.8432
  567SOL    HW2 4657   5.395  10.380   7.450 -2.9158  0.5709 -0.6324
  568SOL     OW 4658   1.933   5.435   5.971  0.5828 -0.0594 -0.6199
  568SOL    HW1 4659   2.009   5.445   5.914  2.2851  0.0035  1.5396
  568SOL    HW2 4660   1.934   5.342   5.996 -0.5960 -0.2607 -1.2616
  569SOL     OW 4661   3.167   7.690   3.151  0.4547 -0.3357  1.1838
  569SOL    HW1 4662   3.246   7.713   3.201 -0.8713  0.7284  2.8995
  569SOL    HW2 4663   3.139   7.773   3.112  0.8567 -0.9541 -0.5048
  570SOL     OW 4664  10.110   6.692   7.821  0.4858 -0.0542 -0.3838
  570SOL    HW1 4665  10.053   6.697   7.898  0.8714  0.1833 -0.1102
  570SOL    HW2 4666  10.104   6.601   7.792 -1.2574  0.3048 -1.2936
  571SOL     OW 4667   9.883   1.235   2.108  0.2928  0.4191 -0.2705
  571SOL    HW1 4668   9.965   1.252   2.062 -0.2210 -0.4913 -1.5836
  571SOL    HW2 4669   9.853   1.151   2.073 -0.5080  0.0472  1.2102
  572SOL     OW 4670   2.658   1.444   9.997  0.3174  0.2010 -0.3020
  572SOL    HW1 4671   2.708   1.520  10.025 -0.3792  0.2203  0.9673
  572SOL    HW2 4672   2.722   1.373   9.992  0.6524  0.4485  0.3489
  573SOL     OW 4673   5.871   5.492   3.935 -0.3403  0.3963  0.1129
  573SOL    HW1 4674   5.916   5.461   4.013  1.2523  1.7650 -0.2183
  573SOL    HW2 4675   5.907   5.439   3.863 -1.9470 -1.0010  0.2750
  574SOL     OW 4676  10.429   8.415   1.001 -0.1496  0.1254  0.2728
  574SOL    HW1 4677  10.362   8.482   0.989  0.2332  0.3178 -0.9376
  574SOL    HW2 4678  10.511   8.464   1.005 -0.0996  0.0023  2.8620
  575SOL     OW 4679   3.483   6.474   3.057  0.6525 -0.5897  0.2466
  575SOL    HW1 4680   3.433   6.472   2.975  1.5154 -0.9580 -0.2822
  575SOL    HW2 4681   3.504   6.382   3.073  1.2860 -0.4238  0.3818
  576SOL     OW 4682   1.971   5.120   0.262  0.4643 -0.1924  0.3758
  576SOL    HW1 4683   1.922   5.077   0.192 -1.5297  1.9912  0.3255
  576SOL    HW2 4684   2.053   5.146   0.221 -0.7419  1.2127 -1.3000
  577SOL     OW 4685   6.816   2.796   9.432 -0.0859 -0.0928 -0.1510
  577SOL    HW1 4686   6.737   2.849   9.446  0.2252  0.3607 -0.0903
  577SOL    HW2 4687   6.859   2.838   9.358  1.0218  0.7518  0.9470
  578SOL     OW 4688  10.447   8.708   3.390 -0.2661 -0.6319  0.2780
  578SOL    HW1 4689  10.448   8.626   3.440  3.6360  0.4050  2.2914
  578SOL    HW2 4690  10.469   8.681   3.301  0.8595 -1.8111  0.8823
  579SOL     OW 4691   3.964   1.692   0.679  0.4115 -0.2043  0.1776
  579SOL    HW1 4692   3.878   1.725   0.652  1.7075  2.2037 -1.4187
  579SOL    HW2 4693   3.974   1.610   0.632 -0.9433 -0.4211  0.2408
  580SOL     OW 4694   1.329   9.990   4.866  0.5535  0.1009 -0.3201
  580SOL    HW1 4695   1.413  10.035   4.873  0.1450  0.6335  1.4811
  580SOL    HW2 4696   1.267  10.059   4.840  0.5558 -0.1778 -1.0932
  581SOL     OW 4697   0.941   4.940   1.724  0.3308 -0.1442  0.2464
  581SOL    HW1 4698   0.887   5.017   1.708  0.9457  0.4829  1.0869
  581SOL    HW2 4699   0.905   4.872   1.667 -1.4438  0.1994  0.9087
  582SOL     OW 4700   1.607   5.537   5.801 -0.4042  0.8818 -0.1965
  582SOL    HW1 4701   1.550   5.464   5.824 -1.2480  0.8112 -2.3464
  582SOL    HW2 4702   1.547   5.607   5.776  0.4272  1.9361  0.6534
  583SOL     OW 4703   9.601   8.258   8.962  0.7296  0.1573  0.2457
  583SOL    HW1 4704   9.560   8.225   9.041 -2.3819  0.6671 -1.0164
  583SOL    HW2 4705   9.639   8.181   8.920 -0.0606 -0.5822  0.8674
  584SOL     OW 4706   8.466   4.554   6.462 -0.3261  0.5385  0.3060
  584SOL    HW1 4707   8.467   4.505   6.544  0.8231 -1.8231 -1.0154
  584SOL    HW2 4708   8.373   4.566   6.442 -0.7515 -2.5958 -0.0620
  585SOL     OW 4709   9.338   7.607   2.502 -0.2597  0.0267  0.2928
  585SOL    HW1 4710   9.286   7.530   2.526  0.2667 -1.2163 -2.1580
  585SOL    HW2 4711   9.347   7.600   2.407  0.1713  2.9332  0.0278
  586SOL     OW 4712   8.181   8.309   1.555  0.0651  0.5343 -0.2642
  586SOL    HW1 4713   8.119   8.313   1.628  0.5445  0.0003  0.1716
  586SOL    HW2 4714   8.129   8.275   1.482 -0.4226  1.0951 -0.1906
  587SOL     OW 4715   7.130   8.576   9.662 -0.5473  0.3401 -0.0592
  587SOL    HW1 4716   7.124   8.671   9.662  1.7251  0.5302 -0.3449
  587SOL    HW2 4717   7.136   8.552   9.570  2.0194  0.2381  0.0686
  588SOL     OW 4718   3.263   0.873   4.002  0.3137 -1.1871  0.4553
  588SOL    HW1 4719   3.243   0.815   4.075 -0.0850 -1.6665 -0.0281
  588SOL    HW2 4720   3.356   0.895   4.013  0.0164 -0.4438  1.6628
  589SOL     OW 4721   6.923   9.929   9.983  0.1457  0.2563  0.3765
  589SOL    HW1 4722   6.940   9.935  10.077  0.3868 -1.3302  0.4588
  589SOL    HW2 4723   6.829   9.910   9.977 -0.0037  1.0084  0.2588
  590SOL     OW 4724   2.179  10.001   0.169  0.4588 -0.3883  0.0046
  590SOL    HW1 4725   2.139  10.052   0.239 -0.6778  0.2400 -1.0747
  590SOL    HW2 4726   2.207  10.065   0.105 -0.5920 -1.0592 -1.1707
  591SOL     OW 4727   0.014   6.567   6.324  0.0260 -0.2444 -0.5794
  591SOL    HW1 4728  -0.072   6.609   6.319  0.2638  0.3852  0.2788
  591SOL    HW2 4729   0.064   6.622   6.385  1.1461 -0.4081 -1.3195
  592SOL     OW 4730   6.122  10.481   7.637  0.3059 -0.3151  0.0589
  592SOL    HW1 4731   6.112  10.472   7.731 -2.2690  0.6061 -0.0589
  592SOL    HW2 4732   6.103  10.574   7.620  0.3090 -0.5607 -1.4094
  593SOL     OW 4733   6.353   4.090   7.714  0.0304 -0.4221  0.3263
  593SOL    HW1 4734   6.355   4.105   7.808 -0.2662 -0.4968  0.3473
  593SOL    HW2 4735   6.435   4.127   7.681  0.4476 -1.0005  0.7015
  594SOL     OW 4736   3.875   8.419   0.067  0.1064  0.0676 -0.6796
  594SOL    HW1 4737   3.856   8.473  -0.009 -0.1868 -0.5005 -1.0198
  594SOL    HW2 4738   3.950   8.366   0.041 -0.4936 -0.7105 -0.8900
  595SOL     OW 4739   6.426   6.921   0.763 -0.3912 -0.3727  0.5115
  595SOL    HW1 4740   6.504   6.872   0.738 -1.1868 -0.7348 -1.4157
  595SOL    HW2 4741   6.442   7.010   0.732 -0.7075 -0.4366  0.1520
  596SOL     OW 4742   2.233   3.966   9.650 -0.0600 -0.2372 -0.0516
  596SOL    HW1 4743   2.240   4.061   9.638  0.9973 -0.2976 -0.0342
  596SOL    HW2 4744   2.143   3.945   9.626 -0.3329  0.7853  0.0379
  597SOL     OW 4745   4.501   7.219   1.817  0.1344  0.7169  0.4717
  597SOL    HW1 4746   4.411   7.245   1.796 -0.4937 -1.3763  0.4191
  597SOL    HW2 4747   4.555   7.261   1.749 -1.0807 -0.0585 -1.0202
  598SOL     OW 4748   7.477   4.730   5.799 -0.4907 -0.1702  0.0684
  598SOL    HW1 4749   7.395   4.771   5.773 -1.4917 -1.0576  1.6640
  598SOL    HW2 4750   7.460   4.694   5.886  1.7719  0.1289  0.7155
  599SOL     OW 4751   8.495   6.675   0.036 -1.1587 -0.4985  0.0172
  599SOL    HW1 4752   8.489   6.664   0.131 -0.7317  1.0874  0.2549
  599SOL    HW2 4753   8.491   6.770   0.023 -1.1447 -0.6950 -1.5531
  600SOL     OW 4754  10.130   6.025   6.255 -0.1028 -0.0343 -0.3595
  600SOL    HW1 4755  10.047   6.073   6.262 -0.3813 -0.2934 -1.5679
  600SOL    HW2 4756  10.197   6.089   6.278 -0.6792 -0.1521  1.8637
  601SOL     OW 4757   0.199   0.574   2.885 -0.0060 -0.1927  0.3611
  601SOL    HW1 4758   0.282   0.569   2.836 -0.3637  0.0111 -0.2752
  601SOL    HW2 4759   0.166   0.662   2.868 -0.0476 -0.0573  1.1292
  602SOL     OW 4760   7.116   2.782   2.743  0.3468  0.2291  0.4103
  602SOL    HW1 4761   7.033   2.822   2.718  0.0454 -0.5039  0.2111
  602SOL    HW2 4762   7.149   2.741   2.663  0.9161  0.5275  0.4810
  603SOL     OW 4763   6.076   6.599   2.182  0.4609  0.0203 -0.2623
  603SOL    HW1 4764   6.029   6.682   2.176  0.2897 -0.1349 -1.1920
  603SOL    HW2 4765   6.148   6.616   2.242  0.8428  1.0467 -0.9952
  604SOL     OW 4766   7.291   7.912   0.515  0.5207  0.0367 -0.0292
  604SOL    HW1 4767   7.248   7.868   0.442 -0.9213  1.0319  0.1906
  604SOL    HW2 4768   7.375   7.941   0.479 -0.2146  0.6194 -1.3405
  605SOL     OW 4769   9.451   6.620   6.915 -0.0275 -0.3121  0.6081
  605SOL    HW1 4770   9.366   6.653   6.884 -0.5800 -0.6639  1.6884
  605SOL    HW2 4771   9.442   6.525   6.913  0.9548 -0.3970 -0.8564
  606SOL     OW 4772   4.509  10.243   4.399 -0.0815 -0.1922 -0.2047
  606SOL    HW1 4773   4.418  10.267   4.413 -0.5162 -1.2115 -1.1540
  606SOL    HW2 4774   4.505  10.154   4.364  1.2666 -0.1379 -0.5424
  607SOL     OW 4775   0.082   6.270   4.006  0.4099  0.7497  0.3185
  607SOL    HW1 4776   0.099   6.195   3.949  0.7524 -0.3015  1.7390
  607SOL    HW2 4777   0.143   6.337   3.977  1.6869 -0.3172  0.4282
  608SOL     OW 4778   7.144   0.299   6.113 -0.3401  0.2511  0.2330
  608SOL    HW1 4779   7.216   0.330   6.058 -1.0422 -0.5088 -1.1629
  608SOL    HW2 4780   7.090   0.377   6.128 -1.2563  0.0906 -1.9387
  609SOL     OW 4781   0.719   0.961   7.973 -0.3317  0.8031 -0.1587
  609SOL    HW1 4782   0.786   0.953   8.040  0.2755 -0.2555 -0.8577
  609SOL    HW2 4783   0.644   0.914   8.008  0.2195 -0.3699 -0.4829
  610SOL     OW 4784   6.622   8.830   1.009 -0.0617  0.5986  0.6636
  610SOL    HW1 4785   6.671   8.782   0.942 -1.9684  1.4869 -1.4845
  610SOL    HW2 4786   6.552   8.770   1.035 -1.0016  1.2556 -0.2621
  611SOL     OW 4787   1.399   4.100   7.730 -0.1441 -0.6462 -0.1558
  611SOL    HW1 4788   1.407   4.018   7.778 -0.0344 -0.1511  0.6951
  611SOL    HW2 4789   1.329   4.148   7.774 -0.0936 -0.2108 -0.5351
  612SOL     OW 4790   2.148   7.670   2.327  0.0082  0.4212 -0.0438
  612SOL    HW1 4791   2.213   7.671   2.398  1.2837 -0.9848 -1.1472
  612SOL    HW2 4792   2.107   7.584   2.333 -0.0559  0.3927 -0.8707
  613SOL     OW 4793   1.545   9.147   7.309  0.2955  0.5359 -0.0673
  613SOL    HW1 4794   1.541   9.183   7.221 -0.8057  1.6649  0.3999
  613SOL    HW2 4795   1.638   9.149   7.332  0.6378 -0.1127 -1.3085
  614SOL     OW 4796   3.524   2.503   4.177 -0.4814  0.0988  0.0405
  614SOL    HW1 4797   3.439   2.543   4.191 -1.2723 -1.0314 -1.2336
  614SOL    HW2 4798   3.586   2.576   4.179 -1.6920  1.1886 -0.8039
  615SOL     OW 4799   4.479   2.024   0.682 -0.1560  0.4024 -1.0557
  615SOL    HW1 4800   4.494   1.941   0.727  1.5666 -0.1637 -2.5498
  615SOL    HW2 4801   4.519   2.090   0.738 -0.2045  0.0277 -0.5788
  616SOL     OW 4802   8.389   9.049   9.575 -0.3897  0.2501  0.7950
  616SOL    HW1 4803   8.353   8.960   9.575 -1.3459  0.6040  2.4410
  616SOL    HW2 4804   8.338   9.095   9.641 -0.3388  2.2163 -0.4589
  617SOL     OW 4805   7.207   2.445   0.897  0.0589 -0.0577  0.1610
  617SOL    HW1 4806   7.155   2.377   0.938 -1.6550  1.9860  1.6274
  617SOL    HW2 4807   7.274   2.466   0.962 -1.1578  1.5060  0.9824
  618SOL     OW 4808   7.380   4.913   8.541 -0.6371  0.0081 -0.0055
  618SOL    HW1 4809   7.377   4.829   8.588  0.4645 -0.3499 -0.5448
  618SOL    HW2 4810   7.354   4.891   8.452  0.9432 -0.0352 -0.4850
  619SOL     OW 4811  10.234   4.475   2.936 -0.7897  0.3504 -0.6294
  619SOL    HW1 4812  10.261   4.540   3.001 -1.2845 -1.5835  1.6645
  619SOL    HW2 4813  10.138   4.474   2.941 -0.7668 -1.1069  0.0001
  620SOL     OW 4814   2.643   8.758   5.398  0.5196 -0.0367 -0.1877
  620SOL    HW1 4815   2.630   8.812   5.476 -1.6771  0.8065 -1.0602
  620SOL    HW2 4816   2.728   8.784   5.365  0.7996  0.7290  1.0636
  621SOL     OW 4817   5.799   2.506   3.984 -0.5305 -0.2081 -0.0044
  621SOL    HW1 4818   5.867   2.558   3.941 -0.1529  0.0712  0.9069
  621SOL    HW2 4819   5.813   2.417   3.952  0.6339 -0.2572  0.5844
  622SOL     OW 4820   2.365   5.649   6.733  0.1352  0.1246  0.3203
  622SOL    HW1 4821   2.397   5.736   6.757 -0.1699  0.0365  1.0695
  622SOL    HW2 4822   2.296   5.666   6.669 -2.1214  0.6734  2.7200
  623SOL     OW 4823   2.811   2.406   3.750  0.1435  0.7582 -0.4919
  623SOL    HW1 4824   2.823   2.422   3.844 -0.9699 -2.1894  0.2773
  623SOL    HW2 4825   2.739   2.463   3.725 -0.2740  0.8129  0.7411
  624SOL     OW 4826   1.153   0.852  10.423 -0.3583  0.0497  0.0827
  624SOL    HW1 4827   1.058   0.842  10.428 -0.2200 -1.1380  0.8265
  624SOL    HW2 4828   1.180   0.786  10.359 -0.1500  1.3651 -1.2217
  625SOL     OW 4829   6.431   9.901   9.356 -0.0012 -0.3603  0.0703
  625SOL    HW1 4830   6.365   9.971   9.353 -0.9887 -1.2571  0.2790
  625SOL    HW2 4831   6.460   9.892   9.266  0.8205  0.9327  0.1784
  626SOL     OW 4832   2.849   6.021   9.301 -0.1988 -0.6509  0.0056
  626SOL    HW1 4833   2.937   5.985   9.313 -0.6062 -1.0358  2.3446
  626SOL    HW2 4834   2.848   6.051   9.210  2.3770 -0.5186 -0.0696
  627SOL     OW 4835   5.142   2.194   5.882  0.2527 -0.3173 -0.1717
  627SOL    HW1 4836   5.109   2.259   5.945  1.4589  0.2286 -0.0569
  627SOL    HW2 4837   5.066   2.141   5.859 -0.6334  0.7519  0.2143
  628SOL     OW 4838   1.459   6.418   9.021 -1.1425 -0.2675 -0.0824
  628SOL    HW1 4839   1.553   6.434   9.030 -1.0956 -1.2192  1.4404
  628SOL    HW2 4840   1.445   6.409   8.926  0.8846 -3.2277 -0.2581
  629SOL     OW 4841   8.123   7.055   3.705 -0.4920  0.5478 -0.1442
  629SOL    HW1 4842   8.152   7.145   3.719  0.6179  0.1089  0.5143
  629SOL    HW2 4843   8.192   7.001   3.744 -1.6748 -0.5710  0.4983
  630SOL     OW 4844   0.142   4.209   1.175  0.1641 -0.2129 -0.2887
  630SOL    HW1 4845   0.122   4.253   1.258 -0.7339 -0.7310 -0.2168
  630SOL    HW2 4846   0.200   4.137   1.199 -0.0403 -0.3206 -0.1105
  631SOL     OW 4847   4.900   9.243   6.496  0.6914 -0.1457 -0.3243
  631SOL    HW1 4848   4.916   9.170   6.556  1.6073 -2.1936 -2.8419
  631SOL    HW2 4849   4.985   9.285   6.485  0.1067  1.5874  1.3474
  632SOL     OW 4850   6.802   3.194   7.322 -0.0012 -0.1787 -0.2894
  632SOL    HW1 4851   6.733   3.137   7.357  0.0165  0.2193  0.4065
  632SOL    HW2 4852   6.824   3.253   7.394  0.4855  0.2453 -0.7729
  633SOL     OW 4853   9.424   3.096   1.153 -0.2959  0.2437 -0.4035
  633SOL    HW1 4854   9.400   3.112   1.062 -1.7107 -1.5667 -0.4003
  633SOL    HW2 4855   9.500   3.153   1.168  0.1542  0.3683 -2.7816
  634SOL     OW 4856   7.709   7.555   1.655  0.4507 -0.1294  0.0537
  634SOL    HW1 4857   7.720   7.463   1.631  0.5665 -0.2310  0.4832
  634SOL    HW2 4858   7.775   7.570   1.722  1.4424  0.6767 -1.0693
  635SOL     OW 4859   7.767   5.077  10.593 -0.3950 -0.0990  0.3192
  635SOL    HW1 4860   7.696   5.013  10.585 -1.8962  1.3720  1.2623
  635SOL    HW2 4861   7.835   5.031  10.643  0.2693 -2.2279 -2.2961
  636SOL     OW 4862   2.796   6.431   7.762 -0.0113 -0.3877  0.0245
  636SOL    HW1 4863   2.758   6.346   7.741  0.7861 -1.1187  1.3838
  636SOL    HW2 4864   2.856   6.450   7.690 -0.5724 -0.7331 -0.5364
  637SOL     OW 4865   3.345   3.802   9.846 -0.6402 -0.1765  0.2774
  637SOL    HW1 4866   3.280   3.856   9.802 -1.4136 -1.5669 -0.3387
  637SOL    HW2 4867   3.298   3.724   9.873  0.7144 -1.1011  0.0725
  638SOL     OW 4868  10.457   7.494   0.261 -0.2993  0.4628 -0.4401
  638SOL    HW1 4869  10.545   7.530   0.272  0.0421 -0.0803 -1.2149
  638SOL    HW2 4870  10.466   7.401   0.283 -1.2562  0.8802  1.9481
  639SOL     OW 4871   8.886   7.900   3.217  0.2112 -0.2679 -0.0844
  639SOL    HW1 4872   8.797   7.883   3.185  0.6455 -1.9480 -0.5099
  639SOL    HW2 4873   8.931   7.940   3.143  0.5761 -2.0834 -0.9135
  640SOL     OW 4874   8.664   3.865  10.504  0.4389 -0.2312 -0.3936
  640SOL    HW1 4875   8.584   3.860  10.451  2.1192  3.1183 -3.7022
  640SOL    HW2 4876   8.718   3.793  10.471 -1.0133 -2.5654  1.9150
  641SOL     OW 4877   2.932   5.073   0.894  0.4408 -0.0090 -0.2210
  641SOL    HW1 4878   3.021   5.067   0.860  0.1891 -1.0115 -0.7644
  641SOL    HW2 4879   2.877   5.044   0.821 -0.0380 -3.9001  1.4351
  642SOL     OW 4880   7.933   5.516   7.976 -0.2892  0.6233  0.1341
  642SOL    HW1 4881   7.955   5.472   8.058  0.8029 -0.5476 -0.7400
  642SOL    HW2 4882   7.955   5.452   7.908 -0.0400  1.9963 -1.1280
  643SOL     OW 4883   2.269   1.925   0.077 -0.2371 -0.3142  0.4609
  643SOL    HW1 4884   2.340   1.903   0.018 -0.0005  1.7043 -0.0586
  643SOL    HW2 4885   2.263   1.850   0.136  2.4285 -0.4781  0.6311
  644SOL     OW 4886   6.562   0.562   4.469 -0.1762 -0.0474  0.2105
  644SOL    HW1 4887   6.534   0.586   4.380 -0.9833  3.0296  1.1709
  644SOL    HW2 4888   6.657   0.557   4.464 -0.0977  1.6177 -0.5373
  645SOL     OW 4889  10.413   0.129  10.374 -0.4377  0.8709 -0.4357
  645SOL    HW1 4890  10.473   0.201  10.358  0.8857 -0.7072 -3.2947
  645SOL    HW2 4891  10.454   0.080  10.446 -1.6678  3.1268  1.9741
  646SOL     OW 4892   2.061   7.459   1.436 -0.3185 -0.2662  0.2412
  646SOL    HW1 4893   2.069   7.515   1.358 -0.4295 -0.2267  0.2593
  646SOL    HW2 4894   2.105   7.509   1.505 -1.7637  0.4972  0.6316
  647SOL     OW 4895   5.502   3.750   1.924 -0.1601 -0.1192  0.2399
  647SOL    HW1 4896   5.491   3.674   1.982 -2.3313  0.0914  0.1703
  647SOL    HW2 4897   5.419   3.758   1.878 -0.4690  2.9667  1.0722
  648SOL     OW 4898   5.906   6.751   3.280 -0.0020 -0.1305 -0.0127
  648SOL    HW1 4899   5.837   6.814   3.300  1.4105  0.8397  2.0170
  648SOL    HW2 4900   5.894   6.681   3.344  2.0484  1.0232  1.7590
  649SOL     OW 4901   2.853  10.674   2.327 -0.9001  0.1613  0.0220
  649SOL    HW1 4902   2.821  10.764   2.331 -1.1040  0.0388  1.9025
  649SOL    HW2 4903   2.941  10.681   2.291 -0.7921  1.1495  0.4456
  650SOL     OW 4904   8.053   6.001  10.359  0.8280  0.1670  0.5966
  650SOL    HW1 4905   8.098   5.919  10.374 -1.4211 -1.2463  0.1053
  650SOL    HW2 4906   8.111   6.050  10.301  2.6609 -0.6195  1.6906
  651SOL     OW 4907   3.895   4.708   2.873 -0.1718 -0.5672 -0.4288
  651SOL    HW1 4908   3.881   4.721   2.967 -2.1874 -0.5441 -0.7052
  651SOL    HW2 4909   3.940   4.623   2.868 -0.0785 -0.5902  0.5375
  652SOL     OW 4910   8.170   9.644   1.519  0.0037  0.2489  0.0635
  652SOL    HW1 4911   8.199   9.624   1.609  0.3389  1.5099  0.2609
  652SOL    HW2 4912   8.084   9.683   1.530  0.2952  0.9460 -0.1097
  653SOL     OW 4913   0.044  10.181   4.149 -0.4902 -0.1328  0.6154
  653SOL    HW1 4914   0.107  10.247   4.121 -0.3796  0.0993  1.3654
  653SOL    HW2 4915   0.005  10.149   4.068 -3.3641  3.5631  0.2664
  654SOL     OW 4916   6.426   5.080   4.619 -0.3169  0.1476 -0.2754
  654SOL    HW1 4917   6.345   5.034   4.640  0.6848 -0.4174  2.8696
  654SOL    HW2 4918   6.472   5.086   4.702  2.2813  1.6646 -1.7021
  655SOL     OW 4919   6.098   5.658   4.913  0.0560  0.0538 -0.4250
  655SOL    HW1 4920   6.170   5.684   4.856  1.3161 -3.1379 -0.4991
  655SOL    HW2 4921   6.023   5.646   4.854  0.5286 -0.2946 -0.9612
  656SOL     OW 4922   5.985   0.790   7.477 -0.0612  0.1802  0.1175
  656SOL    HW1 4923   5.961   0.813   7.566  0.5190 -0.6104  0.4872
  656SOL    HW2 4924   5.929   0.715   7.455 -1.3409  1.3601 -0.7706
  657SOL     OW 4925   6.184   2.995   3.701 -0.2226 -0.1841  0.2734
  657SOL    HW1 4926   6.126   3.060   3.740 -1.4418 -1.1410  0.0931
  657SOL    HW2 4927   6.265   3.001   3.752 -0.1242  1.7681 -0.0198
  658SOL     OW 4928   8.119   3.949   1.847  0.6285  0.4883 -0.3746
  658SOL    HW1 4929   8.068   3.913   1.774  0.3559  1.0213 -0.4457
  658SOL    HW2 4930   8.210   3.943   1.817  0.4893  1.1318 -0.9491
  659SOL     OW 4931   4.707   0.841   0.658  0.1692  0.6466 -0.0566
  659SOL    HW1 4932   4.711   0.837   0.753 -1.1570  0.9799  0.0329
  659SOL    HW2 4933   4.769   0.911   0.634 -0.9126  1.9245  0.7264
  660SOL     OW 4934   5.593   0.813   0.677 -0.0226  0.1651 -0.0891
  660SOL    HW1 4935   5.619   0.738   0.731 -1.3822 -0.7860 -0.6772
  660SOL    HW2 4936   5.579   0.776   0.590 -2.3414  0.7147 -0.0304
  661SOL     OW 4937   0.150   8.071   3.826  0.1162  0.0993 -0.1391
  661SOL    HW1 4938   0.176   8.115   3.746  0.1297  1.3048  0.5082
  661SOL    HW2 4939   0.192   7.985   3.822  0.4048  0.2878 -1.2423
  662SOL     OW 4940   0.459   5.418  10.114 -0.1531  0.0790  0.1462
  662SOL    HW1 4941   0.481   5.510  10.102 -0.0946  0.2728  1.5159
  662SOL    HW2 4942   0.364   5.415  10.104 -0.3063  0.5255  1.2291
  663SOL     OW 4943   1.036   2.640   4.695  0.6825 -0.1976  0.0901
  663SOL    HW1 4944   1.040   2.734   4.713 -1.3839  0.6913 -3.2397
  663SOL    HW2 4945   1.053   2.633   4.601 -0.8400 -2.9592 -0.0689
  664SOL     OW 4946   7.773   2.702   4.401  0.2072 -0.1068  0.5649
  664SOL    HW1 4947   7.703   2.695   4.466  0.2950  1.5428  0.8803
  664SOL    HW2 4948   7.832   2.769   4.437  0.0158  1.1846 -1.3972
  665SOL     OW 4949   8.798   5.916   5.706  0.0796  0.1038 -0.0566
  665SOL    HW1 4950   8.813   5.882   5.618 -0.6133  0.9679 -0.5295
  665SOL    HW2 4951   8.861   5.870   5.761  1.6955  0.7380 -1.2828
  666SOL     OW 4952   0.261   5.933   0.991 -0.0044  0.1193 -0.0664
  666SOL    HW1 4953   0.197   5.880   1.039  0.0479 -0.4840 -0.6438
  666SOL    HW2 4954   0.247   6.022   1.023 -0.2602 -0.1994  0.7453
  667SOL     OW 4955   9.079   4.254   2.762 -0.1259  0.3940 -0.3723
  667SOL    HW1 4956   9.059   4.167   2.728 -1.2844  0.6596 -0.4369
  667SOL    HW2 4957   9.061   4.248   2.856  1.1193  0.2060 -0.1331
  668SOL     OW 4958   2.604   6.307   6.638 -0.3345 -0.2435  0.2384
  668SOL    HW1 4959   2.631   6.241   6.574 -0.2545 -0.1655  0.1910
  668SOL    HW2 4960   2.676   6.312   6.700  0.2462  0.7163 -0.4668
  669SOL     OW 4961   2.995   0.116  10.097 -0.0015 -0.7464  0.0393
  669SOL    HW1 4962   2.941   0.194  10.095  0.9581 -0.0384  0.7266
  669SOL    HW2 4963   3.049   0.126  10.175 -0.5104 -2.5480  0.6782
  670SOL     OW 4964   1.695  10.109   3.470  0.8270  0.2705  0.4106
  670SOL    HW1 4965   1.706  10.204   3.461  2.5701  0.0361 -0.4178
  670SOL    HW2 4966   1.728  10.073   3.387  0.6914 -1.0889  0.9193
  671SOL     OW 4967   9.820   5.581   5.915 -0.4755  0.1003 -0.1641
  671SOL    HW1 4968   9.849   5.659   5.867 -0.9556  0.2358 -0.2328
  671SOL    HW2 4969   9.902   5.536   5.937 -0.1497  1.0184  0.5485
  672SOL     OW 4970   9.729   6.260   0.935 -0.8337 -0.3953  0.1950
  672SOL    HW1 4971   9.724   6.174   0.895 -2.4409 -0.0391 -0.4490
  672SOL    HW2 4972   9.714   6.322   0.864  1.9268  0.5699  0.3062
  673SOL     OW 4973   6.940   2.668   5.464  0.8367  0.1207 -0.0286
  673SOL    HW1 4974   6.848   2.642   5.466  0.7800  0.3512  0.7213
  673SOL    HW2 4975   6.986   2.599   5.511  1.0967 -0.1581 -0.6812
  674SOL     OW 4976   9.707   6.492   4.055 -0.0941  0.2097  0.1665
  674SOL    HW1 4977   9.612   6.489   4.052 -0.1180  1.3136 -1.0330
  674SOL    HW2 4978   9.734   6.401   4.072 -1.3517  0.0024  1.1902
  675SOL     OW 4979   3.866   8.118   8.458 -0.5020  0.3709  0.0942
  675SOL    HW1 4980   3.802   8.127   8.387 -1.3829 -0.4476  0.7715
  675SOL    HW2 4981   3.944   8.164   8.425 -1.8964  2.7842 -0.1337
  676SOL     OW 4982   7.581   9.598   4.760  0.2469 -0.0824  0.2024
  676SOL    HW1 4983   7.637   9.674   4.778 -2.8951  3.3519 -2.9496
  676SOL    HW2 4984   7.631   9.546   4.697  1.9262 -0.0444  1.4257
  677SOL     OW 4985  10.584  10.179   6.443  0.0274  0.4273 -0.8021
  677SOL    HW1 4986  10.631  10.240   6.387  0.5828  1.3204  0.5708
  677SOL    HW2 4987  10.597  10.094   6.401  1.8277  0.8266 -1.1687
  678SOL     OW 4988   2.229   4.509   3.085  0.3110  0.2105 -0.3186
  678SOL    HW1 4989   2.239   4.494   3.179 -0.6078 -0.7597 -0.3559
  678SOL    HW2 4990   2.166   4.582   3.079  0.4133  0.3110 -0.1878
  679SOL     OW 4991   0.535   3.163   6.906  0.3434  0.1943 -0.2469
  679SOL    HW1 4992   0.528   3.217   6.827  1.4344  1.2253  0.3418
  679SOL    HW2 4993   0.586   3.216   6.967  2.9722 -2.1605 -0.2228
  680SOL     OW 4994  10.652   1.477   3.144 -0.1516  0.2625 -0.5416
  680SOL    HW1 4995  10.725   1.426   3.110  0.5543  0.5204  0.5495
  680SOL    HW2 4996  10.644   1.451   3.235 -1.1405  0.5707 -0.5210
  681SOL     OW 4997   6.480  10.387   4.564  0.4579  0.2617 -0.3067
  681SOL    HW1 4998   6.405  10.363   4.509  0.2151 -2.0340  0.8904
  681SOL    HW2 4999   6.479  10.483   4.566 -1.9475  0.3172 -1.0050
  682SOL     OW 5000   1.035   4.660   1.187 -0.4187  0.1368 -0.1008
  682SOL    HW1 5001   1.044   4.701   1.273  0.0078 -2.3649  1.1307
  682SOL    HW2 5002   1.112   4.690   1.139 -0.8725  1.8944  0.1848
  683SOL     OW 5003   7.699   6.547   7.507 -0.3648 -0.2141  0.7622
  683SOL    HW1 5004   7.641   6.513   7.438 -0.9773  0.0493  1.1417
  683SOL    HW2 5005   7.787   6.539   7.470 -0.6514 -0.4807  0.1198
  684SOL     OW 5006   0.070   8.885   7.274  0.0399  0.3826  0.4982
  684SOL    HW1 5007   0.077   8.980   7.269  0.6770  0.3175 -0.1349
  684SOL    HW2 5008   0.016   8.868   7.350  0.1659  1.2479  0.7876
  685SOL     OW 5009   0.917   0.465   3.159 -1.0234 -0.4655 -0.7623
  685SOL    HW1 5010   0.940   0.397   3.095 -0.4257 -1.6492  0.6401
  685SOL    HW2 5011   0.857   0.421   3.219  0.5959 -0.2673  1.0855
  686SOL     OW 5012   3.207   1.276   2.585  0.1571 -0.2506  0.5142
  686SOL    HW1 5013   3.239   1.362   2.558  0.8328 -1.1529 -1.8058
  686SOL    HW2 5014   3.112   1.283   2.582  0.2059 -0.0074 -1.2843
  687SOL     OW 5015   9.009   9.135  10.457 -0.4783  0.1463 -0.2564
  687SOL    HW1 5016   8.954   9.203  10.494 -3.8044 -1.7629 -1.2568
  687SOL    HW2 5017   9.006   9.063  10.521  0.6758 -0.1202 -0.4659
  688SOL     OW 5018   4.336   2.726   8.232  0.6849 -0.0020  0.5437
  688SOL    HW1 5019   4.322   2.657   8.297  3.0911  0.1410  1.3391
  688SOL    HW2 5020   4.290   2.802   8.267  0.3846 -0.4407  1.1154
  689SOL     OW 5021  10.491   1.030   2.027  0.1785 -0.0533 -0.4807
  689SOL    HW1 5022  10.521   0.941   2.047 -1.4909 -0.3257  1.0578
  689SOL    HW2 5023  10.492   1.034   1.931 -2.0548 -2.6412 -0.7327
  690SOL     OW 5024   6.859   5.905   5.374 -0.5074  0.3246 -0.1281
  690SOL    HW1 5025   6.919   5.834   5.354  1.1206  1.4531  0.5405
  690SOL    HW2 5026   6.854   5.907   5.470 -1.0823  0.6642 -0.1576
  691SOL     OW 5027   9.940   9.015   9.008 -0.3843  0.0241  0.2534
  691SOL    HW1 5028   9.939   9.097   8.959  0.0170 -0.0583  0.1036
  691SOL    HW2 5029  10.012   9.025   9.070  0.7482 -0.8382 -0.8624
  692SOL     OW 5030   6.020   5.288   3.794  0.6110 -0.3089 -0.0135
  692SOL    HW1 5031   6.052   5.208   3.753  0.6834  0.4491 -1.5151
  692SOL    HW2 5032   6.092   5.351   3.783 -0.4333  0.7246 -1.2792
  693SOL     OW 5033   4.874   1.773   0.068 -0.3643 -0.2552  0.0317
  693SOL    HW1 5034   4.788   1.812   0.053 -0.6232 -0.1217  1.6857
  693SOL    HW2 5035   4.878   1.699   0.008 -1.5726 -0.1727 -0.1655
  694SOL     OW 5036   2.894   8.922   9.809 -0.1283 -0.2865  0.0127
  694SOL    HW1 5037   2.817   8.976   9.791 -0.0592 -0.2760 -0.2602
  694SOL    HW2 5038   2.872   8.835   9.774 -1.7345 -1.5510  3.6859
  695SOL     OW 5039   3.510  10.164   5.900 -0.0652 -0.0244 -1.2590
  695SOL    HW1 5040   3.504  10.071   5.880 -1.9505 -0.5814  1.4338
  695SOL    HW2 5041   3.577  10.170   5.968 -0.5758  0.4674 -0.7973
  696SOL     OW 5042  10.380   2.698   2.025 -0.0816 -0.1107 -1.3315
  696SOL    HW1 5043  10.288   2.723   2.022  0.3351  1.9640  0.8095
  696SOL    HW2 5044  10.407   2.698   1.933 -1.9666  0.0680 -1.9412
  697SOL     OW 5045   8.508   0.809   7.246 -0.1817  0.0659 -0.0104
  697SOL    HW1 5046   8.547   0.807   7.333  0.3252  0.9291 -0.2073
  697SOL    HW2 5047   8.583   0.804   7.186 -0.5879 -1.9847 -0.4303
  698SOL     OW 5048  10.443   3.339   9.844 -0.1594  0.4132 -0.2191
  698SOL    HW1 5049  10.391   3.408   9.803  0.4180  1.2210  0.3845
  698SOL    HW2 5050  10.530   3.348   9.806 -0.5436 -1.3051 -1.6595
  699SOL     OW 5051   2.006   1.270   7.105 -0.4107  0.0918  0.1250
  699SOL    HW1 5052   1.948   1.340   7.136 -1.8544 -1.8360  2.0921
  699SOL    HW2 5053   1.994   1.270   7.010 -3.1350  0.2742  0.3818
  700SOL     OW 5054   1.869   7.916   1.431 -0.1525 -0.5530  0.3707
  700SOL    HW1 5055   1.958   7.892   1.457 -0.2399 -1.8640 -0.4420
  700SOL    HW2 5056   1.880   7.986   1.367  0.1588  1.0463  2.1020
  701SOL     OW 5057   5.694   3.513  10.128  0.0184 -0.4028  0.0500
  701SOL    HW1 5058   5.622   3.469  10.174 -0.7324  1.2752  0.5460
  701SOL    HW2 5059   5.751   3.441  10.100 -0.5739 -1.6204  1.7706
  702SOL     OW 5060   7.875   0.735   1.817 -0.3212  0.2201 -0.1977
  702SOL    HW1 5061   7.951   0.740   1.758  1.1786  1.6328  1.7343
  702SOL    HW2 5062   7.887   0.652   1.863 -1.2166 -0.6362 -1.4400
  703SOL     OW 5063   4.176   3.731   5.376 -0.1816 -0.2185 -0.2729
  703SOL    HW1 5064   4.181   3.801   5.311  2.2884 -0.5898 -0.6037
  703SOL    HW2 5065   4.118   3.666   5.337 -2.4820  1.5424  0.0164
  704SOL     OW 5066   6.033  10.572   9.458 -0.3650  0.0097  0.7004
  704SOL    HW1 5067   6.035  10.540   9.367 -1.7121  1.2736  0.1867
  704SOL    HW2 5068   6.051  10.494   9.511  0.0461 -0.8384 -0.6307
  705SOL     OW 5069   0.595   4.120   1.703  0.6904 -0.7480  0.0484
  705SOL    HW1 5070   0.597   4.170   1.621 -1.1848 -2.1432 -0.9366
  705SOL    HW2 5071   0.685   4.089   1.714  0.5243 -2.7665 -3.0239
  706SOL     OW 5072   0.958   1.903   2.784 -0.2839 -0.1960 -0.1653
  706SOL    HW1 5073   0.985   1.991   2.759 -0.7382 -0.2428 -0.8399
  706SOL    HW2 5074   0.863   1.909   2.794 -0.4063 -0.7683 -0.9110
  707SOL     OW 5075   5.981   8.487   6.725  0.1873 -0.9067  0.1584
  707SOL    HW1 5076   6.040   8.563   6.730 -0.4961 -0.3741  0.2574
  707SOL    HW2 5077   5.897   8.520   6.757 -0.5153 -1.2974 -1.2008
  708SOL     OW 5078  10.594   6.611   8.978 -0.4504  0.0337 -0.0388
  708SOL    HW1 5079  10.627   6.701   8.971  1.5563 -0.6990 -0.5982
  708SOL    HW2 5080  10.536   6.613   9.054  0.1399  1.6238  0.4232
  709SOL     OW 5081   7.280   0.083  10.537 -0.0354  0.3742 -0.3041
  709SOL    HW1 5082   7.369   0.114  10.551 -0.0960  0.4806 -0.1469
  709SOL    HW2 5083   7.247   0.137  10.465 -0.1728  0.7476  0.0328
  710SOL     OW 5084   5.093   6.436   6.800 -0.5929  0.3629  0.1017
  710SOL    HW1 5085   4.999   6.427   6.813 -0.8218  0.8544 -1.0897
  710SOL    HW2 5086   5.130   6.354   6.833 -1.7674 -1.3452 -2.4651
  711SOL     OW 5087   8.783   6.825   3.228 -0.3255 -0.4092 -0.1456
  711SOL    HW1 5088   8.746   6.795   3.145 -1.7492  0.6036  0.0755
  711SOL    HW2 5089   8.759   6.758   3.291 -1.7075  0.1374 -0.0440
  712SOL     OW 5090   3.207  10.580   0.454 -0.0240  0.0365  0.3162
  712SOL    HW1 5091   3.121  10.539   0.448 -0.4174  0.3605  2.8886
  712SOL    HW2 5092   3.266  10.509   0.480  0.5238 -0.1647 -1.3501
  713SOL     OW 5093   4.808   0.019   2.948  0.2064  0.0222 -0.4635
  713SOL    HW1 5094   4.843  -0.031   3.022  0.4489  0.5489 -0.2181
  713SOL    HW2 5095   4.720   0.043   2.974  0.2928  0.2101 -0.3400
  714SOL     OW 5096   1.112   6.223   1.308 -0.3100  0.2605 -0.1715
  714SOL    HW1 5097   1.125   6.318   1.301 -1.8781  0.4043 -1.8178
  714SOL    HW2 5098   1.018   6.214   1.327  0.2586 -0.9257  2.5573
  715SOL     OW 5099   1.596   9.597   6.318 -0.1468 -0.0160 -0.5956
  715SOL    HW1 5100   1.669   9.657   6.333 -1.3349  1.1450  0.7772
  715SOL    HW2 5101   1.626   9.514   6.355  0.7297  0.2647 -0.6437
  716SOL     OW 5102   4.131   5.071   9.287  0.3916 -0.0957  0.2083
  716SOL    HW1 5103   4.061   5.094   9.225 -1.8429  0.0933  2.6426
  716SOL    HW2 5104   4.173   5.155   9.307  0.7962 -0.0874 -0.6319
  717SOL     OW 5105   5.449   1.825   3.782  0.6548 -0.7937 -0.2304
  717SOL    HW1 5106   5.419   1.902   3.733  2.3818  1.1129  1.4858
  717SOL    HW2 5107   5.525   1.794   3.732  0.8556 -0.4374 -0.1534
  718SOL     OW 5108  10.348   6.208   4.991  0.6250 -0.0362  0.0284
  718SOL    HW1 5109  10.415   6.140   5.002  1.5838  0.9006  0.1666
  718SOL    HW2 5110  10.268   6.160   4.974  1.0441 -1.2574  1.2908
  719SOL     OW 5111   4.458   0.981   6.088 -0.1202  0.0233 -0.7849
  719SOL    HW1 5112   4.501   0.999   6.004 -1.2965  0.9568 -1.2096
  719SOL    HW2 5113   4.376   0.938   6.064 -0.7686  0.8771 -0.1563
  720SOL     OW 5114  10.523   7.672   6.578  0.4797  0.3693 -0.0491
  720SOL    HW1 5115  10.509   7.766   6.565 -0.5314  0.1806 -0.4901
  720SOL    HW2 5116  10.440   7.632   6.551  0.1441 -0.5075  2.0487
  721SOL     OW 5117   4.958   5.205   0.097  0.5264  0.6727 -0.1726
  721SOL    HW1 5118   4.982   5.281   0.044  0.2556  0.1050 -1.1202
  721SOL    HW2 5119   5.011   5.133   0.063 -0.8807 -0.0901 -0.8305
  722SOL     OW 5120  10.275   2.086   5.669  0.0013  0.2689  0.6427
  722SOL    HW1 5121  10.220   2.079   5.591  0.5268  0.8637  0.2136
  722SOL    HW2 5122  10.311   1.997   5.680 -0.7605 -0.0332  0.7224
  723SOL     OW 5123   5.738   9.758   6.494  0.5141 -0.5804 -0.0172
  723SOL    HW1 5124   5.685   9.781   6.418  2.1607 -2.5234 -1.8878
  723SOL    HW2 5125   5.704   9.673   6.523  1.3808 -0.9676 -0.0862
  724SOL     OW 5126   5.586   0.818   1.011 -0.0626 -0.2056 -0.5747
  724SOL    HW1 5127   5.555   0.729   1.025 -1.0210  0.4999  2.6059
  724SOL    HW2 5128   5.509   0.873   1.024  0.7986  1.1511 -1.0147
  725SOL     OW 5129   4.045   5.727   9.456 -0.0485 -0.0042 -0.1155
  725SOL    HW1 5130   4.122   5.676   9.481 -1.3229 -1.7382  0.5044
  725SOL    HW2 5131   4.065   5.760   9.368  1.7200  0.3283  0.3697
  726SOL     OW 5132   4.644   0.481   1.680  0.1998  0.5375 -0.1597
  726SOL    HW1 5133   4.564   0.433   1.698  1.0290 -1.4779 -1.4602
  726SOL    HW2 5134   4.674   0.512   1.766 -1.2246  0.1498  0.5008
  727SOL     OW 5135   6.307   3.852   0.257 -0.1498  0.3692 -0.4001
  727SOL    HW1 5136   6.252   3.929   0.242 -0.7695  0.1873  0.8177
  727SOL    HW2 5137   6.329   3.856   0.350  0.7877 -0.2951 -0.5812
  728SOL     OW 5138   8.450   8.057   7.795  0.4067 -0.9465  0.3008
  728SOL    HW1 5139   8.414   7.991   7.736  1.9860 -1.2185 -0.3810
  728SOL    HW2 5140   8.510   8.009   7.851  0.3901 -0.3406  0.8424
  729SOL     OW 5141   3.983   7.962  10.253  0.3926 -0.3976  0.1715
  729SOL    HW1 5142   4.042   8.027  10.214  2.0069 -0.8024  1.7995
  729SOL    HW2 5143   3.906   8.012  10.278 -0.3739  0.0055 -2.7245
  730SOL     OW 5144   4.023   9.317  10.379  0.4903  0.6187 -0.2923
  730SOL    HW1 5145   4.104   9.303  10.428 -0.0781  1.7098  1.0231
  730SOL    HW2 5146   4.051   9.328  10.288  1.4903 -2.6111 -0.4999
  731SOL     OW 5147   3.430  10.360   1.057  0.0697  0.0680 -0.1299
  731SOL    HW1 5148   3.419  10.448   1.021  0.2564  0.0068 -0.3410
  731SOL    HW2 5149   3.359  10.309   1.020  1.3895 -0.4971 -2.0233
  732SOL     OW 5150   5.108   8.752  10.464 -0.5414 -0.0597 -0.2991
  732SOL    HW1 5151   5.176   8.700  10.419 -0.6351  0.9292 -1.6482
  732SOL    HW2 5152   5.152   8.786  10.542  0.1722 -0.3764 -0.5467
  733SOL     OW 5153   4.689   1.695   6.813  0.0730 -0.0237 -0.1691
  733SOL    HW1 5154   4.755   1.660   6.753 -0.1199  0.3050 -0.5792
  733SOL    HW2 5155   4.692   1.790   6.798 -0.0672  0.0509  0.2537
  734SOL     OW 5156   2.520   4.535  10.014 -0.1000  0.2834  0.5841
  734SOL    HW1 5157   2.519   4.476   9.938  0.1362  1.4125 -0.3270
  734SOL    HW2 5158   2.516   4.623   9.976 -3.3417  0.8599  1.9945
  735SOL     OW 5159   6.839   8.018   4.027 -0.2484 -0.3724 -0.0981
  735SOL    HW1 5160   6.860   7.989   3.938  0.4745 -2.4612  0.6983
  735SOL    HW2 5161   6.758   7.971   4.049 -0.2241 -0.1504  0.4748
  736SOL     OW 5162   3.761   1.489   1.569 -0.1711  0.4171 -0.1765
  736SOL    HW1 5163   3.849   1.516   1.594  0.3480 -0.1526 -1.3249
  736SOL    HW2 5164   3.766   1.394   1.562 -0.4935  0.4785 -1.5924
  737SOL     OW 5165   3.871   7.279   8.039  0.5271  1.0462  0.6899
  737SOL    HW1 5166   3.921   7.360   8.034  2.3434  0.1377  2.5692
  737SOL    HW2 5167   3.912   7.230   8.110 -0.3223 -1.6449 -0.5478
  738SOL     OW 5168   6.134   9.974   0.990  0.3630 -0.3632  0.8622
  738SOL    HW1 5169   6.157  10.062   1.020 -1.8977  0.1641  1.2294
  738SOL    HW2 5170   6.065   9.945   1.050  0.2534 -1.9143  0.0485
  739SOL     OW 5171   8.274   9.064   2.084 -0.0483 -0.1743  0.7266
  739SOL    HW1 5172   8.314   8.981   2.111  0.6011 -0.6203 -1.4461
  739SOL    HW2 5173   8.333   9.099   2.018 -2.0665  0.2867 -0.9262
  740SOL     OW 5174   9.070   0.705   9.421 -0.3038  0.4717 -0.3889
  740SOL    HW1 5175   9.031   0.752   9.494 -1.7096 -0.1663 -0.7052
  740SOL    HW2 5176   9.067   0.613   9.447 -0.1839  0.3025 -0.9565
  741SOL     OW 5177   2.196   5.529   2.224 -0.2042  0.5867 -0.2746
  741SOL    HW1 5178   2.142   5.542   2.145  0.4879  1.0205 -0.6861
  741SOL    HW2 5179   2.176   5.440   2.252  1.4511 -0.5505 -2.4441
  742SOL     OW 5180  10.693   8.068   0.458 -0.7432 -0.7260 -0.7775
  742SOL    HW1 5181  10.611   8.063   0.507  0.4154 -1.0092  1.2654
  742SOL    HW2 5182  10.738   8.145   0.493  0.9668 -2.0236  0.0613
  743SOL     OW 5183   0.784   7.658   5.121  0.2353 -0.0146  0.1793
  743SOL    HW1 5184   0.703   7.655   5.071 -0.8498  0.4103  1.8563
  743SOL    HW2 5185   0.784   7.744   5.162  1.0082 -0.4101  1.0470
  744SOL     OW 5186   2.956   3.743   5.641  0.2193 -0.0880 -0.1082
  744SOL    HW1 5187   2.952   3.696   5.558  2.0000 -0.6643  0.0824
  744SOL    HW2 5188   2.990   3.830   5.618 -2.8669  1.1506 -0.4318
  745SOL     OW 5189   7.142   0.926   1.448 -0.3755  0.0301 -0.2479
  745SOL    HW1 5190   7.172   0.852   1.501 -0.1930  0.1654 -0.1593
  745SOL    HW2 5191   7.206   0.931   1.376  0.6407  1.1646  0.6768
  746SOL     OW 5192   3.175   0.694   5.307  0.0631 -0.4884 -0.0272
  746SOL    HW1 5193   3.155   0.767   5.366 -0.1084  0.5588 -1.3359
  746SOL    HW2 5194   3.094   0.681   5.257  0.0557 -1.6651  0.2771
  747SOL     OW 5195   4.148  10.087   2.100 -0.1716  0.1549  0.9377
  747SOL    HW1 5196   4.083  10.049   2.040 -0.3137  1.0563  0.5149
  747SOL    HW2 5197   4.146  10.180   2.082 -0.3616  0.4812  2.4936
  748SOL     OW 5198   9.927   5.831   0.211 -0.3522 -0.1432 -0.1171
  748SOL    HW1 5199   9.839   5.862   0.230  0.4772  1.7220  1.0408
  748SOL    HW2 5200   9.977   5.910   0.193  1.3817 -1.0116  0.6082
  749SOL     OW 5201   1.381   4.781   1.904  0.3089 -0.5964 -0.3381
  749SOL    HW1 5202   1.405   4.874   1.897 -4.1455  0.6893 -1.9944
  749SOL    HW2 5203   1.306   4.780   1.963 -0.5375 -2.9815 -1.3395
  750SOL     OW 5204   0.304   3.395   1.372  0.2680  0.3920  1.1786
  750SOL    HW1 5205   0.259   3.432   1.296 -0.6098 -0.4038  1.2917
  750SOL    HW2 5206   0.360   3.326   1.336  1.8115  1.6955  0.9816
  751SOL     OW 5207   2.458   2.998  10.088 -0.1972 -0.4114  0.6991
  751SOL    HW1 5208   2.406   2.985  10.010  2.3178  1.6606 -1.5434
  751SOL    HW2 5209   2.523   2.928  10.086 -0.5058 -0.7272  1.3275
  752SOL     OW 5210   5.784   3.384   9.261 -0.3646 -0.4689  0.1218
  752SOL    HW1 5211   5.780   3.406   9.354 -3.3885 -1.1276  0.2797
  752SOL    HW2 5212   5.853   3.319   9.254  0.0297 -0.2770  1.8881
  753SOL     OW 5213   8.013   6.040   7.222 -0.0756 -0.3574  0.3584
  753SOL    HW1 5214   8.073   6.114   7.231 -0.5723  0.4769 -2.2741
  753SOL    HW2 5215   8.065   5.971   7.181 -0.7688  0.2869 -1.7138
  754SOL     OW 5216   7.292   8.870   6.408  0.2714 -0.0984 -0.5952
  754SOL    HW1 5217   7.377   8.914   6.405  0.8175 -0.9446  1.0386
  754SOL    HW2 5218   7.230   8.937   6.435  0.9355 -0.0787  0.9663
  755SOL     OW 5219   1.847   7.099   7.615 -0.1467 -0.3197 -0.0267
  755SOL    HW1 5220   1.809   7.034   7.673 -0.0097 -1.2592 -0.9736
  755SOL    HW2 5221   1.890   7.049   7.546  0.9112  0.7525 -0.1875
  756SOL     OW 5222   6.577   5.822   7.904 -0.1687 -0.1369  0.2018
  756SOL    HW1 5223   6.595   5.730   7.885 -2.3899 -0.2861 -1.6604
  756SOL    HW2 5224   6.531   5.820   7.988  2.2176 -0.3539  1.6106
  757SOL     OW 5225   7.412   7.995   0.834 -0.7075  0.5806 -0.2304
  757SOL    HW1 5226   7.469   8.011   0.759 -1.4658 -0.3115 -1.0231
  757SOL    HW2 5227   7.351   7.927   0.804 -0.8097 -0.0394  1.3025
  758SOL     OW 5228   5.065   9.156  10.228  0.8795 -0.3464  0.2331
  758SOL    HW1 5229   5.126   9.226  10.251  1.2111 -1.1513  2.0228
  758SOL    HW2 5230   5.010   9.145  10.306 -1.2397 -0.0063 -1.1348
  759SOL     OW 5231   4.100   9.237   7.703  0.1198 -0.0380  0.2176
  759SOL    HW1 5232   4.127   9.328   7.705  0.5976 -0.1856  0.8426
  759SOL    HW2 5233   4.179   9.189   7.677 -0.7562 -0.0684 -2.7473
  760SOL     OW 5234   8.947   8.500   8.187  0.3958 -0.4835 -0.1196
  760SOL    HW1 5235   8.874   8.459   8.140  0.8119  0.2701 -1.4928
  760SOL    HW2 5236   8.937   8.471   8.278 -0.8417 -1.4484 -0.5345
  761SOL     OW 5237   9.361   9.516   2.790  0.5345 -0.3390 -0.0361
  761SOL    HW1 5238   9.396   9.537   2.704  1.7182 -1.4990  0.1292
  761SOL    HW2 5239   9.302   9.442   2.775  0.6905 -0.4997  0.1398
  762SOL     OW 5240   2.563   9.053   0.409  0.3209 -0.4748 -0.2610
  762SOL    HW1 5241   2.474   9.073   0.382  0.2969 -0.8120 -0.4347
  762SOL    HW2 5242   2.618   9.109   0.355  0.3396 -1.9407 -1.8226
  763SOL     OW 5243   5.101   3.501   0.482 -0.7350  0.0087 -0.2163
  763SOL    HW1 5244   5.030   3.446   0.516 -0.0463 -1.8242 -1.5598
  763SOL    HW2 5245   5.166   3.502   0.552  0.2471 -2.9136 -0.9369
  764SOL     OW 5246   1.489   6.473   1.500  0.6704  0.1263 -0.0131
  764SOL    HW1 5247   1.546   6.447   1.428 -0.3779  0.1893 -0.8987
  764SOL    HW2 5248   1.494   6.568   1.501  1.2543  0.0990  0.4968
  765SOL     OW 5249   8.822   8.654   7.411  0.4225  0.5076 -0.2781
  765SOL    HW1 5250   8.848   8.668   7.502  0.3059 -1.9294  0.1983
  765SOL    HW2 5251   8.735   8.694   7.405  0.3170  0.4803  0.7610
  766SOL     OW 5252   9.016   0.902   3.861 -0.5103 -0.0888 -0.2566
  766SOL    HW1 5253   8.961   0.916   3.938  0.2283  0.0394  0.2567
  766SOL    HW2 5254   9.049   0.813   3.870 -1.2189 -0.4266 -0.9459
  767SOL     OW 5255   9.039   9.081   8.345  0.0565  0.1261 -0.0774
  767SOL    HW1 5256   9.028   8.986   8.334  2.1157 -0.1230 -0.3828
  767SOL    HW2 5257   9.035   9.116   8.256  0.9926  0.0957 -0.1394
  768SOL     OW 5258   6.396   2.424   9.390 -0.6148  0.2719 -0.0039
  768SOL    HW1 5259   6.357   2.499   9.346  3.0419  1.2326 -2.0513
  768SOL    HW2 5260   6.408   2.452   9.481  0.2264  2.0351 -0.6201
  769SOL     OW 5261   9.265   0.667  10.627 -0.0628 -0.7957 -0.3472
  769SOL    HW1 5262   9.356   0.696  10.624 -0.2302  0.0110  1.3244
  769SOL    HW2 5263   9.227   0.698  10.545  0.8101  0.1668 -0.4039
  770SOL     OW 5264   2.020  10.531   7.810  0.1606 -0.0609 -0.3981
  770SOL    HW1 5265   2.114  10.519   7.800  0.5112  0.9822  1.1760
  770SOL    HW2 5266   1.998  10.602   7.750  0.6431  0.6019  0.1967
  771SOL     OW 5267   1.977   5.681   0.461  0.5039  0.3091 -0.2941
  771SOL    HW1 5268   1.973   5.673   0.556  2.6981  1.7155  0.0137
  771SOL    HW2 5269   1.999   5.593   0.430  2.1889  0.2965  0.7775
  772SOL     OW 5270   5.660   9.437  10.240  0.5540 -0.4224  0.1326
  772SOL    HW1 5271   5.685   9.501  10.307  0.1538 -0.9874  0.8413
  772SOL    HW2 5272   5.722   9.451  10.169  1.7961 -0.6450  1.1399
  773SOL     OW 5273   5.410   3.933   8.121 -0.0393 -0.6053  0.4148
  773SOL    HW1 5274   5.488   3.879   8.131 -0.3759 -0.6955  3.4577
  773SOL    HW2 5275   5.408   3.988   8.199 -2.9564 -0.5094  0.3881
  774SOL     OW 5276   9.765   1.382   0.576  0.0084 -0.1024 -0.1223
  774SOL    HW1 5277   9.670   1.378   0.587 -0.0537  1.5317  0.1576
  774SOL    HW2 5278   9.777   1.406   0.484  0.1166  0.3735  0.0125
  775SOL     OW 5279   1.080   4.874   4.422 -0.0398  0.0009  0.0252
  775SOL    HW1 5280   1.174   4.888   4.416 -0.4336  2.6071 -1.3160
  775SOL    HW2 5281   1.056   4.839   4.337 -0.2744 -1.1008  0.5201
  776SOL     OW 5282   0.380   6.654   2.063  0.6517  0.0471  0.4792
  776SOL    HW1 5283   0.377   6.749   2.075  2.1649  0.2665 -0.6566
  776SOL    HW2 5284   0.465   6.637   2.022  0.7721 -1.8924  1.4023
  777SOL     OW 5285   5.565   3.365   4.335 -0.0251  0.1319 -0.4246
  777SOL    HW1 5286   5.482   3.393   4.295 -0.5388 -0.5791  0.1250
  777SOL    HW2 5287   5.550   3.275   4.361  0.9714 -0.0404 -0.4130
  778SOL     OW 5288   2.719   8.319   6.846  0.6211 -0.1121 -0.0425
  778SOL    HW1 5289   2.635   8.348   6.880  1.1656  0.9660  0.4339
  778SOL    HW2 5290   2.699   8.241   6.795 -0.8598  0.8825 -1.0620
  779SOL     OW 5291   7.145   7.146  10.035  0.3199 -0.1714 -0.2446
  779SOL    HW1 5292   7.139   7.180   9.945  0.9280 -0.5498 -0.4321
  779SOL    HW2 5293   7.084   7.072  10.036  0.3504 -0.1982 -0.3609
  780SOL     OW 5294   3.631   8.393   4.072  0.2467 -0.1786  0.1992
  780SOL    HW1 5295   3.719   8.427   4.061 -0.6171  1.8697 -0.9272
  780SOL    HW2 5296   3.600   8.377   3.983 -0.2631 -1.6254  0.6146
  781SOL     OW 5297   0.035   1.283  10.569  0.8344 -0.5742 -0.2249
  781SOL    HW1 5298   0.080   1.202  10.546 -0.0450 -0.5843 -2.0354
  781SOL    HW2 5299   0.090   1.353  10.535 -0.2770 -0.5760 -2.1407
  782SOL     OW 5300   8.691   6.239   5.114  0.4784 -0.6259  0.2415
  782SOL    HW1 5301   8.632   6.167   5.092  0.3745 -0.8683  1.2495
  782SOL    HW2 5302   8.723   6.217   5.201  1.7949 -0.3216 -0.1416
  783SOL     OW 5303   1.939   0.816  10.373 -0.6764  0.1313 -0.2775
  783SOL    HW1 5304   1.855   0.818  10.420 -0.2873 -0.8099  0.4996
  783SOL    HW2 5305   1.922   0.863  10.292 -2.0420 -0.2491 -0.2454
  784SOL     OW 5306   6.125   9.641   1.194 -0.2738  0.1401 -0.5440
  784SOL    HW1 5307   6.138   9.549   1.218 -2.2765 -0.6028 -2.0373
  784SOL    HW2 5308   6.191   9.657   1.126 -0.0877 -0.2612 -0.4639
  785SOL     OW 5309   9.880   6.389  10.024  0.3330 -0.3122  0.0549
  785SOL    HW1 5310   9.889   6.384   9.929 -1.1380  1.5559 -0.2377
  785SOL    HW2 5311   9.824   6.314  10.047  0.3832 -0.5535 -0.5942
  786SOL     OW 5312   4.636   7.758   1.058  0.1022 -0.2145 -0.2470
  786SOL    HW1 5313   4.577   7.716   1.120 -0.5875 -0.8584 -1.2914
  786SOL    HW2 5314   4.594   7.745   0.973  0.9224  0.8015 -0.8337
  787SOL     OW 5315   8.075   8.601   3.716 -0.3295  0.0173 -0.0195
  787SOL    HW1 5316   8.119   8.520   3.692 -2.3333 -0.9196 -0.8069
  787SOL    HW2 5317   8.030   8.581   3.798 -0.4783  0.4574  0.0124
  788SOL     OW 5318   9.282   4.531   2.082 -0.0464  0.3531 -0.2150
  788SOL    HW1 5319   9.365   4.490   2.109  0.2304  1.5872  0.8967
  788SOL    HW2 5320   9.236   4.461   2.035  0.9377 -0.8523  0.5344
  789SOL     OW 5321   8.249   0.374   0.793 -0.5375 -0.1065  0.2157
  789SOL    HW1 5322   8.253   0.367   0.888 -0.4752  1.1566  0.3222
  789SOL    HW2 5323   8.164   0.415   0.776  0.3069  1.6006 -0.1176
  790SOL     OW 5324   6.765   8.382   5.136 -0.0526  0.1783 -0.1564
  790SOL    HW1 5325   6.702   8.318   5.103  0.3189 -0.2387 -0.0660
  790SOL    HW2 5326   6.786   8.352   5.224  1.2068 -0.4014 -0.6226
  791SOL     OW 5327   4.460   6.192   2.156 -0.1992 -0.2597 -0.3642
  791SOL    HW1 5328   4.452   6.206   2.250  0.6508 -0.2383 -0.2951
  791SOL    HW2 5329   4.539   6.139   2.145 -0.2979 -0.2792 -1.0666
  792SOL     OW 5330   3.947   2.989   7.310  0.4645 -0.0535  0.9418
  792SOL    HW1 5331   3.909   2.919   7.256  1.0567 -0.6051  1.2177
  792SOL    HW2 5332   4.038   2.960   7.325  0.8662  1.0265  0.6472
  793SOL     OW 5333   8.133   1.667   7.212 -0.5989 -0.3077  0.2925
  793SOL    HW1 5334   8.060   1.723   7.187 -0.4959 -0.3315 -0.0659
  793SOL    HW2 5335   8.192   1.725   7.261  1.1181  0.8231 -2.8273
  794SOL     OW 5336   4.634  10.665   6.985  0.1255 -0.0438 -0.4606
  794SOL    HW1 5337   4.573  10.623   7.046 -1.0836 -1.0904 -2.3016
  794SOL    HW2 5338   4.691  10.717   7.041 -1.2900 -0.4818  1.5107
  795SOL     OW 5339   8.887   5.929   2.821 -0.5540  0.0835  0.3783
  795SOL    HW1 5340   8.976   5.939   2.786 -0.3353 -1.5167  0.3949
  795SOL    HW2 5341   8.831   5.972   2.756  0.3054  2.3590  1.0524
  796SOL     OW 5342   2.806   5.768   8.313  0.4977  0.3175  0.0501
  796SOL    HW1 5343   2.826   5.680   8.345 -1.1807 -0.8563 -1.8224
  796SOL    HW2 5344   2.887   5.798   8.272  0.4097 -1.5625 -1.6745
  797SOL     OW 5345   5.813   6.710   9.374 -0.2867 -0.2169  0.1401
  797SOL    HW1 5346   5.866   6.790   9.383 -1.3901  0.5979 -0.3757
  797SOL    HW2 5347   5.864   6.643   9.419  1.0033  0.6179 -0.0094
  798SOL     OW 5348   6.441   8.224   1.407  0.4144  0.0380 -0.3578
  798SOL    HW1 5349   6.364   8.265   1.446 -1.6701 -1.7259 -2.3528
  798SOL    HW2 5350   6.446   8.260   1.319  1.9104  0.0709 -0.2943
  799SOL     OW 5351   7.829   7.300   8.505 -0.3160 -0.1688  0.3671
  799SOL    HW1 5352   7.872   7.239   8.445 -0.1251 -0.1172  0.4510
  799SOL    HW2 5353   7.770   7.351   8.449 -0.1581 -0.1388  0.2244
  800SOL     OW 5354   1.169   5.067   6.097 -0.3027 -0.5693  0.5100
  800SOL    HW1 5355   1.191   4.988   6.146  0.3375 -0.6803  0.0565
  800SOL    HW2 5356   1.089   5.099   6.138 -0.1248 -1.0077  1.2169
  801SOL     OW 5357   7.769   1.661   0.549  0.0086 -0.2907 -0.9329
  801SOL    HW1 5358   7.796   1.570   0.547 -0.3628 -0.6107  2.6842
  801SOL    HW2 5359   7.849   1.709   0.571 -0.4297 -0.1529  0.4104
  802SOL     OW 5360   9.517  10.377   2.551  0.4349  0.3377 -0.0097
  802SOL    HW1 5361   9.550  10.425   2.476  1.0120 -0.1357 -0.0636
  802SOL    HW2 5362   9.435  10.338   2.521  1.2463 -0.8296 -0.7774
  803SOL     OW 5363   0.596   7.903   3.862 -0.0579  0.7789 -0.2924
  803SOL    HW1 5364   0.605   7.998   3.868  2.5901  0.5962 -0.3394
  803SOL    HW2 5365   0.592   7.874   3.954  1.9780  0.7632 -0.1820
  804SOL     OW 5366   6.059   4.955   9.787 -0.2745  0.0857  0.6384
  804SOL    HW1 5367   5.969   4.921   9.784  0.0208 -0.6856  0.1984
  804SOL    HW2 5368   6.052   5.036   9.837 -1.5984  1.2514 -1.3140
  805SOL     OW 5369   9.737   0.879   4.621  0.3631 -0.0022 -0.5420
  805SOL    HW1 5370   9.746   0.865   4.715  3.8205  1.6994 -0.4555
  805SOL    HW2 5371   9.655   0.837   4.598  0.0984 -1.7495  2.9678
  806SOL     OW 5372   8.344   7.378   4.628  0.0161  0.0885 -0.1199
  806SOL    HW1 5373   8.431   7.414   4.641 -0.9177  2.6068 -0.2004
  806SOL    HW2 5374   8.323   7.397   4.536  0.2724 -2.7500 -0.8577
  807SOL     OW 5375   0.024   8.841   0.296  0.4307 -0.2449  0.3212
  807SOL    HW1 5376   0.029   8.921   0.244  0.9265 -0.6797 -0.3198
  807SOL    HW2 5377  -0.043   8.788   0.253  1.4356 -0.9593 -0.3996
  808SOL     OW 5378   5.310   6.787   2.916 -0.1076  0.0355  0.5910
  808SOL    HW1 5379   5.338   6.707   2.872  0.2134  0.1452  0.5964
  808SOL    HW2 5380   5.214   6.787   2.908 -0.1671 -0.7006  1.1980
  809SOL     OW 5381   6.499   3.603   3.755  0.0947 -0.2424  0.1132
  809SOL    HW1 5382   6.435   3.661   3.798  0.7114 -0.2175  1.0209
  809SOL    HW2 5383   6.525   3.542   3.824  0.1836 -0.9889 -0.5766
  810SOL     OW 5384   6.692   9.747   7.165  0.2063 -0.5191 -0.0645
  810SOL    HW1 5385   6.727   9.764   7.252  1.0125  0.5753 -0.5900
  810SOL    HW2 5386   6.605   9.786   7.166 -0.2429 -1.4838  0.5875
  811SOL     OW 5387   2.366   1.811   1.856 -0.0944 -0.1619 -0.3515
  811SOL    HW1 5388   2.355   1.883   1.795  1.6780  1.7950  1.4813
  811SOL    HW2 5389   2.451   1.773   1.833 -0.1532 -0.4341 -0.1262
  812SOL     OW 5390  10.630   7.125  10.185  0.0760  0.5342  0.2985
  812SOL    HW1 5391  10.580   7.194  10.229  0.1926  0.7823  0.0462
  812SOL    HW2 5392  10.569   7.091  10.119 -0.7543 -1.0883  1.8357
  813SOL     OW 5393  10.410   8.759   0.475 -0.0862 -0.0920 -0.1512
  813SOL    HW1 5394  10.438   8.850   0.477  0.4872 -0.2710  1.9484
  813SOL    HW2 5395  10.446   8.724   0.393 -2.6110  2.1940 -2.4653
  814SOL     OW 5396   1.443   1.158   4.783  0.0006  0.7164  0.3206
  814SOL    HW1 5397   1.512   1.156   4.850 -0.4512  0.4950  0.7895
  814SOL    HW2 5398   1.468   1.229   4.725 -0.3283  1.8461  1.5202
  815SOL     OW 5399   1.388   3.071  10.483  0.3855  0.5559  0.4078
  815SOL    HW1 5400   1.343   3.106  10.560  3.0766  0.4785  2.1537
  815SOL    HW2 5401   1.401   3.147  10.426 -2.1960  0.4999 -0.3666
  816SOL     OW 5402   9.624   5.482   5.738  0.1888 -0.1914 -0.6741
  816SOL    HW1 5403   9.704   5.484   5.791  1.3714  1.7792 -2.3580
  816SOL    HW2 5404   9.553   5.475   5.802  1.6548 -2.0388  0.8767
  817SOL     OW 5405   0.855   7.356   6.353 -0.0258  0.1852  0.3653
  817SOL    HW1 5406   0.928   7.353   6.292 -0.4383 -0.0468 -0.1256
  817SOL    HW2 5407   0.881   7.300   6.425  1.6644  2.6015  1.7715
  818SOL     OW 5408   5.096   4.357   0.424  0.2569 -0.6062  0.1013
  818SOL    HW1 5409   5.076   4.329   0.335 -0.2851 -1.2250  0.4091
  818SOL    HW2 5410   5.037   4.431   0.440  0.8264 -0.0541 -0.2780
  819SOL     OW 5411   0.678   4.497   0.873 -0.3340  0.1265  0.3386
  819SOL    HW1 5412   0.767   4.512   0.839 -0.3848  1.4179  0.7209
  819SOL    HW2 5413   0.691   4.486   0.967 -0.5860  0.4458  0.4111
  820SOL     OW 5414   9.397   9.064   3.468 -0.2701  0.0071 -0.1548
  820SOL    HW1 5415   9.309   9.056   3.504  0.2917 -1.0499  1.0919
  820SOL    HW2 5416   9.453   9.023   3.534  0.9343 -1.2676 -1.8951
  821SOL     OW 5417   3.745   6.400   0.393  0.4514 -0.3162  0.4784
  821SOL    HW1 5418   3.679   6.426   0.458  0.6969 -0.7876  0.9228
  821SOL    HW2 5419   3.813   6.357   0.444 -0.7188 -3.4212 -0.3418
  822SOL     OW 5420   6.765   2.941   1.301 -0.1545  0.3592  0.1398
  822SOL    HW1 5421   6.847   2.914   1.343  1.0067  0.5756 -1.8956
  822SOL    HW2 5422   6.789   3.013   1.244 -1.6139 -0.0940 -1.1147
  823SOL     OW 5423   5.642   3.832   4.414  0.4025 -0.1173 -0.5155
  823SOL    HW1 5424   5.623   3.749   4.457  1.2801  0.8817  2.0224
  823SOL    HW2 5425   5.685   3.809   4.332 -0.1137 -2.1428 -0.2544
  824SOL     OW 5426   5.596   2.560   1.735  0.1684 -0.1698  0.2505
  824SOL    HW1 5427   5.578   2.581   1.644  0.8418 -0.5696  0.0154
  824SOL    HW2 5428   5.610   2.645   1.777  1.6470 -0.0549 -0.4226
  825SOL     OW 5429   1.374   8.007   5.897  0.1525 -0.0267  0.3285
  825SOL    HW1 5430   1.386   8.091   5.941  0.6138  0.2782 -0.3613
  825SOL    HW2 5431   1.301   8.021   5.837  1.2578  0.3972 -0.9761
  826SOL     OW 5432   9.929   2.988   3.941  0.3744 -0.0378 -0.0313
  826SOL    HW1 5433   9.903   2.903   3.978  0.9943 -0.2912 -0.1708
  826SOL    HW2 5434   9.849   3.040   3.943 -0.3544 -1.0509 -1.1511
  827SOL     OW 5435   9.126   4.237   5.399  0.4846  0.1174 -0.3481
  827SOL    HW1 5436   9.083   4.157   5.428  1.9430  0.2871  2.6437
  827SOL    HW2 5437   9.056   4.289   5.359 -0.6752 -2.1796 -1.4889
  828SOL     OW 5438   1.870   2.977   1.481  1.2080  0.5331 -0.2780
  828SOL    HW1 5439   1.877   3.058   1.429  1.0452  1.0634  0.5099
  828SOL    HW2 5440   1.959   2.960   1.511  1.0573  1.0597  0.4933
  829SOL     OW 5441   9.213   9.613   8.963  0.0496  0.3999  0.0740
  829SOL    HW1 5442   9.126   9.586   8.934  0.0309 -1.9577  2.0644
  829SOL    HW2 5443   9.199   9.699   9.004 -1.4498 -0.1145  0.6955
  830SOL     OW 5444   3.413   0.432   0.648 -0.5328  0.6985  0.8859
  830SOL    HW1 5445   3.329   0.414   0.606  0.6743  0.3383 -1.5045
  830SOL    HW2 5446   3.440   0.517   0.614  0.5575  0.3275  0.7910
  831SOL     OW 5447   1.579   2.724   5.460  0.6235  0.1122 -0.3750
  831SOL    HW1 5448   1.575   2.718   5.555 -0.1290  1.4296 -0.3020
  831SOL    HW2 5449   1.644   2.791   5.443  1.9633 -1.2537 -0.8640
  832SOL     OW 5450   2.224  10.067   4.913  0.3153 -1.2867 -0.2652
  832SOL    HW1 5451   2.244   9.973   4.913  0.6877 -1.2207 -1.1118
  832SOL    HW2 5452   2.130  10.071   4.896 -0.0503 -1.5404  1.5171
  833SOL     OW 5453   9.072  10.579   2.281  0.3623  0.3991  0.6231
  833SOL    HW1 5454   8.991  10.622   2.253  0.6732 -0.9021 -2.6466
  833SOL    HW2 5455   9.042  10.498   2.323 -0.0691 -0.1236 -0.6615
  834SOL     OW 5456   2.141   7.851   9.758 -0.0405 -0.4975  0.5522
  834SOL    HW1 5457   2.114   7.919   9.696  0.8060  0.3616  1.0963
  834SOL    HW2 5458   2.231   7.828   9.731 -0.5216 -1.8641 -0.0035
  835SOL     OW 5459   4.711   1.762   6.135  0.2455 -0.1181 -0.0771
  835SOL    HW1 5460   4.684   1.678   6.173  2.0657 -0.7022  0.0431
  835SOL    HW2 5461   4.765   1.737   6.060  0.9378  0.9308  0.0586
  836SOL     OW 5462   6.262   8.815   4.250  0.1641  0.4366  0.0486
  836SOL    HW1 5463   6.175   8.837   4.216  0.7794  0.3008 -1.6692
  836SOL    HW2 5464   6.246   8.742   4.310 -0.8229 -0.1166 -0.8564
  837SOL     OW 5465   7.108   6.604   7.937  0.1410 -0.6701  0.0996
  837SOL    HW1 5466   7.081   6.516   7.908  0.6367 -1.4023  1.7285
  837SOL    HW2 5467   7.162   6.637   7.866 -3.2545  0.0405 -2.4084
  838SOL     OW 5468   9.297   9.762   2.040  0.2123  0.2714 -0.0527
  838SOL    HW1 5469   9.387   9.785   2.015  0.6776 -1.0389  0.3568
  838SOL    HW2 5470   9.242   9.816   1.983  1.2402 -0.8229 -2.1672
  839SOL     OW 5471   0.670   4.231   7.465 -0.1074 -0.0018  0.0304
  839SOL    HW1 5472   0.597   4.197   7.517 -0.0835  1.7148  1.2589
  839SOL    HW2 5473   0.632   4.248   7.379 -1.5929  2.2152  1.0471
  840SOL     OW 5474   6.410  10.125   5.144 -0.1808 -0.3477 -0.5343
  840SOL    HW1 5475   6.450  10.074   5.215 -2.8550 -4.7163 -1.7418
  840SOL    HW2 5476   6.369  10.199   5.188  1.0445 -1.0341  1.9880
  841SOL     OW 5477   0.378   4.959   9.541 -0.0195  0.2645 -0.0401
  841SOL    HW1 5478   0.352   4.961   9.633  1.2802 -3.3507  0.5851
  841SOL    HW2 5479   0.463   5.003   9.539  0.8357 -1.2503  0.9489
  842SOL     OW 5480   5.267   3.573   9.516 -0.3322  0.0411  0.1655
  842SOL    HW1 5481   5.266   3.510   9.588  0.4949  0.2297  0.3531
  842SOL    HW2 5482   5.292   3.521   9.439 -0.4984 -0.0214  0.1529
  843SOL     OW 5483   5.679   3.572  10.461  0.2230 -0.1917 -0.8577
  843SOL    HW1 5484   5.639   3.549  10.545 -0.4209  1.6770 -0.6071
  843SOL    HW2 5485   5.768   3.600  10.483  0.5869 -1.1975 -1.0097
  844SOL     OW 5486   1.252   5.771   6.949  0.5574 -0.0469 -0.3019
  844SOL    HW1 5487   1.210   5.847   6.989  0.8134 -0.6868  1.2545
  844SOL    HW2 5488   1.248   5.704   7.017  2.4861 -0.6807 -0.7699
  845SOL     OW 5489  10.224   2.704   9.250  0.1690 -0.0976  0.2325
  845SOL    HW1 5490  10.259   2.693   9.161 -0.3156  0.1460  0.0072
  845SOL    HW2 5491  10.248   2.624   9.296  1.4122  0.2504  0.2153
  846SOL     OW 5492   2.634   6.366   9.156  0.1894 -0.2202  0.3193
  846SOL    HW1 5493   2.613   6.450   9.197 -1.2950 -0.2060 -0.3836
  846SOL    HW2 5494   2.572   6.305   9.195 -2.9516  0.2272 -3.3655
  847SOL     OW 5495   2.132   0.397   4.369 -0.4636 -0.3399 -0.6978
  847SOL    HW1 5496   2.204   0.346   4.332 -0.7006  0.2548 -2.0496
  847SOL    HW2 5497   2.142   0.484   4.331  1.5238  1.5814  3.5793
  848SOL     OW 5498   8.248   5.612   2.379  0.4826  0.0462 -0.1450
  848SOL    HW1 5499   8.229   5.681   2.442 -1.8828 -0.8025  0.1924
  848SOL    HW2 5500   8.197   5.634   2.302  2.7852  0.6879 -1.5823
  849SOL     OW 5501   9.005   1.563  10.227  0.0650  0.0754 -0.0845
  849SOL    HW1 5502   9.038   1.618  10.298  1.2735 -2.3792  1.3735
  849SOL    HW2 5503   8.911   1.557  10.243 -0.4137  2.8920 -1.2274
  850SOL     OW 5504   2.915   8.333   1.871 -0.7022 -0.4945 -0.5626
  850SOL    HW1 5505   2.984   8.369   1.815 -0.2528 -1.1185 -0.4164
  850SOL    HW2 5506   2.938   8.363   1.959 -1.2084  0.1827 -0.6551
  851SOL     OW 5507   6.759   8.873   8.685 -0.1721  0.1114 -0.5672
  851SOL    HW1 5508   6.686   8.811   8.679 -0.7173  0.8346 -1.5800
  851SOL    HW2 5509   6.719   8.959   8.675  0.3336  0.8254  2.4559
  852SOL     OW 5510   7.894   8.260   9.129  0.0319 -0.7821 -0.9276
  852SOL    HW1 5511   7.885   8.292   9.039  3.2104 -1.8075 -1.7325
  852SOL    HW2 5512   7.963   8.315   9.167 -1.5198 -0.1008  1.1000
  853SOL     OW 5513   7.014   1.355  10.446 -0.0093 -0.0569 -0.0792
  853SOL    HW1 5514   7.071   1.417  10.399 -0.3076  0.4272  0.1883
  853SOL    HW2 5515   6.963   1.410  10.505  1.5377 -0.8003  2.0857
  854SOL     OW 5516   5.516   4.436   0.686  0.2164 -0.1742 -0.3659
  854SOL    HW1 5517   5.566   4.440   0.767 -1.1202  0.9136  0.4631
  854SOL    HW2 5518   5.429   4.468   0.710 -0.7908 -1.6417 -1.8203
  855SOL     OW 5519   4.541  10.032   4.930  0.0892 -0.0317  0.2975
  855SOL    HW1 5520   4.559  10.054   4.838  2.3786 -0.1001  0.6741
  855SOL    HW2 5521   4.535   9.936   4.930 -1.8555  0.0486 -0.0444
  856SOL     OW 5522   2.190   9.875   1.441  0.2354 -0.0310 -0.0806
  856SOL    HW1 5523   2.160   9.946   1.384  2.0530  1.0763  0.2732
  856SOL    HW2 5524   2.275   9.851   1.406  0.3032 -1.0233  0.7186
  857SOL     OW 5525   4.918   1.510   6.351 -0.4797  0.1278  0.3662
  857SOL    HW1 5526   4.975   1.440   6.317  0.9340  0.3848  2.0736
  857SOL    HW2 5527   4.842   1.508   6.293 -0.2131 -2.4236 -0.0194
  858SOL     OW 5528   3.834   0.815   7.967  0.0316  0.2569 -0.0213
  858SOL    HW1 5529   3.832   0.732   8.016  1.1039 -0.5687 -1.3144
  858SOL    HW2 5530   3.898   0.868   8.015 -1.2221  0.6726  1.2659
  859SOL     OW 5531   0.446   0.500   7.397  0.9582 -0.3035  0.7744
  859SOL    HW1 5532   0.487   0.558   7.334  0.8129 -2.8773 -1.9189
  859SOL    HW2 5533   0.507   0.496   7.470  2.6982  0.3914 -0.5761
  860SOL     OW 5534   5.242  10.146   1.437 -0.0314 -0.1466 -0.3086
  860SOL    HW1 5535   5.245  10.101   1.521  1.3857 -0.8213 -0.6877
  860SOL    HW2 5536   5.149  10.144   1.412 -0.2622 -1.2274  0.5499
  861SOL     OW 5537   6.875   1.363   5.496  0.1471 -0.2980  0.2758
  861SOL    HW1 5538   6.789   1.402   5.481  0.9150  1.4302  0.0570
  861SOL    HW2 5539   6.886   1.301   5.424 -0.9007 -0.5084  0.2871
  862SOL     OW 5540   0.643   4.230   5.248 -0.1138  0.0362 -0.9138
  862SOL    HW1 5541   0.554   4.216   5.215 -0.0757  1.7524 -1.8754
  862SOL    HW2 5542   0.699   4.221   5.171  0.3737  0.4818 -0.6219
  863SOL     OW 5543   5.120   1.359   4.420  0.1100 -0.1820  0.1679
  863SOL    HW1 5544   5.088   1.276   4.454 -1.5425 -0.3557 -1.6111
  863SOL    HW2 5545   5.139   1.342   4.328 -1.1017  1.5584 -0.4640
  864SOL     OW 5546   0.036   7.050   7.235 -0.4632 -0.3751  0.3638
  864SOL    HW1 5547  -0.021   6.976   7.214 -0.7211 -0.0224 -0.2167
  864SOL    HW2 5548  -0.006   7.125   7.193  0.8136 -0.2310 -0.7184
  865SOL     OW 5549   0.150   4.730  10.589 -0.4369  0.2063  0.3430
  865SOL    HW1 5550   0.164   4.734  10.683 -0.9600 -0.6636  0.4681
  865SOL    HW2 5551   0.055   4.735  10.579 -0.4247 -0.2942 -0.0930
  866SOL     OW 5552   6.272   0.727   5.786  0.2353 -0.3100  0.1339
  866SOL    HW1 5553   6.289   0.813   5.824 -0.0863  1.1095 -2.7345
  866SOL    HW2 5554   6.177   0.720   5.784  0.2374 -1.3386  1.4436
  867SOL     OW 5555   9.443   2.388   7.049 -0.3849 -0.1150  0.3763
  867SOL    HW1 5556   9.516   2.432   7.094 -1.2355  1.5427  0.1912
  867SOL    HW2 5557   9.469   2.295   7.047  0.4750  0.0050  2.7207
  868SOL     OW 5558   7.650   7.092   7.794 -0.5145  0.2019 -0.5827
  868SOL    HW1 5559   7.567   7.060   7.829 -0.4975 -0.6949 -1.3367
  868SOL    HW2 5560   7.627   7.175   7.752 -0.9696  0.1088 -0.5303
  869SOL     OW 5561   9.831   6.848   8.732  0.0880  0.0645 -0.5982
  869SOL    HW1 5562   9.837   6.915   8.664 -1.4447 -0.6450 -1.4971
  869SOL    HW2 5563   9.769   6.785   8.697 -0.0918 -0.7638  1.1265
  870SOL     OW 5564   4.631   2.844   8.245 -0.4248 -0.0276  0.5023
  870SOL    HW1 5565   4.658   2.851   8.336 -1.7132 -0.3232  0.9240
  870SOL    HW2 5566   4.566   2.914   8.233  1.2033  1.3381 -0.7761
  871SOL     OW 5567   2.009   4.741   7.915 -0.3357  0.0763  0.2153
  871SOL    HW1 5568   1.933   4.782   7.956 -0.1411  0.6320  0.0336
  871SOL    HW2 5569   2.074   4.812   7.909 -0.4061  0.0617 -1.1621
  872SOL     OW 5570   0.186   2.302   9.539 -0.5456  0.3784 -0.0269
  872SOL    HW1 5571   0.117   2.324   9.476 -0.9531  1.2947  0.7159
  872SOL    HW2 5572   0.234   2.384   9.551  1.3577 -0.4666 -1.3009
  873SOL     OW 5573   9.220   9.589   3.008 -0.6722  0.2042  0.2534
  873SOL    HW1 5574   9.130   9.581   2.975 -1.3984  2.2135  1.5581
  873SOL    HW2 5575   9.273   9.598   2.929 -1.8190  0.4847 -0.5226
  874SOL     OW 5576   5.673   9.819   5.937 -0.4611  0.1109 -0.0445
  874SOL    HW1 5577   5.749   9.877   5.934 -0.5329  0.1804 -0.5317
  874SOL    HW2 5578   5.689   9.764   6.014  0.2299 -0.0819 -0.3150
  875SOL     OW 5579  10.483   3.253   1.656 -0.3146 -0.5731 -0.0529
  875SOL    HW1 5580  10.387   3.253   1.647 -0.3667 -0.9669  0.4400
  875SOL    HW2 5581  10.510   3.338   1.622 -0.9358 -0.0551  0.7215
  876SOL     OW 5582   9.667   9.088   6.186  0.0312  0.2042  0.3961
  876SOL    HW1 5583   9.575   9.105   6.164  0.2980  0.9293 -0.2167
  876SOL    HW2 5584   9.707   9.175   6.187  0.5657 -0.0463  1.3700
  877SOL     OW 5585   6.928   0.491  10.230 -0.1276  0.1612 -0.2719
  877SOL    HW1 5586   6.892   0.404  10.245 -0.1621 -0.3887 -3.0845
  877SOL    HW2 5587   6.862   0.536  10.178  1.0225  0.9603 -1.0908
  878SOL     OW 5588   7.764   4.805   3.349  0.4827  0.0333  0.4690
  878SOL    HW1 5589   7.750   4.776   3.439  1.4158 -1.4264  0.1886
  878SOL    HW2 5590   7.840   4.863   3.354  1.0346 -0.6880  0.5212
  879SOL     OW 5591   4.730   9.679   9.214 -0.8829 -0.1528  0.3273
  879SOL    HW1 5592   4.653   9.697   9.160  0.0130 -0.9730 -1.3103
  879SOL    HW2 5593   4.703   9.607   9.270 -1.2220 -0.6544 -0.4628
  880SOL     OW 5594  10.100   9.985   8.298 -0.3773 -0.3526  0.5109
  880SOL    HW1 5595  10.168  10.045   8.330 -1.5319  0.5494  1.3476
  880SOL    HW2 5596  10.146   9.902   8.285  0.8901  0.2394  1.0474
  881SOL     OW 5597   8.862   1.375  10.530 -0.6743 -0.2279 -0.0453
  881SOL    HW1 5598   8.794   1.418  10.479 -1.0680 -0.1756  0.5167
  881SOL    HW2 5599   8.817   1.344  10.608 -0.7177 -2.8418 -1.0065
  882SOL     OW 5600   9.303   3.517   5.461  0.1973 -0.1284  0.2099
  882SOL    HW1 5601   9.312   3.608   5.432  0.6370  0.1297  1.1127
  882SOL    HW2 5602   9.266   3.472   5.386  1.3011  0.5061 -0.7505
  883SOL     OW 5603   1.677   1.221   8.389 -0.2069 -0.1158  0.1019
  883SOL    HW1 5604   1.645   1.154   8.329  0.3352  0.9824 -1.4792
  883SOL    HW2 5605   1.605   1.235   8.451 -0.9921 -0.8941 -0.6234
  884SOL     OW 5606   2.062   9.555   5.648 -0.3868 -0.6421 -0.5685
  884SOL    HW1 5607   2.063   9.578   5.740  0.0598 -1.0916 -0.4570
  884SOL    HW2 5608   2.007   9.622   5.607  0.4813  0.3228 -0.1855
  885SOL     OW 5609   9.396   0.210   3.798  0.4104 -0.1708 -0.3523
  885SOL    HW1 5610   9.419   0.209   3.891  0.2832 -2.5001 -0.2796
  885SOL    HW2 5611   9.461   0.154   3.756  0.3049  0.6215 -1.6350
  886SOL     OW 5612   5.667   6.459   6.121 -0.2939 -0.2765  0.1828
  886SOL    HW1 5613   5.680   6.553   6.110  1.3236 -0.5798 -0.8708
  886SOL    HW2 5614   5.664   6.446   6.216  0.1710  0.7512  0.3484
  887SOL     OW 5615   4.297   8.632   5.328 -0.4917  0.0652 -0.0102
  887SOL    HW1 5616   4.275   8.552   5.376  1.2471 -0.8570 -0.6440
  887SOL    HW2 5617   4.299   8.700   5.394  1.6597 -1.1354  1.2881
  888SOL     OW 5618   1.793   5.289   5.372 -0.0456  0.2618  0.1788
  888SOL    HW1 5619   1.808   5.368   5.424 -1.1578  0.3637  0.3713
  888SOL    HW2 5620   1.699   5.289   5.355 -0.0845 -1.0943  0.3018
  889SOL     OW 5621   8.421   9.576   9.849 -0.0538  0.3109 -0.4365
  889SOL    HW1 5622   8.510   9.591   9.883 -0.5179 -1.2834  1.6646
  889SOL    HW2 5623   8.373   9.656   9.872 -0.1658 -0.4444  2.1789
  890SOL     OW 5624   4.573   7.845   7.683  0.4117  0.6280  0.1944
  890SOL    HW1 5625   4.514   7.920   7.680 -2.6917 -1.5726  0.6102
  890SOL    HW2 5626   4.616   7.851   7.768 -0.9835  1.1603  0.8961
  891SOL     OW 5627  10.373   3.196   6.020 -0.4976 -0.0914 -0.4355
  891SOL    HW1 5628  10.358   3.265   5.955  1.3043 -0.3087 -1.1510
  891SOL    HW2 5629  10.427   3.132   5.974 -0.9373 -1.2790  0.6607
  892SOL     OW 5630   6.995   8.927  10.627 -0.4341 -0.4374  0.7774
  892SOL    HW1 5631   7.052   8.856  10.655  0.8504 -0.1622 -0.9391
  892SOL    HW2 5632   6.908   8.887  10.623 -0.0049 -1.4824  1.3308
  893SOL     OW 5633   6.419   2.623   9.680 -0.2720 -0.1887 -0.6978
  893SOL    HW1 5634   6.405   2.715   9.705  0.4313 -0.6300  1.5339
  893SOL    HW2 5635   6.446   2.628   9.588 -0.7027  1.7943 -0.7796
  894SOL     OW 5636   8.902   9.923   4.675  0.5622  0.5196  0.0623
  894SOL    HW1 5637   8.885   9.887   4.762 -0.4656 -1.6957 -0.9737
  894SOL    HW2 5638   8.829   9.983   4.659 -0.6478 -0.9412 -0.1774
  895SOL     OW 5639   7.079   4.718   0.061 -0.8488  0.2400  0.1166
  895SOL    HW1 5640   7.006   4.718   0.124 -1.6067 -0.7636 -0.7299
  895SOL    HW2 5641   7.084   4.628   0.030 -1.6363  1.0366 -2.5363
  896SOL     OW 5642   4.684   9.430   6.409 -0.2712  0.6468 -0.5584
  896SOL    HW1 5643   4.779   9.441   6.413 -0.1912  0.6391 -1.8666
  896SOL    HW2 5644   4.671   9.337   6.389 -0.5573  0.6020 -0.1569
  897SOL     OW 5645   7.816  10.448   4.847 -0.7653 -0.1288 -0.3363
  897SOL    HW1 5646   7.787  10.455   4.756 -1.8460 -0.3161 -0.0207
  897SOL    HW2 5647   7.782  10.528   4.889 -1.2424 -0.5710  0.1439
  898SOL     OW 5648   2.052   5.577   8.873 -0.3275 -0.2901  0.5831
  898SOL    HW1 5649   2.014   5.599   8.958 -1.8456 -2.3850  0.5255
  898SOL    HW2 5650   2.103   5.498   8.889 -1.4754 -1.3252 -0.5770
  899SOL     OW 5651   2.487   1.194   3.136  0.3362 -0.0876 -0.1968
  899SOL    HW1 5652   2.399   1.206   3.102  1.2380  0.5424 -2.4987
  899SOL    HW2 5653   2.499   1.267   3.197 -0.5809  0.0873 -0.2138
  900SOL     OW 5654   1.955   5.550   4.162  0.0208 -0.1822 -0.0849
  900SOL    HW1 5655   1.940   5.529   4.254 -0.2981  1.4898  0.2660
  900SOL    HW2 5656   2.044   5.586   4.160  0.4038 -1.1157 -0.6088
  901SOL     OW 5657   0.421   1.113   9.283  0.2247  0.8107  0.1210
  901SOL    HW1 5658   0.406   1.144   9.193 -0.2094 -1.0200 -0.4981
  901SOL    HW2 5659   0.333   1.095   9.317  0.4497  0.2189  0.4025
  902SOL     OW 5660   0.538   9.935   9.991  0.0990  0.3711 -0.0151
  902SOL    HW1 5661   0.494   9.944   9.907  0.5459  1.0199 -0.1898
  902SOL    HW2 5662   0.570   9.845   9.993  0.0260  0.3334 -0.5097
  903SOL     OW 5663   2.514   3.219   9.767  0.0599 -0.3220 -0.5250
  903SOL    HW1 5664   2.464   3.282   9.818 -1.6822 -0.9678 -1.3314
  903SOL    HW2 5665   2.475   3.134   9.790  2.1058 -1.1159  0.2745
  904SOL     OW 5666   1.992   8.158   5.517  0.2467  0.4569 -0.1060
  904SOL    HW1 5667   2.033   8.171   5.432  0.6542  1.8205  0.2673
  904SOL    HW2 5668   1.960   8.068   5.515  1.4484  0.0197 -1.1791
  905SOL     OW 5669   6.208   3.721   2.209 -0.1676 -0.2667 -0.3582
  905SOL    HW1 5670   6.165   3.684   2.286 -0.6818  0.6204 -0.1969
  905SOL    HW2 5671   6.153   3.796   2.185  1.4170  1.0843  0.0107
  906SOL     OW 5672   2.224   4.489   3.367  0.4689  0.0894 -0.0286
  906SOL    HW1 5673   2.199   4.415   3.423 -1.1926 -0.2892 -1.1872
  906SOL    HW2 5674   2.159   4.557   3.386  0.9538  0.6108 -0.2209
  907SOL     OW 5675   3.656   9.152   2.133  0.0242  0.1691 -0.1721
  907SOL    HW1 5676   3.738   9.117   2.167  0.1288  0.3937 -0.1900
  907SOL    HW2 5677   3.678   9.241   2.104 -0.4015  0.5152  0.5375
  908SOL     OW 5678   3.236   8.208   0.356 -0.4661  0.2984  0.3916
  908SOL    HW1 5679   3.194   8.294   0.360  0.9122  1.0593 -0.6026
  908SOL    HW2 5680   3.175   8.154   0.306 -0.5093  1.2292 -0.5848
  909SOL     OW 5681   6.510   5.532   6.931 -0.5013 -0.0464 -0.0630
  909SOL    HW1 5682   6.443   5.585   6.889  0.5446  0.2392 -1.4498
  909SOL    HW2 5683   6.463   5.481   6.996 -2.0585  0.1703 -0.9711
  910SOL     OW 5684   6.327   3.101   4.373  0.6825  0.3479 -0.3809
  910SOL    HW1 5685   6.383   3.027   4.397  1.7232  1.2120 -0.0936
  910SOL    HW2 5686   6.293   3.078   4.286  1.6000 -0.1284 -0.6256
  911SOL     OW 5687  10.112   3.897   3.331 -0.0199 -0.8701  0.3899
  911SOL    HW1 5688  10.186   3.895   3.391 -0.4846 -0.0280  0.9963
  911SOL    HW2 5689  10.078   3.807   3.333  0.8816 -1.2334  0.2055
  912SOL     OW 5690   6.868   3.735   3.447 -0.5719  0.0311 -0.0663
  912SOL    HW1 5691   6.922   3.768   3.520 -2.0312  1.4860  0.4096
  912SOL    HW2 5692   6.809   3.672   3.488 -0.9324  0.3431 -0.0985
  913SOL     OW 5693   0.224  10.403   0.009  0.0368 -0.3858 -0.6952
  913SOL    HW1 5694   0.295  10.436  -0.045  1.2682 -0.2879  0.9119
  913SOL    HW2 5695   0.221  10.461   0.085 -1.9387 -0.2390 -0.8149
  914SOL     OW 5696   9.206   8.050   9.308 -0.2244 -0.1675  0.0031
  914SOL    HW1 5697   9.257   7.996   9.248  2.7950  0.7588  1.5306
  914SOL    HW2 5698   9.223   8.140   9.280 -1.2993  0.1750  0.3931
  915SOL     OW 5699   1.776   2.908   6.704 -0.2037 -0.1029  0.2721
  915SOL    HW1 5700   1.729   2.870   6.630  0.6320 -1.2939  0.3250
  915SOL    HW2 5701   1.712   2.966   6.745 -0.6948  0.5782 -1.3525
  916SOL     OW 5702   8.596   2.032   9.967 -0.2510 -0.0470 -0.2913
  916SOL    HW1 5703   8.501   2.029   9.958 -0.0287 -1.1378 -3.2593
  916SOL    HW2 5704   8.614   1.980  10.046 -2.0626  0.0352  0.2231
  917SOL     OW 5705   5.613   0.330   7.467 -0.0528 -0.2667  0.4700
  917SOL    HW1 5706   5.700   0.301   7.494 -0.0360 -0.1450  0.5457
  917SOL    HW2 5707   5.577   0.256   7.419 -0.2075 -0.5938  1.0892
  918SOL     OW 5708   1.357   9.170   6.958 -0.6725 -0.4494  0.3373
  918SOL    HW1 5709   1.380   9.227   6.884  0.7824 -0.7760  0.5041
  918SOL    HW2 5710   1.269   9.197   6.983 -0.1125  1.5871  0.2668
  919SOL     OW 5711   4.901   5.713   1.496 -0.5737  0.3704  0.1069
  919SOL    HW1 5712   4.879   5.700   1.404 -0.8429  0.4822  0.1542
  919SOL    HW2 5713   4.940   5.630   1.524 -2.0284 -0.2791  0.3416
  920SOL     OW 5714   3.416   8.487   3.260 -0.2653 -0.5170  0.1956
  920SOL    HW1 5715   3.427   8.419   3.194  2.4137 -0.4232  0.4665
  920SOL    HW2 5716   3.425   8.570   3.213  1.4421 -0.4471  0.6033
  921SOL     OW 5717   8.488   5.441   7.776 -0.4259 -0.7894  0.3081
  921SOL    HW1 5718   8.472   5.367   7.718  1.7147 -1.0469 -0.0572
  921SOL    HW2 5719   8.479   5.405   7.864 -1.7638 -0.8745  0.1511
  922SOL     OW 5720   4.017   1.551   2.060  0.0887  0.0421  0.0803
  922SOL    HW1 5721   4.045   1.465   2.026 -0.1727  0.1070 -0.3067
  922SOL    HW2 5722   4.086   1.611   2.031  0.2209 -0.0205  0.2645
  923SOL     OW 5723   7.464   0.358   2.116 -0.0836 -0.1735  0.2245
  923SOL    HW1 5724   7.436   0.400   2.034  0.7259  0.2953  0.1741
  923SOL    HW2 5725   7.553   0.391   2.130 -0.7101  0.8967  2.0395
  924SOL     OW 5726   6.738   2.285   1.233 -0.7654  0.4799 -0.0131
  924SOL    HW1 5727   6.654   2.328   1.246 -0.6856  0.3348  1.0484
  924SOL    HW2 5728   6.799   2.331   1.290 -0.2611  0.1631 -0.2787
  925SOL     OW 5729   7.200   1.532   7.353  0.5973  0.2757 -0.3310
  925SOL    HW1 5730   7.123   1.586   7.373  0.8212  0.1765  0.8897
  925SOL    HW2 5731   7.251   1.585   7.291  0.2536  0.9703 -0.0349
  926SOL     OW 5732   3.759   9.061   6.602  0.6143  0.0818  0.3228
  926SOL    HW1 5733   3.769   9.156   6.608 -1.1845  0.4175 -1.1123
  926SOL    HW2 5734   3.690   9.040   6.664 -0.2085 -0.0263 -0.6140
  927SOL     OW 5735   6.954   1.211   9.451 -0.7676  0.5421  0.0071
  927SOL    HW1 5736   6.900   1.250   9.520 -0.3219  1.9542 -0.4097
  927SOL    HW2 5737   7.040   1.250   9.463 -0.5437  0.3832 -1.0012
  928SOL     OW 5738   5.611   1.609  10.217  0.2087 -0.8860 -0.4548
  928SOL    HW1 5739   5.663   1.607  10.137  0.3499  0.7030 -0.4256
  928SOL    HW2 5740   5.674   1.626  10.287 -0.0613 -1.1853 -0.1290
  929SOL     OW 5741   5.326   8.729  10.290  0.6730  0.1234 -0.1329
  929SOL    HW1 5742   5.408   8.689  10.263  0.7301 -1.8901  2.6506
  929SOL    HW2 5743   5.262   8.701  10.225  1.8268  0.2886 -1.3657
  930SOL     OW 5744   7.251   6.996   4.901 -0.4460  0.8496  0.6000
  930SOL    HW1 5745   7.258   7.018   4.808 -2.4927  0.4980  0.3190
  930SOL    HW2 5746   7.273   7.077   4.947  4.2350  0.1848  0.0466
  931SOL     OW 5747   8.674   8.899   8.790  0.1585 -0.2091  0.5159
  931SOL    HW1 5748   8.607   8.861   8.734  0.2276 -1.5191  1.2756
  931SOL    HW2 5749   8.637   8.983   8.818  0.0482  0.3839 -1.2788
  932SOL     OW 5750   9.856   1.818   1.057 -0.8405  0.6023  0.4594
  932SOL    HW1 5751   9.786   1.844   0.997 -0.1443  1.9153  0.1817
  932SOL    HW2 5752   9.869   1.895   1.113 -0.9286 -0.3193  1.7802
  933SOL     OW 5753   2.555   7.854   2.484  0.0415  0.2141  0.1524
  933SOL    HW1 5754   2.575   7.922   2.549  0.1564  0.2141  0.1171
  933SOL    HW2 5755   2.492   7.896   2.426  0.6787  0.5490 -0.3081
  934SOL     OW 5756   1.468   7.273  10.152  0.3315 -0.3097 -0.2587
  934SOL    HW1 5757   1.500   7.353  10.195  1.6324 -0.3045 -1.1970
  934SOL    HW2 5758   1.417   7.229  10.220 -0.1540  1.1496  0.3813
  935SOL     OW 5759   2.028   5.137   1.124  0.3106  0.0222 -0.7633
  935SOL    HW1 5760   2.080   5.195   1.069  0.9179 -0.4346 -0.6712
  935SOL    HW2 5761   2.065   5.147   1.211  0.4456 -0.5295 -0.7539
  936SOL     OW 5762   3.121   3.433   0.089  0.4105  0.7914  0.5141
  936SOL    HW1 5763   3.032   3.466   0.090  0.0014 -0.2773  1.1509
  936SOL    HW2 5764   3.119   3.356   0.146  0.8947 -1.4008 -2.2412
  937SOL     OW 5765   8.798   9.402   8.161 -0.3668 -0.3199 -0.4156
  937SOL    HW1 5766   8.727   9.417   8.098 -2.2402 -3.5075  0.6878
  937SOL    HW2 5767   8.838   9.320   8.133 -0.4897 -1.1941  1.7962
  938SOL     OW 5768   3.060   1.661   4.912  0.5144  1.0929 -0.1492
  938SOL    HW1 5769   3.086   1.719   4.840  1.0962  3.2541  1.6891
  938SOL    HW2 5770   3.038   1.720   4.984  0.6951 -0.9837  1.7282
  939SOL     OW 5771   3.429   9.665   9.784  0.3137  0.3286 -0.2520
  939SOL    HW1 5772   3.421   9.575   9.814 -1.9694  0.7190  0.4832
  939SOL    HW2 5773   3.521   9.687   9.800  0.5644 -1.3889  0.9663
  940SOL     OW 5774   2.552   5.610   9.093  0.1458  0.2611 -0.1569
  940SOL    HW1 5775   2.553   5.558   9.174  0.3462  1.7953  0.8716
  940SOL    HW2 5776   2.639   5.649   9.089  0.6503 -0.9222 -1.9326
  941SOL     OW 5777   1.406   5.354   9.742 -0.6317  0.2518 -0.1670
  941SOL    HW1 5778   1.447   5.424   9.791 -0.7800 -0.2178  0.6421
  941SOL    HW2 5779   1.458   5.346   9.662 -0.7178  1.3835 -0.3426
  942SOL     OW 5780   6.975   5.884   4.008  0.1918 -0.2613 -0.4235
  942SOL    HW1 5781   6.923   5.866   4.086  0.9625 -2.1016 -0.2972
  942SOL    HW2 5782   6.921   5.945   3.958  0.0420  1.6448  1.8864
  943SOL     OW 5783   2.431   4.829   7.766  0.6533 -0.5539 -0.2020
  943SOL    HW1 5784   2.339   4.836   7.741  0.7809  1.2279 -0.3003
  943SOL    HW2 5785   2.430   4.835   7.862  0.6932  0.3462 -0.2415
  944SOL     OW 5786   4.325   4.907   9.203 -0.0611  0.6963  0.0801
  944SOL    HW1 5787   4.259   4.976   9.211 -1.8086 -0.9996  0.9923
  944SOL    HW2 5788   4.343   4.880   9.294  0.2659 -0.3548 -0.2864
  945SOL     OW 5789   7.968   4.022   2.533  0.5256 -0.5929  0.3054
  945SOL    HW1 5790   7.905   4.083   2.495  0.6752  2.7001  4.5651
  945SOL    HW2 5791   7.914   3.950   2.565 -0.9393  1.0560  1.8280
  946SOL     OW 5792   3.468   8.073   7.828  0.6322 -0.0903  0.1558
  946SOL    HW1 5793   3.532   8.010   7.795  0.5913  0.3838 -0.8752
  946SOL    HW2 5794   3.454   8.133   7.754  0.9388  1.3297  1.2199
  947SOL     OW 5795   2.422   6.315   8.432  0.4407 -0.0865  0.0240
  947SOL    HW1 5796   2.494   6.274   8.383  1.6728 -1.3241  2.6410
  947SOL    HW2 5797   2.343   6.287   8.387  1.5050 -0.8304 -1.4674
  948SOL     OW 5798  10.339   2.746   1.319 -0.4222  0.0924 -0.1799
  948SOL    HW1 5799  10.363   2.837   1.331 -2.0268  0.5065  0.1842
  948SOL    HW2 5800  10.407   2.710   1.262  0.6506  1.2954  0.2962
  949SOL     OW 5801   3.020   2.153  10.340  0.3779  0.1226 -0.6482
  949SOL    HW1 5802   3.093   2.209  10.365  1.1457 -0.8396 -0.6952
  949SOL    HW2 5803   3.017   2.159  10.244  0.0713  0.5451 -0.6169
  950SOL     OW 5804   7.912   0.520   5.867  0.0798 -0.3896  0.4400
  950SOL    HW1 5805   7.878   0.527   5.956 -1.3172 -1.1694  0.0054
  950SOL    HW2 5806   7.938   0.428   5.859 -1.1036 -0.6767 -0.3695
  951SOL     OW 5807   8.816   0.969   0.123 -0.5280  0.7196 -0.2940
  951SOL    HW1 5808   8.857   0.966   0.210 -3.1368  3.2529  1.2160
  951SOL    HW2 5809   8.764   0.889   0.119 -0.0071  0.3426  0.2933
  952SOL     OW 5810   0.335   0.857   4.811  0.5690 -0.4058 -0.4932
  952SOL    HW1 5811   0.346   0.925   4.745 -1.2342 -0.7208 -1.1665
  952SOL    HW2 5812   0.318   0.777   4.761 -0.6752 -0.6844  0.3330
  953SOL     OW 5813   5.669   3.295   0.975 -0.3058 -0.2799 -0.0413
  953SOL    HW1 5814   5.697   3.206   0.952 -3.8837 -1.4567 -0.3782
  953SOL    HW2 5815   5.641   3.333   0.892 -0.5702  0.4989  0.3952
  954SOL     OW 5816   6.827   0.533   4.438 -0.8247 -0.5682  0.5592
  954SOL    HW1 5817   6.809   0.546   4.345 -0.0914  0.3631  0.5385
  954SOL    HW2 5818   6.898   0.470   4.441 -1.1129 -0.8972  0.5041
  955SOL     OW 5819   3.265   3.391   6.154 -0.0337 -0.2582  0.1752
  955SOL    HW1 5820   3.215   3.310   6.157 -1.3038  0.4359 -0.9988
  955SOL    HW2 5821   3.319   3.383   6.076 -0.0467 -0.0429  0.1437
  956SOL     OW 5822   6.953   8.230   0.108 -0.3817  0.7786  0.0071
  956SOL    HW1 5823   6.923   8.151   0.064 -0.2664  1.2651 -0.9701
  956SOL    HW2 5824   6.926   8.219   0.199 -1.4852  0.1778 -0.3800
  957SOL     OW 5825   2.026  10.238   6.698  0.2310 -0.5301  0.0777
  957SOL    HW1 5826   2.105  10.193   6.668  1.8332  2.3827 -0.4019
  957SOL    HW2 5827   2.017  10.312   6.638 -0.8499  1.1890  2.2577
  958SOL     OW 5828   1.520   0.474   9.921  0.4083  0.2717  0.1689
  958SOL    HW1 5829   1.480   0.545   9.970  0.7726  0.4475  0.2168
  958SOL    HW2 5830   1.532   0.404   9.984 -0.6981 -0.1366 -0.0634
  959SOL     OW 5831   6.705   4.241   0.949  0.8418 -0.2051 -0.1023
  959SOL    HW1 5832   6.777   4.179   0.937  1.3961  0.4157 -0.0338
  959SOL    HW2 5833   6.744   4.327   0.933  0.0012  0.1088 -0.5566
  960SOL     OW 5834   1.620   5.732   1.936 -0.1936 -0.1458 -0.5623
  960SOL    HW1 5835   1.558   5.667   1.903 -0.6958 -0.4106  0.8514
  960SOL    HW2 5836   1.705   5.689   1.928 -0.3027 -0.2205 -1.4314
  961SOL     OW 5837   2.387  10.687   0.297 -0.3612  0.3063  0.1697
  961SOL    HW1 5838   2.293  10.706   0.289 -0.3189 -0.2188 -2.4149
  961SOL    HW2 5839   2.395  10.597   0.269  1.0470  0.6544 -0.5900
  962SOL     OW 5840   5.543  10.263   6.806  0.4904  0.3743 -0.2029
  962SOL    HW1 5841   5.527  10.242   6.714 -1.6173 -1.7168  0.5511
  962SOL    HW2 5842   5.474  10.325   6.830 -0.9080 -1.4327  0.6782
  963SOL     OW 5843   2.146   8.026   6.084 -0.5116  0.1303  0.0469
  963SOL    HW1 5844   2.190   8.111   6.085  1.2743 -0.7482  1.1109
  963SOL    HW2 5845   2.179   7.983   6.006 -1.6530  0.4768 -0.6629
  964SOL     OW 5846   9.708   9.065   8.702 -0.0641 -0.4368  0.0509
  964SOL    HW1 5847   9.661   9.001   8.649 -1.1122  0.1824  0.1820
  964SOL    HW2 5848   9.701   9.147   8.653  1.2065 -0.3939 -0.0896
  965SOL     OW 5849   4.352  10.324   9.063  0.5477 -0.2387  0.1284
  965SOL    HW1 5850   4.260  10.328   9.038  0.6890 -0.2492 -0.3969
  965SOL    HW2 5851   4.400  10.336   8.981  1.0105 -1.5118  0.1900
  966SOL     OW 5852   6.920   3.020   9.732  0.5022 -0.5189 -0.1584
  966SOL    HW1 5853   6.908   3.105   9.690 -1.5264 -0.2230  0.8764
  966SOL    HW2 5854   7.014   3.005   9.729  0.8285  1.3593 -1.1203
  967SOL     OW 5855   8.203   0.328   3.412 -0.1298 -0.3174  0.2108
  967SOL    HW1 5856   8.270   0.393   3.434 -1.1830  1.2235 -0.8953
  967SOL    HW2 5857   8.184   0.284   3.495  0.1271  1.2830  1.1661
  968SOL     OW 5858   7.727  10.015   0.492  0.5553  0.1737  0.0261
  968SOL    HW1 5859   7.708   9.980   0.579  1.3274 -1.4024 -0.4081
  968SOL    HW2 5860   7.734  10.110   0.506 -0.7064  0.1030  1.4083
  969SOL     OW 5861   7.727   6.354   6.007  0.2534  0.0756  0.1368
  969SOL    HW1 5862   7.658   6.364   6.072 -0.2746 -0.1446 -0.3812
  969SOL    HW2 5863   7.681   6.331   5.926  0.7439  2.0016 -0.7433
  970SOL     OW 5864   8.508   6.768  10.410 -0.0635 -0.0614  0.6342
  970SOL    HW1 5865   8.428   6.716  10.407  1.1381 -2.1420  2.1897
  970SOL    HW2 5866   8.501   6.820  10.490 -0.8793  1.6214 -0.4788
  971SOL     OW 5867   1.908   9.960   4.018  0.3001 -0.3536 -0.1499
  971SOL    HW1 5868   1.847  10.033   4.009 -0.4783 -0.5934  2.2868
  971SOL    HW2 5869   1.980   9.981   3.960 -1.5889  0.4782 -2.3383
  972SOL     OW 5870   0.281   8.325   6.978 -0.1231  0.0919  0.5415
  972SOL    HW1 5871   0.269   8.420   6.984 -0.6883  0.4354 -3.2662
  972SOL    HW2 5872   0.193   8.292   6.960  0.4961 -0.6960 -1.2430
  973SOL     OW 5873   8.699   7.422   6.726  0.4805  0.0215  0.3194
  973SOL    HW1 5874   8.784   7.452   6.695  1.7913 -0.9251  2.7496
  973SOL    HW2 5875   8.718   7.348   6.783 -2.0710 -0.8472  0.1887
  974SOL     OW 5876   9.456   0.780   4.608  0.0917  0.0160  0.2952
  974SOL    HW1 5877   9.426   0.843   4.542 -1.5285 -1.3215 -0.3075
  974SOL    HW2 5878   9.491   0.707   4.558 -1.6470 -1.2593  0.8320
  975SOL     OW 5879   0.293   8.052   3.271  0.0803  0.1053  0.1035
  975SOL    HW1 5880   0.217   8.110   3.280  0.2042  0.0441  1.8817
  975SOL    HW2 5881   0.337   8.083   3.192 -0.2135  2.0395  0.6477
  976SOL     OW 5882   4.422  10.548   4.399  0.1670 -0.4049  0.1037
  976SOL    HW1 5883   4.353  10.613   4.389 -0.8159 -1.1903  1.5408
  976SOL    HW2 5884   4.403  10.482   4.332  0.1722 -0.0815 -0.2206
  977SOL     OW 5885   1.374   9.004   1.219 -0.4947  0.2260  0.5187
  977SOL    HW1 5886   1.405   8.925   1.263  0.6785 -0.3750 -1.2688
  977SOL    HW2 5887   1.361   8.977   1.128 -0.8794  1.8889  0.0521
  978SOL     OW 5888   6.894   8.981   7.029  1.0304  0.2887  0.9771
  978SOL    HW1 5889   6.826   9.043   7.004  1.6693  0.1412 -1.4262
  978SOL    HW2 5890   6.870   8.952   7.117 -1.7982  0.5139  0.3668
  979SOL     OW 5891   4.360   0.945   0.879  0.2568 -0.0919  0.0792
  979SOL    HW1 5892   4.376   0.865   0.928 -1.3615 -2.8771 -3.4283
  979SOL    HW2 5893   4.264   0.955   0.880  0.1621 -0.2177 -2.2388
  980SOL     OW 5894   9.418   6.161   6.785  0.8986 -0.3109 -0.4053
  980SOL    HW1 5895   9.352   6.092   6.798 -1.7328  2.2332  1.0000
  980SOL    HW2 5896   9.467   6.163   6.867  0.3607  0.0453 -0.0845
  981SOL     OW 5897   8.859   1.023   2.164  0.8376  0.1046 -0.8398
  981SOL    HW1 5898   8.763   1.020   2.165  0.8315 -0.1874  1.0922
  981SOL    HW2 5899   8.884   0.950   2.107 -0.1057 -2.6658  1.9632
  982SOL     OW 5900   6.132   8.795   4.543  0.3126 -0.1780  0.0355
  982SOL    HW1 5901   6.154   8.867   4.602  1.6879  1.6036 -2.4646
  982SOL    HW2 5902   6.204   8.733   4.554  1.0636  0.5932 -0.4020
  983SOL     OW 5903   0.604   4.664  10.203  0.3689 -0.4286  0.3299
  983SOL    HW1 5904   0.649   4.676  10.287  1.2722  0.0846 -0.2197
  983SOL    HW2 5905   0.603   4.752  10.164 -0.3205 -0.6084 -0.0659
  984SOL     OW 5906   1.915   3.432   3.862  0.1156 -0.8376  0.1255
  984SOL    HW1 5907   1.898   3.511   3.811 -0.9828 -1.7457 -0.9841
  984SOL    HW2 5908   2.009   3.416   3.852  0.1686 -0.2088 -0.4211
  985SOL     OW 5909   9.936   6.657   8.022  0.0401  0.2010  0.5436
  985SOL    HW1 5910   9.902   6.627   8.107 -2.1136 -2.6532 -1.1557
  985SOL    HW2 5911   9.858   6.665   7.967  1.5666 -0.7503 -1.9213
  986SOL     OW 5912   4.390   7.058   5.324  0.3578 -0.8471 -0.6489
  986SOL    HW1 5913   4.397   6.965   5.345  0.2347 -0.7470 -0.1507
  986SOL    HW2 5914   4.297   7.072   5.307 -0.0422 -0.3659  1.5414
  987SOL     OW 5915   4.671  10.569   4.271 -0.0638  0.0871  0.0549
  987SOL    HW1 5916   4.749  10.534   4.313  1.0185  1.7766 -0.4854
  987SOL    HW2 5917   4.600  10.551   4.333  0.8882 -0.6812  0.9443
  988SOL     OW 5918   4.603   5.595   7.401 -0.2482  0.0395  0.4568
  988SOL    HW1 5919   4.526   5.601   7.345 -0.4882  0.0413  0.7815
  988SOL    HW2 5920   4.673   5.568   7.343 -0.5407 -0.1671  0.1949
  989SOL     OW 5921   3.476   3.708   2.498  0.3789  0.0380 -0.3176
  989SOL    HW1 5922   3.455   3.648   2.427  2.0631  1.6580 -2.3086
  989SOL    HW2 5923   3.571   3.706   2.504  0.2735 -0.2312  2.1208
  990SOL     OW 5924   3.357   9.068   4.618  0.1398 -0.5251 -0.4742
  990SOL    HW1 5925   3.286   9.053   4.681  0.2090 -2.2506 -0.7477
  990SOL    HW2 5926   3.312   9.086   4.535  0.0422  2.2995  0.0958
  991SOL     OW 5927   6.472   1.407   3.161  0.4598  0.9206 -0.4007
  991SOL    HW1 5928   6.476   1.495   3.123  1.1431  0.3597 -1.6903
  991SOL    HW2 5929   6.447   1.421   3.252 -0.3553  2.3881 -0.8168
  992SOL     OW 5930   2.723   6.704   9.547 -0.0078  0.0105  0.0930
  992SOL    HW1 5931   2.784   6.646   9.501 -1.1006 -1.4352  0.4233
  992SOL    HW2 5932   2.636   6.670   9.525 -0.7437  2.1387 -0.5125
  993SOL     OW 5933   6.359   9.127   4.237  0.1096 -0.1985 -0.4931
  993SOL    HW1 5934   6.273   9.135   4.196  0.8168  1.1578 -1.7994
  993SOL    HW2 5935   6.356   9.042   4.282 -2.7583  0.8835  1.6278
  994SOL     OW 5936   6.748   3.046   4.117 -0.3967  0.1615 -0.5520
  994SOL    HW1 5937   6.806   3.086   4.052 -0.8815  0.7416 -0.6257
  994SOL    HW2 5938   6.768   3.092   4.199 -0.1694 -0.2059 -0.3958
  995SOL     OW 5939   7.381   9.802   0.199 -0.1946  0.0684  0.1680
  995SOL    HW1 5940   7.296   9.822   0.158 -0.7098 -0.1468  1.1050
  995SOL    HW2 5941   7.359   9.744   0.272  1.0435 -2.2331 -1.1759
  996SOL     OW 5942   5.001   7.994   9.851  0.8833 -0.0416  0.1093
  996SOL    HW1 5943   5.061   8.008   9.924  1.7025 -2.5540 -0.0116
  996SOL    HW2 5944   4.952   7.916   9.874 -0.1065  0.1284 -1.2500
  997SOL     OW 5945   2.299   1.580   7.203 -0.1282  0.1815 -0.0322
  997SOL    HW1 5946   2.365   1.600   7.137  0.9374 -2.0775  0.2503
  997SOL    HW2 5947   2.286   1.486   7.197 -0.1312 -0.1037  2.8415
  998SOL     OW 5948   6.196   5.061   7.621 -0.7040  0.3608 -0.0830
  998SOL    HW1 5949   6.165   5.099   7.704 -3.3832 -0.0585 -0.7902
  998SOL    HW2 5950   6.144   4.981   7.610 -0.4106  0.3917 -2.1493
  999SOL     OW 5951   5.824   4.584  10.071 -0.0523  0.0449  0.6588
  999SOL    HW1 5952   5.778   4.505  10.042  2.6967 -1.0543 -1.0766
  999SOL    HW2 5953   5.891   4.552  10.131  1.7640  0.8412 -0.8593
 1000SOL     OW 5954   7.869   4.215   3.784  0.5912  0.0547  0.5488
 1000SOL    HW1 5955   7.892   4.177   3.699  0.6226  0.1989  0.4924
 1000SOL    HW2 5956   7.788   4.170   3.809  0.4052  0.2464  0.2886
 1001SOL     OW 5957   4.451  10.485   3.058 -0.3023 -0.0329 -0.0996
 1001SOL    HW1 5958   4.422  10.400   3.025 -1.4454  0.3080 -0.0289
 1001SOL    HW2 5959   4.514  10.516   2.993  0.7392 -1.2664  0.2702
 1002SOL     OW 5960   9.107   3.803   0.243  0.2911 -0.5420 -0.3273
 1002SOL    HW1 5961   9.079   3.829   0.155 -0.1741  1.1229  0.2635
 1002SOL    HW2 5962   9.203   3.799   0.238  0.2507 -0.7698 -0.9820
 1003SOL     OW 5963   6.779   0.741   0.153 -0.0623 -0.6682  0.1305
 1003SOL    HW1 5964   6.817   0.812   0.204 -1.5568 -0.4126  0.9433
 1003SOL    HW2 5965   6.738   0.684   0.218 -2.5316 -0.0237 -0.7432
 1004SOL     OW 5966   1.935   6.046  10.609  0.5463 -0.1068  0.0129
 1004SOL    HW1 5967   1.985   6.117  10.648 -0.3917  0.1187  0.8527
 1004SOL    HW2 5968   1.905   5.993  10.683  0.6952 -1.0215 -0.5557
 1005SOL     OW 5969   2.111   4.701   8.901 -0.3536  0.0017 -0.2860
 1005SOL    HW1 5970   2.100   4.795   8.913 -1.2690 -0.0552 -0.6576
 1005SOL    HW2 5971   2.204   4.691   8.878 -0.0245  0.7095  0.6307
 1006SOL     OW 5972   0.749   5.324   8.053 -0.4703  0.1283 -0.1181
 1006SOL    HW1 5973   0.790   5.409   8.038 -0.7924  0.2866 -0.1145
 1006SOL    HW2 5974   0.727   5.291   7.966 -0.4871  0.1179 -0.1097
 1007SOL     OW 5975  10.263   2.941   0.429  0.4323  0.2317  0.7691
 1007SOL    HW1 5976  10.346   2.894   0.435  2.1678  2.8403 -0.9098
 1007SOL    HW2 5977  10.231   2.922   0.340  1.0115  1.9010  0.1767
 1008SOL     OW 5978   3.213   9.029   8.757 -0.3162  0.1128  0.6400
 1008SOL    HW1 5979   3.239   9.083   8.831 -0.0604  0.8031  0.0573
 1008SOL    HW2 5980   3.254   8.944   8.774  0.9918  0.7041  0.5588
 1009SOL     OW 5981   5.652   3.216   6.193  0.7203  0.4288 -0.1046
 1009SOL    HW1 5982   5.700   3.248   6.270 -1.7850  1.4967  1.1316
 1009SOL    HW2 5983   5.687   3.129   6.178  3.0786  1.1595  0.6337
 1010SOL     OW 5984   1.064   3.532   3.402 -0.0509 -0.3976 -0.0325
 1010SOL    HW1 5985   1.066   3.444   3.365  1.6503 -0.8441  0.9940
 1010SOL    HW2 5986   1.069   3.519   3.497 -2.1738  0.7750  0.3081
 1011SOL     OW 5987   2.509   5.676   4.140  0.4406 -0.0522 -0.2095
 1011SOL    HW1 5988   2.418   5.678   4.168  0.4807  0.1023 -0.0835
 1011SOL    HW2 5989   2.559   5.679   4.222  0.5597 -1.1236 -0.2292
 1012SOL     OW 5990   3.161   7.636   4.297  0.1336 -0.2899  0.0866
 1012SOL    HW1 5991   3.248   7.598   4.284  0.5341  0.3892  0.7272
 1012SOL    HW2 5992   3.177   7.723   4.332 -0.7836  0.2748 -0.8199
 1013SOL     OW 5993   9.334   4.769   7.426  0.2718  0.0193 -0.0716
 1013SOL    HW1 5994   9.388   4.702   7.385  0.0401  1.1388 -2.3808
 1013SOL    HW2 5995   9.308   4.826   7.354 -1.7120  1.0939  1.3929
 1014SOL     OW 5996   6.410   3.510   6.934 -0.5812 -0.0786  0.1924
 1014SOL    HW1 5997   6.363   3.589   6.905 -2.5060 -1.3231 -0.2604
 1014SOL    HW2 5998   6.412   3.519   7.030 -0.1645  0.8323  0.1146
 1015SOL     OW 5999   0.451   6.425   2.736  0.5092 -0.4497  0.2237
 1015SOL    HW1 6000   0.365   6.458   2.709  0.5477 -0.3462  0.2274
 1015SOL    HW2 6001   0.493   6.501   2.777  1.4080  0.0840 -1.6051
 1016SOL     OW 6002   4.573   6.665   3.403 -0.1200 -0.6155  0.0183
 1016SOL    HW1 6003   4.558   6.585   3.454 -0.6548 -0.3260  0.3184
 1016SOL    HW2 6004   4.667   6.662   3.382  0.0135 -0.9637  0.6267
 1017SOL     OW 6005   4.672   2.873   0.376 -0.1684  0.0725  0.4633
 1017SOL    HW1 6006   4.622   2.955   0.374  0.0284  0.2002  0.8926
 1017SOL    HW2 6007   4.675   2.846   0.284 -0.1698  0.5829  0.3066
 1018SOL     OW 6008   5.142   1.297   8.573  0.2596 -0.1008  0.0862
 1018SOL    HW1 6009   5.189   1.295   8.489 -0.7802  0.0789 -0.5156
 1018SOL    HW2 6010   5.138   1.205   8.600 -1.3205 -0.4578 -1.1850
 1019SOL     OW 6011   6.999   3.719   6.716  0.1281 -0.3657 -0.1528
 1019SOL    HW1 6012   7.017   3.640   6.665  0.5528 -1.8034  2.0724
 1019SOL    HW2 6013   7.078   3.732   6.769  0.7250  2.5287 -1.5486
 1020SOL     OW 6014   1.466  10.327   6.314 -0.0039  0.3492  0.0173
 1020SOL    HW1 6015   1.456  10.352   6.406 -3.1874  0.5753 -0.2980
 1020SOL    HW2 6016   1.490  10.235   6.317 -1.5032 -0.0430  1.0975
 1021SOL     OW 6017   1.552   6.799   0.212 -0.5650  0.4672  0.3101
 1021SOL    HW1 6018   1.470   6.750   0.216  0.0961 -0.6688  0.4586
 1021SOL    HW2 6019   1.555   6.847   0.295 -0.7376 -0.0751  0.6379
 1022SOL     OW 6020   8.368   7.969   3.019 -0.2633 -0.3699  0.6102
 1022SOL    HW1 6021   8.302   7.990   2.954 -0.7972  0.9200  1.5198
 1022SOL    HW2 6022   8.373   8.047   3.074  1.2878 -0.8312  1.1745
 1023SOL     OW 6023   6.240   9.572   3.634  0.0834  1.1471 -0.3115
 1023SOL    HW1 6024   6.236   9.659   3.676  3.2720  0.6864  1.2929
 1023SOL    HW2 6025   6.295   9.585   3.557  1.7205  0.4301  0.6611
 1024SOL     OW 6026   7.536   9.645   7.687  0.1005  0.1678 -0.0426
 1024SOL    HW1 6027   7.621   9.605   7.705  0.1892 -0.0551 -0.8799
 1024SOL    HW2 6028   7.506   9.601   7.607 -0.8182  0.2213  0.2655
 1025SOL     OW 6029   8.708   4.110   1.791  0.2226  0.5063  0.4898
 1025SOL    HW1 6030   8.756   4.027   1.798 -1.6321 -0.5958  0.7078
 1025SOL    HW2 6031   8.675   4.126   1.880 -2.5595 -0.5303 -0.2631
 1026SOL     OW 6032   2.544   8.338   2.778  0.0652 -0.6490  0.2131
 1026SOL    HW1 6033   2.624   8.287   2.787 -0.1645 -1.0695 -0.0997
 1026SOL    HW2 6034   2.545   8.370   2.688 -0.0780 -0.5850  0.2335
 1027SOL     OW 6035   0.564   2.433   1.903 -0.2978 -0.3323  0.0465
 1027SOL    HW1 6036   0.632   2.373   1.933  1.3045  1.6628  0.6575
 1027SOL    HW2 6037   0.607   2.485   1.834 -1.0141  1.2883  0.7771
 1028SOL     OW 6038   1.110   6.227   9.832 -0.2688  0.1831 -0.1462
 1028SOL    HW1 6039   1.196   6.189   9.811  0.5872  2.5041 -1.2310
 1028SOL    HW2 6040   1.069   6.242   9.746 -0.6578  1.4248  0.2333
 1029SOL     OW 6041   9.076   4.504   3.475 -0.2963 -0.5133 -0.4802
 1029SOL    HW1 6042   9.095   4.463   3.560 -1.0509 -2.2938 -1.1203
 1029SOL    HW2 6043   9.042   4.590   3.497  1.9323  0.0885  0.9141
 1030SOL     OW 6044   4.810   9.893   9.002 -0.3880  0.1236 -0.4916
 1030SOL    HW1 6045   4.777   9.810   8.968  1.6891 -0.7916 -0.4171
 1030SOL    HW2 6046   4.745   9.920   9.067 -1.4901 -1.0256 -1.0751
 1031SOL     OW 6047   1.757   8.370   5.086  0.3562  0.5549  0.1731
 1031SOL    HW1 6048   1.746   8.277   5.106  1.6204  0.5196  0.7793
 1031SOL    HW2 6049   1.833   8.397   5.136 -0.1658  2.0111  0.2420
 1032SOL     OW 6050   1.032   1.113   6.569 -0.0522 -0.7574 -0.2800
 1032SOL    HW1 6051   0.940   1.112   6.594  0.0924 -1.3104  0.2772
 1032SOL    HW2 6052   1.036   1.167   6.490 -0.6771  0.2191  0.3486
 1033SOL     OW 6053   1.626   9.523  10.421  0.9417 -0.3526 -0.0341
 1033SOL    HW1 6054   1.558   9.581  10.456 -0.7284 -2.0770 -0.2836
 1033SOL    HW2 6055   1.606   9.437  10.458  2.2887 -1.1569 -1.0729
 1034SOL     OW 6056   2.356   3.691   7.496 -0.0646  0.5583  0.3954
 1034SOL    HW1 6057   2.435   3.744   7.504  0.5549 -0.2202 -0.5151
 1034SOL    HW2 6058   2.371   3.616   7.553 -1.0045  1.3862  1.7996
 1035SOL     OW 6059   4.031   1.227   3.609 -0.5257 -0.2438 -0.1521
 1035SOL    HW1 6060   4.081   1.300   3.647  0.9994 -0.9175 -0.7760
 1035SOL    HW2 6061   3.939   1.253   3.620 -0.0721  0.9578  1.2198
 1036SOL     OW 6062   1.263   4.687   1.010 -0.6811 -0.0528 -0.0212
 1036SOL    HW1 6063   1.357   4.675   1.000 -0.2364  1.6510  1.4905
 1036SOL    HW2 6064   1.244   4.767   0.961 -0.9772  0.6214  1.1570
 1037SOL     OW 6065   7.902   9.958   3.569  0.1703 -0.1417  0.0590
 1037SOL    HW1 6066   7.878   9.982   3.658 -1.2552  2.5367 -0.9323
 1037SOL    HW2 6067   7.893   9.863   3.566 -1.5095 -0.1118  2.2863
 1038SOL     OW 6068   0.773   8.452  10.033 -0.3247 -0.5511  0.4123
 1038SOL    HW1 6069   0.692   8.448   9.981  0.8422  1.7166 -1.7573
 1038SOL    HW2 6070   0.823   8.376  10.003 -0.4555 -0.3240 -0.4205
 1039SOL     OW 6071   7.951   6.007   5.403  0.3153 -0.8179 -0.0426
 1039SOL    HW1 6072   8.018   6.006   5.471 -0.5527 -0.5648  0.8439
 1039SOL    HW2 6073   7.875   5.964   5.443 -0.3686 -0.2242 -0.6693
 1040SOL     OW 6074   8.850   5.045   0.584  0.5018 -0.1471 -0.2526
 1040SOL    HW1 6075   8.831   5.006   0.499 -1.0075 -1.0548  0.4674
 1040SOL    HW2 6076   8.795   5.123   0.588 -1.1190 -1.2904  0.7336
 1041SOL     OW 6077   3.430   8.272   8.458  0.1816  0.0878 -0.2277
 1041SOL    HW1 6078   3.386   8.211   8.517  0.9592  0.9217  1.2862
 1041SOL    HW2 6079   3.408   8.241   8.370 -2.9109  0.1017  0.4261
 1042SOL     OW 6080   8.145  10.502   3.275  1.0011  0.4451 -0.3210
 1042SOL    HW1 6081   8.190  10.445   3.213 -1.4765 -0.2875 -1.6035
 1042SOL    HW2 6082   8.133  10.584   3.227  0.4962  0.4208 -0.2475
 1043SOL     OW 6083   8.424   4.945   4.258  0.3485  0.1796 -0.1232
 1043SOL    HW1 6084   8.472   4.916   4.180 -0.0385 -0.4713 -0.1242
 1043SOL    HW2 6085   8.469   4.901   4.330  1.6194  1.8780  0.2091
 1044SOL     OW 6086   2.489   5.628   5.827 -0.2435  0.0926 -0.1395
 1044SOL    HW1 6087   2.458   5.538   5.824 -0.5100  0.1372  0.9507
 1044SOL    HW2 6088   2.432   5.676   5.767 -0.0651 -0.4566 -0.7675
 1045SOL     OW 6089   0.733   5.094   5.857 -0.3209  0.0401 -0.2864
 1045SOL    HW1 6090   0.659   5.045   5.892 -0.2276 -0.0117 -0.1566
 1045SOL    HW2 6091   0.738   5.173   5.911  0.3586 -0.4534  0.4066
 1046SOL     OW 6092   8.052   8.252   8.792 -0.5471  0.5858  0.1502
 1046SOL    HW1 6093   8.120   8.246   8.859 -0.0441  1.0988 -0.3074
 1046SOL    HW2 6094   7.991   8.318   8.824  0.1697  1.4949 -0.2956
 1047SOL     OW 6095   4.924   9.873   3.934 -0.5317  0.4123 -0.0597
 1047SOL    HW1 6096   4.953   9.805   3.994  1.0380  1.2830  0.2239
 1047SOL    HW2 6097   4.938   9.955   3.981 -4.3751  0.9654  0.4531
 1048SOL     OW 6098   6.656   0.046   5.537 -0.2972 -0.2349 -0.1551
 1048SOL    HW1 6099   6.609  -0.022   5.584  0.7174 -0.9069 -0.0927
 1048SOL    HW2 6100   6.660   0.119   5.598  0.5071 -0.8971  0.6030
 1049SOL     OW 6101   3.559   4.470   5.779  0.2494  0.6047 -0.1062
 1049SOL    HW1 6102   3.499   4.426   5.840  0.5638 -1.9446 -1.4875
 1049SOL    HW2 6103   3.643   4.471   5.825  0.2976 -0.5417 -0.1421
 1050SOL     OW 6104   4.387   7.778   8.610 -0.9829 -0.0503  0.0557
 1050SOL    HW1 6105   4.310   7.730   8.640  1.1999 -3.1835  1.1847
 1050SOL    HW2 6106   4.417   7.827   8.687 -0.6438 -0.5964  0.2780
 1051SOL     OW 6107   2.766   8.809   6.396 -0.0491  0.0910 -0.3552
 1051SOL    HW1 6108   2.684   8.764   6.418 -0.2843  0.5288 -0.3230
 1051SOL    HW2 6109   2.829   8.739   6.381 -0.5205 -0.2575 -0.7303
 1052SOL     OW 6110   1.140   2.750   9.588 -0.6311  0.1289  0.0514
 1052SOL    HW1 6111   1.147   2.654   9.585  2.0717  0.1217  2.0384
 1052SOL    HW2 6112   1.168   2.778   9.501 -1.3688 -0.8570 -0.5339
 1053SOL     OW 6113   5.932   8.279   7.971  0.3308  0.0558 -0.0152
 1053SOL    HW1 6114   5.906   8.195   7.932  1.0097 -0.0526 -0.2432
 1053SOL    HW2 6115   5.952   8.335   7.897  3.2237 -0.6516  0.1025
 1054SOL     OW 6116   2.373   8.997   8.226  0.2995  0.0802  0.0917
 1054SOL    HW1 6117   2.398   9.005   8.318 -1.2373 -1.7850  0.7371
 1054SOL    HW2 6118   2.394   9.083   8.189  2.7939  0.2718  1.6674
 1055SOL     OW 6119   5.225   9.417   4.868  0.2213 -0.2984  0.3071
 1055SOL    HW1 6120   5.174   9.420   4.787  2.1892  0.7176 -1.0002
 1055SOL    HW2 6121   5.242   9.509   4.888 -0.2941 -0.5397  1.9396
 1056SOL     OW 6122   7.366   7.229   9.361  0.2087  0.1887 -0.7528
 1056SOL    HW1 6123   7.356   7.322   9.342  2.3531  0.3660 -1.2276
 1056SOL    HW2 6124   7.285   7.189   9.328 -1.3284  1.9921  0.6181
 1057SOL     OW 6125  10.460   3.749   9.780  0.5640 -0.2898 -0.5814
 1057SOL    HW1 6126  10.374   3.787   9.794  0.8367 -0.3000  1.2548
 1057SOL    HW2 6127  10.518   3.824   9.765  0.7647 -0.0686  1.1874
 1058SOL     OW 6128   7.662   2.433  10.066  0.1968 -0.2578 -0.2435
 1058SOL    HW1 6129   7.587   2.471  10.019 -0.5666 -0.6446  0.6297
 1058SOL    HW2 6130   7.630   2.349  10.098  1.0120 -0.4316  0.1377
 1059SOL     OW 6131   2.469   0.541   0.185  0.5245 -0.2332 -0.3150
 1059SOL    HW1 6132   2.534   0.472   0.171 -0.6514 -1.3651 -0.4477
 1059SOL    HW2 6133   2.418   0.542   0.105 -0.2913 -0.1212  0.1924
 1060SOL     OW 6134   8.523   2.088   6.802 -0.2343 -0.5406  0.4563
 1060SOL    HW1 6135   8.592   2.087   6.869  0.2294 -0.3366 -0.0113
 1060SOL    HW2 6136   8.445   2.117   6.849  0.2298  0.2038  0.7866
 1061SOL     OW 6137  10.352   4.674   9.093 -0.0652  0.1065  0.0042
 1061SOL    HW1 6138  10.285   4.636   9.035  0.1992 -1.0357  0.4300
 1061SOL    HW2 6139  10.305   4.694   9.174 -0.4781  1.8772 -0.6226
 1062SOL     OW 6140   7.485   3.987   3.585  0.0853 -0.1171  0.0888
 1062SOL    HW1 6141   7.500   4.072   3.543 -1.6274  0.1081 -0.1343
 1062SOL    HW2 6142   7.512   4.001   3.676 -1.7658  1.2571  0.5082
 1063SOL     OW 6143   9.013   5.277   3.794 -0.3294 -0.0437 -0.4669
 1063SOL    HW1 6144   8.937   5.237   3.837  0.8140 -3.6097 -1.4044
 1063SOL    HW2 6145   8.988   5.283   3.702  0.8091 -2.3120 -0.9837
 1064SOL     OW 6146   6.858  10.469  10.132 -0.4083 -0.1347 -0.1020
 1064SOL    HW1 6147   6.827  10.378  10.124 -1.0712  0.1839 -1.4485
 1064SOL    HW2 6148   6.920  10.479  10.060 -0.1039  0.4009  0.2304
 1065SOL     OW 6149   4.484  10.121   0.808 -0.0589  0.2814  0.0143
 1065SOL    HW1 6150   4.436  10.187   0.857  1.7537  0.2266  1.9976
 1065SOL    HW2 6151   4.550  10.170   0.759  0.7062  0.0481  0.7864
 1066SOL     OW 6152   4.892   2.743   2.256 -0.7784  0.2435 -0.2734
 1066SOL    HW1 6153   4.985   2.720   2.264 -0.4637  1.4685 -0.2390
 1066SOL    HW2 6154   4.892   2.836   2.235 -1.9498 -0.2093 -2.6390
 1067SOL     OW 6155   1.810   0.645   3.997  0.4584  0.0013 -0.1685
 1067SOL    HW1 6156   1.765   0.664   3.915 -0.5421 -2.4701 -0.3056
 1067SOL    HW2 6157   1.900   0.626   3.972  0.3422  0.0200 -0.6010
 1068SOL     OW 6158   9.912   1.414   5.836  0.0301  0.1298  0.0521
 1068SOL    HW1 6159   9.999   1.381   5.861  0.2729 -0.4048 -1.4015
 1068SOL    HW2 6160   9.923   1.446   5.747 -1.8042 -2.3170 -1.1770
 1069SOL     OW 6161   5.576   0.900   1.873  0.0838  0.1111  0.4478
 1069SOL    HW1 6162   5.550   0.850   1.796 -1.1287  0.2149  0.7818
 1069SOL    HW2 6163   5.524   0.864   1.944  1.6491 -0.4248  1.3812
 1070SOL     OW 6164   9.484   5.452   5.398 -0.1149 -0.4615  0.0701
 1070SOL    HW1 6165   9.520   5.530   5.357  0.1191 -0.0988  0.9362
 1070SOL    HW2 6166   9.552   5.423   5.459 -2.0930  1.7156  3.6793
 1071SOL     OW 6167   7.624   8.384   3.080 -0.3227  0.4615  0.2431
 1071SOL    HW1 6168   7.684   8.436   3.026 -2.9494  1.8313 -1.6022
 1071SOL    HW2 6169   7.643   8.411   3.170  0.3063  2.5750 -0.4572
 1072SOL     OW 6170   5.805   2.073   3.326  0.1027 -0.0490 -0.2589
 1072SOL    HW1 6171   5.740   2.093   3.259 -1.2567 -1.3611  0.6053
 1072SOL    HW2 6172   5.754   2.039   3.399  1.7145 -0.4135  0.7391
 1073SOL     OW 6173   7.851   4.481   8.999  0.4882 -0.4039 -0.5189
 1073SOL    HW1 6174   7.776   4.498   8.941  0.2376  2.2038  0.4455
 1073SOL    HW2 6175   7.921   4.453   8.940 -0.6435 -0.8431 -1.6959
 1074SOL     OW 6176   6.361   9.815   1.757 -0.1553  0.0639  0.4277
 1074SOL    HW1 6177   6.275   9.790   1.789 -0.4145 -0.6716 -0.7682
 1074SOL    HW2 6178   6.410   9.733   1.753 -0.4882 -0.0935 -2.0023
 1075SOL     OW 6179   0.475  10.470   0.501  0.1895  0.3929  0.1401
 1075SOL    HW1 6180   0.412  10.525   0.547  0.3938 -0.7275  1.8566
 1075SOL    HW2 6181   0.552  10.469   0.558  1.0137  0.0991 -0.9384
 1076SOL     OW 6182   9.016  10.091   0.915 -0.3217  0.2053 -0.1111
 1076SOL    HW1 6183   9.007  10.185   0.897  0.4302  0.1577 -0.7926
 1076SOL    HW2 6184   8.940  10.070   0.969  0.2759  1.5214  1.3154
 1077SOL     OW 6185   9.841   9.267   6.751 -0.3074 -0.3356  0.1774
 1077SOL    HW1 6186   9.757   9.233   6.720 -0.8136  1.2965 -0.3007
 1077SOL    HW2 6187   9.820   9.347   6.798  1.0798  1.0559 -1.4043
 1078SOL     OW 6188   1.593   4.110   8.227 -0.0306 -0.2095 -0.4007
 1078SOL    HW1 6189   1.605   4.139   8.136  0.0128 -1.6407 -0.8821
 1078SOL    HW2 6190   1.681   4.091   8.258 -0.1497 -1.0346 -0.5382
 1079SOL     OW 6191   3.019   3.231   6.113 -0.6015  0.6136  0.4344
 1079SOL    HW1 6192   2.983   3.320   6.111 -1.9840  0.1548  1.8777
 1079SOL    HW2 6193   2.962   3.181   6.054 -0.8025  0.3778  0.8257
 1080SOL     OW 6194   4.803   9.367   8.607 -0.0535 -0.0872  0.3377
 1080SOL    HW1 6195   4.760   9.385   8.691 -2.5828  0.2380 -0.9192
 1080SOL    HW2 6196   4.837   9.278   8.616 -3.4349 -1.4967  0.6357
 1081SOL     OW 6197   8.703   6.441   6.335  0.2185 -0.1939 -0.0884
 1081SOL    HW1 6198   8.617   6.408   6.362  0.2452  0.1629  0.4653
 1081SOL    HW2 6199   8.710   6.526   6.379 -0.0581  0.7891 -1.8884
 1082SOL     OW 6200   1.476   0.394   8.285 -0.7592 -0.2614 -0.1377
 1082SOL    HW1 6201   1.464   0.419   8.194 -0.3520  1.0038  0.1342
 1082SOL    HW2 6202   1.458   0.474   8.334 -0.8350 -0.8892  0.8841
 1083SOL     OW 6203   5.100   6.837   6.954 -0.4131  0.1624 -0.2180
 1083SOL    HW1 6204   5.051   6.775   7.008 -1.6512  0.1313 -1.3358
 1083SOL    HW2 6205   5.111   6.792   6.870  1.9138  0.0078  0.0999
 1084SOL     OW 6206   0.668   0.981   0.132 -0.2191 -0.4523 -0.6474
 1084SOL    HW1 6207   0.681   1.034   0.211  1.0328  1.3777 -1.9884
 1084SOL    HW2 6208   0.653   0.892   0.165 -0.7960  0.4297  1.6594
 1085SOL     OW 6209   4.099   3.076   8.886  0.3404  0.4706  0.3028
 1085SOL    HW1 6210   4.186   3.072   8.925  0.1904 -1.6655  0.4893
 1085SOL    HW2 6211   4.091   3.167   8.855  2.4247  0.8240  0.6848
 1086SOL     OW 6212   6.275   1.590   8.933 -0.2457 -0.0836  0.4257
 1086SOL    HW1 6213   6.322   1.657   8.982 -0.6812  0.2471  0.4044
 1086SOL    HW2 6214   6.273   1.515   8.992  0.6504 -0.2423  0.2678
 1087SOL     OW 6215   9.928   0.056   7.051  0.1567 -0.0250 -0.4701
 1087SOL    HW1 6216   9.899   0.075   7.140 -0.2739  1.0126 -0.8231
 1087SOL    HW2 6217   9.851   0.022   7.007 -0.5425  2.4629 -1.3254
 1088SOL     OW 6218   1.854   7.240   6.893 -0.6766 -0.0351 -0.0444
 1088SOL    HW1 6219   1.915   7.216   6.824 -2.4759 -3.2397 -0.7308
 1088SOL    HW2 6220   1.884   7.191   6.970 -0.1320  1.5466  0.7914
 1089SOL     OW 6221   2.061   1.556   0.549 -0.7666 -0.1634  0.1375
 1089SOL    HW1 6222   2.014   1.491   0.602 -0.4031 -1.7068 -1.3300
 1089SOL    HW2 6223   2.113   1.503   0.488  1.3600  1.4834  0.3878
 1090SOL     OW 6224   7.666  10.270   1.442 -0.2531 -0.0683  0.3172
 1090SOL    HW1 6225   7.629  10.189   1.478 -1.3560 -0.3715 -1.4004
 1090SOL    HW2 6226   7.653  10.262   1.348  4.0798 -0.0952 -0.4657
 1091SOL     OW 6227   5.607   2.947   6.896 -0.2029 -0.3828 -0.0337
 1091SOL    HW1 6228   5.537   3.004   6.929 -0.2564 -0.3742 -0.1609
 1091SOL    HW2 6229   5.562   2.870   6.862 -0.2928  0.2691 -1.5035
 1092SOL     OW 6230   4.650   4.387   7.838 -0.3002  0.2552  0.0424
 1092SOL    HW1 6231   4.715   4.318   7.850  0.5968  1.4274  2.4636
 1092SOL    HW2 6232   4.700   4.468   7.836 -1.5779  1.0900  0.5504
 1093SOL     OW 6233   5.881   0.145  10.154  0.1006  0.5969 -0.1081
 1093SOL    HW1 6234   5.927   0.082  10.098 -0.5593 -0.3495  0.3905
 1093SOL    HW2 6235   5.888   0.228  10.107  0.7922  0.1113 -0.8905
 1094SOL     OW 6236   3.475   5.253   4.720 -0.2590 -0.7401 -0.0660
 1094SOL    HW1 6237   3.565   5.272   4.694 -0.0963  1.2973  1.6633
 1094SOL    HW2 6238   3.483   5.186   4.788  0.1335  0.5882  1.2314
 1095SOL     OW 6239   7.730   1.052   3.937 -0.0605 -0.1337  0.2247
 1095SOL    HW1 6240   7.818   1.017   3.922  0.0687  0.0852  0.4683
 1095SOL    HW2 6241   7.701   1.081   3.851  0.3640  0.3855  0.2503
 1096SOL     OW 6242   0.787   1.060   4.083 -0.1562  0.1962  0.2284
 1096SOL    HW1 6243   0.706   1.095   4.119 -1.4975 -1.5232 -0.9480
 1096SOL    HW2 6244   0.796   1.103   3.998  0.8778  1.3059  0.8688
 1097SOL     OW 6245   5.647   3.559   4.513 -0.4102  0.4428  0.4773
 1097SOL    HW1 6246   5.620   3.492   4.450  1.5296 -0.7606  0.8304
 1097SOL    HW2 6247   5.696   3.511   4.580  0.0377  2.0650  1.3803
 1098SOL     OW 6248   0.753   1.985   1.948  0.2739  0.7476  0.1561
 1098SOL    HW1 6249   0.697   1.913   1.976  0.6891  0.9652  1.6343
 1098SOL    HW2 6250   0.754   1.979   1.853 -0.4220 -0.6403  0.2100
 1099SOL     OW 6251   5.217   9.863   5.493  0.1743 -0.3965  0.2391
 1099SOL    HW1 6252   5.286   9.805   5.523  0.5664  0.0313  0.1862
 1099SOL    HW2 6253   5.202   9.839   5.401 -0.3257 -1.0332  0.4779
 1100SOL     OW 6254   0.941   5.121   7.900 -0.0590  0.1740  0.6580
 1100SOL    HW1 6255   0.852   5.153   7.912 -0.3116 -0.2280 -0.0702
 1100SOL    HW2 6256   0.973   5.168   7.823 -0.0594 -0.5404  0.2123
 1101SOL     OW 6257   1.176   2.292   5.350  0.0353  0.3211 -0.3493
 1101SOL    HW1 6258   1.115   2.289   5.276  0.8210  2.4895 -1.1862
 1101SOL    HW2 6259   1.122   2.319   5.424 -0.2986  0.7708 -0.7473
 1102SOL     OW 6260   9.032   3.776   3.985 -0.2649  0.2512 -0.9147
 1102SOL    HW1 6261   9.012   3.795   4.077  1.1400 -2.6824  0.1588
 1102SOL    HW2 6262   9.118   3.815   3.971  0.2143 -0.5977 -0.4415
 1103SOL     OW 6263   7.428   0.814   9.784  0.3102 -0.1354  0.1356
 1103SOL    HW1 6264   7.395   0.879   9.721 -1.6587 -2.3160 -1.2441
 1103SOL    HW2 6265   7.390   0.840   9.868  1.4435  1.7354  0.1462
 1104SOL     OW 6266   0.721   7.871   4.832  0.8655  0.1197  0.0368
 1104SOL    HW1 6267   0.652   7.936   4.848 -0.7027 -1.1271 -1.2393
 1104SOL    HW2 6268   0.677   7.787   4.847  1.8727 -0.7440 -1.6504
 1105SOL     OW 6269   3.459   9.003   4.896  0.7424 -0.1256  0.4941
 1105SOL    HW1 6270   3.464   9.069   4.966  0.9228 -0.4914  0.8320
 1105SOL    HW2 6271   3.394   9.037   4.836  0.1047 -0.1141  1.1778
 1106SOL     OW 6272  10.066   0.792   9.709  0.7089  0.2182 -0.4756
 1106SOL    HW1 6273  10.024   0.754   9.632  1.0406 -0.1237 -0.4948
 1106SOL    HW2 6274  10.060   0.886   9.697  0.9936  0.1627 -1.0447
 1107SOL     OW 6275   4.516   7.657   4.211  0.8705 -0.2429  0.5588
 1107SOL    HW1 6276   4.462   7.675   4.134  0.0167 -1.2526  0.8962
 1107SOL    HW2 6277   4.605   7.672   4.182  0.6491 -1.5295 -0.9380
 1108SOL     OW 6278   9.745   9.478   9.306 -0.1060 -0.1298  0.6445
 1108SOL    HW1 6279   9.764   9.404   9.248  1.0956  1.3175 -0.9255
 1108SOL    HW2 6280   9.697   9.540   9.251  0.3807  0.9674  1.4190
 1109SOL     OW 6281   8.336   5.407   6.600  0.3266 -0.0757  0.5531
 1109SOL    HW1 6282   8.381   5.491   6.593 -0.2498  0.1335 -0.8804
 1109SOL    HW2 6283   8.244   5.429   6.613  0.0902 -0.4711 -0.3924
 1110SOL     OW 6284   7.985   2.045   1.634  0.3241  0.4502 -0.0200
 1110SOL    HW1 6285   8.015   2.034   1.725  0.1209  1.8029  0.2318
 1110SOL    HW2 6286   7.910   1.986   1.626  0.8169 -0.2541  0.4483
 1111SOL     OW 6287   4.746   3.509   3.954  0.8148  0.1847  0.2909
 1111SOL    HW1 6288   4.686   3.575   3.989 -0.0621 -1.2442  1.6250
 1111SOL    HW2 6289   4.724   3.503   3.861 -0.0756  0.7469  0.4547
 1112SOL     OW 6290   1.661   0.709   3.780  0.0818 -0.5444  0.6726
 1112SOL    HW1 6291   1.583   0.751   3.817  0.2028 -0.3251  0.6790
 1112SOL    HW2 6292   1.631   0.621   3.755 -0.5530  0.0232 -0.6941
 1113SOL     OW 6293   7.555   4.350  10.241  0.5287 -0.0252  0.0880
 1113SOL    HW1 6294   7.492   4.400  10.294 -0.7690 -1.0486 -0.4232
 1113SOL    HW2 6295   7.625   4.328  10.302  0.1671  0.7605  0.8045
 1114SOL     OW 6296   7.950   4.376   2.478 -0.4149  0.2307 -0.1949
 1114SOL    HW1 6297   7.908   4.338   2.401  0.8218 -1.7281  0.0336
 1114SOL    HW2 6298   7.954   4.470   2.459 -1.3175 -0.0392 -1.9139
 1115SOL     OW 6299   9.010   0.437   2.365 -0.9329  0.1293  0.6123
 1115SOL    HW1 6300   9.025   0.526   2.396  1.0858 -0.0300  0.2743
 1115SOL    HW2 6301   9.097   0.396   2.368 -1.9495 -2.1300  1.6257
 1116SOL     OW 6302   4.435   0.581   1.951 -0.1975  0.2172 -0.1504
 1116SOL    HW1 6303   4.440   0.671   1.920  2.8545  0.4060  0.6321
 1116SOL    HW2 6304   4.426   0.589   2.046 -1.3763 -0.3505 -0.1918
 1117SOL     OW 6305   1.174   0.679  10.185  0.4511 -0.2986  0.3073
 1117SOL    HW1 6306   1.110   0.737  10.144  0.6612 -0.0220  0.3665
 1117SOL    HW2 6307   1.122   0.616  10.235  0.2327  0.0323  0.4983
 1118SOL     OW 6308   6.474   2.313   9.701 -0.0128  0.4806  0.0634
 1118SOL    HW1 6309   6.403   2.373   9.724  0.5632  0.7496  1.1736
 1118SOL    HW2 6310   6.519   2.296   9.783  0.1101 -1.1462 -0.3074
 1119SOL     OW 6311   1.151   7.222   3.118 -0.0096  0.5484 -0.2040
 1119SOL    HW1 6312   1.128   7.167   3.193 -0.1537  1.2246  0.2573
 1119SOL    HW2 6313   1.068   7.244   3.077  0.1446 -0.8802 -1.3496
 1120SOL     OW 6314   8.783   5.094   2.593  0.4824 -0.2611 -0.1472
 1120SOL    HW1 6315   8.861   5.042   2.572  0.6630 -0.0941  0.1112
 1120SOL    HW2 6316   8.814   5.185   2.592  0.5002 -0.2452  0.8419
 1121SOL     OW 6317   3.650   5.284   1.030 -0.0990 -0.0051 -0.1356
 1121SOL    HW1 6318   3.662   5.342   0.955 -0.4180 -0.9248 -0.9130
 1121SOL    HW2 6319   3.556   5.262   1.029  0.4744 -2.8865 -1.6681
 1122SOL     OW 6320   1.007   0.547   1.528  0.1815 -0.1720  0.7895
 1122SOL    HW1 6321   1.057   0.465   1.529 -0.2963 -0.5048  2.8060
 1122SOL    HW2 6322   1.024   0.585   1.615 -0.1578  1.5271  0.1378
 1123SOL     OW 6323   5.778   7.051   9.752  0.1612  0.5230 -0.2125
 1123SOL    HW1 6324   5.698   7.100   9.772  0.2006  0.2795  0.5845
 1123SOL    HW2 6325   5.767   7.022   9.662 -1.1872 -0.5052  0.2487
 1124SOL     OW 6326   5.294   3.058   7.716  0.3638  0.1044 -0.1376
 1124SOL    HW1 6327   5.262   2.996   7.782  0.5403  0.0143 -0.1334
 1124SOL    HW2 6328   5.251   3.140   7.737 -2.3166 -0.7102 -1.9978
 1125SOL     OW 6329   7.324   1.528   8.587  0.2251  0.0710 -0.5783
 1125SOL    HW1 6330   7.326   1.439   8.552 -1.5853 -1.2888  2.3468
 1125SOL    HW2 6331   7.232   1.554   8.581  0.1812  0.4896  1.2543
 1126SOL     OW 6332   0.442   3.078   4.065 -0.4760 -0.1414 -0.4817
 1126SOL    HW1 6333   0.531   3.084   4.098 -0.4205  1.5567 -0.8464
 1126SOL    HW2 6334   0.437   2.991   4.026  0.5634 -0.7992  0.7762
 1127SOL     OW 6335   0.661   0.773   7.501  0.2024  0.1990  0.6229
 1127SOL    HW1 6336   0.626   0.693   7.541  1.6674  0.7567  3.2535
 1127SOL    HW2 6337   0.709   0.816   7.571  1.4621  2.2365 -1.3489
 1128SOL     OW 6338  10.090  10.185   4.390  0.0363  0.5757 -0.0687
 1128SOL    HW1 6339  10.144  10.130   4.446  0.0921  0.5800 -0.1186
 1128SOL    HW2 6340  10.132  10.181   4.304  0.2549  0.9858  0.0110
 1129SOL     OW 6341   7.727  10.318   8.558  0.1209 -0.9046  0.3820
 1129SOL    HW1 6342   7.769  10.285   8.479  0.0126  0.2794 -0.1905
 1129SOL    HW2 6343   7.638  10.338   8.532  0.1300 -0.3465  0.7544
 1130SOL     OW 6344   0.451   5.873   5.203  0.3449  0.1115 -0.4539
 1130SOL    HW1 6345   0.391   5.903   5.270  0.5003  1.5909 -0.9301
 1130SOL    HW2 6346   0.532   5.923   5.219 -0.0778  1.6509 -2.5639
 1131SOL     OW 6347   2.518   2.207   3.242 -0.5190  0.0964 -0.4393
 1131SOL    HW1 6348   2.526   2.161   3.325  0.4768  2.7024  1.0266
 1131SOL    HW2 6349   2.607   2.233   3.221 -0.9191  0.4696 -1.7483
 1132SOL     OW 6350   8.272   5.019   1.229 -0.0685  0.8631 -0.2794
 1132SOL    HW1 6351   8.272   4.925   1.211  0.8689  1.0400 -1.3039
 1132SOL    HW2 6352   8.360   5.038   1.261  0.4041  1.7014 -1.9673
 1133SOL     OW 6353   6.523   7.572   6.590 -0.2662  0.0449 -0.5554
 1133SOL    HW1 6354   6.486   7.489   6.620 -0.1904  1.1872  3.0764
 1133SOL    HW2 6355   6.614   7.570   6.619  0.5020  0.3879 -2.7534
 1134SOL     OW 6356   8.721   7.471   7.646  0.0229 -0.0250 -0.4004
 1134SOL    HW1 6357   8.802   7.516   7.621  0.0760 -0.7070 -1.4768
 1134SOL    HW2 6358   8.674   7.458   7.564 -1.9653  1.7825  0.3427
 1135SOL     OW 6359   8.080   6.949   7.572  0.0173 -0.0159 -0.4035
 1135SOL    HW1 6360   7.985   6.941   7.581 -0.1260  1.8629  0.0507
 1135SOL    HW2 6361   8.115   6.873   7.620 -1.2302 -0.4773 -0.1885
 1136SOL     OW 6362   0.186   3.035   6.915  0.5836 -0.5088 -0.0345
 1136SOL    HW1 6363   0.145   3.048   6.829  1.5675 -1.5993 -0.7012
 1136SOL    HW2 6364   0.266   3.087   6.911 -1.3379  2.9531  1.8621
 1137SOL     OW 6365   5.625   7.334   8.032 -0.5939 -0.3776  0.4155
 1137SOL    HW1 6366   5.715   7.349   8.060  0.2117  0.2933 -2.1917
 1137SOL    HW2 6367   5.582   7.294   8.108  2.3827 -2.5492  1.1489
 1138SOL     OW 6368   9.051   5.450   3.243 -0.2437 -0.0380 -0.4626
 1138SOL    HW1 6369   8.971   5.479   3.287 -0.5746 -2.5390  0.7303
 1138SOL    HW2 6370   9.120   5.459   3.309  0.3352  1.3158 -1.2208
 1139SOL     OW 6371   9.830   8.856   3.808  0.1307  0.6307 -0.4790
 1139SOL    HW1 6372   9.764   8.796   3.842  0.0316  0.8075 -0.3593
 1139SOL    HW2 6373   9.842   8.920   3.878  0.2204  0.7631 -0.6167
 1140SOL     OW 6374   9.334  10.092   9.969 -0.1533  0.0053  0.5454
 1140SOL    HW1 6375   9.414  10.142   9.990  1.3593 -1.9314 -0.2716
 1140SOL    HW2 6376   9.358  10.001   9.985 -2.6363 -0.5505  1.4200
 1141SOL     OW 6377   6.488   4.776   3.057 -0.0932 -0.2895  0.5696
 1141SOL    HW1 6378   6.428   4.770   2.982 -1.3426  1.6579  1.3273
 1141SOL    HW2 6379   6.446   4.725   3.126 -0.5511  0.4650  0.8682
 1142SOL     OW 6380   3.203   8.791   0.076 -0.2379 -0.3670  0.4584
 1142SOL    HW1 6381   3.188   8.835  -0.007 -0.0603 -0.9569  0.1053
 1142SOL    HW2 6382   3.298   8.798   0.090 -0.0569 -1.4888 -0.0995
 1143SOL     OW 6383  10.667   5.065   1.174 -0.2231  0.5017 -0.5601
 1143SOL    HW1 6384  10.705   5.024   1.096  1.7339  1.7076 -0.3154
 1143SOL    HW2 6385  10.707   5.018   1.247 -2.0261 -0.6008 -0.2438
 1144SOL     OW 6386   6.286   4.489   6.929 -0.1258  0.1472  0.3938
 1144SOL    HW1 6387   6.369   4.490   6.881 -0.0608  0.3684  0.5107
 1144SOL    HW2 6388   6.226   4.539   6.875 -0.5630 -1.1382 -0.3613
 1145SOL     OW 6389   1.037   5.232   7.669  0.0173 -0.5033 -0.2137
 1145SOL    HW1 6390   1.129   5.206   7.660 -0.3789 -3.4255  2.2800
 1145SOL    HW2 6391   1.008   5.250   7.580  2.1702 -2.8824 -1.5263
 1146SOL     OW 6392   9.251  10.190   7.712  0.1997  0.1070  0.2693
 1146SOL    HW1 6393   9.293  10.134   7.647 -1.6962 -0.1691 -0.7889
 1146SOL    HW2 6394   9.238  10.133   7.787  1.1324  0.0381  0.3974
 1147SOL     OW 6395   3.772   6.875   8.692  0.2653  0.1613  0.2559
 1147SOL    HW1 6396   3.750   6.790   8.654 -0.0063  0.3500 -0.0111
 1147SOL    HW2 6397   3.867   6.873   8.702  0.1086 -0.8280  1.8108
 1148SOL     OW 6398   2.664   8.604   9.446  0.0555 -0.2888 -0.5269
 1148SOL    HW1 6399   2.728   8.609   9.518  0.2988 -0.1872 -0.7488
 1148SOL    HW2 6400   2.683   8.521   9.403 -1.2290 -1.2075  0.5768
 1149SOL     OW 6401   7.341   5.410   6.769  0.8117 -0.6136  0.0448
 1149SOL    HW1 6402   7.378   5.417   6.857  0.4268  2.2684  0.0715
 1149SOL    HW2 6403   7.412   5.377   6.715  1.9071  0.1858  0.9617
 1150SOL     OW 6404   4.516   8.121   2.803  0.4006 -0.1891  0.1373
 1150SOL    HW1 6405   4.442   8.063   2.784  1.2474 -1.9199  1.8341
 1150SOL    HW2 6406   4.528   8.171   2.722 -0.5850 -2.1390 -1.2961
 1151SOL     OW 6407   6.948   5.483   5.148 -0.1546  0.1633  0.0118
 1151SOL    HW1 6408   6.940   5.389   5.162  0.5556  0.1325  0.2850
 1151SOL    HW2 6409   6.881   5.504   5.083  0.4924 -0.7390 -0.9695
 1152SOL     OW 6410   4.407   6.421   0.939  0.1412 -0.0960 -0.2721
 1152SOL    HW1 6411   4.496   6.443   0.912  0.1864 -0.1516 -0.1717
 1152SOL    HW2 6412   4.418   6.344   0.995  0.0859  0.2071  0.1636
 1153SOL     OW 6413   0.103   0.455   4.873  0.3199  0.5563 -0.3888
 1153SOL    HW1 6414   0.175   0.508   4.840  1.9597  0.9096  3.2598
 1153SOL    HW2 6415   0.025   0.509   4.861  1.3036  1.9427 -0.6635
 1154SOL     OW 6416  10.149   4.392   3.248 -0.3370 -0.0892  0.3344
 1154SOL    HW1 6417  10.173   4.328   3.181  0.9938 -0.5463  1.2112
 1154SOL    HW2 6418  10.196   4.364   3.327 -0.3729  1.5000  0.9660
 1155SOL     OW 6419   3.638   6.633   1.848 -0.2134  0.0798  0.5995
 1155SOL    HW1 6420   3.643   6.686   1.769 -2.6901 -2.3727 -1.3969
 1155SOL    HW2 6421   3.625   6.696   1.919 -1.7382  2.1956 -1.4208
 1156SOL     OW 6422   3.482   9.239   1.679  0.3303 -0.3637 -0.5546
 1156SOL    HW1 6423   3.578   9.239   1.681  0.3281  0.4427  0.2385
 1156SOL    HW2 6424   3.459   9.310   1.620  0.2436  0.9864  1.0140
 1157SOL     OW 6425  10.314   5.427   3.998  0.1478 -0.4691  0.6775
 1157SOL    HW1 6426  10.311   5.490   3.926  0.6204 -1.4005 -0.1833
 1157SOL    HW2 6427  10.373   5.467   4.062  0.9377 -0.3044 -0.1341
 1158SOL     OW 6428   1.215   0.072   0.180  0.2494  0.1639 -0.5848
 1158SOL    HW1 6429   1.234   0.013   0.254  3.3010  1.8874  0.1684
 1158SOL    HW2 6430   1.193   0.155   0.221 -1.1998  0.3379 -1.6527
 1159SOL     OW 6431   5.935   0.292   9.335 -0.1910  0.2087  0.1457
 1159SOL    HW1 6432   5.924   0.228   9.405  1.0778 -0.7343 -0.4906
 1159SOL    HW2 6433   5.949   0.240   9.256  1.7581  1.2261 -0.2492
 1160SOL     OW 6434   4.313   5.784   0.569 -0.0100  0.9945  0.2918
 1160SOL    HW1 6435   4.387   5.825   0.615  0.8637  0.5543 -0.6764
 1160SOL    HW2 6436   4.278   5.854   0.514 -0.0567  1.0986  0.4545
 1161SOL     OW 6437   0.050   3.875   1.405 -0.1153 -0.0520 -0.0064
 1161SOL    HW1 6438   0.053   3.841   1.494 -0.0644 -0.9896 -0.3538
 1161SOL    HW2 6439  -0.015   3.945   1.408  2.0599  2.0644  1.4514
 1162SOL     OW 6440   6.251   0.008   2.740 -0.1576 -0.6152  0.5278
 1162SOL    HW1 6441   6.296   0.029   2.822 -0.6636 -0.4243  0.7614
 1162SOL    HW2 6442   6.317  -0.038   2.688 -0.2461 -2.0524  1.6018
 1163SOL     OW 6443   0.514   2.686   3.604 -1.0687  0.2730  0.2730
 1163SOL    HW1 6444   0.541   2.624   3.671 -1.8816  0.0783  0.4283
 1163SOL    HW2 6445   0.432   2.650   3.570  0.5397 -1.0324 -2.6227
 1164SOL     OW 6446   0.939   4.793   8.287 -0.2601 -0.0078 -0.6947
 1164SOL    HW1 6447   1.028   4.782   8.255  1.4995  4.4350  1.7974
 1164SOL    HW2 6448   0.900   4.857   8.228 -0.1273  1.4636  0.7646
 1165SOL     OW 6449   8.014   9.058   9.307 -0.0768 -0.1936  0.1249
 1165SOL    HW1 6450   8.065   9.047   9.226 -1.3702  1.7149 -1.0222
 1165SOL    HW2 6451   8.074   9.103   9.366  0.1099  0.6248 -0.6578
 1166SOL     OW 6452   1.335   8.471  10.125  1.0395  0.2630 -0.3259
 1166SOL    HW1 6453   1.296   8.454  10.211 -0.3101 -2.2295 -1.3304
 1166SOL    HW2 6454   1.414   8.418  10.124  0.0305 -1.3062 -1.2566
 1167SOL     OW 6455   2.173   3.746   1.118  0.3822 -0.1563  0.1674
 1167SOL    HW1 6456   2.119   3.696   1.179  0.0699  2.9723  2.7080
 1167SOL    HW2 6457   2.110   3.795   1.066  0.7346 -0.8235 -0.9325
 1168SOL     OW 6458   7.105  10.640   5.233  0.2465 -0.3497 -0.0323
 1168SOL    HW1 6459   7.077  10.654   5.143  0.9160  1.0915 -0.0418
 1168SOL    HW2 6460   7.026  10.651   5.286  0.4066  1.9899 -0.1947
 1169SOL     OW 6461   8.697   0.980   2.714  0.0191 -0.0373  0.2934
 1169SOL    HW1 6462   8.782   0.961   2.753  0.3589 -0.1891 -0.4867
 1169SOL    HW2 6463   8.665   0.894   2.684 -0.3499  0.0374  0.4707
 1170SOL     OW 6464   6.734   2.062   0.689  0.1030 -0.3411 -0.0088
 1170SOL    HW1 6465   6.694   1.981   0.657  0.7517 -1.2465  1.3528
 1170SOL    HW2 6466   6.803   2.032   0.749 -0.6173  1.2137  1.7041
 1171SOL     OW 6467  10.241   5.820   3.804  0.1041 -0.1857  0.3449
 1171SOL    HW1 6468  10.219   5.732   3.772  1.8482 -1.1506  1.6402
 1171SOL    HW2 6469  10.337   5.823   3.802  0.0802  1.7641  0.2039
 1172SOL     OW 6470   8.808   8.835   5.808  0.0075  0.3591 -0.3679
 1172SOL    HW1 6471   8.768   8.751   5.830 -0.6053  0.6039 -0.5285
 1172SOL    HW2 6472   8.901   8.815   5.797  0.0078 -0.1342  0.4410
 1173SOL     OW 6473   2.885  10.167  10.352  0.0372  0.1241  0.6134
 1173SOL    HW1 6474   2.824  10.113  10.302  0.5275  0.1471 -0.0230
 1173SOL    HW2 6475   2.918  10.231  10.289 -1.9162  2.4124  1.7581
 1174SOL     OW 6476   4.830   2.793   7.114 -0.1213 -0.2914 -0.1259
 1174SOL    HW1 6477   4.863   2.756   7.032 -1.3740 -2.2651  0.1920
 1174SOL    HW2 6478   4.751   2.742   7.133  0.5199 -0.3730  2.6934
 1175SOL     OW 6479   4.996   2.374   2.621  0.2188 -0.0176 -0.5511
 1175SOL    HW1 6480   4.987   2.469   2.624 -0.1086 -0.0287 -1.2145
 1175SOL    HW2 6481   5.031   2.356   2.534  0.7411 -0.4723 -0.2573
 1176SOL     OW 6482   5.041   9.145   4.774  0.9112  0.5651 -0.0306
 1176SOL    HW1 6483   4.962   9.179   4.815  0.6976  0.1010 -0.0588
 1176SOL    HW2 6484   5.109   9.157   4.840  1.1365  2.3098 -0.5238
 1177SOL     OW 6485   5.064   2.976  10.280 -0.7719 -0.4927 -0.2064
 1177SOL    HW1 6486   5.145   2.936  10.311 -0.4107 -1.6374 -2.3860
 1177SOL    HW2 6487   5.009   2.902  10.254 -2.6573  0.2476  1.4313
 1178SOL     OW 6488   3.192   0.155   6.937  0.1280 -0.1562 -0.0801
 1178SOL    HW1 6489   3.264   0.106   6.977 -0.7412 -0.8097  0.7340
 1178SOL    HW2 6490   3.131   0.170   7.009 -1.4514 -1.2926 -1.1114
 1179SOL     OW 6491   2.388   1.799   8.946  0.9256  0.0694 -0.1929
 1179SOL    HW1 6492   2.405   1.729   8.883  2.3089  0.5904 -0.4306
 1179SOL    HW2 6493   2.412   1.762   9.031 -0.8730 -0.6095  0.0634
 1180SOL     OW 6494   1.965   0.889  10.127 -0.2333 -0.2307  0.3505
 1180SOL    HW1 6495   1.898   0.856  10.067  0.3217 -0.0816 -0.3573
 1180SOL    HW2 6496   1.995   0.971  10.088  0.7668 -0.5806  0.3530
 1181SOL     OW 6497   9.507   0.873   2.754 -0.7142 -0.0874  0.3221
 1181SOL    HW1 6498   9.483   0.964   2.772 -2.0696 -0.4672  0.5262
 1181SOL    HW2 6499   9.465   0.823   2.824 -0.7244 -0.9536 -0.2912
 1182SOL     OW 6500   3.264   5.450   3.098 -1.1635  0.0486 -0.4963
 1182SOL    HW1 6501   3.319   5.376   3.070  0.6402  1.4026 -0.7872
 1182SOL    HW2 6502   3.175   5.425   3.074 -0.4272 -1.4443 -1.8617
 1183SOL     OW 6503   2.773   0.023   9.808 -0.0430 -0.3454  0.5671
 1183SOL    HW1 6504   2.732   0.047   9.725 -0.6277  1.1506  1.2469
 1183SOL    HW2 6505   2.867   0.026   9.789  0.0164  3.1582  0.6394
 1184SOL     OW 6506   2.509   4.032   9.336  0.3937 -0.0958 -0.2289
 1184SOL    HW1 6507   2.462   3.992   9.262  0.8316 -0.5652 -0.2560
 1184SOL    HW2 6508   2.443   4.087   9.378 -0.1243 -0.5578 -0.4080
 1185SOL     OW 6509  10.159  10.638   6.940  0.4006 -0.0433  0.3585
 1185SOL    HW1 6510  10.077  10.647   6.988  0.2818 -3.0098  0.9274
 1185SOL    HW2 6511  10.226  10.627   7.007  0.6797 -1.3209 -0.0985
 1186SOL     OW 6512   8.339   4.985   5.471  0.6151 -0.1886  0.6453
 1186SOL    HW1 6513   8.317   5.021   5.557  2.1563  0.0251  0.9928
 1186SOL    HW2 6514   8.419   4.934   5.486  1.6013  0.8140 -0.8302
 1187SOL     OW 6515   1.957   5.061   3.867  0.4920  0.3821 -0.1641
 1187SOL    HW1 6516   1.873   5.026   3.899 -1.0314  2.4007 -1.7128
 1187SOL    HW2 6517   2.002   4.984   3.831 -1.3672 -0.5318 -0.6925
 1188SOL     OW 6518   0.712   3.559   3.361 -0.7708  0.7094  0.3002
 1188SOL    HW1 6519   0.731   3.494   3.429 -0.2921  0.2687 -0.2480
 1188SOL    HW2 6520   0.749   3.522   3.281 -2.0384  0.8450 -0.3746
 1189SOL     OW 6521   2.406   4.804   2.127  0.3000 -0.0940  0.9569
 1189SOL    HW1 6522   2.425   4.724   2.079  1.0999  0.7021 -0.1194
 1189SOL    HW2 6523   2.312   4.802   2.143 -0.0690 -0.2051 -1.0411
 1190SOL     OW 6524   7.168   6.637   5.303  0.2588 -0.1578  0.4804
 1190SOL    HW1 6525   7.181   6.585   5.224 -0.8922 -0.9251  0.7784
 1190SOL    HW2 6526   7.076   6.661   5.301  0.3739  0.3893  1.2529
 1191SOL     OW 6527   1.037   5.757   4.279  0.2452 -0.5307  0.0479
 1191SOL    HW1 6528   0.978   5.753   4.203 -0.3623  0.1131  0.4686
 1191SOL    HW2 6529   1.017   5.677   4.329  0.2319 -0.6656 -0.1728
 1192SOL     OW 6530   8.277   3.807   7.321  0.1435 -0.4454 -0.3341
 1192SOL    HW1 6531   8.311   3.732   7.369  0.2756  0.3990  0.9461
 1192SOL    HW2 6532   8.277   3.780   7.230 -0.5144 -2.2648  0.1797
 1193SOL     OW 6533   1.985   3.830   1.823  0.0061  0.2028  0.2159
 1193SOL    HW1 6534   1.927   3.773   1.873 -0.1873 -0.0185 -0.2541
 1193SOL    HW2 6535   1.927   3.895   1.783  0.1098  0.1301 -0.0539
 1194SOL     OW 6536   3.388   9.336   9.154 -0.2151 -0.5525 -0.0189
 1194SOL    HW1 6537   3.429   9.299   9.232 -2.2695 -2.0423  0.4390
 1194SOL    HW2 6538   3.320   9.394   9.189 -0.2735 -0.1883 -0.7216
 1195SOL     OW 6539   7.583   2.227   3.098  0.1568 -0.6035 -0.0748
 1195SOL    HW1 6540   7.557   2.279   3.174 -0.2796 -0.7409 -0.1324
 1195SOL    HW2 6541   7.670   2.193   3.121  0.2319 -0.2516  0.1634
 1196SOL     OW 6542   8.467   0.656   8.999 -0.2648 -0.3759 -0.3436
 1196SOL    HW1 6543   8.484   0.674   9.091  1.5618 -1.0453 -0.5058
 1196SOL    HW2 6544   8.485   0.739   8.954 -0.5196 -0.2308 -0.1812
 1197SOL     OW 6545   3.502   4.143   2.698 -0.1158  0.1543  0.1414
 1197SOL    HW1 6546   3.407   4.155   2.700 -0.0478  2.3149 -2.7232
 1197SOL    HW2 6547   3.514   4.049   2.685 -1.7708 -0.3403  1.8159
 1198SOL     OW 6548   8.742   1.523  10.307 -0.0751  0.0072 -0.3655
 1198SOL    HW1 6549   8.724   1.439  10.264 -1.7039  1.0721 -1.8893
 1198SOL    HW2 6550   8.655   1.560  10.323  0.6220  1.6994 -0.3679
 1199SOL     OW 6551   7.059   5.034   2.654 -0.2205 -0.3722  0.0196
 1199SOL    HW1 6552   7.111   5.111   2.629  0.5961 -0.3226  1.7686
 1199SOL    HW2 6553   7.000   5.021   2.580  0.9988  0.7121 -1.2122
 1200SOL     OW 6554   6.911   8.810   2.440 -0.0552  0.0025 -0.0552
 1200SOL    HW1 6555   6.946   8.889   2.482  0.6480 -0.7499  0.8154
 1200SOL    HW2 6556   6.824   8.835   2.411 -0.4645  0.6432  1.6349
 1201SOL     OW 6557   7.963   5.961   6.794 -0.4510 -0.5142 -0.0826
 1201SOL    HW1 6558   7.875   5.999   6.788 -0.7927 -1.1358  0.7590
 1201SOL    HW2 6559   7.993   5.955   6.704 -1.5446 -0.8833 -0.4414
 1202SOL     OW 6560   3.667   3.495   8.602  0.6970  0.0251 -0.6758
 1202SOL    HW1 6561   3.692   3.465   8.690 -2.1016 -2.4229 -0.5499
 1202SOL    HW2 6562   3.729   3.451   8.544  2.9653  2.1381 -0.0350
 1203SOL     OW 6563   0.004   9.794   3.321 -0.3372  0.4829 -0.3599
 1203SOL    HW1 6564   0.014   9.712   3.371  0.8788  0.8187 -0.0147
 1203SOL    HW2 6565   0.084   9.799   3.268 -1.5945  0.1507 -2.3710
 1204SOL     OW 6566   3.282   1.999   5.675  0.0615 -0.3952  0.4638
 1204SOL    HW1 6567   3.193   2.033   5.663 -0.5653 -2.3608 -0.8710
 1204SOL    HW2 6568   3.270   1.918   5.725  1.0238 -1.0270 -0.3060
 1205SOL     OW 6569   4.899   5.762   4.454 -0.1304 -0.1323  0.2266
 1205SOL    HW1 6570   4.820   5.712   4.473 -0.9259  0.7170 -0.7327
 1205SOL    HW2 6571   4.967   5.697   4.439 -0.6867 -0.8752  0.8631
 1206SOL     OW 6572   6.421   4.032   9.046  0.4643  0.1634  0.7005
 1206SOL    HW1 6573   6.342   3.980   9.035  1.0621 -0.4921 -0.6819
 1206SOL    HW2 6574   6.439   4.029   9.141  0.6220 -2.3985  0.6614
 1207SOL     OW 6575   7.920   2.975   0.883  0.0751 -0.0269 -0.7050
 1207SOL    HW1 6576   7.992   2.997   0.942 -1.0135  0.0428  0.6308
 1207SOL    HW2 6577   7.856   3.045   0.896 -1.1658 -1.2028 -0.2552
 1208SOL     OW 6578  10.618   8.192   8.747  0.7051 -0.2112 -0.4814
 1208SOL    HW1 6579  10.672   8.115   8.726 -2.6822 -3.0185  0.2334
 1208SOL    HW2 6580  10.617   8.195   8.843  2.4618  2.1827 -0.4307
 1209SOL     OW 6581   3.795   3.223   1.411  0.0757 -0.1744 -0.9136
 1209SOL    HW1 6582   3.739   3.228   1.333  1.6156  0.4317 -2.0348
 1209SOL    HW2 6583   3.745   3.267   1.479 -1.3220 -0.7163 -1.5444
 1210SOL     OW 6584   0.778   2.671   1.925  0.4187  0.3926  0.0953
 1210SOL    HW1 6585   0.798   2.671   1.831  0.1781  1.6844  0.0290
 1210SOL    HW2 6586   0.818   2.590   1.957  2.0623  0.7912 -0.8014
 1211SOL     OW 6587   7.960   8.009   6.947 -0.1313 -0.2811  0.2028
 1211SOL    HW1 6588   7.928   7.950   6.879 -2.1927  0.5907  0.3382
 1211SOL    HW2 6589   7.975   7.952   7.023 -2.2310 -0.6938  0.3774
 1212SOL     OW 6590   4.194  10.105   1.476  0.2325 -0.8628 -0.4784
 1212SOL    HW1 6591   4.165  10.128   1.388  3.0535  2.2990 -0.7927
 1212SOL    HW2 6592   4.287  10.085   1.465  0.6546 -0.3398  1.7544
 1213SOL     OW 6593   4.606  10.505   2.838 -0.2126  0.5500 -0.3754
 1213SOL    HW1 6594   4.638  10.541   2.756  1.6532 -1.7359 -0.7632
 1213SOL    HW2 6595   4.681  10.457   2.874 -1.7414 -0.6901  1.3420
 1214SOL     OW 6596   8.146   2.369   2.163 -0.5205 -0.1823  0.2976
 1214SOL    HW1 6597   8.146   2.318   2.244  1.2559  0.5810  0.8228
 1214SOL    HW2 6598   8.191   2.451   2.186 -0.4765  0.2800 -1.3215
 1215SOL     OW 6599   8.725   6.484   0.867 -0.0245 -0.5125 -0.4118
 1215SOL    HW1 6600   8.783   6.559   0.880  0.2600 -0.8212  0.1508
 1215SOL    HW2 6601   8.702   6.486   0.774 -0.9619  0.9586 -0.1804
 1216SOL     OW 6602   5.215   2.964   0.281  0.1291  0.6095 -0.0682
 1216SOL    HW1 6603   5.218   3.038   0.341  1.3444 -0.2717  1.0182
 1216SOL    HW2 6604   5.202   2.888   0.337 -0.2656 -0.0917 -1.0750
 1217SOL     OW 6605   1.217   5.717   9.754  0.4929 -0.1661 -0.3039
 1217SOL    HW1 6606   1.269   5.706   9.833  0.1162 -1.3975 -0.2055
 1217SOL    HW2 6607   1.134   5.754   9.784 -0.4459 -2.4869  0.2265
 1218SOL     OW 6608   1.363   1.699   4.694 -0.0776 -0.1413  0.4821
 1218SOL    HW1 6609   1.328   1.704   4.606 -0.4014 -0.4297  0.5917
 1218SOL    HW2 6610   1.449   1.740   4.688 -0.4852  0.6829  0.2428
 1219SOL     OW 6611   0.478   7.208   6.979  0.6845 -0.1834 -0.8899
 1219SOL    HW1 6612   0.529   7.228   6.900  1.9206 -1.2432 -0.3893
 1219SOL    HW2 6613   0.444   7.119   6.963  0.8978 -0.3813 -0.2611
 1220SOL     OW 6614   7.146   1.302   2.539 -0.2496 -0.3263  0.1232
 1220SOL    HW1 6615   7.095   1.313   2.619  2.1853  4.7672  1.3372
 1220SOL    HW2 6616   7.085   1.325   2.468 -1.1986 -0.3141  0.9265
 1221SOL     OW 6617   9.552   5.957   7.944 -0.3746  0.9554  0.6340
 1221SOL    HW1 6618   9.472   6.010   7.948 -1.3276 -0.0834 -1.9665
 1221SOL    HW2 6619   9.618   6.016   7.908 -0.5146  1.3056  0.9501
 1222SOL     OW 6620   5.720   9.818   9.175  0.5834  0.1150  0.5462
 1222SOL    HW1 6621   5.797   9.853   9.131  0.1243 -0.7137 -0.9543
 1222SOL    HW2 6622   5.700   9.737   9.129 -0.5271 -0.2598  1.6383
 1223SOL     OW 6623   2.944   8.696  10.233  0.5509 -0.0284  0.1603
 1223SOL    HW1 6624   3.032   8.680  10.199  0.3119  0.0406 -0.5070
 1223SOL    HW2 6625   2.911   8.769  10.180  0.9094  1.4505  1.8731
 1224SOL     OW 6626   9.728   3.371   7.246 -0.8539 -0.0858 -0.0162
 1224SOL    HW1 6627   9.735   3.275   7.251 -3.0100 -0.3696 -1.1922
 1224SOL    HW2 6628   9.673   3.395   7.321 -0.3809  0.2414  0.2320
 1225SOL     OW 6629   2.215   1.916   1.427 -0.0050 -0.5069  0.0782
 1225SOL    HW1 6630   2.306   1.885   1.423  0.5274  0.9111  0.3361
 1225SOL    HW2 6631   2.213   1.990   1.366 -1.1639 -0.8962 -0.3867
 1226SOL     OW 6632   3.870   9.349   1.484  0.2704 -0.0697  0.7661
 1226SOL    HW1 6633   3.926   9.319   1.412 -0.0018 -1.3232  1.0570
 1226SOL    HW2 6634   3.805   9.405   1.441  0.6764 -0.0320  0.1761
 1227SOL     OW 6635   5.188   5.755   9.723 -0.2825  0.1308  0.1827
 1227SOL    HW1 6636   5.253   5.759   9.793 -0.4701  1.7921  0.3006
 1227SOL    HW2 6637   5.135   5.678   9.743  0.0326  0.2438  1.5408
 1228SOL     OW 6638   1.138   9.649  10.515  0.1126 -0.2136  0.2055
 1228SOL    HW1 6639   1.143   9.637  10.420  1.8625  0.0867  0.2394
 1228SOL    HW2 6640   1.168   9.739  10.529  0.7598 -0.5595  1.1095
 1229SOL     OW 6641   2.446   8.772   4.523 -0.0960 -0.0591 -0.5614
 1229SOL    HW1 6642   2.523   8.716   4.512  0.2967  0.0242  1.5332
 1229SOL    HW2 6643   2.436   8.814   4.437  1.9466 -0.3669 -1.0201
 1230SOL     OW 6644   9.134   8.211   9.975 -0.5081 -0.1787  0.1958
 1230SOL    HW1 6645   9.137   8.224   9.880 -1.0865  0.1756  0.2192
 1230SOL    HW2 6646   9.138   8.116   9.987 -1.3550 -0.2726 -0.2294
 1231SOL     OW 6647   3.926   2.771   6.618 -0.4860 -0.7080 -0.2561
 1231SOL    HW1 6648   3.837   2.801   6.600 -1.3454 -2.2393  1.1794
 1231SOL    HW2 6649   3.942   2.701   6.555  0.3074  0.4965 -1.4689
 1232SOL     OW 6650   4.547  10.231   5.325 -0.1315 -0.0983 -0.1139
 1232SOL    HW1 6651   4.623  10.199   5.373 -0.0768 -0.0277 -0.1527
 1232SOL    HW2 6652   4.472  10.202   5.376 -0.2135 -2.7114 -1.5317
 1233SOL     OW 6653   8.677   6.217   0.948 -0.8055 -0.0906 -0.4650
 1233SOL    HW1 6654   8.689   6.226   1.042 -0.1048 -2.7040 -0.2025
 1233SOL    HW2 6655   8.704   6.301   0.912 -1.0723  0.9628  1.6437
 1234SOL     OW 6656   8.240   8.820   9.566  0.4682 -0.2064  0.3412
 1234SOL    HW1 6657   8.279   8.755   9.624  0.7155  0.0093  0.4200
 1234SOL    HW2 6658   8.272   8.797   9.479  1.4935  0.4884  0.5178
 1235SOL     OW 6659   7.546   6.304   9.666 -0.0295 -0.2771  0.0937
 1235SOL    HW1 6660   7.544   6.389   9.708 -0.5970 -0.6452  0.8202
 1235SOL    HW2 6661   7.586   6.246   9.731  0.6665 -0.4990 -0.5216
 1236SOL     OW 6662   1.699   7.838   1.688 -0.3206 -0.1366  0.1806
 1236SOL    HW1 6663   1.628   7.777   1.667 -1.1823  1.2118 -1.0249
 1236SOL    HW2 6664   1.743   7.854   1.604  0.7851 -0.1634  0.7317
 1237SOL     OW 6665   0.960  10.409   5.084  0.9886 -0.6504  0.2810
 1237SOL    HW1 6666   1.053  10.421   5.107  1.5563 -2.1273 -1.0674
 1237SOL    HW2 6667   0.954  10.318   5.055  0.1088  0.5891 -4.0010
 1238SOL     OW 6668   5.344   9.061  10.245  0.1213  0.0245 -0.6211
 1238SOL    HW1 6669   5.251   9.061  10.266  0.7813 -1.0893  3.0231
 1238SOL    HW2 6670   5.366   8.968  10.231  0.8905  0.1411 -0.2627
 1239SOL     OW 6671   7.855   5.146   7.147  0.3537 -0.6545  0.1194
 1239SOL    HW1 6672   7.821   5.110   7.230 -0.7010  1.0389  0.4593
 1239SOL    HW2 6673   7.886   5.233   7.170  1.3870 -0.7035 -1.0107
 1240SOL     OW 6674   1.512   0.680   1.573  0.1335  0.1287 -0.0058
 1240SOL    HW1 6675   1.581   0.738   1.606 -0.4192  0.6141  0.3117
 1240SOL    HW2 6676   1.437   0.739   1.557 -1.2793 -0.8151  2.6356
 1241SOL     OW 6677   0.175   0.276   9.053  0.0557  0.3692 -0.1274
 1241SOL    HW1 6678   0.212   0.305   9.137 -0.3804 -0.5884  0.4042
 1241SOL    HW2 6679   0.097   0.331   9.042  0.6550  1.1984 -0.4209
 1242SOL     OW 6680   0.260   6.654   0.395  0.2121  0.1731  0.0745
 1242SOL    HW1 6681   0.183   6.635   0.341  0.6541 -2.6414  0.2551
 1242SOL    HW2 6682   0.327   6.684   0.333 -0.0384 -0.6214 -0.5962
 1243SOL     OW 6683   8.521   4.605   2.553  0.4682 -0.4622  0.3310
 1243SOL    HW1 6684   8.575   4.535   2.514  1.7706  0.1818  0.9323
 1243SOL    HW2 6685   8.431   4.573   2.543  0.9420 -1.5861 -0.6738
 1244SOL     OW 6686   5.504   4.856   2.075  0.0762 -0.0123  0.1456
 1244SOL    HW1 6687   5.518   4.764   2.055  0.1549 -0.4865  2.1916
 1244SOL    HW2 6688   5.410   4.865   2.086  0.0154  0.2774 -0.5750
 1245SOL     OW 6689   0.520   0.849   3.259  0.4337 -0.3593 -0.5900
 1245SOL    HW1 6690   0.570   0.773   3.289  0.0038 -0.2825  0.3487
 1245SOL    HW2 6691   0.429   0.818   3.257  0.2326  0.1747 -0.0321
 1246SOL     OW 6692  10.535   9.195   9.038 -0.1923  0.1064 -0.0592
 1246SOL    HW1 6693  10.606   9.197   8.974  0.5454  0.1401  0.7397
 1246SOL    HW2 6694  10.475   9.127   9.006  0.0747  0.2354 -0.8627
 1247SOL     OW 6695   8.526   2.538   3.623  0.0768  0.1029  0.2969
 1247SOL    HW1 6696   8.494   2.517   3.711  0.5627 -0.1002  0.4282
 1247SOL    HW2 6697   8.490   2.468   3.567 -1.2182  0.8804  0.1112
 1248SOL     OW 6698   2.317   1.896   2.388  0.2688 -0.0688 -0.0319
 1248SOL    HW1 6699   2.294   1.899   2.295 -0.4321  0.1124  0.1382
 1248SOL    HW2 6700   2.292   1.808   2.416 -0.8145  0.3196  0.2887
 1249SOL     OW 6701  10.248   7.247   7.134 -0.7051 -0.0050  0.2678
 1249SOL    HW1 6702  10.271   7.178   7.196  0.3721 -0.1520 -0.2736
 1249SOL    HW2 6703  10.301   7.322   7.160  1.7796 -0.8261 -1.9583
 1250SOL     OW 6704   3.720   8.480   5.448  0.0938  0.4862 -0.3327
 1250SOL    HW1 6705   3.634   8.448   5.476  0.0832  0.6565 -0.1681
 1250SOL    HW2 6706   3.778   8.404   5.459 -0.2923 -0.0488 -1.7413
 1251SOL     OW 6707   1.624  10.212   4.394  0.0328  0.2299  0.1279
 1251SOL    HW1 6708   1.568  10.172   4.462  0.3947 -1.0596 -0.3140
 1251SOL    HW2 6709   1.631  10.145   4.326  1.5775  0.6246 -0.1355
 1252SOL     OW 6710  10.477   2.269   0.235 -0.0362 -0.6678 -0.0049
 1252SOL    HW1 6711  10.391   2.311   0.231 -0.4650 -1.5520 -0.2587
 1252SOL    HW2 6712  10.516   2.287   0.150  0.3618  0.3900  0.3803
 1253SOL     OW 6713   2.080   7.388   2.318 -0.0095  0.3640 -0.0561
 1253SOL    HW1 6714   2.051   7.332   2.390 -0.3709 -0.1642 -0.6131
 1253SOL    HW2 6715   2.165   7.353   2.293 -0.0501  0.3198 -0.1321
 1254SOL     OW 6716   7.609   8.071  10.009 -0.2189 -0.0453 -0.4165
 1254SOL    HW1 6717   7.701   8.043  10.004 -0.3489 -0.3744 -0.9780
 1254SOL    HW2 6718   7.575   8.026  10.087  0.3416  0.8144  0.3400
 1255SOL     OW 6719   0.854  10.125   5.636  0.0935  0.0248 -0.6054
 1255SOL    HW1 6720   0.792  10.078   5.579  0.4430 -1.6853  0.3828
 1255SOL    HW2 6721   0.851  10.078   5.719 -0.9000  2.8433  1.0972
 1256SOL     OW 6722   3.152   2.798   8.757  0.0967  0.4094 -0.7489
 1256SOL    HW1 6723   3.058   2.815   8.767 -0.1509 -1.5557  0.7693
 1256SOL    HW2 6724   3.193   2.881   8.779 -1.2287  0.7897  0.4778
 1257SOL     OW 6725   4.152   6.787   2.351  0.3505  0.0012 -0.7196
 1257SOL    HW1 6726   4.177   6.793   2.443 -0.0050  1.5183 -0.6926
 1257SOL    HW2 6727   4.231   6.756   2.307  0.0709 -2.2933  0.2540
 1258SOL     OW 6728   2.864   6.008   0.456 -0.6604  0.3747 -0.5546
 1258SOL    HW1 6729   2.824   6.082   0.412 -0.3655 -0.0423 -1.5422
 1258SOL    HW2 6730   2.956   6.010   0.430 -0.8815 -1.0179 -1.5888
 1259SOL     OW 6731   4.655   7.870   0.394  0.2384 -0.1577 -0.4394
 1259SOL    HW1 6732   4.666   7.957   0.432 -0.7264 -0.7709  1.3457
 1259SOL    HW2 6733   4.563   7.849   0.409  0.3079 -1.2557 -1.4117
 1260SOL     OW 6734   3.232   8.602   8.898  0.1840  0.6892 -0.1021
 1260SOL    HW1 6735   3.178   8.647   8.834  0.7586  0.4013 -0.8121
 1260SOL    HW2 6736   3.258   8.670   8.961  0.4882  1.2074 -0.7770
 1261SOL     OW 6737   9.534  10.068   4.435 -0.2398  0.2946 -0.0558
 1261SOL    HW1 6738   9.478   9.996   4.405  1.3082 -0.4494 -1.3410
 1261SOL    HW2 6739   9.614  10.058   4.384  0.4264  2.3301  0.5068
 1262SOL     OW 6740   3.525   7.652   2.602 -0.0213 -0.3526  0.0108
 1262SOL    HW1 6741   3.591   7.583   2.591  0.7467  0.3178  0.2737
 1262SOL    HW2 6742   3.550   7.718   2.538  1.6405  1.4480  2.3387
 1263SOL     OW 6743   7.219   0.227  10.334 -0.0064  0.2683  0.0371
 1263SOL    HW1 6744   7.199   0.178  10.254  0.5936  0.0073  0.0332
 1263SOL    HW2 6745   7.144   0.285  10.347 -0.7920 -0.7309  0.0981
 1264SOL     OW 6746   0.100   7.954   5.992 -0.4660  0.2938  0.4854
 1264SOL    HW1 6747   0.156   8.012   6.043 -1.0956  0.7918  0.6363
 1264SOL    HW2 6748   0.150   7.935   5.913  0.8519 -1.1167  1.5969
 1265SOL     OW 6749   6.704   4.324   6.147 -0.2197 -0.4255 -0.6745
 1265SOL    HW1 6750   6.659   4.319   6.063 -2.6100 -1.3451  0.5853
 1265SOL    HW2 6751   6.726   4.233   6.168 -0.8384 -0.3565  0.3061
 1266SOL     OW 6752   8.880  10.372   5.436  0.1308 -0.3907 -0.4594
 1266SOL    HW1 6753   8.889  10.390   5.342  0.8905 -0.1227 -0.3447
 1266SOL    HW2 6754   8.841  10.285   5.440 -0.8131 -0.0081 -1.0240
 1267SOL     OW 6755  10.585   8.709   1.838 -0.6302  0.6026 -0.3325
 1267SOL    HW1 6756  10.604   8.671   1.924 -2.5157  0.3216  0.0069
 1267SOL    HW2 6757  10.628   8.794   1.840  2.3110 -0.7693 -0.4896
 1268SOL     OW 6758   7.013   0.205   4.934  0.4589  0.0416 -0.2687
 1268SOL    HW1 6759   6.958   0.251   4.871 -0.3648  0.6918  0.8871
 1268SOL    HW2 6760   7.084   0.168   4.882 -0.5097  0.0664 -1.6447
 1269SOL     OW 6761   6.416   4.525   0.840  0.2261 -0.9683  0.3176
 1269SOL    HW1 6762   6.365   4.567   0.771  3.2350  0.0781 -1.4633
 1269SOL    HW2 6763   6.352   4.504   0.908 -2.4481  0.5553 -1.5399
 1270SOL     OW 6764   0.100   4.546   3.288 -0.2741 -0.4734 -0.0319
 1270SOL    HW1 6765   0.110   4.464   3.338 -1.3601 -0.0959  0.8416
 1270SOL    HW2 6766   0.117   4.615   3.352 -0.0262 -0.0026 -0.6053
 1271SOL     OW 6767   0.531   5.377   6.890  0.4985 -0.4898 -0.1921
 1271SOL    HW1 6768   0.440   5.350   6.895  0.3272  0.2377  1.8698
 1271SOL    HW2 6769   0.541   5.413   6.802 -1.5879  0.6595 -0.0229
 1272SOL     OW 6770   6.869   1.275   5.921  0.0374  0.5941  0.0424
 1272SOL    HW1 6771   6.946   1.300   5.870 -0.2672 -0.3022 -0.8856
 1272SOL    HW2 6772   6.808   1.238   5.857 -1.0526  1.0148  0.8088
 1273SOL     OW 6773   3.963   0.796   2.992  0.3283  0.3570  0.0722
 1273SOL    HW1 6774   4.029   0.788   3.061  0.4363 -0.0771 -0.0802
 1273SOL    HW2 6775   3.991   0.872   2.941  1.4630 -0.5840 -0.7791
 1274SOL     OW 6776   9.019   2.621   9.766 -0.2999 -0.0994 -0.1501
 1274SOL    HW1 6777   9.084   2.551   9.779 -0.7333 -1.1361 -2.8695
 1274SOL    HW2 6778   9.070   2.696   9.737 -0.1404 -0.3709 -0.5789
 1275SOL     OW 6779   3.443   5.580   4.051 -0.2825  0.1210 -0.4691
 1275SOL    HW1 6780   3.398   5.588   4.135  1.7645 -0.9777  0.7916
 1275SOL    HW2 6781   3.417   5.659   4.003 -2.2490  0.2986  0.7790
 1276SOL     OW 6782   1.265   7.767   0.371  0.6775  0.8137  0.5893
 1276SOL    HW1 6783   1.254   7.680   0.332 -0.7978  1.9456 -1.7234
 1276SOL    HW2 6784   1.207   7.767   0.448 -0.9343  0.3787 -0.5767
 1277SOL     OW 6785  10.585   6.164   9.959 -0.0385 -0.3643  0.0187
 1277SOL    HW1 6786  10.558   6.233   9.898 -1.7489 -1.6428 -0.7360
 1277SOL    HW2 6787  10.515   6.162  10.024  2.2368  1.7344  2.8510
 1278SOL     OW 6788   3.371   6.971  10.183  0.1982  0.1634  0.5408
 1278SOL    HW1 6789   3.353   7.011  10.268  0.9923  1.2805  0.2075
 1278SOL    HW2 6790   3.291   6.922  10.163  0.8558 -2.1404  2.9999
 1279SOL     OW 6791   5.745   8.742   8.166 -0.0023  0.5847  0.5178
 1279SOL    HW1 6792   5.781   8.762   8.080  0.3187  2.0508  0.9662
 1279SOL    HW2 6793   5.793   8.664   8.195  0.7983  0.8420 -0.0909
 1280SOL     OW 6794   6.651   6.904   4.855 -0.2635  0.5985  0.1707
 1280SOL    HW1 6795   6.657   6.891   4.760 -0.4107 -1.2445  0.3740
 1280SOL    HW2 6796   6.717   6.845   4.891 -1.8946 -0.6079  1.3025
 1281SOL     OW 6797   4.350   7.781   0.366 -0.2625 -0.6490  0.1671
 1281SOL    HW1 6798   4.382   7.717   0.430 -1.9319 -0.5931  1.1159
 1281SOL    HW2 6799   4.276   7.737   0.324 -1.3653  0.5764  0.7628
 1282SOL     OW 6800   4.865   0.390   9.380  0.2937  0.3887  0.3545
 1282SOL    HW1 6801   4.831   0.376   9.291 -0.6062 -0.3586  0.7948
 1282SOL    HW2 6802   4.905   0.306   9.404  1.0975  0.7821  0.4333
 1283SOL     OW 6803   5.358  10.511   5.859 -0.4955 -0.1393  0.0669
 1283SOL    HW1 6804   5.438  10.482   5.901 -0.7602  0.9470  1.4073
 1283SOL    HW2 6805   5.385  10.537   5.771  0.3516 -1.0870  0.0368
 1284SOL     OW 6806   4.548   8.197   3.052 -0.5164  0.3826  0.2119
 1284SOL    HW1 6807   4.458   8.208   3.082 -0.6300  1.1041 -0.3621
 1284SOL    HW2 6808   4.541   8.154   2.967 -0.2346 -0.9134  0.8255
 1285SOL     OW 6809   1.744   6.111   3.744 -0.0915  0.2917 -0.3351
 1285SOL    HW1 6810   1.676   6.069   3.690  0.1021  0.3297 -0.6127
 1285SOL    HW2 6811   1.784   6.039   3.792 -0.3924  0.2810 -0.0966
 1286SOL     OW 6812   2.590   0.273   0.795 -0.0842 -0.0835  0.0589
 1286SOL    HW1 6813   2.631   0.358   0.811 -0.9606  0.0454  1.9088
 1286SOL    HW2 6814   2.498   0.294   0.780  0.1056 -0.5388 -2.0571
 1287SOL     OW 6815   1.784   2.116   5.098  0.1817 -0.1777 -0.4375
 1287SOL    HW1 6816   1.820   2.030   5.077  2.1113  0.6390 -0.6908
 1287SOL    HW2 6817   1.828   2.176   5.038  4.0506  1.9185  3.7911
 1288SOL     OW 6818   6.738   8.548   4.757  0.2230 -0.1634  0.0225
 1288SOL    HW1 6819   6.813   8.550   4.816  0.9973  0.5040 -0.9371
 1288SOL    HW2 6820   6.773   8.512   4.675 -0.4173  0.4558 -0.5430
 1289SOL     OW 6821   1.194   1.237   2.581  0.1352 -0.1520  0.3696
 1289SOL    HW1 6822   1.218   1.185   2.657  0.7103 -0.4152  0.0138
 1289SOL    HW2 6823   1.143   1.310   2.616  0.8599  0.0248  1.0584
 1290SOL     OW 6824   9.718   0.241   1.311  0.0646 -0.5779  0.0858
 1290SOL    HW1 6825   9.692   0.322   1.354 -4.1049 -1.5443 -0.1982
 1290SOL    HW2 6826   9.792   0.265   1.256 -0.1148  2.6725  1.0954
 1291SOL     OW 6827   7.075   8.817   2.000  0.2970  0.1660 -0.1971
 1291SOL    HW1 6828   7.050   8.907   2.023  1.3222  0.1457  1.0891
 1291SOL    HW2 6829   7.008   8.789   1.938 -0.0732  1.7999 -0.5921
 1292SOL     OW 6830   2.233   3.569   0.717 -0.4275  0.0608  0.0940
 1292SOL    HW1 6831   2.201   3.567   0.626 -1.9368  0.2122  0.5832
 1292SOL    HW2 6832   2.179   3.504   0.762 -1.1614  1.4707  1.3156
 1293SOL     OW 6833  10.460   3.641   8.953  0.5741  0.3001  0.6192
 1293SOL    HW1 6834  10.502   3.645   8.867 -0.9818 -1.9478 -0.3673
 1293SOL    HW2 6835  10.379   3.691   8.942  0.8512  0.8641  1.1150
 1294SOL     OW 6836   8.765   7.476   9.835  0.1163  0.0328 -0.3124
 1294SOL    HW1 6837   8.796   7.543   9.896 -0.4022 -0.4557  0.5114
 1294SOL    HW2 6838   8.831   7.472   9.767  0.7821  0.4975  0.2991
 1295SOL     OW 6839   9.405   9.473   5.085 -0.5579 -0.2420 -0.0141
 1295SOL    HW1 6840   9.463   9.549   5.072 -0.5751  0.1546  1.9162
 1295SOL    HW2 6841   9.375   9.450   4.997 -0.6022  2.0523 -0.6634
 1296SOL     OW 6842   0.925  10.615   9.954  0.5757 -0.1372  0.4005
 1296SOL    HW1 6843   0.871  10.581  10.026  0.9097 -1.0577  0.2331
 1296SOL    HW2 6844   0.954  10.701   9.984 -1.3799  0.6013  0.2949
 1297SOL     OW 6845   1.167   3.315  10.412  0.1912 -0.3239 -0.3564
 1297SOL    HW1 6846   1.259   3.314  10.387  0.1075  0.6815 -0.7653
 1297SOL    HW2 6847   1.151   3.405  10.441 -0.4025 -0.7611  0.7445
 1298SOL     OW 6848   3.646   7.307   6.602 -0.0215 -0.1266  0.0876
 1298SOL    HW1 6849   3.640   7.287   6.696  0.8127 -0.4632  0.0784
 1298SOL    HW2 6850   3.678   7.226   6.562  0.5281  0.2989 -0.3535
 1299SOL     OW 6851   5.807   0.942   0.873 -0.6158  0.3850  0.1794
 1299SOL    HW1 6852   5.803   0.963   0.966  0.3433 -0.8947  0.5246
 1299SOL    HW2 6853   5.730   0.888   0.857 -0.3930 -0.0018  0.3982
 1300SOL     OW 6854   6.247   9.100   0.938  0.2599 -0.0027  0.2076
 1300SOL    HW1 6855   6.188   9.032   0.907  2.0812 -1.4183 -0.3812
 1300SOL    HW2 6856   6.224   9.177   0.887 -1.0544 -0.5026  0.0029
 1301SOL     OW 6857   3.181   6.025   3.383 -0.5755  0.3803 -0.3151
 1301SOL    HW1 6858   3.140   5.993   3.464  2.0991 -1.0172  0.6018
 1301SOL    HW2 6859   3.126   6.098   3.356 -1.5683  0.9258  2.7793
 1302SOL     OW 6860   4.699   0.227   4.998 -0.2246  0.0954  0.2414
 1302SOL    HW1 6861   4.608   0.258   4.997 -0.0164  0.8606 -1.8797
 1302SOL    HW2 6862   4.698   0.149   5.053 -1.7054  1.3209  2.0737
 1303SOL     OW 6863   1.358   8.478  10.413 -0.5756 -0.0520  0.2459
 1303SOL    HW1 6864   1.411   8.398  10.412 -0.9335 -0.2888  0.2335
 1303SOL    HW2 6865   1.416   8.544  10.452 -1.1970 -0.9511  2.9346
 1304SOL     OW 6866   0.445   6.474   1.732 -0.0288 -0.7778  0.5161
 1304SOL    HW1 6867   0.374   6.428   1.777 -0.7071  0.4791  0.7592
 1304SOL    HW2 6868   0.519   6.471   1.794  0.3278 -2.5329  0.0547
 1305SOL     OW 6869   3.661   3.596   2.957  0.2704  0.2600  0.1873
 1305SOL    HW1 6870   3.736   3.537   2.944  0.2804  0.2855  0.1305
 1305SOL    HW2 6871   3.585   3.537   2.961  0.1475  0.3202 -0.9734
 1306SOL     OW 6872   6.124   0.669   3.392  0.2656  0.1848 -0.0351
 1306SOL    HW1 6873   6.098   0.657   3.301  1.9932 -0.2518 -0.5054
 1306SOL    HW2 6874   6.121   0.581   3.429 -3.3882  0.6730  1.2706
 1307SOL     OW 6875   6.040   1.083   7.525  0.4816  0.6679 -0.1751
 1307SOL    HW1 6876   6.053   1.141   7.450  0.3529  1.3899  0.3485
 1307SOL    HW2 6877   6.028   0.996   7.487  1.9469  0.7630 -0.9054
 1308SOL     OW 6878   0.057   6.715   4.510  0.0899  0.5778 -0.0413
 1308SOL    HW1 6879   0.130   6.760   4.553 -0.7058 -0.3350  2.4540
 1308SOL    HW2 6880  -0.011   6.782   4.501  0.3065  0.8102  0.0608
 1309SOL     OW 6881   3.462   0.091  10.102 -0.2747  0.0582  0.3401
 1309SOL    HW1 6882   3.551   0.116  10.130 -0.3829  1.2572 -0.3444
 1309SOL    HW2 6883   3.430   0.036  10.174  0.7564  0.2009  0.9380
 1310SOL     OW 6884   7.435   0.618   0.359 -0.0745  0.2615 -0.9683
 1310SOL    HW1 6885   7.365   0.672   0.322  0.5405  0.8611 -1.2959
 1310SOL    HW2 6886   7.496   0.681   0.398 -0.2869 -0.3224  0.3329
 1311SOL     OW 6887   1.679   2.829   3.157  0.4735  0.2538  0.2815
 1311SOL    HW1 6888   1.589   2.861   3.162  0.1280 -0.8567  1.5871
 1311SOL    HW2 6889   1.672   2.739   3.126  1.3015  0.7207 -1.4205
 1312SOL     OW 6890   7.106   9.818   5.122  0.0962 -0.2076  0.0163
 1312SOL    HW1 6891   7.166   9.891   5.107 -1.2202  1.0384  0.5600
 1312SOL    HW2 6892   7.054   9.812   5.041  0.6499 -1.0173 -0.2955
 1313SOL     OW 6893   9.431   0.619   1.288  0.2453 -0.3597 -0.0052
 1313SOL    HW1 6894   9.371   0.545   1.294 -0.1372 -0.0254  0.3479
 1313SOL    HW2 6895   9.512   0.588   1.327  0.3594 -0.8647 -0.6189
 1314SOL     OW 6896   8.734   1.630   8.687 -0.5794  0.0171  0.1968
 1314SOL    HW1 6897   8.794   1.685   8.637 -0.2381  0.4382  1.0451
 1314SOL    HW2 6898   8.783   1.548   8.699 -0.2833  0.2531  0.6345
 1315SOL     OW 6899   1.533   9.742   7.764  0.0293 -0.1016  0.3762
 1315SOL    HW1 6900   1.613   9.715   7.718 -0.7147 -0.6562 -0.6496
 1315SOL    HW2 6901   1.481   9.662   7.771 -0.4409  0.2517  1.0256
 1316SOL     OW 6902   3.903   8.490   1.692  0.1947 -0.0681 -0.1588
 1316SOL    HW1 6903   3.981   8.435   1.682  0.1039 -0.8386  2.7029
 1316SOL    HW2 6904   3.937   8.580   1.691  0.8204 -0.2997 -0.9910
 1317SOL     OW 6905   8.968   3.537   5.966 -0.0032 -0.9637 -0.6566
 1317SOL    HW1 6906   9.002   3.598   5.900 -0.2580 -0.8801 -0.7123
 1317SOL    HW2 6907   8.878   3.520   5.937 -0.7595  0.5133  0.6679
 1318SOL     OW 6908   3.169   2.995   5.005  0.3702  0.3674  0.0413
 1318SOL    HW1 6909   3.122   3.040   5.076  0.5015 -0.0765  0.4099
 1318SOL    HW2 6910   3.261   3.006   5.027  0.3934 -0.5664  0.4367
 1319SOL     OW 6911   4.352   4.462   2.327  0.2112  0.3624 -0.2641
 1319SOL    HW1 6912   4.278   4.466   2.267 -0.2776  2.6159  0.4017
 1319SOL    HW2 6913   4.334   4.529   2.393  2.6768  0.7523  0.1128
 1320SOL     OW 6914   4.082   7.678   5.806 -0.3596 -0.1432  0.0903
 1320SOL    HW1 6915   4.123   7.759   5.836  0.4424 -1.1624  1.9177
 1320SOL    HW2 6916   3.996   7.678   5.847 -0.5525  0.0019 -0.3089
 1321SOL     OW 6917   1.481   1.296   4.370  0.1732 -0.0050 -0.1177
 1321SOL    HW1 6918   1.452   1.312   4.460  0.7107  1.3716 -0.1535
 1321SOL    HW2 6919   1.562   1.346   4.363 -0.9710  1.7424 -1.9920
 1322SOL     OW 6920   2.127   4.437   5.251  0.3816 -0.5251  0.2044
 1322SOL    HW1 6921   2.174   4.357   5.225 -0.6664 -0.5229 -1.9331
 1322SOL    HW2 6922   2.035   4.413   5.248  0.1114  0.1740  1.8377
 1323SOL     OW 6923   3.869   9.790  10.332 -0.7129  0.2163 -0.4124
 1323SOL    HW1 6924   3.882   9.708  10.380 -0.3024  0.6147  0.1678
 1323SOL    HW2 6925   3.803   9.769  10.266  2.3175 -1.7727 -3.1187
 1324SOL     OW 6926   4.122   1.467   2.909  0.0185 -0.7035 -0.0223
 1324SOL    HW1 6927   4.146   1.484   3.000  0.2982 -1.5351  0.0677
 1324SOL    HW2 6928   4.027   1.461   2.910  0.0149 -0.6190  0.1928
 1325SOL     OW 6929   0.209   9.431   7.872 -0.3958 -0.6138  0.5203
 1325SOL    HW1 6930   0.218   9.385   7.788 -0.7065 -0.1723  0.2355
 1325SOL    HW2 6931   0.290   9.413   7.919 -0.9245 -2.3194  0.8594
 1326SOL     OW 6932   1.224   0.014   1.161 -0.0164  0.4082  0.2845
 1326SOL    HW1 6933   1.297  -0.033   1.201 -0.2169  2.1150  2.9251
 1326SOL    HW2 6934   1.146  -0.037   1.185  0.0764  0.0592 -0.1521
 1327SOL     OW 6935   3.020   7.080   6.825 -0.2829 -0.0711 -0.0779
 1327SOL    HW1 6936   3.075   7.102   6.901  1.0558  0.6147 -1.1948
 1327SOL    HW2 6937   2.981   7.163   6.799 -1.6451 -0.5036  0.5154
 1328SOL     OW 6938   1.791   7.428  10.380 -0.4320 -0.3868  0.1157
 1328SOL    HW1 6939   1.772   7.347  10.333 -0.0101 -0.7433  0.5403
 1328SOL    HW2 6940   1.716   7.440  10.438 -0.5375 -0.4304 -0.0129
 1329SOL     OW 6941  10.273   9.202   5.287  0.3599 -0.3659 -0.0764
 1329SOL    HW1 6942  10.211   9.266   5.322 -2.2861 -2.4900 -0.4643
 1329SOL    HW2 6943  10.248   9.119   5.329  3.3301 -1.2996  0.0978
 1330SOL     OW 6944   8.291   7.303   8.643 -0.3861  0.4949  0.0718
 1330SOL    HW1 6945   8.219   7.253   8.681 -0.1555  1.2048  1.5028
 1330SOL    HW2 6946   8.349   7.322   8.717  1.7118 -0.7393 -1.1309
 1331SOL     OW 6947   6.677   3.099   4.718 -0.0507 -0.1739  0.4823
 1331SOL    HW1 6948   6.694   3.047   4.639 -0.7590 -0.8846  0.7869
 1331SOL    HW2 6949   6.740   3.171   4.713 -0.0558 -0.2388 -0.7045
 1332SOL     OW 6950   4.651   1.090   0.001 -0.3826 -0.1903  0.4915
 1332SOL    HW1 6951   4.666   1.063   0.092 -1.6057  0.0393  0.7844
 1332SOL    HW2 6952   4.663   1.010  -0.050 -0.6687 -0.5454  0.9743
 1333SOL     OW 6953   4.900   9.645   9.693 -0.5156  0.2326  0.6329
 1333SOL    HW1 6954   4.934   9.726   9.731  0.8069 -0.3170  0.6607
 1333SOL    HW2 6955   4.940   9.640   9.607 -1.3399  0.0738  0.2474
 1334SOL     OW 6956   2.584   3.102   5.865 -0.0218 -0.1406 -0.4303
 1334SOL    HW1 6957   2.631   3.178   5.899  2.6397 -1.2335 -1.3763
 1334SOL    HW2 6958   2.519   3.081   5.932  1.7005  0.7264  1.6113
 1335SOL     OW 6959   7.666   2.140   0.524 -0.2040 -0.8953  0.2468
 1335SOL    HW1 6960   7.743   2.102   0.568  0.7553  1.6301  0.9435
 1335SOL    HW2 6961   7.624   2.193   0.592 -1.5868 -0.8957 -0.5885
 1336SOL     OW 6962   6.880   9.532   2.290 -0.0083 -0.0938  0.8849
 1336SOL    HW1 6963   6.880   9.578   2.205 -0.5602 -2.7761 -0.6926
 1336SOL    HW2 6964   6.970   9.502   2.300 -0.2360 -0.9165  0.5469
 1337SOL     OW 6965   1.132   3.448   5.601 -0.0468 -0.0734  0.2455
 1337SOL    HW1 6966   1.189   3.372   5.587  0.5592  0.3178  0.5323
 1337SOL    HW2 6967   1.189   3.523   5.585 -0.9817  0.3320 -1.4027
 1338SOL     OW 6968   5.627   6.928   5.619  0.4520  0.4123 -0.0134
 1338SOL    HW1 6969   5.720   6.913   5.631  0.9711  1.8128 -1.8608
 1338SOL    HW2 6970   5.598   6.858   5.560  0.2083 -0.2936  0.9240
 1339SOL     OW 6971   6.909   5.815   3.274 -0.4117  0.1755  0.5141
 1339SOL    HW1 6972   6.949   5.901   3.284 -0.9607  0.3603  1.2085
 1339SOL    HW2 6973   6.815   5.832   3.267 -0.6254 -0.4039  1.5845
 1340SOL     OW 6974   0.020   8.981   5.690 -0.2761 -0.2497  0.4621
 1340SOL    HW1 6975  -0.013   9.026   5.612  1.2944  0.0844 -0.0650
 1340SOL    HW2 6976  -0.020   8.894   5.686 -0.9653  0.0874 -0.2045
 1341SOL     OW 6977   6.526   8.465   9.430  0.4089  0.0266  0.1863
 1341SOL    HW1 6978   6.432   8.479   9.418 -0.0663 -0.5139  2.6277
 1341SOL    HW2 6979   6.550   8.401   9.363 -1.0394 -0.0623 -0.2738
 1342SOL     OW 6980   8.883   3.187  10.007 -0.3157 -0.6781  0.2097
 1342SOL    HW1 6981   8.845   3.276  10.004  0.8222 -0.0978  1.5930
 1342SOL    HW2 6982   8.814   3.131   9.973 -2.4854  0.3423  2.5508
 1343SOL     OW 6983   1.139   9.269  10.586 -0.5642 -0.0620 -0.3989
 1343SOL    HW1 6984   1.119   9.327  10.512 -1.9371 -0.9556 -0.7791
 1343SOL    HW2 6985   1.180   9.192  10.546 -1.2678 -0.5294 -0.2410
 1344SOL     OW 6986   2.511   6.210  10.349 -0.0510 -0.4063  0.0826
 1344SOL    HW1 6987   2.508   6.306  10.345 -1.6492 -0.3035  2.1555
 1344SOL    HW2 6988   2.605   6.189  10.346  0.3587  1.2433  0.2029
 1345SOL     OW 6989   7.894   1.601   3.536 -0.6026 -0.0053  0.1390
 1345SOL    HW1 6990   7.921   1.665   3.469 -1.0086 -0.0285 -0.0513
 1345SOL    HW2 6991   7.912   1.516   3.495 -1.4648 -0.0286 -0.2079
 1346SOL     OW 6992   3.409   3.647  10.361  0.4463 -0.1460  0.7522
 1346SOL    HW1 6993   3.353   3.597  10.301  2.8289  0.5337 -2.2716
 1346SOL    HW2 6994   3.356   3.724  10.383  0.7641  1.7372 -3.9589
 1347SOL     OW 6995   2.576   6.217   0.665 -0.2342  0.5009  0.0864
 1347SOL    HW1 6996   2.633   6.170   0.726 -0.5173  0.2438  0.1591
 1347SOL    HW2 6997   2.582   6.308   0.692 -0.4840  0.3672  0.6108
 1348SOL     OW 6998   0.103   6.115   9.686  0.5336  0.4054  0.4185
 1348SOL    HW1 6999   0.036   6.046   9.676  2.6512 -1.7457  0.1383
 1348SOL    HW2 7000   0.131   6.133   9.596  1.7687 -0.2845  0.6423
 1349SOL     OW 7001   6.064  10.192   9.008  0.0942 -0.5670  0.3484
 1349SOL    HW1 7002   6.088  10.273   8.963 -1.0113 -0.4422 -0.0536
 1349SOL    HW2 7003   6.000  10.219   9.073  0.2211 -1.0285  0.6685
 1350SOL     OW 7004   0.319   6.299   4.952 -0.0311  0.7295 -0.3198
 1350SOL    HW1 7005   0.269   6.325   5.029  2.3236 -0.3343  1.7199
 1350SOL    HW2 7006   0.326   6.204   4.959  1.0876  0.7199 -1.2479
 1351SOL     OW 7007   6.383   1.563   8.343 -0.4640 -0.0721  0.0950
 1351SOL    HW1 7008   6.319   1.630   8.368  0.3019 -0.0764  2.3010
 1351SOL    HW2 7009   6.362   1.488   8.399  1.7769  0.1341  1.3128
 1352SOL     OW 7010   4.604   4.150   5.381  1.0580 -0.4151 -0.3955
 1352SOL    HW1 7011   4.546   4.118   5.450  0.4909  1.1626 -0.1073
 1352SOL    HW2 7012   4.692   4.136   5.415  0.7845  0.0973  0.5434
 1353SOL     OW 7013   2.705   6.770   3.497 -0.4446  0.8653  0.7771
 1353SOL    HW1 7014   2.609   6.762   3.493 -0.3636 -1.0812  1.6224
 1353SOL    HW2 7015   2.722   6.812   3.581 -0.5583  1.6557  0.4133
 1354SOL     OW 7016   0.035   4.312   4.833 -0.7261 -0.5828 -0.2674
 1354SOL    HW1 7017   0.070   4.374   4.769  1.1032 -0.1063  1.1304
 1354SOL    HW2 7018   0.106   4.250   4.848 -1.6963 -1.6339  0.1309
 1355SOL     OW 7019   0.856   7.946   0.714  0.0315  0.3534 -0.1345
 1355SOL    HW1 7020   0.911   8.006   0.663 -2.4480  0.2582 -3.1638
 1355SOL    HW2 7021   0.781   7.999   0.740 -0.5495 -0.5888  0.1454
 1356SOL     OW 7022   1.629   4.118   2.796  0.4247 -0.4003  1.0959
 1356SOL    HW1 7023   1.611   4.119   2.702 -2.2754  2.5706  1.4737
 1356SOL    HW2 7024   1.722   4.137   2.803  0.3494  1.1040 -0.9924
 1357SOL     OW 7025   3.811   7.662   9.166 -0.0284  0.0415 -0.5091
 1357SOL    HW1 7026   3.826   7.748   9.205  0.6969 -0.9683  1.5857
 1357SOL    HW2 7027   3.718   7.660   9.146 -0.4170  0.7180  1.0535
 1358SOL     OW 7028   5.129   1.065   8.808 -0.2544  0.2956 -0.2946
 1358SOL    HW1 7029   5.190   1.027   8.744 -0.6858  0.5531 -0.8610
 1358SOL    HW2 7030   5.045   1.022   8.790 -0.4287  0.5281 -0.0396
 1359SOL     OW 7031   9.057   3.231   7.002  0.1686  0.3772 -0.6564
 1359SOL    HW1 7032   9.038   3.177   7.078 -0.0155 -0.3848 -1.2262
 1359SOL    HW2 7033   9.017   3.315   7.021  0.4263  0.3050  0.2318
 1360SOL     OW 7034   6.864   9.096   9.179 -0.1531  0.0977 -0.1710
 1360SOL    HW1 7035   6.840   9.011   9.140  0.3315 -1.0526  1.9208
 1360SOL    HW2 7036   6.912   9.141   9.109  1.5311 -2.2605 -0.6486
 1361SOL     OW 7037   0.861   9.436   1.995 -0.0100 -0.2663 -0.3710
 1361SOL    HW1 7038   0.876   9.492   1.919 -0.9003  2.5199  1.3683
 1361SOL    HW2 7039   0.783   9.385   1.972 -0.2001  0.4366 -1.3630
 1362SOL     OW 7040   4.004   4.120  10.579  0.4557 -0.1962 -0.3651
 1362SOL    HW1 7041   3.975   4.211  10.575 -0.5011 -0.3823  1.3207
 1362SOL    HW2 7042   4.029   4.099  10.489 -0.0807  1.4740 -0.9507
 1363SOL     OW 7043   2.377   7.208   4.799  0.2027  0.3076  0.3468
 1363SOL    HW1 7044   2.350   7.229   4.889  0.3117  2.3477 -0.0476
 1363SOL    HW2 7045   2.335   7.276   4.745 -0.8643 -1.5758 -1.3351
 1364SOL     OW 7046   2.261   8.811   7.306 -0.0400  0.1298 -0.0486
 1364SOL    HW1 7047   2.191   8.799   7.241 -1.0555  0.4575  0.9552
 1364SOL    HW2 7048   2.219   8.859   7.377  1.6680  1.8569 -0.1462
 1365SOL     OW 7049   1.435   3.028   9.505  0.3521 -0.2651  0.6320
 1365SOL    HW1 7050   1.415   3.089   9.576 -0.5801  1.2418 -0.8464
 1365SOL    HW2 7051   1.354   3.020   9.456  1.3180 -0.1532 -1.0738
 1366SOL     OW 7052   7.488   4.579   1.610  0.4080 -0.6021 -0.0256
 1366SOL    HW1 7053   7.403   4.614   1.582  1.0986  0.8681 -0.4071
 1366SOL    HW2 7054   7.530   4.551   1.528  1.0482  0.4873 -0.0895
 1367SOL     OW 7055   5.841   8.139   1.974 -0.2055 -0.0328  0.3035
 1367SOL    HW1 7056   5.859   8.113   1.884  0.0331 -0.0299  0.3508
 1367SOL    HW2 7057   5.745   8.138   1.981 -0.2097 -1.4387  0.4607
 1368SOL     OW 7058   9.189   5.627   4.463  0.4279 -0.3267 -0.7228
 1368SOL    HW1 7059   9.156   5.621   4.373 -2.1538  2.0718 -0.0731
 1368SOL    HW2 7060   9.234   5.711   4.467 -0.8953  0.3634  0.5718
 1369SOL     OW 7061   0.958   6.038   7.262 -0.5598  0.3078  0.3391
 1369SOL    HW1 7062   0.922   5.960   7.304  0.7108 -0.7252 -0.4065
 1369SOL    HW2 7063   0.949   6.107   7.327  0.4202 -0.9970  1.9263
 1370SOL     OW 7064   5.445   2.401   9.873  0.4519  0.1115 -0.3359
 1370SOL    HW1 7065   5.535   2.436   9.875  0.5951 -0.2205 -0.9626
 1370SOL    HW2 7066   5.455   2.308   9.894  0.2468  0.0888 -0.3403
 1371SOL     OW 7067   0.880   4.347   8.593  0.0605 -0.1234  0.4260
 1371SOL    HW1 7068   0.888   4.271   8.650 -0.0893  1.3495  2.5290
 1371SOL    HW2 7069   0.831   4.316   8.517  2.9620 -2.9364 -0.4883
 1372SOL     OW 7070   0.879   7.963   5.733 -0.4900 -0.4985  0.0555
 1372SOL    HW1 7071   0.845   7.886   5.688 -1.0592  0.8994 -2.0567
 1372SOL    HW2 7072   0.842   8.037   5.686  1.4495  1.0960  0.8803
 1373SOL     OW 7073   6.748   9.232   2.719  0.0067  0.1276  0.2082
 1373SOL    HW1 7074   6.767   9.321   2.751 -2.8180  1.0283 -0.3767
 1373SOL    HW2 7075   6.733   9.181   2.799 -1.5304  1.0159  0.5336
 1374SOL     OW 7076   0.276   3.563   4.430  0.1857  0.2210  0.3255
 1374SOL    HW1 7077   0.192   3.608   4.428  0.0951  0.1414  1.7085
 1374SOL    HW2 7078   0.309   3.571   4.341 -1.4144 -0.0084 -0.3198
 1375SOL     OW 7079   9.934   2.817   4.241 -0.5387 -0.1575  0.3681
 1375SOL    HW1 7080   9.849   2.859   4.231 -0.3156  0.2301  0.0845
 1375SOL    HW2 7081   9.913   2.728   4.269 -1.0759 -0.3690 -0.6588
 1376SOL     OW 7082   1.288   8.043   2.231  0.2106  0.3537  0.5571
 1376SOL    HW1 7083   1.194   8.052   2.245  0.4839  1.6220  1.8413
 1376SOL    HW2 7084   1.319   7.992   2.305  0.3636 -1.3699 -0.6364
 1377SOL     OW 7085   1.773   1.495   8.548 -0.2205 -0.2395  0.7333
 1377SOL    HW1 7086   1.792   1.407   8.517  1.5762  0.1982  0.4930
 1377SOL    HW2 7087   1.805   1.552   8.479 -1.0145  0.6161  1.0586
 1378SOL     OW 7088   6.358   9.115   1.656  0.4380 -0.1132 -0.5460
 1378SOL    HW1 7089   6.350   9.026   1.691  1.7917  0.0218  0.1701
 1378SOL    HW2 7090   6.372   9.170   1.733  1.3147  0.4806 -1.1123
 1379SOL     OW 7091   3.452   5.017   6.295  0.1422  0.3224  0.1843
 1379SOL    HW1 7092   3.422   4.949   6.354  2.0020 -1.8504 -1.2263
 1379SOL    HW2 7093   3.497   5.080   6.352 -1.5792  0.4345  1.5010
 1380SOL     OW 7094   4.505   9.109   9.770  0.6139  0.9508  0.2754
 1380SOL    HW1 7095   4.477   9.019   9.787 -2.8721  1.7430 -0.3963
 1380SOL    HW2 7096   4.464   9.160   9.839  0.9007  2.2172 -0.4552
 1381SOL     OW 7097   1.913   0.708   7.569  0.5066  0.0846  0.1261
 1381SOL    HW1 7098   1.831   0.756   7.559  0.7353  0.3072 -0.8604
 1381SOL    HW2 7099   1.949   0.739   7.652  0.9083  2.0720 -0.7211
 1382SOL     OW 7100   5.458   6.647   2.684  0.2592 -0.2508  0.1873
 1382SOL    HW1 7101   5.367   6.634   2.657 -0.3112  0.8759  1.4600
 1382SOL    HW2 7102   5.475   6.740   2.670  1.5233 -0.5944 -0.8356
 1383SOL     OW 7103   3.163   6.342   1.719  0.0386  0.2689 -0.0174
 1383SOL    HW1 7104   3.168   6.333   1.624 -0.7770  0.9670 -0.1359
 1383SOL    HW2 7105   3.238   6.397   1.742  0.1522  0.2215 -0.2739
 1384SOL     OW 7106   5.088   4.604   0.979  0.1864  0.1092 -0.3913
 1384SOL    HW1 7107   5.149   4.656   0.927  0.7908 -1.8392 -1.7339
 1384SOL    HW2 7108   5.144   4.562   1.045  0.3746 -1.7332 -1.6653
 1385SOL     OW 7109   3.719   9.547   2.314 -0.0024  0.1708 -0.0337
 1385SOL    HW1 7110   3.635   9.575   2.350  0.8330  1.7183  0.8461
 1385SOL    HW2 7111   3.756   9.489   2.381  0.2259  0.6307  0.2500
 1386SOL     OW 7112   2.797   3.304   7.863  0.2957  0.1100  0.8294
 1386SOL    HW1 7113   2.821   3.392   7.892  0.8814  0.6729 -1.2633
 1386SOL    HW2 7114   2.706   3.294   7.891 -0.6404  2.4168 -1.0786
 1387SOL     OW 7115   4.635   1.462   2.141 -0.3110 -0.1200  0.0555
 1387SOL    HW1 7116   4.688   1.445   2.064 -1.4458  0.7685 -0.9717
 1387SOL    HW2 7117   4.550   1.421   2.122 -0.6582  0.2308  0.7750
 1388SOL     OW 7118   0.652   3.983   3.104 -0.0957  0.0370  0.5626
 1388SOL    HW1 7119   0.679   4.070   3.076 -3.2350  1.3003  1.0646
 1388SOL    HW2 7120   0.628   3.938   3.023  0.6927 -0.0670  0.3796
 1389SOL     OW 7121   2.827   5.739   2.209  0.1204 -0.3034  0.1440
 1389SOL    HW1 7122   2.914   5.776   2.223 -0.3792  0.6945  0.6853
 1389SOL    HW2 7123   2.834   5.649   2.240  0.6379  0.1302  1.3505
 1390SOL     OW 7124   1.313   9.844   7.463  0.2473  0.1910 -0.2909
 1390SOL    HW1 7125   1.276   9.777   7.521  2.7888 -0.3306  0.8329
 1390SOL    HW2 7126   1.359   9.795   7.395  2.4087  0.6997  0.7168
 1391SOL     OW 7127   8.487   8.156   7.450 -0.5813 -0.1185  0.0423
 1391SOL    HW1 7128   8.513   8.185   7.537 -1.1969  1.6417 -0.3331
 1391SOL    HW2 7129   8.416   8.093   7.466  0.7776 -1.5216  0.8577
 1392SOL     OW 7130   1.072   0.244   3.014 -0.2973  0.1601  0.4879
 1392SOL    HW1 7131   1.134   0.267   3.084  0.3566  2.6841 -0.8027
 1392SOL    HW2 7132   1.100   0.296   2.939 -2.0887 -1.0657 -1.1177
 1393SOL     OW 7133   4.923   2.910   5.389  0.4849  0.0319  0.3345
 1393SOL    HW1 7134   4.830   2.896   5.404  0.4753  0.1784  0.4171
 1393SOL    HW2 7135   4.929   2.953   5.304  0.6158 -1.8396 -0.6323
 1394SOL     OW 7136   3.257   2.327   3.466  0.1702 -0.3571  0.1333
 1394SOL    HW1 7137   3.232   2.279   3.387 -1.3436  0.4223  0.0976
 1394SOL    HW2 7138   3.176   2.334   3.516  0.3901  1.8919  0.2558
 1395SOL     OW 7139   6.196   7.608   3.894 -0.9685  0.0225 -0.0501
 1395SOL    HW1 7140   6.158   7.530   3.854 -1.2920  1.1540 -2.1121
 1395SOL    HW2 7141   6.290   7.601   3.878 -0.8819 -0.3694  0.5963
 1396SOL     OW 7142   0.909   7.734   9.649  0.1737  0.0539  0.2691
 1396SOL    HW1 7143   0.873   7.819   9.676 -0.5626  0.3464 -1.4353
 1396SOL    HW2 7144   0.942   7.750   9.560  2.1453 -0.8943  0.7890
 1397SOL     OW 7145   0.541   4.673   8.518 -0.4676  0.2879 -0.6354
 1397SOL    HW1 7146   0.500   4.590   8.542 -0.8691  0.6761  0.0714
 1397SOL    HW2 7147   0.620   4.677   8.572 -1.5408  1.3122  0.9445
 1398SOL     OW 7148   5.849   0.500   2.317  0.4538 -0.4659 -0.0731
 1398SOL    HW1 7149   5.855   0.491   2.222  2.1288 -0.2794  0.0010
 1398SOL    HW2 7150   5.805   0.420   2.346 -0.3002 -0.4070 -1.0130
 1399SOL     OW 7151   8.942   9.622   8.187 -0.4993  0.1738 -0.0673
 1399SOL    HW1 7152   8.899   9.537   8.184  0.9400 -0.5570 -1.6682
 1399SOL    HW2 7153   8.884   9.676   8.241 -3.3850 -0.7220 -2.0388
 1400SOL     OW 7154   5.386   1.363   1.739 -0.2173 -0.0130  0.1276
 1400SOL    HW1 7155   5.414   1.306   1.668 -1.7589 -0.2809 -0.3037
 1400SOL    HW2 7156   5.371   1.304   1.813 -0.4205  0.0229  0.1153
 1401SOL     OW 7157  10.148   3.718   5.885  0.1011 -0.0095  0.6917
 1401SOL    HW1 7158  10.082   3.756   5.826  0.5880  0.8887  0.6933
 1401SOL    HW2 7159  10.219   3.782   5.884 -0.0060  0.1940  2.5154
 1402SOL     OW 7160   9.706  10.025   2.563  0.6061 -0.1423  0.2189
 1402SOL    HW1 7161   9.662  10.092   2.616  0.8452  0.0635  0.1565
 1402SOL    HW2 7162   9.675   9.942   2.599 -0.7546 -0.0090 -0.5728
 1403SOL     OW 7163   6.102   8.879   8.787  0.8674 -0.1030  0.4215
 1403SOL    HW1 7164   6.086   8.932   8.709 -1.1165 -2.1667 -0.6613
 1403SOL    HW2 7165   6.115   8.943   8.857  1.8922  1.7935 -1.3917
 1404SOL     OW 7166   3.255   0.239   1.663 -0.0088 -0.1543 -0.3237
 1404SOL    HW1 7167   3.238   0.267   1.573  0.7308 -0.5773 -0.6064
 1404SOL    HW2 7168   3.252   0.320   1.714 -0.1370  0.1310 -0.7768
 1405SOL     OW 7169   8.164   1.465   9.548  0.3575 -0.6220 -0.5542
 1405SOL    HW1 7170   8.219   1.543   9.541  0.1090 -0.3183  0.6898
 1405SOL    HW2 7171   8.124   1.456   9.461  0.6020  0.4556 -0.7945
 1406SOL     OW 7172   1.440   7.064   2.728 -0.0160  0.1366  0.0768
 1406SOL    HW1 7173   1.380   6.993   2.706  0.9373 -0.3661 -0.9832
 1406SOL    HW2 7174   1.490   7.079   2.649  0.7252  1.0848  0.7017
 1407SOL     OW 7175   5.730   3.076   0.492  0.2211 -0.0050  0.6023
 1407SOL    HW1 7176   5.636   3.068   0.510  0.3855 -0.5975  1.2340
 1407SOL    HW2 7177   5.736   3.146   0.427 -0.5008  1.4657  2.0425
 1408SOL     OW 7178  10.618  10.401   0.290 -0.0399 -0.7669  0.4503
 1408SOL    HW1 7179  10.661  10.380   0.207 -0.4269  1.5519 -0.4234
 1408SOL    HW2 7180  10.636  10.326   0.346  4.2213 -0.4507 -0.1745
 1409SOL     OW 7181  10.547   9.593   9.228 -0.2074 -0.0939  0.6529
 1409SOL    HW1 7182  10.558   9.616   9.136 -1.8941  0.7995  0.6299
 1409SOL    HW2 7183  10.544   9.498   9.230  0.4874 -0.1343 -0.1246
 1410SOL     OW 7184   9.945   0.600   5.434 -0.2966  0.3720  0.6080
 1410SOL    HW1 7185  10.018   0.559   5.388 -0.1001  0.4956  0.8119
 1410SOL    HW2 7186   9.979   0.683   5.466 -1.3958  1.9725 -2.0392
 1411SOL     OW 7187   3.892   0.030   5.255  0.0235 -0.1496  0.0921
 1411SOL    HW1 7188   3.929   0.108   5.297 -1.1624 -0.5682  1.9966
 1411SOL    HW2 7189   3.921   0.037   5.164 -1.1227  3.2457 -0.1582
 1412SOL     OW 7190   8.488   8.260   9.176 -0.3790  0.0031  0.2136
 1412SOL    HW1 7191   8.432   8.187   9.203  0.2412 -0.9003 -0.8550
 1412SOL    HW2 7192   8.542   8.224   9.105  1.3665  0.9055  1.0166
 1413SOL     OW 7193   6.752   9.682   5.310  0.1108  0.5761 -0.5518
 1413SOL    HW1 7194   6.791   9.766   5.284 -0.5026  0.4977 -1.8287
 1413SOL    HW2 7195   6.708   9.651   5.230 -0.6074 -0.4264  0.2139
 1414SOL     OW 7196   8.350   3.045   7.945 -0.3329 -0.2593 -0.4875
 1414SOL    HW1 7197   8.352   2.953   7.919  1.1115  0.3699 -2.8755
 1414SOL    HW2 7198   8.324   3.043   8.037  1.3991 -3.1885  0.0795
 1415SOL     OW 7199   8.003  10.595   6.570  0.2799 -0.1432 -0.2277
 1415SOL    HW1 7200   8.040  10.534   6.507 -0.0738 -2.2911  1.5506
 1415SOL    HW2 7201   7.908  10.583   6.562  0.2396 -0.6287  0.8745
 1416SOL     OW 7202   3.987   7.739   6.452 -0.3778 -0.4692  0.5852
 1416SOL    HW1 7203   3.961   7.649   6.473 -0.3125 -0.5223  0.4441
 1416SOL    HW2 7204   3.994   7.739   6.356  2.1869 -1.0236  0.7140
 1417SOL     OW 7205   1.094   3.728   7.332 -0.6718  0.0856  0.0090
 1417SOL    HW1 7206   1.001   3.745   7.317 -1.1948 -1.5621  1.0996
 1417SOL    HW2 7207   1.104   3.634   7.316  0.9079  0.3057 -0.4886
 1418SOL     OW 7208   2.190   5.335   0.568 -0.1781 -0.3036 -0.2858
 1418SOL    HW1 7209   2.226   5.247   0.580 -1.5241 -1.1709 -2.1278
 1418SOL    HW2 7210   2.263   5.394   0.587  1.9496 -1.9374 -2.6569
 1419SOL     OW 7211   4.058   8.092   1.109 -0.0769 -0.2459 -0.0214
 1419SOL    HW1 7212   4.016   8.025   1.162 -1.0672 -0.1177 -0.6294
 1419SOL    HW2 7213   4.123   8.044   1.056 -0.2114 -0.5993  0.1327
 1420SOL     OW 7214  10.242   6.667   0.435 -0.1868 -0.3266 -0.5027
 1420SOL    HW1 7215  10.207   6.753   0.459  1.5694  0.4735 -0.6355
 1420SOL    HW2 7216  10.249   6.620   0.519  0.7792  0.4493 -0.1242
 1421SOL     OW 7217   2.625   0.347   1.290 -0.6226 -0.0445 -0.0391
 1421SOL    HW1 7218   2.591   0.261   1.265 -1.1886  0.3847 -0.7668
 1421SOL    HW2 7219   2.713   0.350   1.254 -0.4184 -0.5051  0.4086
 1422SOL     OW 7220   2.757   0.545   0.236 -0.7974 -0.0161 -0.1104
 1422SOL    HW1 7221   2.801   0.478   0.287  0.0581  0.6895  0.1082
 1422SOL    HW2 7222   2.785   0.530   0.146 -1.7245 -0.8055 -0.2843
 1423SOL     OW 7223   6.619  10.007   7.412 -0.2029  0.4561 -0.2292
 1423SOL    HW1 7224   6.536  10.030   7.455  0.9153  2.9939  0.7775
 1423SOL    HW2 7225   6.615  10.053   7.328 -0.5604 -1.0044 -1.0555
 1424SOL     OW 7226   2.526   9.596  10.174 -0.3308  0.0733  0.3182
 1424SOL    HW1 7227   2.504   9.581  10.266  0.1441 -0.1469  0.3951
 1424SOL    HW2 7228   2.548   9.509  10.140  1.9796  0.4646  0.6496
 1425SOL     OW 7229   1.344   9.500  10.649 -0.3344  0.2324  0.6019
 1425SOL    HW1 7230   1.248   9.494  10.650 -0.2973 -0.4255  0.6736
 1425SOL    HW2 7231   1.374   9.412  10.672  0.2960  0.8486  2.3400
 1426SOL     OW 7232   8.562   5.111   0.435  0.1393 -0.1936 -0.0768
 1426SOL    HW1 7233   8.484   5.081   0.482 -0.1685  1.0266  0.2237
 1426SOL    HW2 7234   8.612   5.158   0.501 -0.1175  1.2315 -0.8721
 1427SOL     OW 7235   6.137   3.251   2.917  0.2137 -0.4455 -0.6948
 1427SOL    HW1 7236   6.201   3.249   2.846 -0.5166  2.5840 -1.5836
 1427SOL    HW2 7237   6.184   3.290   2.991 -0.1448  0.2606 -0.8343
 1428SOL     OW 7238   1.210   0.544   3.836  0.5276 -0.3515 -0.1539
 1428SOL    HW1 7239   1.190   0.558   3.928  1.0146 -2.9333  0.4172
 1428SOL    HW2 7240   1.236   0.631   3.803  0.4628  0.5943  2.1293
 1429SOL     OW 7241   0.334   1.661   3.626  0.0628  0.0997 -0.2231
 1429SOL    HW1 7242   0.282   1.622   3.555 -1.1268  1.4516 -0.1302
 1429SOL    HW2 7243   0.339   1.754   3.604  2.8427 -0.0100 -0.4300
 1430SOL     OW 7244   4.679   1.442   1.138 -0.1663 -0.0011  0.1509
 1430SOL    HW1 7245   4.646   1.503   1.204 -2.4975  0.5356 -1.3912
 1430SOL    HW2 7246   4.680   1.357   1.183  0.2792  0.6667  1.4557
 1431SOL     OW 7247   4.450   7.983   6.821  0.0495  0.2479 -0.0463
 1431SOL    HW1 7248   4.467   8.041   6.896 -0.8708 -1.6958  1.7856
 1431SOL    HW2 7249   4.357   7.995   6.802 -0.0578 -0.3386  0.0978
 1432SOL     OW 7250   4.674   4.530   6.537  0.4053  0.4160 -0.4763
 1432SOL    HW1 7251   4.589   4.564   6.565  0.9419  1.5809 -0.2351
 1432SOL    HW2 7252   4.669   4.436   6.555 -0.9003  0.4289 -0.6529
 1433SOL     OW 7253   8.970   1.434   0.129  0.3928  0.0372  0.6974
 1433SOL    HW1 7254   8.994   1.344   0.106  1.8391  0.5702 -0.0126
 1433SOL    HW2 7255   8.876   1.430   0.144  0.0990 -1.2500 -1.1155
 1434SOL     OW 7256   5.771   1.107   6.961 -0.8658 -0.3529 -0.8555
 1434SOL    HW1 7257   5.715   1.180   6.936 -0.2118  0.1694 -0.8071
 1434SOL    HW2 7258   5.802   1.071   6.878  1.3518  1.4180 -0.8814
 1435SOL     OW 7259   2.838   0.751   8.977 -0.3381  0.5001 -0.1109
 1435SOL    HW1 7260   2.893   0.800   8.917 -0.6652  0.4580 -0.4450
 1435SOL    HW2 7261   2.865   0.660   8.964  0.2926  0.5883  0.5336
 1436SOL     OW 7262   8.598   8.369   1.766 -0.2447  0.1796 -0.4536
 1436SOL    HW1 7263   8.529   8.312   1.733  0.7360 -1.3173 -0.0237
 1436SOL    HW2 7264   8.560   8.409   1.845 -0.3941 -1.2344  0.2301
 1437SOL     OW 7265   8.021   3.347   8.563 -0.3866  0.3599  0.3898
 1437SOL    HW1 7266   7.935   3.387   8.553 -0.1061  0.8323 -0.2095
 1437SOL    HW2 7267   8.068   3.405   8.623 -0.0203  0.8838 -0.3861
 1438SOL     OW 7268   0.686   0.836   5.347  0.0495 -0.3067  0.2953
 1438SOL    HW1 7269   0.773   0.847   5.386 -0.1395  0.2958  0.5521
 1438SOL    HW2 7270   0.691   0.751   5.302  0.8367 -0.1736  0.1137
 1439SOL     OW 7271   3.571  10.395   3.078 -0.0752 -0.0932  0.4839
 1439SOL    HW1 7272   3.486  10.392   3.036  0.8797  1.1657 -1.6793
 1439SOL    HW2 7273   3.631  10.357   3.014  0.8265 -2.5786  2.6278
 1440SOL     OW 7274   5.326   3.660  10.281 -0.2950  0.1845  0.4005
 1440SOL    HW1 7275   5.340   3.718  10.206 -0.1011 -2.4135 -1.7060
 1440SOL    HW2 7276   5.414   3.644  10.315 -0.3891  1.4189  1.2849
 1441SOL     OW 7277   5.992   8.115   9.462  0.2044  0.2222  0.4366
 1441SOL    HW1 7278   5.908   8.157   9.484  1.3641  2.0428  1.6844
 1441SOL    HW2 7279   6.006   8.052   9.532 -0.8768 -1.3752 -0.6993
 1442SOL     OW 7280   9.046   1.560   1.829 -0.2740 -0.1675  0.3849
 1442SOL    HW1 7281   8.977   1.567   1.763 -0.0968  0.3938  0.2575
 1442SOL    HW2 7282   9.003   1.584   1.911 -0.1543  0.5168  0.2540
 1443SOL     OW 7283   3.657   0.736   9.938  0.3002 -0.4619  0.2218
 1443SOL    HW1 7284   3.692   0.817   9.974  0.3378 -1.1241  1.8098
 1443SOL    HW2 7285   3.568   0.731   9.974 -0.1829 -0.4731 -0.9582
 1444SOL     OW 7286   8.794   6.415   5.377 -0.2056 -0.1926  0.3050
 1444SOL    HW1 7287   8.854   6.354   5.334 -1.6189 -0.8015 -0.9055
 1444SOL    HW2 7288   8.749   6.459   5.305 -1.6790 -0.2421  1.1503
 1445SOL     OW 7289   4.317   8.190   4.963  0.1360 -0.0366  0.0220
 1445SOL    HW1 7290   4.277   8.103   4.965 -1.3436  0.6165 -0.0677
 1445SOL    HW2 7291   4.411   8.173   4.971 -0.1823 -1.5851  0.8277
 1446SOL     OW 7292   7.958   9.732   1.667 -0.1117 -0.1416 -0.2839
 1446SOL    HW1 7293   8.030   9.690   1.714  0.9836 -0.6706 -2.3094
 1446SOL    HW2 7294   7.879   9.702   1.712  0.8414 -1.0385  0.8629
 1447SOL     OW 7295   8.196   4.527   6.370 -0.1205 -0.3122 -0.0606
 1447SOL    HW1 7296   8.139   4.488   6.436  0.8942  1.0968  1.7431
 1447SOL    HW2 7297   8.224   4.453   6.316  0.3971 -1.8613  2.1836
 1448SOL     OW 7298   6.002   9.366   3.858 -0.0382 -0.1903 -0.4354
 1448SOL    HW1 7299   5.912   9.358   3.890  0.2926 -0.4598  0.4669
 1448SOL    HW2 7300   6.051   9.400   3.933  0.8367 -1.1724 -0.5376
 1449SOL     OW 7301   4.318   9.726   5.722 -0.0849 -0.6859 -0.0324
 1449SOL    HW1 7302   4.273   9.749   5.641  0.2037 -0.4529 -0.1269
 1449SOL    HW2 7303   4.322   9.808   5.771 -1.6640 -1.1288  0.9192
 1450SOL     OW 7304   2.467   6.676   7.334 -0.4893 -0.2118  0.3576
 1450SOL    HW1 7305   2.534   6.689   7.267 -0.4452 -0.9543  0.2462
 1450SOL    HW2 7306   2.515   6.639   7.408 -0.1158  2.7202  1.6886
 1451SOL     OW 7307   0.143   2.086  10.065  0.4148 -0.3849  0.6293
 1451SOL    HW1 7308   0.108   2.133  10.140 -0.4861 -1.0399  0.6324
 1451SOL    HW2 7309   0.070   2.033  10.032  0.5818  0.3973 -1.1277
 1452SOL     OW 7310   2.290   5.709   0.329  0.9799  0.3169 -0.0746
 1452SOL    HW1 7311   2.293   5.794   0.285  2.7060  0.9292  1.1394
 1452SOL    HW2 7312   2.272   5.730   0.420  0.1613 -0.7411  0.0283
 1453SOL     OW 7313   8.053   6.745   2.622 -0.2917  0.2720  0.6152
 1453SOL    HW1 7314   7.976   6.691   2.637  0.3131 -0.2810  1.9462
 1453SOL    HW2 7315   8.117   6.685   2.583 -0.0725  0.3656  0.8275
 1454SOL     OW 7316   9.823   9.068   5.814  0.6685 -0.3573  0.3298
 1454SOL    HW1 7317   9.727   9.062   5.815  0.6776 -2.3077 -1.5296
 1454SOL    HW2 7318   9.852   8.980   5.837  2.0484  0.2039  0.8330
 1455SOL     OW 7319   8.068   4.174   1.589 -0.0320 -0.1695 -0.0314
 1455SOL    HW1 7320   8.139   4.153   1.529  0.6991  1.8997  0.0381
 1455SOL    HW2 7321   8.109   4.173   1.676  0.3768  2.6279 -0.1236
 1456SOL     OW 7322   3.311   9.569   0.263 -0.2220 -0.2670 -0.2496
 1456SOL    HW1 7323   3.278   9.497   0.316 -0.7941 -0.1796 -0.4699
 1456SOL    HW2 7324   3.360   9.624   0.324 -0.2778 -0.5379  0.0406
 1457SOL     OW 7325   3.952   5.074   9.531  0.2764 -0.7681 -0.1609
 1457SOL    HW1 7326   4.000   5.071   9.448  1.0828  0.6414  0.2140
 1457SOL    HW2 7327   4.020   5.061   9.598 -0.3432 -1.7490  0.2866
 1458SOL     OW 7328  10.365   8.164   3.325  0.2936 -0.2655 -0.5768
 1458SOL    HW1 7329  10.285   8.205   3.357 -0.0580 -2.1524  1.2021
 1458SOL    HW2 7330  10.433   8.230   3.338 -0.5528  0.4543  0.3398
 1459SOL     OW 7331   4.750   9.658   4.729  0.1246 -0.1135  0.0498
 1459SOL    HW1 7332   4.796   9.728   4.683 -1.2639  0.4935 -0.4482
 1459SOL    HW2 7333   4.722   9.598   4.659 -1.4543  0.4906  0.1432
 1460SOL     OW 7334   2.253   6.112   9.656 -0.3518  1.0323 -0.0268
 1460SOL    HW1 7335   2.316   6.152   9.717  0.5189 -0.7478  0.2862
 1460SOL    HW2 7336   2.256   6.019   9.677 -3.5839  0.9398  0.4270
 1461SOL     OW 7337   2.600   3.152   3.224  0.4775 -0.1788 -0.4402
 1461SOL    HW1 7338   2.507   3.133   3.237  0.3463 -0.0707 -1.1760
 1461SOL    HW2 7339   2.633   3.079   3.171  0.8188 -0.2289 -0.1621
 1462SOL     OW 7340  10.410  10.384   3.888 -0.0809  0.2131  0.3161
 1462SOL    HW1 7341  10.318  10.359   3.899 -0.2379  1.1953  1.4361
 1462SOL    HW2 7342  10.413  10.476   3.913  1.1135  0.3602 -0.3038
 1463SOL     OW 7343   6.576   9.857   5.811 -0.1488  0.0444  0.4166
 1463SOL    HW1 7344   6.488   9.820   5.798 -0.1085  0.4659 -1.3096
 1463SOL    HW2 7345   6.634   9.798   5.762  0.2810  0.7663  0.0416
 1464SOL     OW 7346   4.703   5.912   3.617 -0.0744 -0.2023 -0.2072
 1464SOL    HW1 7347   4.652   5.972   3.564 -0.3998 -0.6252 -0.3781
 1464SOL    HW2 7348   4.657   5.828   3.611  0.5299 -0.5456 -0.2110
 1465SOL     OW 7349   3.827   7.040   7.320 -0.2256 -0.5700 -0.1670
 1465SOL    HW1 7350   3.814   7.127   7.358 -0.1823 -0.9601  0.7772
 1465SOL    HW2 7351   3.841   6.983   7.396 -1.5726 -1.6380 -0.6633
 1466SOL     OW 7352   5.856   3.554   3.999  0.0508 -0.1593 -0.0419
 1466SOL    HW1 7353   5.891   3.548   3.910  0.3159 -1.0066  0.1119
 1466SOL    HW2 7354   5.772   3.508   3.995  0.0896 -0.2477  0.1556
 1467SOL     OW 7355   7.717   6.379   8.835 -0.2970  0.2007 -0.2323
 1467SOL    HW1 7356   7.781   6.407   8.900 -0.4534  0.2045 -0.0792
 1467SOL    HW2 7357   7.696   6.458   8.786  0.0886  0.1238 -0.5193
 1468SOL     OW 7358   8.025   0.902  10.418  0.6411  0.1799 -0.1865
 1468SOL    HW1 7359   7.935   0.933  10.410  0.8984  1.6378  1.7590
 1468SOL    HW2 7360   8.078   0.981  10.415  1.5809 -0.2988  1.8538
 1469SOL     OW 7361   2.139   3.104   9.158 -0.1364  0.3457 -0.0059
 1469SOL    HW1 7362   2.077   3.135   9.224 -0.1326 -0.8037  0.5604
 1469SOL    HW2 7363   2.084   3.063   9.091 -0.1882  2.0077 -1.0497
 1470SOL     OW 7364   0.247   2.754   3.753  0.1817  0.5370  0.0848
 1470SOL    HW1 7365   0.243   2.685   3.687 -0.4823  0.8898 -0.2476
 1470SOL    HW2 7366   0.162   2.752   3.797  0.7998 -0.0504  1.3133
 1471SOL     OW 7367   2.558   2.094   4.629  0.0115 -0.5634  0.1234
 1471SOL    HW1 7368   2.610   2.049   4.562  1.0117 -0.7614  1.0074
 1471SOL    HW2 7369   2.595   2.065   4.712  0.4646  1.6123  0.7433
 1472SOL     OW 7370   7.303   4.237   0.036  0.0366 -0.1000 -0.0746
 1472SOL    HW1 7371   7.271   4.188  -0.040  1.2212 -0.3281 -0.4514
 1472SOL    HW2 7372   7.320   4.170   0.102 -0.3639  0.0346  0.1713
 1473SOL     OW 7373   3.473   6.323   2.612  0.1321 -0.2068 -0.6608
 1473SOL    HW1 7374   3.465   6.255   2.545 -0.8689 -0.9348  0.1515
 1473SOL    HW2 7375   3.514   6.278   2.686 -0.3794  0.1186 -0.1721
 1474SOL     OW 7376   1.067   7.256   0.828  0.0347  0.8146 -0.0800
 1474SOL    HW1 7377   1.144   7.227   0.877 -0.7066  0.0916  0.6886
 1474SOL    HW2 7378   0.993   7.239   0.887 -0.6518  2.1288 -0.5363
 1475SOL     OW 7379   0.940   8.389   7.304 -0.3821  0.2723 -0.2594
 1475SOL    HW1 7380   0.979   8.476   7.311 -1.2173  0.7741 -1.4267
 1475SOL    HW2 7381   0.973   8.355   7.221 -1.5280  0.2728 -0.7430
 1476SOL     OW 7382   2.359   3.926   4.900  0.1784 -0.1804 -0.1336
 1476SOL    HW1 7383   2.291   3.987   4.871  0.2109  0.5851  1.3136
 1476SOL    HW2 7384   2.346   3.918   4.994  3.3204  1.6401  0.6114
 1477SOL     OW 7385   5.125   7.461   0.765 -0.9416  0.3875  0.0889
 1477SOL    HW1 7386   5.146   7.481   0.856  0.0674 -1.8752  0.4253
 1477SOL    HW2 7387   5.137   7.366   0.757  1.6113  0.7978 -3.0566
 1478SOL     OW 7388   6.896   5.548   8.449 -0.0647 -0.3779 -0.3381
 1478SOL    HW1 7389   6.921   5.601   8.524  0.2034 -1.1430  0.1131
 1478SOL    HW2 7390   6.903   5.608   8.374 -1.6444  0.7834  0.3927
 1479SOL     OW 7391   3.532   7.896  10.082 -0.0678  0.2529 -0.0638
 1479SOL    HW1 7392   3.577   7.949  10.017  0.7175 -1.2612 -0.8045
 1479SOL    HW2 7393   3.586   7.903  10.161 -0.5345  1.3616  0.1765
 1480SOL     OW 7394   7.355   2.472  10.364  0.4483 -0.6569  0.0638
 1480SOL    HW1 7395   7.301   2.491  10.441  2.7184  1.8561  1.1940
 1480SOL    HW2 7396   7.414   2.403  10.394 -0.7276 -1.9662 -0.5274
 1481SOL     OW 7397   0.472   3.563  10.230  0.2031  0.3192  0.1441
 1481SOL    HW1 7398   0.414   3.508  10.282 -0.7926  0.3096 -0.9212
 1481SOL    HW2 7399   0.560   3.531  10.249 -0.2592 -0.7346  0.5834
 1482SOL     OW 7400   7.161   9.939   7.942 -0.0347  0.3904 -0.1999
 1482SOL    HW1 7401   7.221   9.865   7.954  0.7639  1.1779  0.8819
 1482SOL    HW2 7402   7.074   9.899   7.938  0.2501 -0.5459  1.6255
 1483SOL     OW 7403   2.350   0.745   9.954 -0.3289  0.0130  0.3299
 1483SOL    HW1 7404   2.434   0.789   9.963 -1.4708  2.8864 -1.7256
 1483SOL    HW2 7405   2.302   0.768  10.033  0.2492 -0.3957  0.8108
 1484SOL     OW 7406   0.719   4.864   8.911 -0.2299  0.1896  0.1534
 1484SOL    HW1 7407   0.777   4.881   8.838  1.2170 -0.3394  1.1344
 1484SOL    HW2 7408   0.632   4.857   8.872  0.6507 -1.2573 -1.6594
 1485SOL     OW 7409   1.895   5.118   1.930 -0.1074 -0.1577  0.0057
 1485SOL    HW1 7410   1.802   5.098   1.941  0.0255 -0.9911 -0.2927
 1485SOL    HW2 7411   1.921   5.157   2.014 -0.4973 -0.8397  0.4555
 1486SOL     OW 7412   0.042   6.513   3.338 -0.1280  0.1859 -0.3255
 1486SOL    HW1 7413  -0.004   6.565   3.273 -0.5981 -0.0272 -0.1667
 1486SOL    HW2 7414   0.121   6.564   3.358 -0.4691  0.7229 -0.3312
 1487SOL     OW 7415   5.083   0.821   1.617 -0.2188  0.4823  0.1968
 1487SOL    HW1 7416   5.127   0.736   1.614  0.7428  0.8887  1.6099
 1487SOL    HW2 7417   5.040   0.823   1.702 -0.3594  1.3596  0.1113
 1488SOL     OW 7418   1.876   7.257   0.453 -0.0577 -0.3983 -0.1275
 1488SOL    HW1 7419   1.846   7.187   0.512 -1.4739  0.6102  0.3924
 1488SOL    HW2 7420   1.799   7.312   0.440  1.2476  1.6213  0.2753
 1489SOL     OW 7421   3.480   1.364   6.752  0.2808  0.1113  0.2081
 1489SOL    HW1 7422   3.483   1.268   6.746  0.4796  0.1543 -0.5033
 1489SOL    HW2 7423   3.442   1.391   6.668  2.0439  0.7501 -0.4224
 1490SOL     OW 7424   9.163   2.108   0.371  0.5011  0.1989 -0.0289
 1490SOL    HW1 7425   9.219   2.141   0.300  1.2908  0.8738  0.8717
 1490SOL    HW2 7426   9.185   2.164   0.446  0.4710 -1.1692  1.0465
 1491SOL     OW 7427  10.258   3.953   3.923  0.2745  0.3666 -0.2066
 1491SOL    HW1 7428  10.183   3.991   3.877  1.3887  1.5049 -1.1703
 1491SOL    HW2 7429  10.239   3.966   4.016 -0.8069  0.4379 -0.4263
 1492SOL     OW 7430   5.250  10.599   1.202  0.0316 -0.0173  0.0431
 1492SOL    HW1 7431   5.288  10.610   1.115  0.3722 -0.2420  0.1617
 1492SOL    HW2 7432   5.303  10.656   1.258 -0.1344  0.0615  0.1212
 1493SOL     OW 7433   3.191   0.616   1.054  0.4060 -0.5508  0.3098
 1493SOL    HW1 7434   3.274   0.573   1.076  0.9371 -0.1306 -0.7827
 1493SOL    HW2 7435   3.217   0.705   1.029 -0.4189 -0.3058  0.3218
 1494SOL     OW 7436   5.018   0.793  10.554 -0.0239 -0.4840 -0.0052
 1494SOL    HW1 7437   5.017   0.889  10.555  1.2879 -0.4402  1.7524
 1494SOL    HW2 7438   5.111   0.770  10.553 -0.2352 -1.6700  2.1952
 1495SOL     OW 7439   0.767   7.577   1.942 -0.0070  0.5153  0.0844
 1495SOL    HW1 7440   0.805   7.611   1.861 -0.5904 -0.7387 -0.7434
 1495SOL    HW2 7441   0.843   7.559   1.998  0.4167  1.0719 -0.3037
 1496SOL     OW 7442   6.867  10.003   6.635 -0.1954 -0.1001  0.3043
 1496SOL    HW1 7443   6.798  10.006   6.701  0.2668 -0.9342  0.8609
 1496SOL    HW2 7444   6.824   9.969   6.556 -0.8530  1.3383  0.0191
 1497SOL     OW 7445   9.231   6.913   7.606 -0.3733 -0.3843  0.2267
 1497SOL    HW1 7446   9.243   7.005   7.581 -0.2406 -0.5855 -0.4798
 1497SOL    HW2 7447   9.295   6.866   7.553 -0.2757 -0.8626  0.7649
 1498SOL     OW 7448   4.972   3.424   6.442  0.7758  0.3484  0.6723
 1498SOL    HW1 7449   5.010   3.391   6.523 -2.2665 -0.7625  1.7632
 1498SOL    HW2 7450   5.029   3.497   6.417  2.2925  0.1859  3.3229
 1499SOL     OW 7451   7.329   5.799   4.243 -0.2262  0.5520  0.2081
 1499SOL    HW1 7452   7.348   5.717   4.198 -0.2156  1.0917 -0.7891
 1499SOL    HW2 7453   7.303   5.860   4.174 -0.7986  1.2321  0.9956
 1500SOL     OW 7454   2.075  10.197   6.158 -0.4064 -0.0287  1.0796
 1500SOL    HW1 7455   2.171  10.205   6.156 -0.3720 -0.2451 -1.1063
 1500SOL    HW2 7456   2.048  10.222   6.069 -2.3793 -0.0910  1.6239
 1501SOL     OW 7457   3.842   3.274   4.410  0.4586 -0.2285  0.1372
 1501SOL    HW1 7458   3.911   3.228   4.364 -0.3777 -0.0152 -1.3996
 1501SOL    HW2 7459   3.847   3.364   4.378 -0.9367 -0.3622 -0.5298
 1502SOL     OW 7460   7.605   1.770   7.440 -0.0180  0.2107  0.3093
 1502SOL    HW1 7461   7.579   1.682   7.416  0.3262  0.0864  0.3800
 1502SOL    HW2 7462   7.600   1.772   7.536 -0.2983  0.3560  0.2929
 1503SOL     OW 7463   1.968   4.352   9.441  0.3368 -0.0662  0.5642
 1503SOL    HW1 7464   1.935   4.414   9.506 -2.4471  0.0862 -0.8391
 1503SOL    HW2 7465   2.004   4.407   9.371 -2.9010  0.1943 -1.0782
 1504SOL     OW 7466   4.104   7.672   2.280 -0.0141 -0.0875  0.0023
 1504SOL    HW1 7467   4.127   7.595   2.229 -0.7662 -0.0833 -0.3543
 1504SOL    HW2 7468   4.123   7.746   2.222 -2.9373 -0.1478 -1.1821
 1505SOL     OW 7469   1.577   7.904   1.295 -0.2383 -0.5954 -0.2191
 1505SOL    HW1 7470   1.577   7.817   1.335  1.0583 -0.6709 -0.3600
 1505SOL    HW2 7471   1.561   7.964   1.368  0.6820 -0.8312  0.1904
 1506SOL     OW 7472   0.730  10.631   7.162 -0.0575  0.2812 -0.4201
 1506SOL    HW1 7473   0.816  10.589   7.164 -0.5328 -0.7183  1.8175
 1506SOL    HW2 7474   0.749  10.725   7.153  1.2339  0.0473 -0.2286
 1507SOL     OW 7475   4.875   7.353   9.308  0.1859 -0.4746 -0.4651
 1507SOL    HW1 7476   4.931   7.414   9.356 -1.0593  1.0869 -0.8832
 1507SOL    HW2 7477   4.928   7.325   9.233  1.1724 -0.8037  0.3415
 1508SOL     OW 7478   5.769   4.964   9.872  0.2436 -0.3825 -0.0266
 1508SOL    HW1 7479   5.719   4.972   9.952 -1.4644 -1.2771 -0.9551
 1508SOL    HW2 7480   5.812   4.878   9.878  0.0545 -0.4821 -0.1072
 1509SOL     OW 7481   4.393   4.702   9.473  0.0796 -0.3090  0.1881
 1509SOL    HW1 7482   4.479   4.663   9.493  1.9643  3.2981 -0.1399
 1509SOL    HW2 7483   4.342   4.688   9.553  2.1955  0.4466  1.7655
 1510SOL     OW 7484   6.501   3.710   2.228  0.2414  0.6320  0.3678
 1510SOL    HW1 7485   6.410   3.721   2.199 -0.0830 -0.9809  0.6831
 1510SOL    HW2 7486   6.495   3.702   2.323  0.5744 -0.6008  0.2969
 1511SOL     OW 7487   8.780   8.545   9.983 -0.4386  0.2290  0.0982
 1511SOL    HW1 7488   8.817   8.576  10.066  0.1195 -0.2984  0.0559
 1511SOL    HW2 7489   8.840   8.476   9.955 -2.5224 -2.1045  1.0410
 1512SOL     OW 7490   1.936   0.232   5.126 -0.1733 -0.0190  0.4664
 1512SOL    HW1 7491   1.984   0.313   5.112  1.0808 -0.8787 -0.4908
 1512SOL    HW2 7492   1.862   0.257   5.180  0.0452  1.7981 -0.0082
 1513SOL     OW 7493   5.106   1.468   0.428 -0.0887  0.8238 -0.3838
 1513SOL    HW1 7494   5.148   1.407   0.489 -0.7025 -2.2588 -2.7947
 1513SOL    HW2 7495   5.151   1.552   0.444  2.9154 -0.8898  1.1121
 1514SOL     OW 7496   6.635   7.556   8.836  0.7963  0.3225  0.1224
 1514SOL    HW1 7497   6.606   7.636   8.793 -0.0984  0.3929  0.8502
 1514SOL    HW2 7498   6.611   7.567   8.927  1.2287 -0.5194  0.3479
 1515SOL     OW 7499   5.851   5.233   1.177 -0.2349  0.1937  0.1052
 1515SOL    HW1 7500   5.823   5.325   1.185 -0.7607  0.1220 -0.7323
 1515SOL    HW2 7501   5.924   5.236   1.115  1.7528  0.3879  2.3450
 1516SOL     OW 7502   7.928   1.337   3.777  0.6815  0.0644 -0.0788
 1516SOL    HW1 7503   7.836   1.363   3.790  0.4992 -0.3665 -0.4865
 1516SOL    HW2 7504   7.923   1.249   3.740  1.3219 -0.8494  1.9195
 1517SOL     OW 7505   9.864  10.156   7.768  0.3756 -0.2972 -0.0335
 1517SOL    HW1 7506   9.901  10.101   7.699  0.5640 -1.1910  0.7653
 1517SOL    HW2 7507   9.842  10.238   7.724  0.4489 -0.8665 -1.1643
 1518SOL     OW 7508   4.601  10.358   0.672 -0.1281  0.0414  0.3824
 1518SOL    HW1 7509   4.558  10.353   0.587 -1.4624  0.2719  1.0251
 1518SOL    HW2 7510   4.690  10.326   0.656 -0.8124 -1.3879 -0.7782
 1519SOL     OW 7511   8.329   3.674   0.087 -0.0942  0.6023 -0.0127
 1519SOL    HW1 7512   8.264   3.704   0.151 -0.7919  0.8191 -0.7915
 1519SOL    HW2 7513   8.376   3.604   0.131  1.3161  2.5104  1.7334
 1520SOL     OW 7514   5.895   2.804   6.317 -0.0709  0.1932 -0.6829
 1520SOL    HW1 7515   5.941   2.741   6.261 -0.5270 -0.3177 -0.4903
 1520SOL    HW2 7516   5.947   2.807   6.397 -0.5816 -0.6803 -0.3135
 1521SOL     OW 7517   5.036   3.974   7.168 -0.1985  0.1871  0.0448
 1521SOL    HW1 7518   4.991   3.928   7.097  0.0052 -1.2636  0.8419
 1521SOL    HW2 7519   5.119   3.929   7.177  0.7532  1.7841 -0.2649
 1522SOL     OW 7520   9.316   8.380   5.458  0.4808 -0.0955 -0.5351
 1522SOL    HW1 7521   9.346   8.359   5.370  1.8020 -0.6751  0.0241
 1522SOL    HW2 7522   9.377   8.335   5.516 -0.5190  0.0445  0.6889
 1523SOL     OW 7523   2.217   3.589   9.840  0.4442 -0.2047  0.5019
 1523SOL    HW1 7524   2.224   3.684   9.851  0.6556  0.1312 -2.0046
 1523SOL    HW2 7525   2.283   3.568   9.774 -0.3667 -1.9466  0.2036
 1524SOL     OW 7526  10.447   6.905   6.752 -0.0272 -0.4562  0.3420
 1524SOL    HW1 7527  10.500   6.831   6.782  0.4940 -0.0278  0.4873
 1524SOL    HW2 7528  10.427   6.954   6.831 -1.0697 -0.8778  0.3540
 1525SOL     OW 7529   9.446   2.120   6.806  0.3488  0.0590 -1.0661
 1525SOL    HW1 7530   9.358   2.150   6.829  0.2591 -0.7196 -0.3200
 1525SOL    HW2 7531   9.497   2.131   6.886  0.9019  0.3883 -1.4574
 1526SOL     OW 7532   9.515   1.172   3.409 -0.1267 -0.0024  0.1985
 1526SOL    HW1 7533   9.495   1.130   3.493 -0.9389  1.0736  0.5613
 1526SOL    HW2 7534   9.440   1.228   3.392  1.9940  3.4260  1.0894
 1527SOL     OW 7535   6.081   4.641   5.991 -0.0259  0.0261 -0.0661
 1527SOL    HW1 7536   6.007   4.670   5.938  0.6357  1.0089 -0.4945
 1527SOL    HW2 7537   6.148   4.708   5.976  1.3380 -1.3899 -0.5619
 1528SOL     OW 7538   6.520   0.740   1.742 -0.2325 -0.0418 -0.2023
 1528SOL    HW1 7539   6.516   0.645   1.734 -1.1676  0.0061 -0.3646
 1528SOL    HW2 7540   6.533   0.771   1.652  0.9028 -0.0453 -0.0521
 1529SOL     OW 7541   7.091   7.632   6.648  0.5403 -0.3493  0.2790
 1529SOL    HW1 7542   7.043   7.714   6.634  0.3600 -0.6895 -1.2887
 1529SOL    HW2 7543   7.084   7.616   6.742 -3.3347 -0.9194  0.0367
 1530SOL     OW 7544   4.062   0.493   8.459  0.5611 -0.0067  0.0039
 1530SOL    HW1 7545   4.039   0.476   8.368  0.2585  2.4097 -0.4286
 1530SOL    HW2 7546   4.072   0.406   8.498 -1.8597 -1.1369 -1.6659
 1531SOL     OW 7547   4.352   1.656   5.358 -0.0177 -0.0851  0.3417
 1531SOL    HW1 7548   4.285   1.596   5.327 -0.4814  0.4453  0.2921
 1531SOL    HW2 7549   4.311   1.701   5.433 -0.1116  0.9843 -0.3268
 1532SOL     OW 7550   1.360   7.165   1.815  0.1287  0.1413  0.1607
 1532SOL    HW1 7551   1.283   7.114   1.842  0.6886  0.1379  1.9102
 1532SOL    HW2 7552   1.432   7.126   1.865  1.2582  0.2250 -1.3634
 1533SOL     OW 7553   3.526   5.552   2.753  0.0087 -0.1660  0.2223
 1533SOL    HW1 7554   3.568   5.582   2.673 -1.0036  0.3226 -0.1498
 1533SOL    HW2 7555   3.437   5.529   2.726 -0.0928 -0.8171  1.0478
 1534SOL     OW 7556   2.650   1.537   0.950 -0.3490  0.2646  0.1708
 1534SOL    HW1 7557   2.741   1.522   0.976 -0.1354 -1.6828 -1.5086
 1534SOL    HW2 7558   2.617   1.599   1.015  1.1821 -1.5056  2.8253
 1535SOL     OW 7559   5.208   8.885   8.560 -0.2575  0.1067 -0.2796
 1535SOL    HW1 7560   5.127   8.924   8.595  0.9257  1.3470  1.2110
 1535SOL    HW2 7561   5.184   8.855   8.472 -2.0606  1.3804 -0.2776
 1536SOL     OW 7562  10.371   4.204   0.086 -0.1623  0.4976 -0.0678
 1536SOL    HW1 7563  10.327   4.125   0.118  1.4231 -0.9512 -1.2976
 1536SOL    HW2 7564  10.310   4.242   0.023 -0.8124  0.0848  0.2997
 1537SOL     OW 7565   5.709   9.048   1.052  0.4077 -0.1035  0.0815
 1537SOL    HW1 7566   5.637   9.016   0.997 -0.5028  1.9961 -0.0484
 1537SOL    HW2 7567   5.781   8.986   1.037 -0.6141 -0.9337 -1.6052
 1538SOL     OW 7568   9.174   3.060   1.757 -0.6273 -0.1889  0.0137
 1538SOL    HW1 7569   9.135   2.977   1.730  0.9501 -0.8169 -0.4670
 1538SOL    HW2 7570   9.184   3.110   1.676  0.0925 -0.2857  0.0352
 1539SOL     OW 7571   4.922   9.627   2.703  0.6054  0.1108 -0.4837
 1539SOL    HW1 7572   4.972   9.646   2.623  2.2824 -2.0872 -0.0560
 1539SOL    HW2 7573   4.976   9.663   2.773  0.2623  0.0352 -0.1799
 1540SOL     OW 7574   5.281   8.442   9.716  0.3498  0.2105  0.7880
 1540SOL    HW1 7575   5.350   8.508   9.715  1.5713 -1.0204  1.2532
 1540SOL    HW2 7576   5.286   8.400   9.631  0.1036  0.1818  0.7863
 1541SOL     OW 7577   4.495   2.290   9.689  0.6293  0.6298 -0.0240
 1541SOL    HW1 7578   4.459   2.312   9.775 -0.8980 -0.4289 -0.3424
 1541SOL    HW2 7579   4.477   2.366   9.635 -4.1089 -0.8116 -0.9875
 1542SOL     OW 7580   2.400   3.386   1.732  0.6758 -0.2954  0.2801
 1542SOL    HW1 7581   2.364   3.320   1.673  1.6538 -0.2598 -0.3842
 1542SOL    HW2 7582   2.328   3.448   1.746  0.0394 -0.9901  0.1596
 1543SOL     OW 7583   1.559  10.502   7.592 -0.4359  0.2749  0.4703
 1543SOL    HW1 7584   1.499  10.494   7.666 -0.1624 -1.4067  0.5412
 1543SOL    HW2 7585   1.625  10.434   7.607 -0.7598 -0.5845 -1.6670
 1544SOL     OW 7586  10.401   4.118   3.319 -0.0971  0.5461 -0.0728
 1544SOL    HW1 7587  10.489   4.152   3.300 -0.8524  0.8766 -3.4603
 1544SOL    HW2 7588  10.365   4.182   3.381  1.0691  1.9756 -0.7981
 1545SOL     OW 7589   5.176   7.406   4.974  1.0193 -0.4119 -0.5443
 1545SOL    HW1 7590   5.120   7.329   4.988  1.2653 -0.3963  0.6519
 1545SOL    HW2 7591   5.143   7.471   5.036  1.8628 -0.1315 -0.3791
 1546SOL     OW 7592  10.522   6.291   4.714  0.4971  0.1425 -0.1957
 1546SOL    HW1 7593  10.433   6.259   4.729  0.9758 -0.5669  1.3868
 1546SOL    HW2 7594  10.523   6.320   4.623 -1.2253 -0.2250 -0.3591
 1547SOL     OW 7595   3.475   7.196  10.568  0.0477  0.8726  0.1718
 1547SOL    HW1 7596   3.423   7.161  10.495 -0.5141  0.5864  0.7033
 1547SOL    HW2 7597   3.518   7.120  10.606  0.0321  0.9688  0.3809
 1548SOL     OW 7598   9.894   3.687   6.375 -0.2390  0.3695  0.3161
 1548SOL    HW1 7599   9.916   3.602   6.338  0.3771  1.2069 -1.3888
 1548SOL    HW2 7600   9.860   3.668   6.462  1.1132 -1.5137  0.4936
 1549SOL     OW 7601   2.414   6.992   5.965 -0.3973  0.1244 -0.5162
 1549SOL    HW1 7602   2.501   6.954   5.977 -0.7948 -0.2406  1.4276
 1549SOL    HW2 7603   2.378   6.944   5.890  0.5106 -0.7363 -0.4281
 1550SOL     OW 7604   0.374   0.315   6.271 -0.3428  0.0648 -0.0183
 1550SOL    HW1 7605   0.336   0.402   6.275  2.7943  1.5814 -0.4091
 1550SOL    HW2 7606   0.408   0.308   6.182 -0.3706 -1.5162  0.0615
 1551SOL     OW 7607  10.456   2.984   5.339  0.4309 -0.0813  0.0961
 1551SOL    HW1 7608  10.414   2.937   5.267  0.4693 -0.8857  0.5834
 1551SOL    HW2 7609  10.461   2.920   5.410  1.5595  0.3049  0.3937
 1552SOL     OW 7610  10.419   4.632   9.545  0.1640 -0.2451 -0.2098
 1552SOL    HW1 7611  10.332   4.624   9.508  0.0137 -0.0932  0.1095
 1552SOL    HW2 7612  10.453   4.715   9.511  0.6570 -0.8663 -1.3058
 1553SOL     OW 7613   7.649   4.349  10.503 -0.4026 -0.6034  0.2551
 1553SOL    HW1 7614   7.646   4.257  10.530 -2.6954 -0.7464 -0.2399
 1553SOL    HW2 7615   7.582   4.391  10.556  2.6872  1.5792  2.8067
 1554SOL     OW 7616   0.157  10.391   4.009 -0.4878  0.3953 -0.0583
 1554SOL    HW1 7617   0.243  10.426   4.031 -0.4290  0.9991 -1.1763
 1554SOL    HW2 7618   0.165  10.362   3.918 -1.3882  0.2133 -0.0942
 1555SOL     OW 7619   4.876   2.089   7.009  0.6287 -0.1588 -0.0489
 1555SOL    HW1 7620   4.813   2.146   7.053 -0.6364  0.5455 -2.5855
 1555SOL    HW2 7621   4.834   2.003   7.006 -0.2158  0.2790 -1.6201
 1556SOL     OW 7622   8.318   2.882   3.534  0.4372 -0.0877 -0.4077
 1556SOL    HW1 7623   8.326   2.961   3.587 -2.3841  1.8454 -2.5276
 1556SOL    HW2 7624   8.387   2.890   3.468 -0.3736  1.1575 -1.1483
 1557SOL     OW 7625   7.920   8.556   0.415 -0.4780 -0.6640  0.7577
 1557SOL    HW1 7626   7.884   8.475   0.381  2.0388 -1.2272 -0.8489
 1557SOL    HW2 7627   8.010   8.534   0.440  0.3805  1.6379  0.0081
 1558SOL     OW 7628   4.759   0.392   8.419  0.3753 -0.5235 -0.0081
 1558SOL    HW1 7629   4.808   0.386   8.501 -0.4925  1.5290  0.7431
 1558SOL    HW2 7630   4.823   0.371   8.351  1.9017  0.4741  1.0408
 1559SOL     OW 7631   0.418   6.111   1.986 -0.1383  0.0395 -0.4134
 1559SOL    HW1 7632   0.459   6.033   1.949  0.2434  0.4260 -0.8187
 1559SOL    HW2 7633   0.491   6.166   2.013 -0.4030  0.3119 -0.2408
 1560SOL     OW 7634   0.756   8.613   1.137 -0.7048 -0.2622 -0.3986
 1560SOL    HW1 7635   0.851   8.627   1.144 -0.6601 -0.9331  0.6700
 1560SOL    HW2 7636   0.743   8.577   1.050 -0.0533  0.4317 -0.7911
 1561SOL     OW 7637   9.433   3.721   6.383 -0.1816  0.4300 -0.3239
 1561SOL    HW1 7638   9.441   3.817   6.387  2.2879  0.2565  0.7703
 1561SOL    HW2 7639   9.510   3.693   6.333 -0.5269 -1.0319 -0.0815
 1562SOL     OW 7640   3.676   1.054   8.341  0.2673 -0.5573 -0.2327
 1562SOL    HW1 7641   3.741   1.101   8.289  1.1175 -1.2940  0.1410
 1562SOL    HW2 7642   3.720   0.974   8.369 -0.8795 -1.1864 -0.1588
 1563SOL     OW 7643   9.007   9.946   6.454  0.1423 -0.4281 -0.0429
 1563SOL    HW1 7644   8.965   9.862   6.470  0.0550 -0.6926 -1.5306
 1563SOL    HW2 7645   9.078   9.951   6.518 -1.5738 -0.3476  1.9759
 1564SOL     OW 7646   0.555   9.414   9.933 -0.0530  0.5682  0.3928
 1564SOL    HW1 7647   0.543   9.375  10.020 -1.0621  1.1420  0.5241
 1564SOL    HW2 7648   0.626   9.363   9.894 -0.3837 -0.4650  1.0985
 1565SOL     OW 7649   0.808   8.378   3.949 -0.2273 -0.6278 -0.0152
 1565SOL    HW1 7650   0.728   8.428   3.932  0.7484  1.3407  0.7995
 1565SOL    HW2 7651   0.879   8.437   3.924  0.9949 -2.0426 -0.0237
 1566SOL     OW 7652   6.226   2.288   1.455  0.4090 -0.2603 -0.5325
 1566SOL    HW1 7653   6.269   2.272   1.539  2.0527  0.0586 -1.2672
 1566SOL    HW2 7654   6.211   2.383   1.453  1.1903 -0.1383 -0.9539
 1567SOL     OW 7655   8.727  10.470   3.418 -0.5915  0.5628 -0.4999
 1567SOL    HW1 7656   8.645  10.422   3.413  0.2013 -0.7134 -2.5559
 1567SOL    HW2 7657   8.731  10.521   3.338  0.7048  0.4227 -0.5575
 1568SOL     OW 7658   8.350   2.763   7.929  0.0075  0.0075 -0.0355
 1568SOL    HW1 7659   8.358   2.674   7.964  0.7484 -0.5979 -1.6571
 1568SOL    HW2 7660   8.431   2.778   7.881  0.4751  2.0916  1.3001
 1569SOL     OW 7661   4.725   9.864   6.601 -0.1003  0.4050 -0.0585
 1569SOL    HW1 7662   4.691   9.815   6.676 -0.8792  1.3659  0.2462
 1569SOL    HW2 7663   4.757   9.946   6.639 -0.0807  0.7077 -0.7211
 1570SOL     OW 7664   0.706   8.770   7.238 -0.5229  0.1779  0.1886
 1570SOL    HW1 7665   0.655   8.726   7.305  0.2059 -0.4914  0.3190
 1570SOL    HW2 7666   0.696   8.863   7.258 -1.9268  0.0764  0.0147
 1571SOL     OW 7667   6.117   7.079   9.226 -0.3066  0.0787 -0.1813
 1571SOL    HW1 7668   6.086   7.017   9.160  0.2516 -0.9750  0.5140
 1571SOL    HW2 7669   6.210   7.059   9.237 -0.0272  1.2876 -0.1864
 1572SOL     OW 7670   8.758   8.622   2.837 -0.1436  0.0203  0.6020
 1572SOL    HW1 7671   8.774   8.682   2.764 -2.8308 -0.7978 -0.8390
 1572SOL    HW2 7672   8.807   8.543   2.814 -0.3900  0.0275  0.0128
 1573SOL     OW 7673   3.540   8.301   9.942  0.2740 -0.2573 -0.1196
 1573SOL    HW1 7674   3.486   8.340   9.874  0.3793  1.8329  0.8928
 1573SOL    HW2 7675   3.479   8.277  10.011  0.3252 -0.9511 -0.3065
 1574SOL     OW 7676   1.854  10.252   3.200  0.2296  0.2557 -0.0946
 1574SOL    HW1 7677   1.935  10.206   3.176  0.5783  0.9299 -0.2217
 1574SOL    HW2 7678   1.883  10.338   3.231 -0.2568 -0.2961  2.0832
 1575SOL     OW 7679   0.256   7.629   6.904 -0.1421 -0.0751 -0.1656
 1575SOL    HW1 7680   0.263   7.721   6.929 -0.4993  0.1357 -0.8174
 1575SOL    HW2 7681   0.170   7.622   6.863 -0.9088 -1.1146  1.5366
 1576SOL     OW 7682   5.466   3.599   5.062  0.1609  0.4748  0.2966
 1576SOL    HW1 7683   5.396   3.608   4.998 -0.6561  1.6464  1.3298
 1576SOL    HW2 7684   5.477   3.686   5.099  2.0064  0.2702  0.3542
 1577SOL     OW 7685   3.817   1.316  10.632 -0.0300 -0.0295  0.3492
 1577SOL    HW1 7686   3.754   1.244  10.628  0.0520 -0.1887  1.6116
 1577SOL    HW2 7687   3.765   1.395  10.624 -0.5537 -0.1172  2.3926
 1578SOL     OW 7688   4.233   5.521   9.496 -0.1288  0.0197 -0.7096
 1578SOL    HW1 7689   4.294   5.457   9.460  1.2064  1.0186 -0.3027
 1578SOL    HW2 7690   4.205   5.482   9.579  2.3168  0.8159  0.5839
 1579SOL     OW 7691   6.657   3.293   2.773  0.5767  0.3627  0.0591
 1579SOL    HW1 7692   6.696   3.288   2.861  1.2027 -1.3314 -0.2799
 1579SOL    HW2 7693   6.650   3.202   2.745 -1.7900  0.7188 -0.7318
 1580SOL     OW 7694   1.568   5.644   0.868 -0.2989 -0.0551  0.1558
 1580SOL    HW1 7695   1.503   5.687   0.813 -0.9948 -0.8336  0.3346
 1580SOL    HW2 7696   1.565   5.552   0.841  0.3033 -0.2019  0.5746
 1581SOL     OW 7697   2.592   4.694   6.551 -0.1353  0.1751  0.1693
 1581SOL    HW1 7698   2.517   4.667   6.498  0.1974  2.3745 -1.6267
 1581SOL    HW2 7699   2.605   4.623   6.613 -0.7914 -2.4728 -2.5004
 1582SOL     OW 7700   5.829   9.116   3.411  0.7551 -0.4724  0.3157
 1582SOL    HW1 7701   5.809   9.049   3.346  1.5759  0.8754 -1.4106
 1582SOL    HW2 7702   5.912   9.154   3.382  0.9853  0.3962  1.9881
 1583SOL     OW 7703   7.674   9.879   7.569  0.0481  1.2348 -0.3554
 1583SOL    HW1 7704   7.612   9.829   7.621  2.0588 -0.7817  0.2837
 1583SOL    HW2 7705   7.692   9.824   7.493  1.9135  1.1526  0.0877
 1584SOL     OW 7706   3.514   5.256   7.443  0.7362  0.0109  0.1027
 1584SOL    HW1 7707   3.479   5.168   7.435  0.2173  0.1703  0.5582
 1584SOL    HW2 7708   3.439   5.310   7.469  0.8815  0.7160 -0.8592
 1585SOL     OW 7709   5.335   2.783   7.623 -0.0549 -0.7572  0.6831
 1585SOL    HW1 7710   5.346   2.876   7.603 -1.7194 -0.5478  0.5851
 1585SOL    HW2 7711   5.262   2.755   7.568 -0.5829 -1.7404  1.8250
 1586SOL     OW 7712   6.185   7.732   2.863 -0.5786 -0.9131  0.3905
 1586SOL    HW1 7713   6.238   7.808   2.889  1.0367 -1.3955 -1.2844
 1586SOL    HW2 7714   6.107   7.769   2.823  0.5941 -0.0745 -1.2061
 1587SOL     OW 7715   6.279   8.999   6.071 -1.1244 -0.2501  0.7165
 1587SOL    HW1 7716   6.226   9.072   6.103 -0.0285 -0.4996  3.3176
 1587SOL    HW2 7717   6.239   8.976   5.987 -1.2442  3.6178 -0.4932
 1588SOL     OW 7718   1.776   9.312  10.611 -0.0281 -0.0793 -0.3429
 1588SOL    HW1 7719   1.754   9.219  10.611  1.5955 -0.4981  0.9552
 1588SOL    HW2 7720   1.804   9.330  10.521  4.0809 -2.0434  0.3294
 1589SOL     OW 7721   1.780   6.064   2.415 -0.0024 -0.2233 -0.1712
 1589SOL    HW1 7722   1.796   6.014   2.334 -1.4686 -0.9069 -0.0669
 1589SOL    HW2 7723   1.767   6.154   2.385 -0.0656 -0.3841 -0.6387
 1590SOL     OW 7724   7.080   3.825   9.075  0.0052 -0.2855 -0.5777
 1590SOL    HW1 7725   7.079   3.838   9.170  0.0661 -0.0826 -0.6040
 1590SOL    HW2 7726   7.172   3.839   9.050  0.3412 -2.0610 -0.4322
 1591SOL     OW 7727   2.377   3.221   5.302 -0.2335  0.5451  0.0917
 1591SOL    HW1 7728   2.441   3.236   5.372 -0.6265 -2.7913  1.3807
 1591SOL    HW2 7729   2.430   3.211   5.223  0.5871  0.6388  0.6113
 1592SOL     OW 7730   2.322   3.741   3.931  0.0974  0.2818 -0.0159
 1592SOL    HW1 7731   2.392   3.748   3.866 -1.5326  0.7181 -1.7931
 1592SOL    HW2 7732   2.302   3.832   3.954 -0.9409  0.2503 -0.7303
 1593SOL     OW 7733   6.886   6.784   2.267  0.1893 -0.0793  0.0893
 1593SOL    HW1 7734   6.861   6.873   2.243 -0.4434  0.2103  1.7040
 1593SOL    HW2 7735   6.870   6.733   2.187 -1.5703  0.8523 -0.2192
 1594SOL     OW 7736   1.539   3.902  10.342  0.5136 -0.0065  0.1218
 1594SOL    HW1 7737   1.497   3.852  10.412 -0.6715  2.3553  1.2210
 1594SOL    HW2 7738   1.592   3.837  10.295 -1.5120 -2.4183  0.9181
 1595SOL     OW 7739   3.372   7.884  10.528 -0.5090 -0.2428 -0.3825
 1595SOL    HW1 7740   3.356   7.898  10.435  0.8556  0.6530 -0.5147
 1595SOL    HW2 7741   3.422   7.961  10.556 -1.1171 -0.3768  1.1533
 1596SOL     OW 7742   3.220   3.058   0.483  0.0744  0.0957  0.0790
 1596SOL    HW1 7743   3.315   3.054   0.474 -0.0845 -2.2821 -1.3795
 1596SOL    HW2 7744   3.200   2.993   0.550 -0.5411  0.9236  0.7294
 1597SOL     OW 7745   0.936   0.369   0.535 -0.0831  0.3252  0.3896
 1597SOL    HW1 7746   0.980   0.434   0.590 -1.3747  0.6982  1.0217
 1597SOL    HW2 7747   0.890   0.312   0.597 -0.1492 -0.3201 -0.2337
 1598SOL     OW 7748   1.811   7.771   9.962 -0.3204  0.1494 -0.1859
 1598SOL    HW1 7749   1.737   7.808  10.009  0.2912  0.3289  0.6507
 1598SOL    HW2 7750   1.867   7.733  10.030 -0.8968 -2.3231 -0.9887
 1599SOL     OW 7751   4.384  10.269   8.789  0.1295 -0.2773  0.1527
 1599SOL    HW1 7752   4.466  10.303   8.754  0.8418 -0.5926  1.4467
 1599SOL    HW2 7753   4.378  10.179   8.756  0.0792 -0.1208 -0.2768
 1600SOL     OW 7754   7.226   2.925   6.298 -0.0337 -0.2786  0.2631
 1600SOL    HW1 7755   7.160   2.984   6.334  1.4383  1.1888  0.7007
 1600SOL    HW2 7756   7.256   2.968   6.218  2.4491  0.6997  1.5947
 1601SOL     OW 7757   9.176   0.230   4.962  0.1112  0.1286  0.0681
 1601SOL    HW1 7758   9.118   0.303   4.986  0.1587  0.7983 -1.7492
 1601SOL    HW2 7759   9.172   0.172   5.038 -1.9952  0.7377  0.5119
 1602SOL     OW 7760   1.067   4.970   7.189 -0.1370 -0.0392 -0.5354
 1602SOL    HW1 7761   1.001   4.956   7.258 -1.1347  0.9911 -1.2473
 1602SOL    HW2 7762   1.054   5.061   7.162  1.4058  0.0924 -0.9021
 1603SOL     OW 7763   6.018   5.243   0.538 -0.3317  0.4138  0.1926
 1603SOL    HW1 7764   5.956   5.279   0.602 -0.6146  1.0642 -0.4441
 1603SOL    HW2 7765   6.026   5.311   0.471  0.5659  0.0583 -0.0696
 1604SOL     OW 7766   7.192   3.076   9.714 -0.7054 -0.1416 -0.3492
 1604SOL    HW1 7767   7.196   3.050   9.806 -0.7581  0.5729 -0.1347
 1604SOL    HW2 7768   7.283   3.080   9.685 -0.5942  1.0467  0.0992
 1605SOL     OW 7769   3.398   0.792   8.466  0.4735  0.3188  0.0687
 1605SOL    HW1 7770   3.467   0.798   8.532  0.3359  0.1947  0.2268
 1605SOL    HW2 7771   3.317   0.806   8.516  0.1763 -1.8700  0.3360
 1606SOL     OW 7772   9.188   9.283   2.688 -0.0953 -0.2243 -0.1909
 1606SOL    HW1 7773   9.155   9.272   2.599 -0.2892 -1.8005  0.0354
 1606SOL    HW2 7774   9.121   9.241   2.743  0.2931  0.2248  0.6388
 1607SOL     OW 7775   4.910   0.377   2.258  0.0714  0.1900 -0.4462
 1607SOL    HW1 7776   4.996   0.347   2.286 -0.7748 -0.3888  1.7125
 1607SOL    HW2 7777   4.880   0.311   2.196  0.5801 -0.3659 -0.1074
 1608SOL     OW 7778  10.316   7.961   6.685 -0.1172  0.0234  0.5893
 1608SOL    HW1 7779  10.346   7.892   6.745  1.9702 -2.2028 -2.7028
 1608SOL    HW2 7780  10.221   7.948   6.680  0.1248 -2.1299  0.6795
 1609SOL     OW 7781   1.333   5.115   7.030 -0.2605 -0.0290 -1.1270
 1609SOL    HW1 7782   1.379   5.168   6.965 -1.5258  0.9493 -1.2771
 1609SOL    HW2 7783   1.240   5.132   7.013 -0.6551  0.9672  1.4526
 1610SOL     OW 7784  10.055   5.164   4.917  0.0057  0.0094 -0.4723
 1610SOL    HW1 7785  10.112   5.107   4.968  0.1070  0.1724 -0.4005
 1610SOL    HW2 7786  10.109   5.241   4.897 -0.0838  0.0206 -0.6846
 1611SOL     OW 7787   8.066   1.449   2.270 -0.1945  0.2846 -0.9166
 1611SOL    HW1 7788   7.982   1.446   2.316  0.1136 -0.0749 -0.3587
 1611SOL    HW2 7789   8.056   1.519   2.205 -1.2815 -0.4447 -1.5723
 1612SOL     OW 7790  10.257   5.295   6.900  0.0848 -0.0941 -0.3582
 1612SOL    HW1 7791  10.167   5.313   6.875 -0.0430 -0.6752 -0.3221
 1612SOL    HW2 7792  10.249   5.234   6.974  0.5316 -1.8534 -1.6907
 1613SOL     OW 7793   5.885   4.184  10.145  0.0291  0.0054  0.3366
 1613SOL    HW1 7794   5.818   4.234  10.191  0.1304 -0.5918  1.1621
 1613SOL    HW2 7795   5.968   4.225  10.173  0.0583  0.0924  0.1228
 1614SOL     OW 7796  10.008   8.832   3.436  0.2798  0.2274 -0.0126
 1614SOL    HW1 7797   9.954   8.912   3.440 -1.3141 -0.7041 -1.5911
 1614SOL    HW2 7798  10.091   8.861   3.399  0.4495  1.4576  1.2166
 1615SOL     OW 7799   4.038   0.677   1.171  0.9054  0.9394  0.4989
 1615SOL    HW1 7800   3.947   0.663   1.200  0.7237 -0.2381 -0.5581
 1615SOL    HW2 7801   4.083   0.707   1.250 -0.1115  0.2127  1.3975
 1616SOL     OW 7802   6.576   9.099   1.468  0.0210 -0.0580 -0.0550
 1616SOL    HW1 7803   6.635   9.085   1.542  0.9345 -0.4705 -0.8457
 1616SOL    HW2 7804   6.490   9.109   1.508  0.5084 -0.2033  1.0692
 1617SOL     OW 7805  10.352   6.513   0.909  0.4049  0.4282 -0.0773
 1617SOL    HW1 7806  10.447   6.517   0.912  0.5334  0.9940 -2.4113
 1617SOL    HW2 7807  10.330   6.424   0.938  1.4519  0.8960  2.3253
 1618SOL     OW 7808   1.391   5.270   6.804  0.1020 -0.0315  0.2404
 1618SOL    HW1 7809   1.303   5.304   6.787 -0.2049 -1.3768 -1.1118
 1618SOL    HW2 7810   1.440   5.345   6.837 -1.4364  0.8490  0.6076
 1619SOL     OW 7811   2.525   0.237  10.053 -0.3848 -0.5168  0.1655
 1619SOL    HW1 7812   2.443   0.277  10.080  0.5975  0.0643  2.5814
 1619SOL    HW2 7813   2.499   0.161  10.000 -2.4273  0.1565  0.1248
 1620SOL     OW 7814   1.860   7.099   9.993 -0.2764 -0.4118  0.4146
 1620SOL    HW1 7815   1.782   7.046  10.011 -1.4383  0.8924 -0.5391
 1620SOL    HW2 7816   1.841   7.183  10.035  0.8318 -0.2207  0.5533
 1621SOL     OW 7817   7.587   7.425   1.141  0.5396  0.3465  0.0590
 1621SOL    HW1 7818   7.580   7.345   1.089  0.1445 -1.9444  3.3207
 1621SOL    HW2 7819   7.681   7.439   1.152  0.6913  1.6947 -2.2453
 1622SOL     OW 7820   0.550   5.418   8.236 -0.3427  0.4803 -0.1488
 1622SOL    HW1 7821   0.456   5.414   8.218 -0.3641  2.6393 -0.8667
 1622SOL    HW2 7822   0.591   5.378   8.159 -0.6426 -0.9436  0.3964
 1623SOL     OW 7823   9.117   2.576   2.834  0.1649 -0.1339  0.5802
 1623SOL    HW1 7824   9.170   2.496   2.837 -0.2209 -0.3732  2.2848
 1623SOL    HW2 7825   9.158   2.635   2.897 -1.5015 -0.3135  1.9281
 1624SOL     OW 7826   6.484   8.573   6.385  0.6532  0.2980  0.5325
 1624SOL    HW1 7827   6.427   8.522   6.442  1.1163 -0.1640  0.5978
 1624SOL    HW2 7828   6.554   8.512   6.361  1.2143  0.9025  0.6057
 1625SOL     OW 7829   5.977   1.317   8.420  1.1343  0.2612  0.1996
 1625SOL    HW1 7830   6.023   1.395   8.452 -1.2202  2.8073 -2.0613
 1625SOL    HW2 7831   5.977   1.328   8.324 -2.8544 -0.2172 -0.0108
 1626SOL     OW 7832   2.999   8.237   8.352 -0.0600  0.1443 -0.3313
 1626SOL    HW1 7833   3.038   8.277   8.273  1.0179 -2.1621 -1.0530
 1626SOL    HW2 7834   3.034   8.289   8.424  0.9369  0.7972 -1.2431
 1627SOL     OW 7835   8.570   5.708   8.790 -0.7454 -0.3075 -0.4608
 1627SOL    HW1 7836   8.622   5.783   8.820  0.2132 -0.9859 -0.3713
 1627SOL    HW2 7837   8.551   5.726   8.698  0.4831 -0.4926 -0.7602
 1628SOL     OW 7838   7.350   2.579   9.462 -0.3386  0.0866  0.8445
 1628SOL    HW1 7839   7.397   2.505   9.499 -1.1987 -1.0677 -0.3033
 1628SOL    HW2 7840   7.382   2.655   9.512 -0.1531 -1.1529  2.6890
 1629SOL     OW 7841   1.042   1.576   4.917 -0.0574  0.0955 -0.0824
 1629SOL    HW1 7842   1.107   1.534   4.973 -1.9325 -2.4479  0.3821
 1629SOL    HW2 7843   0.984   1.621   4.977  1.2058  2.4152 -0.4985
 1630SOL     OW 7844   1.078   1.761   0.302 -0.0260  0.3227 -0.0972
 1630SOL    HW1 7845   1.097   1.782   0.211 -1.5424 -1.8106 -0.9953
 1630SOL    HW2 7846   1.014   1.827   0.329 -0.2550  0.4342 -0.8864
 1631SOL     OW 7847   5.307   6.401   3.127 -0.7012  0.3965 -0.4844
 1631SOL    HW1 7848   5.353   6.323   3.097 -1.9298 -0.1388 -1.0103
 1631SOL    HW2 7849   5.370   6.472   3.113  0.0560 -0.3424 -0.9520
 1632SOL     OW 7850   1.762   0.609   2.940  0.6521 -0.4962  0.2703
 1632SOL    HW1 7851   1.725   0.686   2.897 -0.5397 -0.6243  1.0121
 1632SOL    HW2 7852   1.809   0.645   3.015 -0.7328 -0.5125  1.1880
 1633SOL     OW 7853   4.786   8.900   3.461 -0.6927  0.1333  0.1180
 1633SOL    HW1 7854   4.855   8.843   3.493 -1.1706  0.2939  1.5076
 1633SOL    HW2 7855   4.786   8.974   3.521 -1.7592  0.3602 -0.1424
 1634SOL     OW 7856   4.815   5.786   0.035 -0.2614  0.1698  0.0796
 1634SOL    HW1 7857   4.795   5.814   0.124 -1.8638 -0.3402 -0.0749
 1634SOL    HW2 7858   4.881   5.718   0.045  1.4972  1.8952  0.6602
 1635SOL     OW 7859   6.929   5.438   8.941  0.1575  0.1860 -0.1672
 1635SOL    HW1 7860   7.014   5.420   8.982 -0.4102 -0.7831  0.6098
 1635SOL    HW2 7861   6.902   5.522   8.978  1.1779  0.9769 -1.1174
 1636SOL     OW 7862   2.810  10.484   9.304  0.0892 -0.1637 -0.7858
 1636SOL    HW1 7863   2.835  10.398   9.337 -1.2285 -0.9299 -1.7201
 1636SOL    HW2 7864   2.715  10.480   9.293  0.1631  0.9413 -2.1489
 1637SOL     OW 7865   7.006   7.512   3.154  0.0619  0.0386 -1.0400
 1637SOL    HW1 7866   7.058   7.523   3.075 -0.0861 -0.4908 -1.2188
 1637SOL    HW2 7867   6.965   7.426   3.143 -0.3682  0.1914 -0.6246
 1638SOL     OW 7868   4.719   9.475   2.630 -0.0955  0.1350 -0.3504
 1638SOL    HW1 7869   4.778   9.523   2.688 -1.3540  1.6998 -0.3222
 1638SOL    HW2 7870   4.640   9.461   2.682  0.0079 -1.4825 -0.5716
 1639SOL     OW 7871   5.540   8.262   0.924  0.1996  0.3650 -0.4031
 1639SOL    HW1 7872   5.591   8.183   0.937  0.6804  0.8560  0.7655
 1639SOL    HW2 7873   5.585   8.307   0.852 -0.6390 -0.8489 -1.7435
 1640SOL     OW 7874   2.918   8.120   7.754  0.0441  0.4254  0.1808
 1640SOL    HW1 7875   2.888   8.141   7.843 -0.3092  1.1952 -0.1104
 1640SOL    HW2 7876   2.974   8.043   7.765 -1.3745 -0.5597  0.8605
 1641SOL     OW 7877  10.256   6.604   9.434  0.1569 -0.6127  0.2134
 1641SOL    HW1 7878  10.288   6.632   9.520 -0.7423  0.1191  0.3198
 1641SOL    HW2 7879  10.317   6.645   9.372  0.0995 -0.1487  0.4583
 1642SOL     OW 7880   7.602   9.393   9.335 -0.2113 -0.0824 -0.1811
 1642SOL    HW1 7881   7.515   9.353   9.330 -0.5736  0.7565 -0.9235
 1642SOL    HW2 7882   7.625   9.412   9.244  0.0982  1.0365  0.1039
 1643SOL     OW 7883   0.175   6.823   6.239  0.6463  0.2622 -0.3657
 1643SOL    HW1 7884   0.249   6.804   6.296 -1.2503 -0.9935  1.8810
 1643SOL    HW2 7885   0.173   6.752   6.176 -0.5090 -1.6536  1.6865
 1644SOL     OW 7886   0.270   6.843   9.118 -0.1680  0.2819 -0.2200
 1644SOL    HW1 7887   0.288   6.935   9.097 -2.4812  0.4795 -1.6332
 1644SOL    HW2 7888   0.296   6.795   9.039 -0.6856 -0.0514 -0.1915
 1645SOL     OW 7889   8.647   5.045   4.659 -0.0038  0.2562  0.2530
 1645SOL    HW1 7890   8.625   4.983   4.590 -0.6808 -0.6705  1.2551
 1645SOL    HW2 7891   8.708   4.996   4.716  0.8535  1.1358  0.1134
 1646SOL     OW 7892   4.527   9.608   3.090  0.1610  0.4884  0.2118
 1646SOL    HW1 7893   4.570   9.530   3.124 -1.0111  0.1560  0.9870
 1646SOL    HW2 7894   4.576   9.681   3.129 -1.6285  0.1407  3.4699
 1647SOL     OW 7895   2.744   5.327   6.019 -0.4684 -0.0001 -0.6087
 1647SOL    HW1 7896   2.837   5.312   6.032 -0.9678 -0.5083  4.1119
 1647SOL    HW2 7897   2.709   5.241   5.994  0.1500  0.0438 -1.7074
 1648SOL     OW 7898   5.841   8.114   5.633 -0.1917  0.9791  0.4111
 1648SOL    HW1 7899   5.835   8.157   5.548  0.8503  1.9867  0.8213
 1648SOL    HW2 7900   5.752   8.085   5.652 -0.2640 -0.1488 -1.4585
 1649SOL     OW 7901   3.253   5.477   9.189  0.0771 -0.2353 -0.7903
 1649SOL    HW1 7902   3.270   5.416   9.118 -0.9284 -1.4408 -0.0327
 1649SOL    HW2 7903   3.240   5.422   9.266 -0.7726  0.9214 -0.0649
 1650SOL     OW 7904   5.159   7.049   7.753 -0.3933  0.0626  0.1742
 1650SOL    HW1 7905   5.081   7.076   7.802 -0.4194  0.4742 -0.0855
 1650SOL    HW2 7906   5.219   7.014   7.819 -0.6024  0.2064  0.4403
 1651SOL     OW 7907   3.843   0.352   1.103  0.7072  0.3465  0.3022
 1651SOL    HW1 7908   3.928   0.376   1.141  0.4512  0.6214  0.7040
 1651SOL    HW2 7909   3.786   0.338   1.178  0.0944  1.2974  0.0259
 1652SOL     OW 7910   7.883   9.412   3.370 -0.4904 -0.0705 -0.2417
 1652SOL    HW1 7911   7.895   9.505   3.350  1.4081  0.1585  1.5973
 1652SOL    HW2 7912   7.864   9.372   3.285  3.0025  1.3844 -1.9301
 1653SOL     OW 7913   3.871   7.056   6.106 -0.3496  0.6490 -0.0738
 1653SOL    HW1 7914   3.793   7.062   6.050  0.4566  0.4019 -1.2834
 1653SOL    HW2 7915   3.844   7.000   6.178 -1.5145  1.1909 -0.0566
 1654SOL     OW 7916   0.040   0.368   4.035 -0.1602  0.0220 -0.4068
 1654SOL    HW1 7917  -0.047   0.346   4.069  0.0334  0.9600  0.7778
 1654SOL    HW2 7918   0.100   0.311   4.083  0.0553  0.8812  0.3692
 1655SOL     OW 7919   4.960   2.368   8.376  0.0249  0.1129 -0.4657
 1655SOL    HW1 7920   5.052   2.342   8.383 -0.1439 -0.2033  0.8183
 1655SOL    HW2 7921   4.934   2.340   8.288  0.7452 -1.1793 -0.2922
 1656SOL     OW 7922   1.021   4.313   4.233  0.0643  0.0934  0.3238
 1656SOL    HW1 7923   1.030   4.367   4.311 -1.3135  0.7074  0.0851
 1656SOL    HW2 7924   0.942   4.345   4.190 -0.1262 -1.3295 -0.4550
 1657SOL     OW 7925   0.718   4.766   9.779 -0.0572 -0.2323  0.6998
 1657SOL    HW1 7926   0.745   4.841   9.726 -1.6619 -1.0770 -1.4438
 1657SOL    HW2 7927   0.761   4.691   9.738  1.3883 -0.6176  2.7122
 1658SOL     OW 7928   2.641   3.190   6.169 -0.5960  0.1912 -0.2866
 1658SOL    HW1 7929   2.687   3.234   6.240 -1.7329  0.2756  0.4137
 1658SOL    HW2 7930   2.608   3.261   6.114 -0.7656  0.1615 -0.2243
 1659SOL     OW 7931   3.830   5.408   8.334  0.2947  0.6911 -0.1574
 1659SOL    HW1 7932   3.846   5.464   8.410  0.8957  0.0942  0.1678
 1659SOL    HW2 7933   3.872   5.325   8.356  0.8153  0.6280 -1.2925
 1660SOL     OW 7934   9.648   2.641   9.803 -0.1648 -0.1736  0.7282
 1660SOL    HW1 7935   9.705   2.641   9.880 -1.3889 -3.1484  1.7732
 1660SOL    HW2 7936   9.563   2.671   9.836 -1.1608 -3.0823  1.0688
 1661SOL     OW 7937   7.861   3.230   3.073 -0.4333 -0.1004 -0.8479
 1661SOL    HW1 7938   7.841   3.198   3.161 -0.9203 -0.9102 -1.2477
 1661SOL    HW2 7939   7.936   3.288   3.085 -1.5275  1.1342  0.3479
 1662SOL     OW 7940   3.184   3.141   0.875 -0.3954  0.1745  0.1938
 1662SOL    HW1 7941   3.275   3.162   0.856 -0.3743  0.1540  0.2718
 1662SOL    HW2 7942   3.167   3.061   0.825 -0.0514 -0.4311  1.0257
 1663SOL     OW 7943   0.051   1.090   9.038  0.3288  0.1347 -0.7701
 1663SOL    HW1 7944   0.014   1.047   8.960 -0.6219 -1.0923  0.3091
 1663SOL    HW2 7945  -0.017   1.152   9.066 -0.8828 -1.8684  1.0100
 1664SOL     OW 7946   3.974   8.867   5.219  0.3349 -0.2506 -0.0654
 1664SOL    HW1 7947   4.065   8.845   5.199  1.0237  0.5518  1.9276
 1664SOL    HW2 7948   3.939   8.788   5.260  0.3947 -0.2626 -0.0375
 1665SOL     OW 7949   9.362   2.394   1.702 -0.0779  0.3705  0.0042
 1665SOL    HW1 7950   9.456   2.375   1.707  0.1189  1.0900 -0.7358
 1665SOL    HW2 7951   9.339   2.422   1.790  0.2627 -0.4029  0.3523
 1666SOL     OW 7952   3.796   1.664   6.912 -0.3772 -0.3483 -0.1397
 1666SOL    HW1 7953   3.870   1.674   6.972 -0.7460  1.2208  0.1203
 1666SOL    HW2 7954   3.813   1.583   6.864  1.5578  0.0342 -0.1605
 1667SOL     OW 7955   8.033   0.839   2.200 -0.3782 -0.2068  0.6586
 1667SOL    HW1 7956   7.987   0.921   2.217  0.8667  0.6678  0.0419
 1667SOL    HW2 7957   8.121   0.854   2.235  0.5073 -0.4553 -1.3053
 1668SOL     OW 7958   0.204   2.777   1.117  0.0679  0.0282 -0.6418
 1668SOL    HW1 7959   0.143   2.794   1.189  0.7608  0.6827 -0.1956
 1668SOL    HW2 7960   0.199   2.682   1.104  0.0623 -0.1273  0.3920
 1669SOL     OW 7961   9.812   1.037   4.397  0.2635 -0.4627  0.0870
 1669SOL    HW1 7962   9.779   0.986   4.471  1.6413  0.5762  1.4809
 1669SOL    HW2 7963   9.760   1.117   4.399  0.0446 -0.5922 -0.3235
 1670SOL     OW 7964   6.158   3.971   0.713  0.6444 -0.7781  0.3760
 1670SOL    HW1 7965   6.187   4.062   0.716  0.0801 -0.5857 -0.0082
 1670SOL    HW2 7966   6.124   3.953   0.801 -0.0597 -0.3479  0.1961
 1671SOL     OW 7967   9.952  10.575   0.461  0.0754 -0.0633 -0.3470
 1671SOL    HW1 7968   9.975  10.560   0.369 -0.4140  2.3504 -0.9466
 1671SOL    HW2 7969   9.880  10.638   0.457  0.7390  0.9006  1.7062
 1672SOL     OW 7970   7.647   5.618   6.487 -0.3371  0.4196  0.0254
 1672SOL    HW1 7971   7.657   5.657   6.573  0.5196 -0.0435  0.1398
 1672SOL    HW2 7972   7.552   5.609   6.476 -0.4484 -2.0348  2.0813
 1673SOL     OW 7973   4.263  10.348   4.258 -0.0872 -0.4159 -0.3484
 1673SOL    HW1 7974   4.290  10.343   4.166  1.0606 -0.7181 -0.0165
 1673SOL    HW2 7975   4.169  10.329   4.257  0.1146 -1.4662 -1.3483
 1674SOL     OW 7976   0.604   5.717  10.684 -0.1492 -0.0105 -0.0263
 1674SOL    HW1 7977   0.653   5.797  10.706  1.3807 -1.0379  0.4440
 1674SOL    HW2 7978   0.669   5.660  10.642 -0.7636 -1.7052  1.2422
 1675SOL     OW 7979   9.548   7.080   6.006 -0.2674  0.1694  0.1358
 1675SOL    HW1 7980   9.604   7.014   5.965  0.4731  0.7241  0.2470
 1675SOL    HW2 7981   9.515   7.038   6.085  0.2689 -0.0400  0.2518
 1676SOL     OW 7982   5.306  10.653   1.477  1.0502 -0.0883  0.1272
 1676SOL    HW1 7983   5.320  10.732   1.530  2.1512 -0.7650  0.9091
 1676SOL    HW2 7984   5.211  10.645   1.470  0.8729  2.3690 -1.6365
 1677SOL     OW 7985  10.506   9.583   7.014  0.4896  0.5493 -0.2933
 1677SOL    HW1 7986  10.522   9.580   6.920 -0.4398 -1.4113 -0.4361
 1677SOL    HW2 7987  10.578   9.532   7.052  0.2407  0.3780 -0.0480
 1678SOL     OW 7988   5.713   4.767   6.438 -0.4525 -0.4226 -0.3669
 1678SOL    HW1 7989   5.712   4.673   6.459 -0.7461 -0.5079 -0.7601
 1678SOL    HW2 7990   5.622   4.794   6.446 -0.0669  0.3823  2.1663
 1679SOL     OW 7991   4.431   2.515   8.892  0.1714  0.4903 -0.3502
 1679SOL    HW1 7992   4.414   2.490   8.983 -1.6469  0.2306 -0.7168
 1679SOL    HW2 7993   4.405   2.438   8.841 -0.3760  1.1873 -1.1650
 1680SOL     OW 7994   5.744   4.344   9.914 -0.6689  0.0399  0.2448
 1680SOL    HW1 7995   5.728   4.269   9.972  0.0180 -1.4085 -1.3358
 1680SOL    HW2 7996   5.838   4.341   9.898 -1.0218 -0.4573 -1.9938
 1681SOL     OW 7997   0.652   1.488   1.175 -0.1561 -1.4349  0.6828
 1681SOL    HW1 7998   0.698   1.418   1.129  2.1282  0.7554 -0.5960
 1681SOL    HW2 7999   0.615   1.542   1.105  1.0344  0.4594  1.4414
 1682SOL     OW 8000   0.415   8.359   4.251 -0.5915  0.2743  0.4491
 1682SOL    HW1 8001   0.424   8.297   4.178 -0.9759 -0.6588  1.1720
 1682SOL    HW2 8002   0.458   8.317   4.325  2.8690  2.6698  0.0311
 1683SOL     OW 8003   8.738   8.748   1.901  0.0342 -0.1648 -0.3057
 1683SOL    HW1 8004   8.768   8.702   1.823 -0.2589 -2.1494  0.6769
 1683SOL    HW2 8005   8.696   8.680   1.954 -0.6018  1.3001  1.1667
 1684SOL     OW 8006   4.483   6.828   6.219  0.3201 -0.4636 -0.4169
 1684SOL    HW1 8007   4.521   6.793   6.299  0.1042  1.5641  0.6082
 1684SOL    HW2 8008   4.541   6.796   6.149  1.7039 -0.5493  0.7372
 1685SOL     OW 8009   8.590   8.225   9.524  0.6007 -0.2962  0.2156
 1685SOL    HW1 8010   8.595   8.248   9.617  1.3784  0.3011  0.0323
 1685SOL    HW2 8011   8.669   8.174   9.508  1.0581  0.5773 -0.3746
 1686SOL     OW 8012   2.462   5.275   5.287  0.6182  0.5280 -0.1566
 1686SOL    HW1 8013   2.544   5.304   5.328  0.7290 -0.1885  0.1388
 1686SOL    HW2 8014   2.416   5.228   5.356  0.6281 -0.3648 -0.7494
 1687SOL     OW 8015   3.348   6.139   6.504 -0.0497  0.0110  0.2536
 1687SOL    HW1 8016   3.316   6.138   6.594 -0.2147  0.5319  0.2011
 1687SOL    HW2 8017   3.327   6.052   6.470 -0.8832  0.1453  0.4037
 1688SOL     OW 8018  10.146   6.311   4.274 -0.5283  0.1809 -0.2700
 1688SOL    HW1 8019  10.225   6.272   4.236 -1.0855  0.5755 -1.9094
 1688SOL    HW2 8020  10.166   6.320   4.367  0.9623 -0.6825 -0.4814
 1689SOL     OW 8021   6.161   2.700   3.968  0.2376  0.3288 -0.0619
 1689SOL    HW1 8022   6.137   2.685   4.060  0.2823 -0.5537 -0.1856
 1689SOL    HW2 8023   6.215   2.624   3.945  1.0015  1.0136 -0.5498
 1690SOL     OW 8024   3.204  10.200   2.552  0.2628 -0.0537 -0.0294
 1690SOL    HW1 8025   3.259  10.132   2.513  0.9673 -0.7834  2.1078
 1690SOL    HW2 8026   3.185  10.259   2.479  2.1676 -0.8761 -1.2928
 1691SOL     OW 8027   9.811   8.204  10.045 -0.0898  0.7797  0.3525
 1691SOL    HW1 8028   9.861   8.273  10.002  1.5702 -0.5630  0.0310
 1691SOL    HW2 8029   9.734   8.249  10.081  0.4775  2.6128 -0.6083
 1692SOL     OW 8030   2.854  10.602   6.742 -0.4800  0.3558 -0.2652
 1692SOL    HW1 8031   2.804  10.655   6.680  1.1097  0.8119 -1.2238
 1692SOL    HW2 8032   2.861  10.657   6.820 -0.2594  0.8804 -0.6474
 1693SOL     OW 8033   4.261   4.871   1.522  0.0562 -0.1912  0.2153
 1693SOL    HW1 8034   4.216   4.819   1.456 -0.3149 -0.8475  0.9636
 1693SOL    HW2 8035   4.292   4.807   1.586  2.7011  0.1665 -0.6017
 1694SOL     OW 8036   1.833   4.481   7.395  0.2397  0.1314  0.0683
 1694SOL    HW1 8037   1.740   4.467   7.378  0.0276 -0.3804  1.5408
 1694SOL    HW2 8038   1.845   4.458   7.487  1.5704  1.5234  0.2895
 1695SOL     OW 8039   4.474   6.200   1.122 -0.6302  0.0854 -0.0003
 1695SOL    HW1 8040   4.525   6.142   1.065 -2.7220 -3.0483  0.9916
 1695SOL    HW2 8041   4.492   6.169   1.210 -3.6156 -0.8191  0.4254
 1696SOL     OW 8042   0.349   2.168   8.922 -0.4132 -0.2728  0.1077
 1696SOL    HW1 8043   0.379   2.089   8.876 -1.5235 -0.2196 -0.7481
 1696SOL    HW2 8044   0.279   2.203   8.866  0.3047  1.5370  0.2811
 1697SOL     OW 8045   2.441   0.960   7.027 -0.1262 -0.4064  0.2461
 1697SOL    HW1 8046   2.506   0.894   7.004 -0.1892 -0.7822  1.1281
 1697SOL    HW2 8047   2.487   1.020   7.086  0.0458  0.5701 -0.8508
 1698SOL     OW 8048   6.011   6.382   0.045  0.0709 -0.4299  0.5166
 1698SOL    HW1 8049   6.022   6.356   0.136  0.1396 -2.0641  0.0685
 1698SOL    HW2 8050   5.916   6.396   0.036  0.2532  1.8402  1.3246
 1699SOL     OW 8051   8.500   3.670   9.685 -0.5946 -0.2478  0.0853
 1699SOL    HW1 8052   8.528   3.656   9.595  1.0943 -1.2807  0.7142
 1699SOL    HW2 8053   8.581   3.684   9.734 -1.3596 -1.0032  1.6638
 1700SOL     OW 8054   3.525   1.346   6.236  0.4835 -0.0352  0.7569
 1700SOL    HW1 8055   3.551   1.254   6.238 -0.6453 -0.3726  0.7986
 1700SOL    HW2 8056   3.483   1.362   6.320  2.9027  1.2545  1.8242
 1701SOL     OW 8057   2.261  10.517   4.029 -0.1526  0.3478 -0.0101
 1701SOL    HW1 8058   2.261  10.552   3.940  0.3969  0.8347  0.1768
 1701SOL    HW2 8059   2.327  10.448   4.028 -0.2423  0.2611 -0.0131
 1702SOL     OW 8060   1.532   7.270   9.869 -0.1499 -0.2989  0.4462
 1702SOL    HW1 8061   1.619   7.308   9.882  0.2591 -1.0719  0.0420
 1702SOL    HW2 8062   1.488   7.282   9.953  0.9502 -1.4364  1.2163
 1703SOL     OW 8063   4.583   8.587   2.162 -0.0199 -0.0167  0.2436
 1703SOL    HW1 8064   4.607   8.513   2.106 -1.8463 -0.1048 -0.5000
 1703SOL    HW2 8065   4.613   8.664   2.115  0.3419 -0.1987  0.1751
 1704SOL     OW 8066   2.992   0.652   0.445  0.2264 -0.3489 -0.4613
 1704SOL    HW1 8067   2.935   0.583   0.478 -0.0058 -0.9878 -2.0940
 1704SOL    HW2 8068   3.029   0.616   0.364  0.0872  1.4248 -1.3730
 1705SOL     OW 8069   1.459   0.289   1.932 -0.2571 -0.1849  0.0511
 1705SOL    HW1 8070   1.434   0.207   1.890  0.5344 -0.1223 -0.5691
 1705SOL    HW2 8071   1.555   0.289   1.929 -0.1893 -0.0453  1.6265
 1706SOL     OW 8072   3.949   9.839   6.114 -0.6766  0.2896  0.2700
 1706SOL    HW1 8073   4.028   9.878   6.153  1.4601 -1.6436 -1.7603
 1706SOL    HW2 8074   3.951   9.869   6.023 -0.8578 -1.7266 -0.4513
 1707SOL     OW 8075   7.896   8.023  10.007  0.2120 -0.5764  0.1907
 1707SOL    HW1 8076   7.934   8.071  10.080  0.3778 -0.1424 -0.1718
 1707SOL    HW2 8077   7.889   7.933  10.038  0.4102 -0.4248  0.6870
 1708SOL     OW 8078   0.829   6.608  10.683  0.0277 -0.1391  0.4254
 1708SOL    HW1 8079   0.809   6.518  10.660 -0.4314  0.4152 -1.5031
 1708SOL    HW2 8080   0.744   6.647  10.703  0.2917 -0.2758  1.9447
 1709SOL     OW 8081   3.525   0.602   5.212  0.0993  0.1713 -0.0455
 1709SOL    HW1 8082   3.439   0.565   5.231 -1.0753  2.5411 -0.4203
 1709SOL    HW2 8083   3.526   0.686   5.258  1.0065  1.5706 -2.4736
 1710SOL     OW 8084  10.537   2.866   4.597  0.0480  0.2710  0.3566
 1710SOL    HW1 8085  10.539   2.777   4.632 -2.8686  0.2091  0.5882
 1710SOL    HW2 8086  10.618   2.906   4.629  0.4618 -1.6842  1.9291
 1711SOL     OW 8087   8.173   7.663   6.050 -0.3704 -0.7607  0.2384
 1711SOL    HW1 8088   8.241   7.663   6.118 -1.1410 -1.5934  1.0291
 1711SOL    HW2 8089   8.135   7.751   6.054 -0.7267 -0.9543  1.2133
 1712SOL     OW 8090   9.044   0.484   4.659  0.3539 -0.8605 -0.0832
 1712SOL    HW1 8091   8.980   0.543   4.620  1.0014  0.0558  0.2080
 1712SOL    HW2 8092   9.055   0.414   4.595 -1.7066 -1.6147  0.3082
 1713SOL     OW 8093   9.483   8.545   3.044 -0.6741  0.5401 -0.0925
 1713SOL    HW1 8094   9.559   8.554   2.986 -0.7139 -0.5182 -0.3218
 1713SOL    HW2 8095   9.409   8.528   2.985 -0.5169 -1.7486  0.3047
 1714SOL     OW 8096   8.561   0.813   4.884 -0.5214  0.7230 -0.1023
 1714SOL    HW1 8097   8.615   0.797   4.962 -1.4043 -2.0821  0.0158
 1714SOL    HW2 8098   8.548   0.727   4.845 -1.1265  1.9123 -2.7095
 1715SOL     OW 8099   3.717  10.281   2.579  0.0641 -0.6229 -0.2176
 1715SOL    HW1 8100   3.659  10.351   2.610  0.1281 -0.8411  0.4052
 1715SOL    HW2 8101   3.763  10.252   2.657  1.5477  0.0305 -0.8184
 1716SOL     OW 8102   9.626   0.326   4.220 -0.4180  0.3445  0.3836
 1716SOL    HW1 8103   9.637   0.252   4.161 -1.3576  1.5737 -1.4008
 1716SOL    HW2 8104   9.572   0.291   4.292  0.5569 -1.1112  0.4494
 1717SOL     OW 8105   5.648   0.679   7.199  0.7523 -0.3773 -0.2821
 1717SOL    HW1 8106   5.658   0.772   7.219  0.6292 -0.5422  0.5494
 1717SOL    HW2 8107   5.624   0.677   7.106  2.3504  0.3417 -0.7517
 1718SOL     OW 8108   5.596   1.968   0.548  0.1497 -0.1848 -0.1745
 1718SOL    HW1 8109   5.671   1.961   0.606 -1.3627  0.2760  1.9509
 1718SOL    HW2 8110   5.522   1.985   0.606 -1.8230 -1.7760 -2.0329
 1719SOL     OW 8111   4.442   1.433   8.426 -0.0121 -0.1544 -0.3712
 1719SOL    HW1 8112   4.514   1.475   8.473  0.6149  0.7010 -2.0167
 1719SOL    HW2 8113   4.477   1.350   8.396 -0.3440 -0.6047  0.4723
 1720SOL     OW 8114   7.760  10.484   9.846 -0.0166  0.3553 -0.3951
 1720SOL    HW1 8115   7.696  10.540   9.801 -1.6668 -1.4796 -0.4778
 1720SOL    HW2 8116   7.706  10.426   9.900  1.7939  2.5320  4.3029
 1721SOL     OW 8117   9.153   6.748   6.193 -0.5148 -0.0491 -0.3406
 1721SOL    HW1 8118   9.079   6.785   6.240  1.3921  1.3269  1.7549
 1721SOL    HW2 8119   9.184   6.819   6.137 -0.8002 -0.6564 -1.3007
 1722SOL     OW 8120   7.491   0.541   9.757  0.6562 -0.2726  0.0179
 1722SOL    HW1 8121   7.487   0.635   9.739  2.2956  0.0828  1.3347
 1722SOL    HW2 8122   7.441   0.529   9.838 -2.7035 -1.1700 -1.9884
 1723SOL     OW 8123   2.934   0.879   4.084 -0.0691  0.1949 -0.1284
 1723SOL    HW1 8124   2.889   0.804   4.122  2.7702 -1.3763  0.4099
 1723SOL    HW2 8125   2.894   0.955   4.127 -1.7936 -1.0998  0.6731
 1724SOL     OW 8126   0.563   1.812   9.591  0.4880 -0.6823  0.0939
 1724SOL    HW1 8127   0.576   1.902   9.563 -1.0627 -0.4739 -0.0415
 1724SOL    HW2 8128   0.539   1.819   9.684  1.8491 -1.0918  0.5071
 1725SOL     OW 8129   9.766  10.370   6.869 -0.5673  0.4795  0.5816
 1725SOL    HW1 8130   9.765  10.306   6.798  0.3979  1.4479 -0.3256
 1725SOL    HW2 8131   9.674  10.384   6.890 -0.9129  0.8634 -1.1087
 1726SOL     OW 8132   9.198   7.184   8.920  0.4738 -0.3173 -0.1794
 1726SOL    HW1 8133   9.221   7.205   8.830  1.2452  1.5887  0.4136
 1726SOL    HW2 8134   9.221   7.262   8.970 -1.4375 -0.7062  1.4396
 1727SOL     OW 8135   3.782   4.274   6.048 -0.1016 -0.0305 -0.3454
 1727SOL    HW1 8136   3.783   4.182   6.023  1.4083  0.0901 -0.8272
 1727SOL    HW2 8137   3.734   4.276   6.131 -1.9351 -0.9496 -1.3370
 1728SOL     OW 8138   4.041   5.953   3.103  0.1611 -0.2820 -0.2555
 1728SOL    HW1 8139   3.993   6.019   3.054  0.3891 -1.1695 -1.7389
 1728SOL    HW2 8140   4.106   5.920   3.041 -0.1364 -2.0980  0.3317
 1729SOL     OW 8141   7.947   2.246   0.030  0.2541 -0.2773  0.2009
 1729SOL    HW1 8142   8.001   2.315   0.068  0.4579  1.0407 -2.2740
 1729SOL    HW2 8143   7.863   2.254   0.076  1.0640 -0.1427  1.7394
 1730SOL     OW 8144   3.870   5.261   2.213 -0.5198  0.5196 -0.1785
 1730SOL    HW1 8145   3.896   5.296   2.299 -0.2126 -1.4105  0.5596
 1730SOL    HW2 8146   3.944   5.283   2.156  0.4879 -0.4630  0.7001
 1731SOL     OW 8147   1.591   7.685   4.809 -0.8546  0.4095  0.6240
 1731SOL    HW1 8148   1.633   7.767   4.784 -1.6944  1.2158  1.7165
 1731SOL    HW2 8149   1.559   7.647   4.727  0.8047  0.4276 -0.0638
 1732SOL     OW 8150   3.676   0.854   6.329  0.5424 -0.2854  0.2039
 1732SOL    HW1 8151   3.727   0.775   6.346 -0.0917 -0.4889  1.2476
 1732SOL    HW2 8152   3.585   0.827   6.341  0.3177  0.6019  0.5556
 1733SOL     OW 8153   0.421   6.289   9.622 -0.6516  0.1643  0.0264
 1733SOL    HW1 8154   0.354   6.356   9.638  0.1091  0.8398  0.5030
 1733SOL    HW2 8155   0.498   6.339   9.595  0.4212 -0.3610  1.9435
 1734SOL     OW 8156   5.455   3.334   8.862 -0.1556  0.5258  0.4517
 1734SOL    HW1 8157   5.491   3.254   8.900 -0.9466 -0.4551 -0.7578
 1734SOL    HW2 8158   5.501   3.405   8.906  1.1894 -0.6137  0.9546
 1735SOL     OW 8159   4.463   1.754   1.810 -0.0616 -1.0295  0.5172
 1735SOL    HW1 8160   4.465   1.827   1.872 -0.8734  1.2978 -2.0174
 1735SOL    HW2 8161   4.489   1.793   1.726 -1.1659 -3.5074 -1.0930
 1736SOL     OW 8162   1.797   5.785   7.203  0.0535  0.1771  1.0530
 1736SOL    HW1 8163   1.730   5.818   7.142  0.3604 -0.7729  0.1837
 1736SOL    HW2 8164   1.830   5.864   7.246  0.7691  1.0849 -0.9765
 1737SOL     OW 8165   5.091   3.578   6.859  0.1993  0.2382  0.0891
 1737SOL    HW1 8166   5.140   3.522   6.920  0.9304  0.2980 -0.4261
 1737SOL    HW2 8167   5.152   3.594   6.787 -0.2297  1.1541 -0.0898
 1738SOL     OW 8168  10.425   1.938   9.135  0.2361  0.2573  0.3647
 1738SOL    HW1 8169  10.339   1.942   9.177 -1.0416  1.3673 -2.1375
 1738SOL    HW2 8170  10.470   2.018   9.163 -0.1090  0.3882  0.5456
 1739SOL     OW 8171   1.884   4.849   4.125  0.2526  0.2451  0.0810
 1739SOL    HW1 8172   1.856   4.790   4.055  0.5508 -0.0603  0.2188
 1739SOL    HW2 8173   1.829   4.825   4.200  0.4917  0.0258  0.1871
 1740SOL     OW 8174   3.614   7.317   3.347  0.2795 -0.0709 -0.6311
 1740SOL    HW1 8175   3.572   7.248   3.296 -0.4037 -0.2210  0.1066
 1740SOL    HW2 8176   3.586   7.398   3.305  1.3521 -0.2275 -1.7032
 1741SOL     OW 8177   5.460   9.639   7.683  0.4467 -0.1020 -0.8125
 1741SOL    HW1 8178   5.462   9.697   7.759  0.8959 -1.9590  0.6697
 1741SOL    HW2 8179   5.538   9.661   7.633  0.0886  1.2145 -0.8326
 1742SOL     OW 8180   9.713   7.448   6.328  0.2933 -0.3385  0.3687
 1742SOL    HW1 8181   9.647   7.382   6.347 -0.0434 -0.2111 -0.3127
 1742SOL    HW2 8182   9.698   7.517   6.393 -0.3582 -0.2389  0.1203
 1743SOL     OW 8183   4.536   8.039   5.871 -0.2807  0.3099 -0.3487
 1743SOL    HW1 8184   4.562   8.125   5.904  0.6579 -0.6177  1.4573
 1743SOL    HW2 8185   4.563   8.039   5.779  3.5957  0.5072  0.6186
 1744SOL     OW 8186   3.828   8.242   2.216 -0.3116 -0.4619  0.7089
 1744SOL    HW1 8187   3.733   8.248   2.215 -0.2790  0.1749  1.0266
 1744SOL    HW2 8188   3.857   8.324   2.255  0.4494  0.2106 -1.1544
 1745SOL     OW 8189   7.261   0.323  10.669 -0.2723  0.0853 -0.2324
 1745SOL    HW1 8190   7.185   0.350  10.721 -0.1265  0.6861 -0.3218
 1745SOL    HW2 8191   7.242   0.233  10.644  0.2375 -0.7012  1.9565
 1746SOL     OW 8192   8.482   4.014   7.584  0.2663 -0.0474  0.8193
 1746SOL    HW1 8193   8.548   3.984   7.521 -0.1453 -1.3101  0.9763
 1746SOL    HW2 8194   8.406   3.958   7.568  0.0068 -0.1117  2.1622
 1747SOL     OW 8195   7.246   6.646   5.710 -0.1691 -0.2398  0.0561
 1747SOL    HW1 8196   7.254   6.563   5.757 -0.9065 -0.7462 -0.6828
 1747SOL    HW2 8197   7.274   6.626   5.621  0.2784  0.4713  0.0301
 1748SOL     OW 8198   6.444   6.605   7.179 -0.1893  1.0661 -0.4399
 1748SOL    HW1 8199   6.439   6.665   7.253 -0.1985  0.1457  0.3345
 1748SOL    HW2 8200   6.438   6.518   7.219  0.8801  0.5175 -1.4158
 1749SOL     OW 8201   3.697   4.831  10.562 -0.2659 -0.5646 -0.2771
 1749SOL    HW1 8202   3.676   4.753  10.511  1.7754 -1.0927 -0.3828
 1749SOL    HW2 8203   3.646   4.901  10.521 -1.7179 -1.7153 -0.5169
 1750SOL     OW 8204   2.804   8.158   6.480 -0.5866 -0.9941 -0.3041
 1750SOL    HW1 8205   2.754   8.078   6.498 -0.1850 -1.0071  0.8630
 1750SOL    HW2 8206   2.880   8.152   6.538  0.9090 -1.0790 -2.1729
 1751SOL     OW 8207   0.434   8.670   5.015  0.1881 -0.1811  0.6218
 1751SOL    HW1 8208   0.499   8.738   5.034 -1.8739  2.5253 -1.0787
 1751SOL    HW2 8209   0.387   8.658   5.097  1.4105 -0.5349  1.2823
 1752SOL     OW 8210  10.069   8.295   4.353 -0.0810  0.3493 -0.1193
 1752SOL    HW1 8211  10.162   8.318   4.356 -0.0871  0.3932 -0.2660
 1752SOL    HW2 8212  10.027   8.369   4.309 -0.1973  0.3679  0.0204
 1753SOL     OW 8213   5.314   1.137   2.457  0.2484  0.1658 -0.3394
 1753SOL    HW1 8214   5.237   1.106   2.504 -0.6470  2.2545 -0.3481
 1753SOL    HW2 8215   5.368   1.179   2.523  0.7654 -0.1407 -0.5597
 1754SOL     OW 8216   7.753   8.754   2.090 -0.8688 -0.2377  0.0274
 1754SOL    HW1 8217   7.714   8.751   2.177  0.2458  2.9458  0.7815
 1754SOL    HW2 8218   7.746   8.846   2.064  0.1577 -0.8271 -2.6186
 1755SOL     OW 8219   0.771   6.927  10.663  0.3128 -0.0429  0.0489
 1755SOL    HW1 8220   0.807   6.975  10.588 -1.0492  1.0117  0.0215
 1755SOL    HW2 8221   0.846   6.911  10.719  1.1927  0.0761 -1.0495
 1756SOL     OW 8222   1.199   6.441   6.018 -0.5078 -0.5854 -0.0712
 1756SOL    HW1 8223   1.229   6.531   6.022 -0.3276 -0.6891  1.8641
 1756SOL    HW2 8224   1.104   6.448   6.007 -0.5818 -0.1335  0.7819
 1757SOL     OW 8225  10.353   4.863   1.630  0.2675  0.2678  0.5787
 1757SOL    HW1 8226  10.334   4.947   1.671 -0.7206  0.2014  0.2780
 1757SOL    HW2 8227  10.374   4.805   1.703  1.4727  0.8969  0.7477
 1758SOL     OW 8228   5.309   7.877   3.503  0.0577  0.2717  0.0193
 1758SOL    HW1 8229   5.250   7.835   3.440 -0.7351  2.0955 -0.5118
 1758SOL    HW2 8230   5.374   7.810   3.522 -2.4562 -2.0765  1.0985
 1759SOL     OW 8231   4.449   3.817   7.652 -0.4577 -0.0553 -0.1450
 1759SOL    HW1 8232   4.463   3.843   7.743  1.0402 -0.1145 -0.3428
 1759SOL    HW2 8233   4.381   3.750   7.657  0.4321 -0.9198  1.0606
 1760SOL     OW 8234   8.129   5.629   8.554  0.1592 -0.4312  0.0559
 1760SOL    HW1 8235   8.045   5.606   8.592 -0.0410 -0.6094 -0.4998
 1760SOL    HW2 8236   8.128   5.725   8.549 -0.4268 -0.4752 -0.8926
 1761SOL     OW 8237   7.064   5.397   1.512  0.1225  0.1590 -0.1338
 1761SOL    HW1 8238   6.986   5.414   1.565  0.8237  1.0974  0.6241
 1761SOL    HW2 8239   7.073   5.301   1.515 -0.8090  0.0618  0.0340
 1762SOL     OW 8240   2.436   3.257  10.206  0.3174 -0.1770 -0.0848
 1762SOL    HW1 8241   2.403   3.250  10.296 -1.3102  0.8190 -0.5508
 1762SOL    HW2 8242   2.458   3.168  10.182 -0.6311 -0.6877  0.8243
 1763SOL     OW 8243   3.794   4.677   8.907  0.2598  0.2212  0.0751
 1763SOL    HW1 8244   3.825   4.761   8.872  0.7441  1.1797  2.5520
 1763SOL    HW2 8245   3.700   4.690   8.921  0.2727  0.2433  0.1435
 1764SOL     OW 8246   7.701   6.088   4.983  0.0006  0.2501 -0.1348
 1764SOL    HW1 8247   7.724   6.136   5.062 -1.6319  0.7198  0.0886
 1764SOL    HW2 8248   7.693   6.156   4.916  3.5050 -0.3075 -1.3436
 1765SOL     OW 8249   9.917   6.298   8.978  0.0519 -0.0387 -0.2362
 1765SOL    HW1 8250   9.899   6.392   8.969  0.9312  0.1731  0.1162
 1765SOL    HW2 8251   9.831   6.259   8.996 -0.2351  0.7814  0.2343
 1766SOL     OW 8252   2.082   7.224   4.344 -0.5088 -0.1294  0.1528
 1766SOL    HW1 8253   2.106   7.132   4.344 -2.6206 -0.7288  0.0559
 1766SOL    HW2 8254   2.131   7.262   4.271 -0.4305 -1.4277 -0.4984
 1767SOL     OW 8255   8.997   6.853   6.406  0.0795  0.3063  0.0490
 1767SOL    HW1 8256   9.054   6.923   6.437  2.2025 -1.3292  0.0632
 1767SOL    HW2 8257   9.037   6.773   6.438 -0.9704 -1.0800 -1.8718
 1768SOL     OW 8258   8.312   7.337   5.196 -0.6097 -0.2338  0.1964
 1768SOL    HW1 8259   8.349   7.367   5.113  0.5172  0.5319  0.9661
 1768SOL    HW2 8260   8.217   7.336   5.180 -0.4381  0.2725 -0.9699
 1769SOL     OW 8261  10.113   2.426   1.571 -0.0233  0.2466 -0.2377
 1769SOL    HW1 8262  10.127   2.389   1.658  0.1200  2.1892  0.6186
 1769SOL    HW2 8263  10.168   2.373   1.513  2.1961  0.7311  1.3300
 1770SOL     OW 8264   6.830   9.967   0.740  0.2456 -0.4601 -0.0956
 1770SOL    HW1 8265   6.769   9.904   0.701 -1.1026  0.8733 -0.2035
 1770SOL    HW2 8266   6.859  10.022   0.668 -1.5825  1.4541  0.5319
 1771SOL     OW 8267   8.888  10.367   0.882 -0.1885 -0.0603 -0.2760
 1771SOL    HW1 8268   8.804  10.358   0.928  1.1268 -1.5716  2.0109
 1771SOL    HW2 8269   8.934  10.436   0.930  0.9442 -1.1947  0.3485
 1772SOL     OW 8270   2.848   1.105   7.579 -0.0237 -0.2819  0.6171
 1772SOL    HW1 8271   2.836   1.035   7.515  0.1491  2.2854 -2.4993
 1772SOL    HW2 8272   2.760   1.138   7.595  0.0848  0.0870  0.4591
 1773SOL     OW 8273   3.985   3.836   3.224  0.5987 -0.4800 -0.3116
 1773SOL    HW1 8274   3.995   3.741   3.219  1.2907 -0.5595  1.5881
 1773SOL    HW2 8275   4.062   3.871   3.177  1.2245 -0.9015  0.3729
 1774SOL     OW 8276   4.604   9.406   0.693 -0.3609 -0.1838  0.5547
 1774SOL    HW1 8277   4.546   9.482   0.693 -0.1790 -0.0217 -0.5411
 1774SOL    HW2 8278   4.630   9.396   0.784  0.8072  2.0194  0.5532
 1775SOL     OW 8279  10.211   2.085   0.066  0.1875  0.3240  0.4621
 1775SOL    HW1 8280  10.214   2.031   0.144 -0.6538 -1.2514 -0.5498
 1775SOL    HW2 8281  10.262   2.036   0.001  1.0183  1.6840  0.0378
 1776SOL     OW 8282   8.493   0.657   1.464 -0.0781 -0.0638  0.1083
 1776SOL    HW1 8283   8.536   0.635   1.381  1.0738  2.5198 -0.0540
 1776SOL    HW2 8284   8.491   0.574   1.512  1.1563 -1.1803 -1.6334
 1777SOL     OW 8285   0.257   9.576   4.679  0.4827  0.0618 -0.1016
 1777SOL    HW1 8286   0.202   9.650   4.706 -0.4496  0.2596 -2.3087
 1777SOL    HW2 8287   0.197   9.502   4.673  1.1417 -0.5580  0.7042
 1778SOL     OW 8288   6.913   8.149   4.392  0.8290  0.6428 -0.3699
 1778SOL    HW1 8289   6.982   8.114   4.336  1.9330  0.1651  1.2326
 1778SOL    HW2 8290   6.842   8.085   4.386  0.3969  1.2310 -2.1714
 1779SOL     OW 8291   7.870   5.398  10.469  0.1546  0.3072 -0.8268
 1779SOL    HW1 8292   7.809   5.401  10.395 -2.2208 -2.8494  0.7464
 1779SOL    HW2 8293   7.825   5.443  10.540  0.2911 -0.6975 -0.0688
 1780SOL     OW 8294   2.971   0.559   3.454  0.6592 -0.1435 -0.4113
 1780SOL    HW1 8295   3.006   0.629   3.399  0.0020  0.2069 -0.3815
 1780SOL    HW2 8296   2.947   0.602   3.535 -0.7996 -0.1917 -0.7984
 1781SOL     OW 8297   4.362   1.566   7.920 -0.5349  0.1924  0.5576
 1781SOL    HW1 8298   4.451   1.580   7.954  0.1710  1.0488 -1.4241
 1781SOL    HW2 8299   4.367   1.599   7.830 -1.8553 -3.1842 -0.8901
 1782SOL     OW 8300   3.188   5.609   0.973  0.0745  0.2317  0.0366
 1782SOL    HW1 8301   3.185   5.564   1.057  0.0758  0.4392  0.1473
 1782SOL    HW2 8302   3.148   5.547   0.911 -3.2871  1.4303  0.8162
 1783SOL     OW 8303   7.974   7.423   4.272 -0.2555  0.4891  0.1606
 1783SOL    HW1 8304   7.979   7.330   4.294  1.4975 -0.1493 -2.4280
 1783SOL    HW2 8305   8.035   7.465   4.332  0.9675 -0.4819 -0.3446
 1784SOL     OW 8306   6.435   4.969   7.497  0.3257 -0.3825 -0.1793
 1784SOL    HW1 8307   6.359   5.020   7.526  0.2004 -0.6706  0.0091
 1784SOL    HW2 8308   6.453   4.910   7.570  0.6164 -0.4414 -0.2993
 1785SOL     OW 8309   6.649  10.377   5.909  0.3478 -0.2970  0.0912
 1785SOL    HW1 8310   6.727  10.416   5.948  0.6045 -0.6600 -0.0477
 1785SOL    HW2 8311   6.680  10.292   5.875  0.1464  0.0168 -0.9260
 1786SOL     OW 8312   6.659   0.959   3.025  0.2042 -0.3944 -0.0849
 1786SOL    HW1 8313   6.637   0.957   2.932 -1.3341 -0.7446  0.2631
 1786SOL    HW2 8314   6.590   1.012   3.065  0.4135 -0.8816  0.9520
 1787SOL     OW 8315   0.952   2.175   5.941 -0.1453 -0.0984 -0.4322
 1787SOL    HW1 8316   0.927   2.198   5.852 -1.1682 -1.4625 -0.5265
 1787SOL    HW2 8317   1.035   2.128   5.932  0.8984  1.6403 -0.4196
 1788SOL     OW 8318   5.960   8.677   6.170 -0.0393  0.0947 -0.3505
 1788SOL    HW1 8319   5.904   8.653   6.243 -0.0379 -0.6229 -0.5775
 1788SOL    HW2 8320   6.047   8.644   6.194 -0.5189 -2.4110 -1.7349
 1789SOL     OW 8321   0.345  10.352   5.745 -0.0136 -0.3779  1.1750
 1789SOL    HW1 8322   0.417  10.305   5.703  0.6653  2.2822 -0.9172
 1789SOL    HW2 8323   0.387  10.405   5.813  0.0323  0.9230  0.1759
 1790SOL     OW 8324   7.505   4.771   5.483  0.5641 -0.4956 -0.4988
 1790SOL    HW1 8325   7.504   4.856   5.527 -1.3950  0.5249 -2.3379
 1790SOL    HW2 8326   7.420   4.732   5.505  0.8247 -1.3066 -0.8949
 1791SOL     OW 8327   6.742   7.837   7.297 -0.3049 -0.1693 -0.1242
 1791SOL    HW1 8328   6.706   7.751   7.277  0.6632 -0.3000 -1.4124
 1791SOL    HW2 8329   6.826   7.820   7.340 -0.5169  0.1413  0.4305
 1792SOL     OW 8330   6.277   9.958   8.659 -0.5308  0.3009 -0.0394
 1792SOL    HW1 8331   6.293   9.874   8.703  0.3180  0.2484 -0.4108
 1792SOL    HW2 8332   6.207   9.999   8.709  0.1204  0.0540  1.1020
 1793SOL     OW 8333   2.815   1.189   7.063 -0.5690 -0.2691  0.3643
 1793SOL    HW1 8334   2.834   1.097   7.044 -2.2556 -0.5853  0.0356
 1793SOL    HW2 8335   2.843   1.236   6.985 -3.5733 -1.0573 -1.3395
 1794SOL     OW 8336   6.897  10.498   2.351 -0.8349  0.4072 -0.4362
 1794SOL    HW1 8337   6.881  10.553   2.428 -2.4316  0.0078 -0.4388
 1794SOL    HW2 8338   6.929  10.559   2.284  0.4146  0.7859  0.4777
 1795SOL     OW 8339   1.192   9.980   5.143 -0.2502  0.3649 -0.1907
 1795SOL    HW1 8340   1.261  10.040   5.169  0.3623 -0.5129  0.2300
 1795SOL    HW2 8341   1.205   9.967   5.049  1.2291 -1.1089  0.1757
 1796SOL     OW 8342   5.019   0.109   6.972 -0.3482  0.3873  0.2092
 1796SOL    HW1 8343   4.986   0.125   6.884  0.5502 -1.8865 -0.6189
 1796SOL    HW2 8344   5.114   0.097   6.960 -0.3968 -1.3496  1.2364
 1797SOL     OW 8345   1.622   0.609   9.429  0.1789  0.4949  0.1360
 1797SOL    HW1 8346   1.708   0.608   9.472 -0.7116  0.7202  2.0102
 1797SOL    HW2 8347   1.634   0.557   9.350  1.2661 -2.1424  1.9074
 1798SOL     OW 8348   9.670   4.563   8.387 -0.2805  0.1085 -0.4626
 1798SOL    HW1 8349   9.576   4.548   8.395 -0.4629  1.4223  0.3235
 1798SOL    HW2 8350   9.677   4.637   8.327  0.2677 -0.1400 -0.7100
 1799SOL     OW 8351  10.619   5.177  10.102 -0.3902 -0.3834  0.0024
 1799SOL    HW1 8352  10.590   5.171  10.193  1.2666  0.7225  0.6518
 1799SOL    HW2 8353  10.703   5.223  10.107 -0.6075  0.3278 -2.1607
 1800SOL     OW 8354   5.053   2.465   2.089  0.0595  0.4756 -0.2235
 1800SOL    HW1 8355   5.138   2.510   2.088  0.0952  0.4144 -0.0357
 1800SOL    HW2 8356   5.000   2.511   2.024  0.3669  0.2613 -0.6332
 1801SOL     OW 8357   8.978   2.869   0.366  0.0179 -0.2652 -0.5411
 1801SOL    HW1 8358   8.932   2.916   0.435  0.0933  0.7215 -1.1443
 1801SOL    HW2 8359   9.025   2.799   0.412 -0.6389 -0.1777  0.2864
 1802SOL     OW 8360   3.512   7.315   0.379  0.0405 -0.2923 -0.6892
 1802SOL    HW1 8361   3.602   7.325   0.410 -0.1787  1.7134 -0.5524
 1802SOL    HW2 8362   3.518   7.325   0.284  0.0090 -0.6378 -0.7297
 1803SOL     OW 8363   8.498   2.546   7.465  0.4002 -0.0885  0.1845
 1803SOL    HW1 8364   8.511   2.598   7.386 -0.0508  0.5203  0.5022
 1803SOL    HW2 8365   8.586   2.537   7.503  0.5088  0.2825  0.0248
 1804SOL     OW 8366   8.717   5.145   3.882 -0.5612  0.0695  0.1276
 1804SOL    HW1 8367   8.683   5.201   3.952  0.9582 -0.3530  1.2682
 1804SOL    HW2 8368   8.655   5.072   3.877 -0.9839  0.3887  0.6623
 1805SOL     OW 8369   1.978   7.955   3.263  0.2095  0.6339  0.3107
 1805SOL    HW1 8370   2.040   8.000   3.205  1.0079 -1.1694 -0.3117
 1805SOL    HW2 8371   2.031   7.931   3.339 -0.5756  2.0215  1.3450
 1806SOL     OW 8372  10.626   6.042   5.654  0.3202  0.2500 -0.7551
 1806SOL    HW1 8373  10.571   6.115   5.683  0.3830  0.1350 -0.3432
 1806SOL    HW2 8374  10.563   5.976   5.624  0.2608  0.4324 -1.0417
 1807SOL     OW 8375   2.072   6.332   5.764 -0.2332 -0.7052 -0.0445
 1807SOL    HW1 8376   2.001   6.268   5.776  0.3272 -1.1745  0.9288
 1807SOL    HW2 8377   2.142   6.282   5.722 -0.2483 -0.4075 -0.4221
 1808SOL     OW 8378   1.589   6.999   6.363  0.0315 -0.4035 -0.1930
 1808SOL    HW1 8379   1.648   6.928   6.392  1.9172  0.2410 -2.1639
 1808SOL    HW2 8380   1.641   7.079   6.374 -0.6816  0.2621 -1.4724
 1809SOL     OW 8381   2.532   2.371   5.160 -0.0634 -0.4118  0.2089
 1809SOL    HW1 8382   2.469   2.355   5.230 -2.6791 -3.3581 -2.5125
 1809SOL    HW2 8383   2.512   2.459   5.129 -2.0723 -0.8215  0.2174
 1810SOL     OW 8384   9.642   1.024   8.572  0.1031 -0.1294  0.5640
 1810SOL    HW1 8385   9.669   1.021   8.664  2.7060  1.9715 -0.0183
 1810SOL    HW2 8386   9.550   0.997   8.574  0.0707 -0.2082  3.7612
 1811SOL     OW 8387   4.347   4.200   6.472 -0.0263  0.7665 -0.2081
 1811SOL    HW1 8388   4.337   4.285   6.515 -0.7069 -0.5721  2.5153
 1811SOL    HW2 8389   4.417   4.157   6.520 -1.0946 -0.9662 -0.1050
 1812SOL     OW 8390   7.130  10.486   1.494  0.3702 -0.4408 -0.1687
 1812SOL    HW1 8391   7.218  10.513   1.470 -0.3496  1.4227 -0.9114
 1812SOL    HW2 8392   7.102  10.428   1.422 -0.0748  1.3909 -1.5372
 1813SOL     OW 8393   3.241   3.597   8.534  0.4155  0.3768  0.5122
 1813SOL    HW1 8394   3.302   3.526   8.513 -0.8779 -0.7933  0.5376
 1813SOL    HW2 8395   3.296   3.675   8.540  1.8852 -0.6059  0.4343
 1814SOL     OW 8396   4.628   8.199   4.306 -0.0658 -0.4870  0.0943
 1814SOL    HW1 8397   4.653   8.123   4.358  2.8611  0.0272 -0.3721
 1814SOL    HW2 8398   4.571   8.164   4.237  0.0609 -1.9916  0.7297
 1815SOL     OW 8399   2.922   3.782   2.608 -0.2817  0.5056  0.1597
 1815SOL    HW1 8400   3.015   3.771   2.624 -0.3359  1.5367  1.3213
 1815SOL    HW2 8401   2.897   3.704   2.558  1.1628  0.1680 -0.0800
 1816SOL     OW 8402   9.514   6.774  10.114  0.2742 -0.4254  0.2856
 1816SOL    HW1 8403   9.470   6.693  10.138  0.5945 -0.3907  0.9950
 1816SOL    HW2 8404   9.600   6.768  10.154  0.9729 -0.5409 -1.1909
 1817SOL     OW 8405   5.962   0.702   0.887  0.5747 -0.2999 -0.4860
 1817SOL    HW1 8406   5.912   0.676   0.965  0.0905 -0.7684 -0.9494
 1817SOL    HW2 8407   5.923   0.785   0.860 -0.4852 -1.0292 -1.2889
 1818SOL     OW 8408   5.146   6.090   8.983 -0.2574 -0.4560  0.6143
 1818SOL    HW1 8409   5.091   6.075   9.060 -1.4732 -0.7051 -0.2733
 1818SOL    HW2 8410   5.128   6.015   8.926  0.0713  0.0957 -0.2245
 1819SOL     OW 8411   0.504   5.931   1.456 -0.4458 -0.0235  0.3786
 1819SOL    HW1 8412   0.556   5.943   1.377 -0.5075  1.9926  0.5813
 1819SOL    HW2 8413   0.568   5.930   1.527 -0.4649 -0.7415  0.3871
 1820SOL     OW 8414   8.571   6.666   7.987 -0.0601  0.4722 -0.8188
 1820SOL    HW1 8415   8.542   6.660   8.079 -0.4579  1.2950 -0.8775
 1820SOL    HW2 8416   8.655   6.620   7.985 -0.8117 -0.9887 -0.3964
 1821SOL     OW 8417   4.808   7.289   8.360 -0.4488 -0.2112 -0.3246
 1821SOL    HW1 8418   4.890   7.293   8.311  0.1235 -0.0011  0.6275
 1821SOL    HW2 8419   4.813   7.362   8.421 -0.4905 -1.3298  1.0483
 1822SOL     OW 8420   0.347  10.344   3.162 -0.2711 -0.0916  0.3584
 1822SOL    HW1 8421   0.292  10.317   3.089  1.8493 -0.5975 -1.1528
 1822SOL    HW2 8422   0.423  10.285   3.159  1.2347  1.6731  1.2033
 1823SOL     OW 8423   8.534   1.685  10.393 -0.2313 -0.3406 -0.4280
 1823SOL    HW1 8424   8.497   1.759  10.440 -0.9062 -0.8875 -0.0754
 1823SOL    HW2 8425   8.460   1.625  10.380  0.2083 -0.7620 -1.0797
 1824SOL     OW 8426   2.145   6.621   4.398 -0.0020  0.0990  0.3750
 1824SOL    HW1 8427   2.132   6.644   4.490 -0.6748 -1.2192  0.6287
 1824SOL    HW2 8428   2.084   6.550   4.382  0.7442 -0.2886 -0.8578
 1825SOL     OW 8429   6.901   7.378   1.500 -0.3161 -0.2424 -0.3743
 1825SOL    HW1 8430   6.982   7.360   1.549  0.0264  0.4314 -0.6823
 1825SOL    HW2 8431   6.925   7.367   1.408 -0.5149  0.1814 -0.4808
 1826SOL     OW 8432   8.893   7.559   3.218 -0.6548 -0.1186  0.0903
 1826SOL    HW1 8433   8.864   7.604   3.138 -2.2544 -1.1803  0.0263
 1826SOL    HW2 8434   8.970   7.508   3.191 -1.9991 -1.5821 -1.1788
 1827SOL     OW 8435   2.093   5.699   6.027  0.1996  0.4302 -0.2788
 1827SOL    HW1 8436   2.001   5.699   5.999  0.5461  0.6230 -1.4691
 1827SOL    HW2 8437   2.118   5.607   6.027 -0.1551  0.3225  0.6443
 1828SOL     OW 8438   6.653   6.964   6.020 -0.7051  0.0019 -0.4317
 1828SOL    HW1 8439   6.688   7.039   6.068 -1.5690 -1.6039  2.9943
 1828SOL    HW2 8440   6.717   6.950   5.949  2.9680  0.2331  2.5226
 1829SOL     OW 8441   7.762   0.948   1.024  0.7756  0.4112 -0.1078
 1829SOL    HW1 8442   7.824   0.896   1.075  1.9813  1.2792 -0.6577
 1829SOL    HW2 8443   7.735   0.889   0.953  1.8505  0.3856 -0.5167
 1830SOL     OW 8444   9.386  10.024   7.498 -0.0919 -0.3361  0.4402
 1830SOL    HW1 8445   9.385   9.974   7.417 -0.5406  0.0541  0.1943
 1830SOL    HW2 8446   9.433   9.969   7.561  0.3992 -0.5692 -0.1275
 1831SOL     OW 8447   7.174   5.101   8.443  0.1256 -0.0414 -0.0225
 1831SOL    HW1 8448   7.256   5.150   8.443  0.2016 -0.1650  0.2444
 1831SOL    HW2 8449   7.146   5.101   8.535 -1.9110  2.8790 -0.5242
 1832SOL     OW 8450   4.073   9.155   8.775 -0.9199 -0.2269 -0.0785
 1832SOL    HW1 8451   4.069   9.122   8.686 -1.1017 -3.3322  0.9473
 1832SOL    HW2 8452   4.132   9.094   8.820 -1.3405  0.8641  2.0758
 1833SOL     OW 8453   2.857   3.571   2.425 -0.0756  0.3042 -0.2215
 1833SOL    HW1 8454   2.919   3.503   2.453  0.3687  0.9555  0.4551
 1833SOL    HW2 8455   2.783   3.524   2.389  0.7555 -0.5059 -0.9116
 1834SOL     OW 8456   8.467   3.276   2.143  0.1377  0.1792  0.1463
 1834SOL    HW1 8457   8.474   3.228   2.226 -0.3196 -1.1761 -0.5705
 1834SOL    HW2 8458   8.531   3.347   2.152  3.0210 -2.1864  0.1928
 1835SOL     OW 8459   8.915   4.300   7.995  0.2593  0.0419 -0.0485
 1835SOL    HW1 8460   9.007   4.311   8.020 -0.0865  1.9611  0.5319
 1835SOL    HW2 8461   8.888   4.219   8.039  2.1137 -1.6064 -1.7213
 1836SOL     OW 8462   7.962   4.588   3.208 -0.4703 -0.0416  0.3540
 1836SOL    HW1 8463   7.920   4.636   3.136 -0.7360  0.2770  0.7125
 1836SOL    HW2 8464   8.038   4.641   3.232  0.0859 -0.5698 -0.2314
 1837SOL     OW 8465   8.204   4.042   0.760 -0.2721  0.3886 -0.7015
 1837SOL    HW1 8466   8.249   3.980   0.703  1.0819  1.5243 -0.9186
 1837SOL    HW2 8467   8.269   4.110   0.778 -1.2165  0.9408  0.8065
 1838SOL     OW 8468   8.703   6.167   5.717 -0.7555 -0.2343  0.0947
 1838SOL    HW1 8469   8.734   6.079   5.739  0.1874  0.3346  1.1001
 1838SOL    HW2 8470   8.619   6.174   5.763 -1.0178 -0.7349 -0.2945
 1839SOL     OW 8471   8.674  10.569   0.305  0.6296  0.1461 -0.4528
 1839SOL    HW1 8472   8.673  10.502   0.236  0.2701  0.8291 -1.1177
 1839SOL    HW2 8473   8.666  10.519   0.386 -0.5854 -0.5674 -0.9826
 1840SOL     OW 8474   1.491  10.588   6.474 -0.0005  0.3814 -0.1462
 1840SOL    HW1 8475   1.495  10.508   6.526  0.3002  0.8549  0.5827
 1840SOL    HW2 8476   1.402  10.590   6.439 -0.2034  0.0473  0.3410
 1841SOL     OW 8477   1.917   0.107   8.591 -0.1382 -0.4358 -0.1985
 1841SOL    HW1 8478   1.929   0.061   8.508  2.1915 -0.7337  0.2254
 1841SOL    HW2 8479   1.930   0.199   8.569 -2.3511 -0.1713 -0.6109
 1842SOL     OW 8480   6.331   7.416   8.814  0.0073 -0.1522 -0.1572
 1842SOL    HW1 8481   6.344   7.386   8.724  1.6667  0.2447 -0.0869
 1842SOL    HW2 8482   6.265   7.356   8.850 -1.1946  0.1152 -1.8141
 1843SOL     OW 8483   6.678   3.190   8.826  0.1771  0.2255 -0.6036
 1843SOL    HW1 8484   6.670   3.285   8.817 -0.8978  0.2369  0.2109
 1843SOL    HW2 8485   6.705   3.176   8.916  0.2638 -0.2437 -0.6977
 1844SOL     OW 8486   6.528   4.668   1.912 -0.3268  0.5324  0.5336
 1844SOL    HW1 8487   6.565   4.751   1.883  0.2764 -0.0960 -0.5452
 1844SOL    HW2 8488   6.434   4.686   1.921 -0.4246  0.9747 -1.0890
 1845SOL     OW 8489   1.012   2.148   9.970  0.2712  0.0224 -0.0221
 1845SOL    HW1 8490   0.934   2.093   9.959 -0.3203  0.7953  0.2085
 1845SOL    HW2 8491   1.027   2.148  10.064 -0.4864  1.2555  0.1156
 1846SOL     OW 8492   0.955   4.478   9.769  0.2654 -0.0669  0.5078
 1846SOL    HW1 8493   0.926   4.536   9.699  0.2685  1.1574  1.4735
 1846SOL    HW2 8494   0.927   4.391   9.742 -0.7159  0.5324 -0.4775
 1847SOL     OW 8495   8.080   3.320   4.211  0.1941  0.0917  0.4064
 1847SOL    HW1 8496   8.046   3.304   4.123  0.4660  1.5872 -0.0019
 1847SOL    HW2 8497   8.173   3.298   4.205  0.3315  0.7013  0.1471
 1848SOL     OW 8498   5.643   7.639   2.278  0.6368 -0.2632 -0.1379
 1848SOL    HW1 8499   5.652   7.687   2.195  3.3255  1.5816  1.0811
 1848SOL    HW2 8500   5.591   7.697   2.334  1.1242 -0.2354  0.2982
 1849SOL     OW 8501   8.248   4.868   0.044 -0.4674 -0.0083  0.5238
 1849SOL    HW1 8502   8.251   4.854  -0.051 -0.6880  0.2299  0.4812
 1849SOL    HW2 8503   8.281   4.957   0.056 -1.7164  0.4737  0.5470
 1850SOL     OW 8504   9.452   1.729   1.821 -0.2114  0.6072  0.2412
 1850SOL    HW1 8505   9.527   1.702   1.767 -1.7401  1.4864 -2.4588
 1850SOL    HW2 8506   9.443   1.823   1.805 -1.4391  0.6721  1.1819
 1851SOL     OW 8507   5.135   1.985   6.277 -0.6272  0.3101  0.1150
 1851SOL    HW1 8508   5.190   1.993   6.354 -0.7731 -2.2016  0.5882
 1851SOL    HW2 8509   5.086   1.903   6.291 -1.9882  0.7107 -1.8179
 1852SOL     OW 8510  10.257   2.285  10.560 -0.1874 -0.3635  0.0812
 1852SOL    HW1 8511  10.245   2.257  10.651  0.8708 -0.5195  0.1878
 1852SOL    HW2 8512  10.176   2.261  10.516 -0.7210 -0.2650  0.9886
 1853SOL     OW 8513   0.447   7.801   8.811 -0.4946  0.0975  0.3120
 1853SOL    HW1 8514   0.529   7.757   8.789 -0.1352  1.5756 -1.5775
 1853SOL    HW2 8515   0.463   7.843   8.896  0.2774 -0.5971  0.5137
 1854SOL     OW 8516   3.912   6.493   5.924 -0.2992  0.6668 -0.3991
 1854SOL    HW1 8517   3.974   6.444   5.869  0.2304 -0.6829  1.2978
 1854SOL    HW2 8518   3.838   6.434   5.936 -0.6076  1.1170 -0.0327
 1855SOL     OW 8519   6.844   0.194   5.155 -0.4211  0.3042  0.1817
 1855SOL    HW1 8520   6.754   0.226   5.143 -0.7118 -0.2146  0.9087
 1855SOL    HW2 8521   6.890   0.224   5.077 -1.3915  0.0167 -0.5333
 1856SOL     OW 8522   0.406   0.520   4.329 -0.0398  0.1467  0.0471
 1856SOL    HW1 8523   0.473   0.460   4.297  0.1983  0.5531 -0.2173
 1856SOL    HW2 8524   0.397   0.586   4.260  2.1970  2.4321  1.7756
 1857SOL     OW 8525   1.828   7.285   8.440  0.5368 -0.0172 -0.2835
 1857SOL    HW1 8526   1.737   7.271   8.468  0.7025 -0.6968 -0.0648
 1857SOL    HW2 8527   1.876   7.300   8.522  0.5977  0.5184 -0.4118
 1858SOL     OW 8528   7.359   4.093   2.926  0.1084 -0.7433 -0.0255
 1858SOL    HW1 8529   7.376   4.185   2.949  0.6265 -1.2647  1.8909
 1858SOL    HW2 8530   7.303   4.098   2.849 -0.1871  1.1875  0.2482
 1859SOL     OW 8531   9.838   9.026   2.401 -0.4533  0.4481 -0.7637
 1859SOL    HW1 8532   9.860   9.068   2.484 -2.8429 -0.2180  0.3137
 1859SOL    HW2 8533   9.920   9.020   2.354  1.0487  0.6383  1.6615
 1860SOL     OW 8534   7.518   4.400   0.107  0.0800  0.8224 -0.0583
 1860SOL    HW1 8535   7.470   4.458   0.166  0.5976 -1.1852  2.5172
 1860SOL    HW2 8536   7.458   4.327   0.091  0.9707 -0.0131  0.3127
 1861SOL     OW 8537   0.427   7.145  10.115 -0.2899 -0.0528  0.1500
 1861SOL    HW1 8538   0.339   7.163  10.081  0.0805 -0.7632 -1.2740
 1861SOL    HW2 8539   0.438   7.051  10.104  0.3098 -0.1246  1.2248
 1862SOL     OW 8540   0.208  10.439   1.365 -0.1744 -0.1071 -0.2598
 1862SOL    HW1 8541   0.260  10.426   1.444  0.6153  0.8308 -0.6038
 1862SOL    HW2 8542   0.270  10.474   1.300 -1.3134  1.5898 -0.5074
 1863SOL     OW 8543   6.285   8.990   3.768  0.3683  0.4419  0.2287
 1863SOL    HW1 8544   6.278   9.032   3.682  0.9547 -1.9398 -1.0850
 1863SOL    HW2 8545   6.253   9.056   3.830 -0.3111  2.1555 -1.8178
 1864SOL     OW 8546  10.120   5.420   1.166 -0.7584 -0.1553 -0.5086
 1864SOL    HW1 8547  10.166   5.345   1.204  0.5736  1.2404  0.7794
 1864SOL    HW2 8548  10.149   5.494   1.218 -0.6117  1.5499 -2.8602
 1865SOL     OW 8549   5.262   5.243   6.904  0.2212 -0.6028 -0.5613
 1865SOL    HW1 8550   5.213   5.216   6.982  0.0954 -1.2532 -0.8564
 1865SOL    HW2 8551   5.349   5.204   6.916  0.1945 -0.7210 -0.7586
 1866SOL     OW 8552   7.856   1.887   9.717  0.7766 -0.4068  0.4049
 1866SOL    HW1 8553   7.843   1.977   9.746 -1.3928 -0.9151  1.1701
 1866SOL    HW2 8554   7.914   1.849   9.782  0.9614  0.1733  0.5865
 1867SOL     OW 8555  10.640   0.840   4.777  0.2192  0.0619 -0.3656
 1867SOL    HW1 8556  10.656   0.924   4.734 -1.3058  1.4547  1.5743
 1867SOL    HW2 8557  10.677   0.851   4.865  1.2759 -1.8628 -0.5282
 1868SOL     OW 8558   3.772   5.451   7.928 -0.7374 -0.1892 -0.0325
 1868SOL    HW1 8559   3.807   5.362   7.917 -0.0736  0.1534 -0.8368
 1868SOL    HW2 8560   3.714   5.464   7.853  0.7436  0.7567 -1.0814
 1869SOL     OW 8561   0.214   5.553  10.143 -0.1272 -0.2317 -0.0152
 1869SOL    HW1 8562   0.132   5.600  10.157  0.7349  0.8424  2.0233
 1869SOL    HW2 8563   0.278   5.622  10.124  0.6216 -0.8683  0.1410
 1870SOL     OW 8564   1.947   1.907   1.189  0.4730  0.1897 -0.2222
 1870SOL    HW1 8565   1.930   1.909   1.283  0.2846  2.6607 -0.2387
 1870SOL    HW2 8566   1.880   1.849   1.153 -0.2936  0.2745  1.0173
 1871SOL     OW 8567   0.196   9.233   9.646 -0.5937  0.1545 -0.5903
 1871SOL    HW1 8568   0.157   9.240   9.559 -0.0179 -0.4837 -0.9040
 1871SOL    HW2 8569   0.136   9.174   9.694 -0.0582 -0.7952 -1.0609
 1872SOL     OW 8570   3.408   6.622   1.527 -0.3573 -0.0666 -0.1189
 1872SOL    HW1 8571   3.335   6.621   1.466 -1.1184  1.7161  0.7006
 1872SOL    HW2 8572   3.481   6.659   1.477 -0.5534 -0.0329 -0.3776
 1873SOL     OW 8573   1.525   8.528   1.322 -0.3311 -0.3560 -0.5013
 1873SOL    HW1 8574   1.557   8.618   1.336 -0.0774 -0.6699  1.1885
 1873SOL    HW2 8575   1.518   8.492   1.410 -3.2368 -1.0640 -0.9200
 1874SOL     OW 8576   4.483   6.562   7.075  0.4295 -0.6952 -0.4729
 1874SOL    HW1 8577   4.407   6.504   7.080  0.7469 -1.2344 -1.6496
 1874SOL    HW2 8578   4.558   6.503   7.071  0.7345 -0.2573 -2.1090
 1875SOL     OW 8579   8.144   7.996   8.489 -0.3570 -0.2643  0.5453
 1875SOL    HW1 8580   8.229   8.007   8.447 -0.8356 -0.8884 -0.6395
 1875SOL    HW2 8581   8.098   8.078   8.470 -1.2112 -1.1994 -1.7710
 1876SOL     OW 8582   5.916   9.703   8.819 -0.1678  0.4178  0.3282
 1876SOL    HW1 8583   5.991   9.693   8.760  0.4456  1.5572  0.8636
 1876SOL    HW2 8584   5.844   9.658   8.775  1.2174 -2.2223  0.5835
 1877SOL     OW 8585   1.449  10.563   4.336 -0.2795 -0.3892  0.8806
 1877SOL    HW1 8586   1.510  10.606   4.276 -0.4796  0.5504  1.3432
 1877SOL    HW2 8587   1.505  10.509   4.391  0.1335  0.3799  1.2283
 1878SOL     OW 8588   8.812   7.690   8.394 -0.1053 -0.4630 -0.1060
 1878SOL    HW1 8589   8.782   7.681   8.484  1.9321  0.9185  0.8036
 1878SOL    HW2 8590   8.888   7.632   8.387  0.7764  0.6835 -0.3778
 1879SOL     OW 8591   1.993   1.086   3.750  0.5247  0.1182 -0.1651
 1879SOL    HW1 8592   2.078   1.055   3.782  0.7910  0.4031 -0.5790
 1879SOL    HW2 8593   2.013   1.126   3.665 -0.0515  0.0450 -0.3378
 1880SOL     OW 8594   4.263  10.626   5.859  0.5031 -0.2498  0.2324
 1880SOL    HW1 8595   4.321  10.634   5.783 -0.6847 -3.1093 -1.0993
 1880SOL    HW2 8596   4.177  10.652   5.827  0.3123  0.3347  1.1630
 1881SOL     OW 8597   6.171   8.214   9.810 -0.2190 -0.0137  0.2551
 1881SOL    HW1 8598   6.158   8.135   9.757  2.4065 -1.1428  1.1068
 1881SOL    HW2 8599   6.215   8.183   9.889 -0.0187  2.1907  1.0816
 1882SOL     OW 8600   9.854   1.804   6.628 -0.1528  0.0545  0.7962
 1882SOL    HW1 8601   9.870   1.715   6.659  2.4808  0.7705  1.7018
 1882SOL    HW2 8602   9.864   1.858   6.706 -0.9268  1.2363  0.0970
 1883SOL     OW 8603   3.255   6.197   4.542 -0.6477 -0.1971  0.6976
 1883SOL    HW1 8604   3.282   6.240   4.462  0.8635 -0.2575  1.1507
 1883SOL    HW2 8605   3.320   6.223   4.607 -1.6381 -0.4311  1.8292
 1884SOL     OW 8606   9.749   8.038   5.788  0.4254  0.1915 -0.5168
 1884SOL    HW1 8607   9.737   7.988   5.869  2.3756 -3.0730 -2.0533
 1884SOL    HW2 8608   9.686   7.999   5.727 -0.7474  2.3442 -0.7628
 1885SOL     OW 8609   1.178  10.432   5.274 -0.1504  0.5001 -0.1793
 1885SOL    HW1 8610   1.094  10.461   5.310 -0.7976 -0.6834 -0.6980
 1885SOL    HW2 8611   1.204  10.358   5.328  0.4997  0.7687 -0.1109
 1886SOL     OW 8612   3.056   8.660   1.919 -0.0197 -0.3407  0.1942
 1886SOL    HW1 8613   3.063   8.753   1.897 -1.0440 -0.1628  0.5631
 1886SOL    HW2 8614   3.139   8.623   1.891 -0.4900  0.2311 -2.2194
 1887SOL     OW 8615   5.205   2.726   9.207 -0.5135  0.0250 -0.1050
 1887SOL    HW1 8616   5.177   2.646   9.252  1.0483 -0.3922  0.1769
 1887SOL    HW2 8617   5.289   2.748   9.247 -1.0397  1.9881  0.0248
 1888SOL     OW 8618   5.186   5.781   4.880 -0.4550  0.4759 -0.4850
 1888SOL    HW1 8619   5.138   5.861   4.859 -0.1408  0.3275 -1.8256
 1888SOL    HW2 8620   5.128   5.711   4.852  0.1247  0.2817 -1.2366
 1889SOL     OW 8621   1.673   8.095  10.624  0.1661 -0.3814  0.7439
 1889SOL    HW1 8622   1.600   8.052  10.668 -1.3614  1.1131 -0.1459
 1889SOL    HW2 8623   1.751   8.050  10.655 -1.0693 -1.5030  2.3977
 1890SOL     OW 8624   3.941   9.172   2.779 -0.4068 -0.3271 -0.1362
 1890SOL    HW1 8625   3.963   9.157   2.687 -1.0244 -0.9186 -0.1889
 1890SOL    HW2 8626   4.008   9.233   2.809  1.4093 -2.1707 -0.2457
 1891SOL     OW 8627   9.113   1.007   3.048 -0.0882 -0.0213 -0.4682
 1891SOL    HW1 8628   9.073   1.076   3.102  0.2032  0.0662 -0.3638
 1891SOL    HW2 8629   9.132   1.049   2.965 -0.1459 -0.0429 -0.4920
 1892SOL     OW 8630   1.957   3.581   8.915  0.0049  0.5767  0.0833
 1892SOL    HW1 8631   1.882   3.547   8.963  0.1268  1.3120  0.8199
 1892SOL    HW2 8632   1.963   3.673   8.941 -0.1024  1.0919 -1.5825
 1893SOL     OW 8633   5.435   9.700   5.606  0.2164 -0.0350  0.1807
 1893SOL    HW1 8634   5.527   9.682   5.586 -0.3491 -3.2481 -0.0245
 1893SOL    HW2 8635   5.433   9.709   5.702  0.7439  0.1464  0.1802
 1894SOL     OW 8636   7.270   2.503   0.474 -0.0323 -0.2248 -0.4620
 1894SOL    HW1 8637   7.196   2.444   0.492 -0.5195  0.1964 -1.0647
 1894SOL    HW2 8638   7.230   2.581   0.436  0.4997  0.9066  1.1861
 1895SOL     OW 8639   1.975   1.498   4.886  0.5850  0.5780  0.0703
 1895SOL    HW1 8640   1.950   1.523   4.796  1.2622  0.3225 -0.1907
 1895SOL    HW2 8641   1.923   1.556   4.941 -0.4301  0.2102 -0.4674
 1896SOL     OW 8642   9.737   7.168   1.758  0.4274  0.0692 -0.6474
 1896SOL    HW1 8643   9.651   7.128   1.772  0.1794  0.5768 -0.6985
 1896SOL    HW2 8644   9.799   7.097   1.773  0.0788  0.0556  0.9092
 1897SOL     OW 8645   6.805   5.917  10.031  0.5311 -0.8158 -0.1043
 1897SOL    HW1 8646   6.771   5.889   9.946 -0.3496 -0.9258  0.2717
 1897SOL    HW2 8647   6.727   5.945  10.080  1.0035 -0.9094  0.7200
 1898SOL     OW 8648   7.061  10.316   3.475  0.4861  0.2322  0.1033
 1898SOL    HW1 8649   7.036  10.242   3.419 -0.9398  1.1173 -0.4900
 1898SOL    HW2 8650   6.993  10.318   3.543  0.8965  0.5802  0.5037
 1899SOL     OW 8651   6.719   1.788   0.527  0.1428 -0.1502 -0.4127
 1899SOL    HW1 8652   6.785   1.761   0.591  0.5832  3.4549  0.8398
 1899SOL    HW2 8653   6.767   1.838   0.462 -0.9968  0.2617 -0.9623
 1900SOL     OW 8654   8.850   8.164   9.517 -1.1733  0.6909 -0.1513
 1900SOL    HW1 8655   8.881   8.250   9.547  0.3191  0.4184 -0.8100
 1900SOL    HW2 8656   8.918   8.134   9.456 -0.8551 -1.6372  1.2038
 1901SOL     OW 8657   0.186   6.969  10.277 -0.9006 -0.1552 -0.1718
 1901SOL    HW1 8658   0.219   7.039  10.222 -0.5954 -0.1468  0.0221
 1901SOL    HW2 8659   0.159   6.900  10.215 -3.2333  0.9664 -0.5082
 1902SOL     OW 8660   2.292   6.084   9.372 -0.0689  0.1025 -0.2842
 1902SOL    HW1 8661   2.255   6.089   9.460  0.0492 -0.2432 -0.2161
 1902SOL    HW2 8662   2.352   6.010   9.374  2.6256  2.1302  0.3595
 1903SOL     OW 8663   3.880   2.063  10.058  0.1457  0.3713 -0.8646
 1903SOL    HW1 8664   3.806   2.063   9.998 -0.7928  0.9902  0.2602
 1903SOL    HW2 8665   3.849   2.110  10.135  1.9328  1.2783 -0.6415
 1904SOL     OW 8666   8.046   1.480   9.293 -0.0949  0.2471 -0.3494
 1904SOL    HW1 8667   8.076   1.557   9.244 -0.1116  0.4553 -0.0370
 1904SOL    HW2 8668   7.950   1.488   9.292 -0.1125  0.0024 -0.6783
 1905SOL     OW 8669   4.519   9.807   9.436 -0.1016 -0.1788  0.0833
 1905SOL    HW1 8670   4.462   9.852   9.498  0.1455  0.5245 -0.1823
 1905SOL    HW2 8671   4.507   9.714   9.455 -0.5128  0.0015  0.7497
 1906SOL     OW 8672   1.218  10.292   1.178  0.4145 -0.6710 -0.1612
 1906SOL    HW1 8673   1.277  10.223   1.208 -1.0766 -1.0662  2.0979
 1906SOL    HW2 8674   1.135  10.273   1.221 -0.8457  0.9448 -1.7363
 1907SOL     OW 8675   6.088   2.603   8.401  0.0832 -0.1646 -0.2442
 1907SOL    HW1 8676   6.105   2.678   8.344 -1.5560  0.7698  0.4319
 1907SOL    HW2 8677   5.994   2.587   8.392  0.4072 -2.2292 -0.4469
 1908SOL     OW 8678   4.389   9.581   9.571 -0.5191 -0.5268 -0.1715
 1908SOL    HW1 8679   4.364   9.626   9.651  1.0652  1.8347 -0.9051
 1908SOL    HW2 8680   4.475   9.543   9.591 -0.4665 -0.5963 -0.5188
 1909SOL     OW 8681   3.567   9.085   2.639  0.2350 -0.0980 -0.3321
 1909SOL    HW1 8682   3.612   9.144   2.579  0.1373  1.0568  0.6747
 1909SOL    HW2 8683   3.507   9.035   2.584  0.3277  0.7494 -1.2243
 1910SOL     OW 8684   6.166  10.332   9.538  0.0797 -0.1328  0.3482
 1910SOL    HW1 8685   6.250  10.363   9.503 -0.9188  0.7039 -1.4241
 1910SOL    HW2 8686   6.185  10.310   9.629  2.1333  0.3926  0.0963
 1911SOL     OW 8687   0.053   5.042   4.990  0.0802  0.4303 -0.6666
 1911SOL    HW1 8688   0.002   5.065   4.913 -0.7132  1.2662  0.0725
 1911SOL    HW2 8689   0.125   5.105   4.992  0.0766  0.4350 -0.7025
 1912SOL     OW 8690   0.407   4.289   4.278  0.0871 -0.7726 -0.4367
 1912SOL    HW1 8691   0.500   4.274   4.264  0.6529  0.7257  1.3584
 1912SOL    HW2 8692   0.385   4.362   4.221  0.5546  0.2817  0.6978
 1913SOL     OW 8693   0.045   0.157  10.206 -1.0627  0.3502 -0.1886
 1913SOL    HW1 8694  -0.014   0.141  10.132 -2.1584 -0.4484  0.8174
 1913SOL    HW2 8695  -0.004   0.218  10.261 -2.0680 -2.0835  1.8239
 1914SOL     OW 8696   9.682   0.684  10.436  0.0173 -0.1488  0.3724
 1914SOL    HW1 8697   9.657   0.649  10.522 -1.3066 -1.3018 -0.4533
 1914SOL    HW2 8698   9.675   0.609  10.377 -0.6020  0.9872 -1.0346
 1915SOL     OW 8699   2.212   5.650   0.882 -0.3876  0.8187  0.3582
 1915SOL    HW1 8700   2.304   5.668   0.902 -0.4938  1.4761  0.2460
 1915SOL    HW2 8701   2.171   5.736   0.876 -0.8425  0.5516 -0.4024
 1916SOL     OW 8702   2.478   7.194   8.295  0.4629 -0.4451 -0.2025
 1916SOL    HW1 8703   2.396   7.244   8.296 -0.1803 -1.4682  0.3755
 1916SOL    HW2 8704   2.540   7.249   8.248  0.2958  1.6999  1.9245
 1917SOL     OW 8705   4.386   9.478   7.378 -0.1333  0.2133 -0.3815
 1917SOL    HW1 8706   4.419   9.506   7.293 -0.7725 -0.7112 -0.9383
 1917SOL    HW2 8707   4.395   9.383   7.378  1.1302  0.2820  1.1205
 1918SOL     OW 8708   9.827  10.679   3.710  0.7189 -0.1270 -0.2039
 1918SOL    HW1 8709   9.887  10.689   3.636  2.0057 -0.9269  0.6823
 1918SOL    HW2 8710   9.876  10.716   3.784 -0.5750  0.7319  0.2526
 1919SOL     OW 8711   5.683   1.185   4.607 -0.3572  0.2130 -0.2098
 1919SOL    HW1 8712   5.590   1.186   4.586 -0.1823 -0.3699 -1.0816
 1919SOL    HW2 8713   5.726   1.167   4.524  0.3970 -2.0616  0.5812
 1920SOL     OW 8714   3.411   2.807   5.166  0.2697 -0.1641 -0.2956
 1920SOL    HW1 8715   3.379   2.850   5.245 -0.2935 -0.1264 -0.5352
 1920SOL    HW2 8716   3.489   2.760   5.194  1.0766  1.2518 -0.0889
 1921SOL     OW 8717   7.583   7.411   8.337  0.0818 -0.3282  0.1298
 1921SOL    HW1 8718   7.498   7.442   8.307  0.1430 -0.8632 -0.6525
 1921SOL    HW2 8719   7.585   7.431   8.430 -0.8168 -0.1230  0.1155
 1922SOL     OW 8720   0.154   0.345  10.023  0.7111  0.0128  0.4073
 1922SOL    HW1 8721   0.118   0.276  10.078  4.0400 -0.8985  1.6789
 1922SOL    HW2 8722   0.214   0.300   9.963 -0.6637  1.3345 -2.1645
 1923SOL     OW 8723   7.471   3.366   9.755 -0.4161  0.0789 -0.3773
 1923SOL    HW1 8724   7.480   3.359   9.850  0.1219  2.4807 -0.1679
 1923SOL    HW2 8725   7.524   3.294   9.720  0.7528  0.1532  1.1483
 1924SOL     OW 8726   4.760   2.775   4.058  0.1894 -0.2354 -0.1434
 1924SOL    HW1 8727   4.677   2.817   4.037  0.2428  0.4096  0.8623
 1924SOL    HW2 8728   4.820   2.848   4.076  0.8742 -0.6987 -0.4802
 1925SOL     OW 8729   4.315   6.816   8.415  0.3095  0.3698  0.1684
 1925SOL    HW1 8730   4.388   6.871   8.388  0.5646  0.3210  0.7445
 1925SOL    HW2 8731   4.345   6.774   8.495 -0.4121  0.4713  0.5021
 1926SOL     OW 8732   3.167   9.419   7.535  0.0432 -0.5163 -0.6463
 1926SOL    HW1 8733   3.168   9.367   7.615  0.8555 -0.8095 -0.8361
 1926SOL    HW2 8734   3.235   9.485   7.549 -0.3357 -0.0942 -0.7865
 1927SOL     OW 8735   1.077   9.576   6.461 -0.1542  0.0416  0.3949
 1927SOL    HW1 8736   1.025   9.502   6.431 -0.8941  0.7997 -0.2619
 1927SOL    HW2 8737   1.166   9.557   6.432 -0.3111 -0.6475  0.3576
 1928SOL     OW 8738   3.476   3.775   3.056 -0.4279 -0.2434  0.7236
 1928SOL    HW1 8739   3.558   3.727   3.051  0.0061  0.3963  1.4842
 1928SOL    HW2 8740   3.408   3.708   3.049  0.1509 -0.7723  0.0659
 1929SOL     OW 8741   1.906   5.991   7.354  0.2269  0.7272  0.0833
 1929SOL    HW1 8742   1.991   5.952   7.377 -0.8413 -1.0529  1.1929
 1929SOL    HW2 8743   1.905   6.074   7.401  1.8912  1.4358 -1.0391
 1930SOL     OW 8744   1.225   7.625   1.858 -0.7294 -0.0146 -0.0631
 1930SOL    HW1 8745   1.275   7.705   1.875 -1.3112 -0.1342  2.8330
 1930SOL    HW2 8746   1.291   7.558   1.845 -0.2147  0.5626 -0.4983
 1931SOL     OW 8747   4.727   8.498   0.319  0.5241 -0.2957  0.1725
 1931SOL    HW1 8748   4.711   8.542   0.402 -1.0121  2.4428 -1.4292
 1931SOL    HW2 8749   4.661   8.428   0.316  1.5554 -1.4176  1.7996
 1932SOL     OW 8750   3.101   0.158   5.098  0.0534 -0.2660 -0.0987
 1932SOL    HW1 8751   3.149   0.078   5.075 -0.0027 -1.1502  2.5127
 1932SOL    HW2 8752   3.166   0.228   5.089  1.0217 -1.0516  0.5165
 1933SOL     OW 8753   1.019   1.980   1.938 -0.5754 -0.0544 -0.2798
 1933SOL    HW1 8754   0.925   1.972   1.958 -0.3347  0.0984  1.0234
 1933SOL    HW2 8755   1.055   1.894   1.960  0.0112  0.6842  1.8865
 1934SOL     OW 8756   4.402   1.036   9.478  0.5879  0.1443 -0.4449
 1934SOL    HW1 8757   4.309   1.036   9.496  0.6451  0.7893 -0.1556
 1934SOL    HW2 8758   4.440   1.097   9.541  1.3780 -1.0664  0.3111
 1935SOL     OW 8759   6.440  10.177   7.823  0.3382 -0.3500  0.3905
 1935SOL    HW1 8760   6.521  10.220   7.796 -1.3483  3.1982  0.3093
 1935SOL    HW2 8761   6.383  10.183   7.746 -0.6442 -0.9774  1.0446
 1936SOL     OW 8762  10.196   4.567   4.681  0.6520 -0.3120 -0.4555
 1936SOL    HW1 8763  10.246   4.486   4.690 -0.3336 -0.7219  1.9056
 1936SOL    HW2 8764  10.259   4.636   4.703  0.7968 -0.6479  0.1980
 1937SOL     OW 8765  10.289   7.195   8.905 -0.5865  0.2673 -0.6277
 1937SOL    HW1 8766  10.278   7.209   8.811 -2.1709 -0.0927 -0.5239
 1937SOL    HW2 8767  10.343   7.116   8.911 -0.4085  0.3358 -1.2302
 1938SOL     OW 8768   5.998   7.994   8.771 -0.0485 -0.6292 -0.0033
 1938SOL    HW1 8769   5.937   8.036   8.711  1.1683 -0.6296 -1.3039
 1938SOL    HW2 8770   6.012   7.907   8.734 -0.6686 -1.3392  1.3227
 1939SOL     OW 8771   3.901   0.776   0.433  0.9263 -0.3688 -0.9267
 1939SOL    HW1 8772   3.869   0.863   0.455  1.2909 -0.4024 -0.2350
 1939SOL    HW2 8773   3.996   0.782   0.442  1.1161 -0.3784 -2.5626
 1940SOL     OW 8774   0.145   4.021   7.367 -0.3320  0.7357 -0.2739
 1940SOL    HW1 8775   0.069   4.053   7.417 -1.6262 -0.2898 -1.4862
 1940SOL    HW2 8776   0.116   4.025   7.276  0.9057 -0.1422 -0.7247
 1941SOL     OW 8777   0.887   0.771  10.461 -0.4168  0.0142  0.1399
 1941SOL    HW1 8778   0.836   0.709  10.513 -2.2672  1.9491  0.7992
 1941SOL    HW2 8779   0.872   0.746  10.370  0.4010 -1.5747  0.4039
 1942SOL     OW 8780   7.962   2.236   7.944  0.3665 -0.1317  0.0473
 1942SOL    HW1 8781   8.044   2.262   7.903  1.6393 -0.3345  2.2592
 1942SOL    HW2 8782   7.923   2.319   7.974  1.2346 -0.1914  1.4678
 1943SOL     OW 8783   5.238   4.924   2.174  0.3480  0.2894  0.2353
 1943SOL    HW1 8784   5.284   5.004   2.200 -0.2876  0.8408 -0.3149
 1943SOL    HW2 8785   5.278   4.856   2.229 -1.1857  1.4375  2.9909
 1944SOL     OW 8786   4.668   4.250   3.224 -0.2460  0.1444  0.0669
 1944SOL    HW1 8787   4.689   4.300   3.145 -0.2497  2.2404  1.3052
 1944SOL    HW2 8788   4.732   4.179   3.225  0.7323  0.9563 -1.0565
 1945SOL     OW 8789   4.248   9.076   9.949 -0.7204  0.0766  0.3587
 1945SOL    HW1 8790   4.274   9.021  10.023  1.1278  1.6528  0.9770
 1945SOL    HW2 8791   4.295   9.159   9.964 -2.1669  1.2636 -1.3377
 1946SOL     OW 8792   4.349   7.451   8.609  0.7393 -1.3355 -0.2114
 1946SOL    HW1 8793   4.327   7.524   8.666  1.9154  0.7574 -2.2383
 1946SOL    HW2 8794   4.268   7.434   8.560  0.0387 -2.4276  1.2792
 1947SOL     OW 8795   0.422   4.774   7.739  0.4024 -0.3855  0.1561
 1947SOL    HW1 8796   0.452   4.718   7.668 -0.6875  1.3041 -1.7600
 1947SOL    HW2 8797   0.433   4.722   7.818  0.9095 -2.6536 -1.3309
 1948SOL     OW 8798   3.517  10.654   6.528  0.1658  0.5855 -0.1971
 1948SOL    HW1 8799   3.604  10.615   6.514  0.2200  0.6745 -0.1110
 1948SOL    HW2 8800   3.461  10.613   6.462  0.3103  0.6489 -0.3583
 1949SOL     OW 8801   7.164   8.389   9.877 -0.2326 -0.2825  0.3948
 1949SOL    HW1 8802   7.170   8.470   9.826  1.2703  0.0067  0.9747
 1949SOL    HW2 8803   7.190   8.320   9.815  2.2400  0.1401  0.8605
 1950SOL     OW 8804   9.249   2.923   5.204  0.0738 -0.3923 -0.2994
 1950SOL    HW1 8805   9.222   3.007   5.166  1.2067  1.3807  2.4912
 1950SOL    HW2 8806   9.343   2.917   5.185 -0.0387 -1.1479 -0.6427
 1951SOL     OW 8807  10.472   7.542   0.623 -0.1808  0.1097  0.3123
 1951SOL    HW1 8808  10.465   7.469   0.685 -0.3120 -0.4157 -0.3161
 1951SOL    HW2 8809  10.430   7.511   0.544 -3.5340  2.1253  1.1165
 1952SOL     OW 8810   4.833   0.357   3.920  0.3977 -0.1350  0.4018
 1952SOL    HW1 8811   4.837   0.352   4.016  3.6481 -1.0664  0.3130
 1952SOL    HW2 8812   4.809   0.448   3.902  0.5245  0.2670  2.0768
 1953SOL     OW 8813   0.223   4.244   1.457 -0.4065  0.8775 -0.1545
 1953SOL    HW1 8814   0.233   4.160   1.413 -3.4372 -0.1467  0.8079
 1953SOL    HW2 8815   0.258   4.230   1.545  1.1535  1.3700 -0.6810
 1954SOL     OW 8816   3.868   1.177   8.199 -0.6506 -0.0952 -0.2409
 1954SOL    HW1 8817   3.928   1.127   8.143 -0.4534  0.3647 -0.4414
 1954SOL    HW2 8818   3.890   1.268   8.183 -0.3999  0.0377  0.8052
 1955SOL     OW 8819   6.198   3.265   9.675  0.2450  0.6745  0.1598
 1955SOL    HW1 8820   6.185   3.357   9.654  0.7054  1.4091  2.7562
 1955SOL    HW2 8821   6.110   3.233   9.697  0.0157  0.3418 -1.1755
 1956SOL     OW 8822   6.514   9.703  10.010  0.4143  0.6735  0.1336
 1956SOL    HW1 8823   6.439   9.762  10.002 -0.7552 -0.4905  1.6970
 1956SOL    HW2 8824   6.588   9.752   9.976 -1.0241  1.9197 -1.3569
 1957SOL     OW 8825   6.328   7.162   5.219 -0.3250 -0.0972 -0.0552
 1957SOL    HW1 8826   6.256   7.167   5.156 -1.4041  0.3120  1.1698
 1957SOL    HW2 8827   6.296   7.209   5.296  0.6779 -1.2070  1.0779
 1958SOL     OW 8828   3.866   7.721   5.235  0.1530 -0.5440  0.4877
 1958SOL    HW1 8829   3.942   7.686   5.188 -0.7969 -1.1451 -0.6663
 1958SOL    HW2 8830   3.866   7.675   5.319  1.9549  0.6251  1.1899
 1959SOL     OW 8831   7.265   7.272   2.493 -0.5332 -0.5371  0.2892
 1959SOL    HW1 8832   7.196   7.256   2.429  0.7921  0.8298 -1.6235
 1959SOL    HW2 8833   7.335   7.211   2.468 -0.0142 -0.0192  0.4636
 1960SOL     OW 8834   6.626   8.885   6.688 -1.0244 -0.5076 -0.3965
 1960SOL    HW1 8835   6.611   8.894   6.783  0.6350 -1.4038 -0.0144
 1960SOL    HW2 8836   6.605   8.971   6.653 -1.5932 -0.1309  0.7921
 1961SOL     OW 8837   6.717   2.235   5.365  0.0628  0.1433  0.1230
 1961SOL    HW1 8838   6.629   2.271   5.370 -0.5824 -1.3761  0.4358
 1961SOL    HW2 8839   6.709   2.158   5.309  1.7357  1.3714 -1.9563
 1962SOL     OW 8840   5.626   5.642   1.754  0.2249  0.3460  0.1053
 1962SOL    HW1 8841   5.688   5.690   1.809 -1.0596 -0.2660  2.2429
 1962SOL    HW2 8842   5.662   5.554   1.748 -0.3049  0.0338  1.2134
 1963SOL     OW 8843   6.211   5.752   1.348  0.1515  0.0162 -0.3321
 1963SOL    HW1 8844   6.259   5.674   1.376  1.3102 -0.1798 -2.5866
 1963SOL    HW2 8845   6.125   5.719   1.322  0.3897 -0.4071 -0.5987
 1964SOL     OW 8846   0.455   1.325   5.015  0.0376 -0.5936 -0.1383
 1964SOL    HW1 8847   0.435   1.353   4.925 -1.6626  0.4454  0.5236
 1964SOL    HW2 8848   0.445   1.230   5.014 -1.7492 -0.4308 -0.6617
 1965SOL     OW 8849   9.755   3.027   9.309 -0.7691 -0.8511 -0.1920
 1965SOL    HW1 8850   9.740   3.017   9.403 -0.8942 -0.0939 -0.1263
 1965SOL    HW2 8851   9.807   2.950   9.285 -2.3612 -2.0759  0.1036
 1966SOL     OW 8852   4.703   6.930   7.638  0.0085  0.2402 -0.7255
 1966SOL    HW1 8853   4.608   6.918   7.632 -0.2547  1.7553 -0.0664
 1966SOL    HW2 8854   4.716   7.023   7.619  1.2914  0.2267  0.0101
 1967SOL     OW 8855   7.873   5.115   0.482 -0.0330 -0.5585  0.2421
 1967SOL    HW1 8856   7.813   5.068   0.424  2.0137 -1.6442 -1.1055
 1967SOL    HW2 8857   7.862   5.207   0.458 -0.8019 -0.7781 -0.2964
 1968SOL     OW 8858   4.560   5.319   3.127  0.5251  0.3089  0.4054
 1968SOL    HW1 8859   4.528   5.229   3.136  0.4494  0.3156  0.2113
 1968SOL    HW2 8860   4.602   5.338   3.210 -0.9861  0.7086  1.1133
 1969SOL     OW 8861   3.878   6.069   5.753 -0.0763  0.1730 -0.4078
 1969SOL    HW1 8862   3.933   6.007   5.705 -1.7371 -1.3934 -0.4333
 1969SOL    HW2 8863   3.861   6.139   5.690  0.4333 -0.2142 -0.9925
 1970SOL     OW 8864   9.197   6.347   7.824 -0.2385 -0.5103 -0.2211
 1970SOL    HW1 8865   9.105   6.324   7.811 -0.3744 -0.2388  0.2530
 1970SOL    HW2 8866   9.195   6.426   7.877  0.2754 -1.7931  1.8262
 1971SOL     OW 8867   7.137  10.651   5.956 -0.3582  0.0873  0.0281
 1971SOL    HW1 8868   7.096  10.572   5.921  0.1277 -0.4550  0.6533
 1971SOL    HW2 8869   7.094  10.723   5.909  1.0052 -0.6235 -2.4727
 1972SOL     OW 8870   2.308   0.245   9.517 -0.5380 -0.2766  0.6274
 1972SOL    HW1 8871   2.371   0.175   9.503 -1.0852 -0.6251 -0.1615
 1972SOL    HW2 8872   2.353   0.325   9.490 -0.1316 -0.4015  0.9248
 1973SOL     OW 8873   2.038   5.112   8.169 -0.5255 -0.2683  0.3710
 1973SOL    HW1 8874   2.076   5.040   8.119 -1.5213 -1.0521  0.6888
 1973SOL    HW2 8875   2.111   5.149   8.218  0.4335  0.3978 -1.4766
 1974SOL     OW 8876   9.685   1.588   8.600 -0.3189  0.0642  0.5588
 1974SOL    HW1 8877   9.679   1.620   8.690  0.2123  0.6666  0.3846
 1974SOL    HW2 8878   9.777   1.600   8.576 -0.7376  1.2450 -0.5522
 1975SOL     OW 8879   8.258   7.353  10.247 -0.3039 -0.1531 -0.3586
 1975SOL    HW1 8880   8.193   7.422  10.233 -0.0817  0.5049  1.5268
 1975SOL    HW2 8881   8.283   7.325  10.159 -2.5028  0.1623 -1.1388
 1976SOL     OW 8882   2.604   8.302  10.011  0.2000 -0.0855  0.3913
 1976SOL    HW1 8883   2.671   8.361   9.977  0.1825 -0.3743 -0.1512
 1976SOL    HW2 8884   2.630   8.285  10.101 -0.1473  1.2667  0.7623
 1977SOL     OW 8885   9.557   1.310   4.219 -0.4040 -0.0144 -0.0797
 1977SOL    HW1 8886   9.621   1.381   4.209  1.5840 -1.7437 -0.4740
 1977SOL    HW2 8887   9.511   1.307   4.136  0.3459  0.0593 -0.5095
 1978SOL     OW 8888   9.435   0.142   0.637 -0.3896 -0.2191  0.5289
 1978SOL    HW1 8889   9.441   0.077   0.566 -0.7639  0.1647  0.1358
 1978SOL    HW2 8890   9.348   0.128   0.674 -0.4815  0.0773  0.4252
 1979SOL     OW 8891   1.927   2.811   7.514 -0.2968  0.3641 -0.1407
 1979SOL    HW1 8892   1.855   2.871   7.534 -0.2260  0.2422  0.4817
 1979SOL    HW2 8893   1.994   2.831   7.579 -0.0616 -0.0356 -0.2583
 1980SOL     OW 8894   9.762   5.774   4.972  0.5641  0.1083 -0.6070
 1980SOL    HW1 8895   9.671   5.798   4.954  0.5940  2.6924  2.0997
 1980SOL    HW2 8896   9.759   5.724   5.053  1.4260 -1.9009 -1.7241
 1981SOL     OW 8897   5.223   9.352   1.729 -0.1576 -0.3431 -0.0139
 1981SOL    HW1 8898   5.196   9.391   1.812 -2.3352 -0.2045 -0.7479
 1981SOL    HW2 8899   5.297   9.406   1.700  0.2434 -0.0264  1.5066
 1982SOL     OW 8900  10.280   9.916  10.690 -0.3622 -0.0949  0.2812
 1982SOL    HW1 8901  10.255  10.001  10.655 -2.5421 -0.1515  1.4861
 1982SOL    HW2 8902  10.297   9.861  10.613 -1.0061  0.8622 -0.5622
 1983SOL     OW 8903   4.474   8.398   7.638 -0.5781 -0.5089 -0.7129
 1983SOL    HW1 8904   4.393   8.427   7.680  1.2088  2.5138  1.0015
 1983SOL    HW2 8905   4.483   8.453   7.561 -0.5148 -1.4017 -1.3652
 1984SOL     OW 8906   2.430  10.113   5.126 -0.0827  0.2418 -0.0409
 1984SOL    HW1 8907   2.345  10.082   5.094 -0.5056  1.2404  0.0556
 1984SOL    HW2 8908   2.429  10.093   5.220  0.1811 -0.5831 -0.2108
 1985SOL     OW 8909   4.136   7.848   8.022  0.2287  0.1958 -0.2014
 1985SOL    HW1 8910   4.112   7.885   8.107  2.6741  1.2537  0.0880
 1985SOL    HW2 8911   4.061   7.792   7.999 -1.0573  0.8755  2.0153
 1986SOL     OW 8912   0.562   8.406   3.705 -0.0424  0.0826  0.2584
 1986SOL    HW1 8913   0.493   8.415   3.639 -1.9975  0.6562  2.2466
 1986SOL    HW2 8914   0.632   8.463   3.675 -0.8077  0.2144 -1.3834
 1987SOL     OW 8915   3.768   0.980   2.194  0.4036  0.4129  0.0334
 1987SOL    HW1 8916   3.679   0.995   2.225  0.4616 -0.0214  0.4089
 1987SOL    HW2 8917   3.760   0.908   2.131  0.4662  0.4621 -0.0306
 1988SOL     OW 8918   7.608   0.958   0.666  0.1155 -0.3198  0.1054
 1988SOL    HW1 8919   7.624   0.894   0.735  0.2587  0.4026  0.7503
 1988SOL    HW2 8920   7.525   1.000   0.690 -0.1418 -0.4687 -0.4834
 1989SOL     OW 8921   0.885   2.513   6.952  0.0085 -0.4711  0.3837
 1989SOL    HW1 8922   0.909   2.576   7.021 -1.9185  1.4363 -0.5804
 1989SOL    HW2 8923   0.790   2.520   6.945 -0.2266 -3.1392 -0.1902
 1990SOL     OW 8924   3.293   7.860   7.632 -0.3078 -0.4005 -0.0809
 1990SOL    HW1 8925   3.354   7.798   7.592 -1.1912 -1.1807 -0.2608
 1990SOL    HW2 8926   3.289   7.933   7.569 -0.2626 -0.7717 -0.5222
 1991SOL     OW 8927   5.757   5.098   9.432  0.0361 -0.7621 -0.1188
 1991SOL    HW1 8928   5.674   5.123   9.390 -0.7913  0.8299  2.2706
 1991SOL    HW2 8929   5.737   5.017   9.478 -0.0524 -0.6437  0.0515
 1992SOL     OW 8930   8.087   3.559   8.722  0.1382  0.1672 -0.3946
 1992SOL    HW1 8931   8.065   3.516   8.805 -1.9403  0.6569 -0.6387
 1992SOL    HW2 8932   8.023   3.629   8.714 -0.3153 -0.4402 -2.8531
 1993SOL     OW 8933   0.853   2.841   3.159 -0.3552 -0.7976 -0.1773
 1993SOL    HW1 8934   0.775   2.845   3.214 -1.1625 -0.2549 -1.3300
 1993SOL    HW2 8935   0.874   2.932   3.138  0.8672 -0.9009  0.4731
 1994SOL     OW 8936   9.461   1.864   2.354 -0.3202  0.3349  0.0336
 1994SOL    HW1 8937   9.473   1.793   2.290  0.6925  1.2205 -0.8018
 1994SOL    HW2 8938   9.396   1.830   2.416 -0.3227 -1.0730 -0.6996
 1995SOL     OW 8939   3.339   8.644   4.510  1.0209 -0.1525  0.3021
 1995SOL    HW1 8940   3.381   8.599   4.437  1.4320 -2.0388  1.6422
 1995SOL    HW2 8941   3.245   8.629   4.497  1.1696 -1.8769  0.9689
 1996SOL     OW 8942   6.391  10.299   4.204 -0.3468  0.0460  0.3707
 1996SOL    HW1 8943   6.446  10.352   4.146 -0.6823 -0.4297 -0.3848
 1996SOL    HW2 8944   6.394  10.346   4.288  0.5203  0.4848  0.1093
 1997SOL     OW 8945   6.001   8.919   0.457  0.0170  0.2258 -0.2078
 1997SOL    HW1 8946   5.972   8.933   0.367 -0.3284  1.2812  0.0610
 1997SOL    HW2 8947   6.029   8.827   0.459  0.9795  0.4502 -1.6505
 1998SOL     OW 8948   1.353   0.166   7.696  1.0356 -0.1552 -0.0012
 1998SOL    HW1 8949   1.433   0.220   7.694  0.6309  0.5890  1.8990
 1998SOL    HW2 8950   1.365   0.109   7.772 -1.1251  1.4657  1.6658
 1999SOL     OW 8951   9.969   9.867   3.736 -0.2599 -0.7190 -0.5674
 1999SOL    HW1 8952   9.925   9.952   3.741  1.2829  0.0762  0.2890
 1999SOL    HW2 8953   9.901   9.803   3.755 -1.0780  0.4589  0.5870
 2000SOL     OW 8954   7.198   0.604   7.834  0.1966 -0.1403 -0.2422
 2000SOL    HW1 8955   7.164   0.545   7.901 -2.0880  0.3657 -0.8686
 2000SOL    HW2 8956   7.292   0.612   7.854 -0.2544 -0.5551  2.4436
 2001SOL     OW 8957   4.784  10.285  10.131 -0.1773  0.4297 -0.7588
 2001SOL    HW1 8958   4.871  10.262  10.163 -0.4466  0.5905  0.1336
 2001SOL    HW2 8959   4.794  10.372  10.093 -0.5112  1.8246  2.0717
 2002SOL     OW 8960   9.490   0.510   0.299 -0.5343 -0.0604 -0.1516
 2002SOL    HW1 8961   9.546   0.445   0.257  1.7516  2.0672 -0.6281
 2002SOL    HW2 8962   9.524   0.515   0.389 -0.2247  0.9305 -0.3169
 2003SOL     OW 8963   2.063   2.578   8.163 -0.0224  0.3694 -0.1520
 2003SOL    HW1 8964   2.004   2.580   8.238  1.1856 -0.6728  0.8783
 2003SOL    HW2 8965   2.041   2.497   8.117  0.8326 -0.2261  0.4586
 2004SOL     OW 8966   9.149  10.422   1.946 -0.5398 -0.1897 -0.2774
 2004SOL    HW1 8967   9.065  10.398   1.985  0.1995 -0.4046  1.2319
 2004SOL    HW2 8968   9.130  10.503   1.898 -1.5012  0.0483  0.4643
 2005SOL     OW 8969   7.853   5.704   7.438  0.6663 -0.2530  0.0668
 2005SOL    HW1 8970   7.874   5.797   7.442  0.8471 -0.2725 -0.3442
 2005SOL    HW2 8971   7.887   5.676   7.353  0.3304 -0.6258  0.0541
 2006SOL     OW 8972   4.060   8.779   6.449  0.0345  0.4386  0.7210
 2006SOL    HW1 8973   4.111   8.830   6.386  0.7956  1.1613  1.8836
 2006SOL    HW2 8974   4.096   8.691   6.443 -1.6631 -0.2024 -1.7182
 2007SOL     OW 8975   8.046   9.544   4.844 -0.0371 -0.1094  0.6337
 2007SOL    HW1 8976   8.024   9.461   4.888  0.4399 -0.3929  0.3471
 2007SOL    HW2 8977   7.968   9.598   4.855  0.2944  0.0691  2.3970
 2008SOL     OW 8978   4.691   1.524   2.804  0.2420  0.0429 -0.0361
 2008SOL    HW1 8979   4.698   1.475   2.722  0.8157 -1.6613  0.9818
 2008SOL    HW2 8980   4.598   1.525   2.824  0.1842 -0.2686 -0.2835
 2009SOL     OW 8981   3.258  10.598   3.333 -0.0823  0.1976  0.0682
 2009SOL    HW1 8982   3.197  10.540   3.379  0.2969  0.0585  0.4064
 2009SOL    HW2 8983   3.240  10.584   3.240 -1.1600  0.7964  0.1640
 2010SOL     OW 8984  10.521   2.989   1.579 -0.8024 -0.2056 -0.3820
 2010SOL    HW1 8985  10.509   3.078   1.612 -0.4876 -1.1999  2.7455
 2010SOL    HW2 8986  10.456   2.981   1.509 -1.6108  2.1014 -0.0150
 2011SOL     OW 8987   6.309   1.067   5.538 -0.8450 -0.3910  0.2541
 2011SOL    HW1 8988   6.285   0.979   5.509  0.2684 -1.2632  1.8708
 2011SOL    HW2 8989   6.392   1.085   5.494 -0.6204 -0.5138  0.6304
 2012SOL     OW 8990   8.942   5.386   9.401  0.5429 -0.4555  0.4740
 2012SOL    HW1 8991   8.947   5.472   9.442  1.0973 -0.2631  0.0135
 2012SOL    HW2 8992   8.878   5.396   9.331 -1.0872 -1.0186  1.8144
 2013SOL     OW 8993   3.052   1.366   8.041  0.1566  0.0653 -0.3366
 2013SOL    HW1 8994   3.033   1.456   8.066  0.3026  0.5063 -1.7330
 2013SOL    HW2 8995   3.143   1.352   8.065  1.2482  1.4666 -3.1346
 2014SOL     OW 8996   1.358   7.441   0.256  0.3596 -0.2230  0.3302
 2014SOL    HW1 8997   1.338   7.427   0.349 -1.3184  2.3478  0.4426
 2014SOL    HW2 8998   1.453   7.445   0.252  0.4806 -0.8221  1.8439
 2015SOL     OW 8999   1.576   4.003   7.070 -0.1607 -0.3172 -0.3392
 2015SOL    HW1 9000   1.529   3.968   6.994  0.4037  1.1250 -1.3862
 2015SOL    HW2 9001   1.572   4.098   7.059  2.6775 -0.1226 -0.3106
 2016SOL     OW 9002   0.971   3.197   3.855 -0.8181  0.0850  0.4130
 2016SOL    HW1 9003   1.023   3.271   3.887 -0.9959 -0.1512  1.2902
 2016SOL    HW2 9004   0.995   3.188   3.763 -1.8620  2.1369 -0.1064
 2017SOL     OW 9005   3.072   5.174   8.968 -0.4199  0.6847 -0.0646
 2017SOL    HW1 9006   3.133   5.137   9.031 -1.2195  1.3415  1.1481
 2017SOL    HW2 9007   3.100   5.264   8.957 -0.4660  0.6575 -0.4151
 2018SOL     OW 9008   1.862   1.363  10.307 -0.3300 -0.1274 -0.0311
 2018SOL    HW1 9009   1.785   1.395  10.354 -0.4072  1.7587 -1.3067
 2018SOL    HW2 9010   1.828   1.302  10.242 -0.8742  1.1222 -0.9650
 2019SOL     OW 9011   9.414   9.511   0.081  0.4812 -0.2757  0.0299
 2019SOL    HW1 9012   9.496   9.560   0.067 -0.0372  0.9563  1.1224
 2019SOL    HW2 9013   9.347   9.567   0.041 -0.2369  0.4044  2.0776
 2020SOL     OW 9014   0.501  10.525   6.637 -0.1578  0.0645  0.3288
 2020SOL    HW1 9015   0.539  10.607   6.604  0.0281 -0.1128  0.1045
 2020SOL    HW2 9016   0.530  10.458   6.575  1.5275 -0.5451  1.7066
 2021SOL     OW 9017   7.714   0.149   2.028 -0.2795  0.3226  0.2575
 2021SOL    HW1 9018   7.629   0.186   2.051 -0.1840  1.2733 -0.7893
 2021SOL    HW2 9019   7.773   0.180   2.097 -1.0248 -1.6154  1.8486
 2022SOL     OW 9020   6.819   8.139   3.367 -0.3804 -0.2191  0.2314
 2022SOL    HW1 9021   6.774   8.085   3.432 -0.6209  0.7529  0.8947
 2022SOL    HW2 9022   6.883   8.080   3.328 -2.1647 -1.6475 -0.7186
 2023SOL     OW 9023   0.700   5.097   9.043  0.3095  0.2241 -0.0374
 2023SOL    HW1 9024   0.721   5.012   9.006  1.8548  0.5553  0.0069
 2023SOL    HW2 9025   0.663   5.147   8.970  0.5888 -0.0835 -0.3926
 2024SOL     OW 9026   4.349   4.745   5.049 -0.0271 -0.1093  0.0230
 2024SOL    HW1 9027   4.422   4.755   5.110 -0.8846 -2.2050  1.5455
 2024SOL    HW2 9028   4.294   4.678   5.090 -3.5492  2.3097 -0.3018
 2025SOL     OW 9029   3.657   7.391   3.061 -0.1997 -0.9481  0.0975
 2025SOL    HW1 9030   3.720   7.462   3.046 -0.6994 -1.0411 -3.3571
 2025SOL    HW2 9031   3.704   7.311   3.039 -1.4233 -0.9945 -2.8817
 2026SOL     OW 9032   0.276   2.096   5.242  0.4812  0.2390  0.1100
 2026SOL    HW1 9033   0.193   2.117   5.284  0.6275 -0.4944  0.7806
 2026SOL    HW2 9034   0.305   2.179   5.204  0.4939  1.0124  1.7333
 2027SOL     OW 9035   4.281   9.568   2.991 -0.4428  0.5160  0.5030
 2027SOL    HW1 9036   4.233   9.650   3.004  0.6648  1.4421 -0.9800
 2027SOL    HW2 9037   4.362   9.580   3.041 -0.6805 -0.0736  1.0429
 2028SOL     OW 9038   0.540   4.096   6.383  0.0894 -0.1194 -0.4708
 2028SOL    HW1 9039   0.485   4.142   6.319 -0.6336  0.5217  0.5974
 2028SOL    HW2 9040   0.630   4.114   6.354 -0.1952  1.3164 -0.5363
 2029SOL     OW 9041   6.703   5.270  10.215 -0.0771 -0.1589  0.4541
 2029SOL    HW1 9042   6.736   5.304  10.131 -0.3681 -0.6133  0.1550
 2029SOL    HW2 9043   6.731   5.179  10.217  0.7776  0.0966  1.2988
 2030SOL     OW 9044   5.320   3.448   1.104  0.4775  0.4518 -0.1728
 2030SOL    HW1 9045   5.361   3.501   1.035  0.1086  1.0185  0.0343
 2030SOL    HW2 9046   5.345   3.492   1.185  0.5126  0.0603  0.0279
 2031SOL     OW 9047   5.432   1.297   7.983  0.5213 -0.1477 -0.1332
 2031SOL    HW1 9048   5.455   1.389   7.997 -1.8323  0.8269 -1.9370
 2031SOL    HW2 9049   5.416   1.291   7.889 -3.4913 -1.2542  0.4444
 2032SOL     OW 9050  10.461  10.184   1.122 -0.3674 -0.0058  0.1110
 2032SOL    HW1 9051  10.548  10.212   1.150 -0.1820  0.0995 -0.5587
 2032SOL    HW2 9052  10.461  10.089   1.137 -0.8361  0.2379  1.9491
 2033SOL     OW 9053   5.752   9.139   1.556 -0.6944  0.0484  0.3004
 2033SOL    HW1 9054   5.762   9.234   1.547  3.0993 -0.3002 -1.2850
 2033SOL    HW2 9055   5.776   9.120   1.646  1.3108  0.4747 -0.0898
 2034SOL     OW 9056   9.949  10.500   3.393 -0.0883  0.2820 -0.2451
 2034SOL    HW1 9057   9.937  10.466   3.482  0.2474  0.5834 -0.0827
 2034SOL    HW2 9058  10.039  10.532   3.392 -1.0241  3.1929  0.2841
 2035SOL     OW 9059   6.664   5.966   2.965 -0.7122  0.1699  0.4593
 2035SOL    HW1 9060   6.696   5.886   3.007 -0.3544 -0.2233 -0.5418
 2035SOL    HW2 9061   6.596   5.998   3.024  0.2862  0.0543  1.7326
 2036SOL     OW 9062   8.482  10.197   2.405  0.1243 -0.3057 -0.2049
 2036SOL    HW1 9063   8.444  10.127   2.458  0.3733  0.2486  0.7310
 2036SOL    HW2 9064   8.504  10.155   2.321 -2.2400 -0.7271 -0.6876
 2037SOL     OW 9065   4.253   0.097   5.366 -0.2537 -0.5019 -0.2693
 2037SOL    HW1 9066   4.165   0.108   5.331 -0.3851  0.6148  0.3704
 2037SOL    HW2 9067   4.291   0.185   5.363  1.3708 -1.1942 -1.8816
 2038SOL     OW 9068   9.677   8.624   3.959 -0.0165 -0.3670 -0.0366
 2038SOL    HW1 9069   9.654   8.688   4.026  0.2568 -0.9392  0.6212
 2038SOL    HW2 9070   9.631   8.653   3.880  0.7374  1.0768  0.0315
 2039SOL     OW 9071   4.867   2.545   1.876  0.1378  0.4664 -0.8511
 2039SOL    HW1 9072   4.910   2.618   1.831  0.6833 -0.4423 -1.8229
 2039SOL    HW2 9073   4.774   2.568   1.874  0.3186  1.2486 -0.9209
 2040SOL     OW 9074   0.727   7.838   8.587  0.0437 -0.3375  0.0997
 2040SOL    HW1 9075   0.713   7.764   8.646 -1.3064  1.0699  1.6580
 2040SOL    HW2 9076   0.645   7.844   8.537 -1.0345  1.6226  1.8877
 2041SOL     OW 9077   3.012   2.646  10.198 -0.4798 -0.7944  0.6916
 2041SOL    HW1 9078   3.053   2.576  10.148 -0.6465  0.6073 -1.5084
 2041SOL    HW2 9079   2.922   2.617  10.211 -0.3236 -1.3535  0.5501
 2042SOL     OW 9080   6.293   1.459   5.949 -0.9746 -1.1367  0.1271
 2042SOL    HW1 9081   6.241   1.499   5.880  0.2181 -0.5296 -0.4539
 2042SOL    HW2 9082   6.341   1.388   5.905  1.2489  0.4569 -0.1605
 2043SOL     OW 9083   1.920   7.898   5.510  0.1152  0.1303 -0.4697
 2043SOL    HW1 9084   1.846   7.927   5.457  0.1370 -0.6346 -0.9431
 2043SOL    HW2 9085   1.945   7.814   5.471  1.9467  0.8808 -1.0261
 2044SOL     OW 9086   9.273   4.870   8.691 -0.2237  0.2178  0.4308
 2044SOL    HW1 9087   9.212   4.930   8.735 -1.6688  0.1653 -1.3938
 2044SOL    HW2 9088   9.356   4.918   8.689 -1.3456  2.2504 -1.0177
 2045SOL     OW 9089   7.341   0.741   5.280  0.2229  0.0801  0.2033
 2045SOL    HW1 9090   7.362   0.814   5.337  0.2276 -0.2918  0.6856
 2045SOL    HW2 9091   7.265   0.699   5.321  0.0218  0.0005 -0.2377
 2046SOL     OW 9092   6.819   6.906   5.786 -0.2351 -0.1279  0.7070
 2046SOL    HW1 9093   6.794   6.972   5.722 -0.8604 -0.5111  0.5477
 2046SOL    HW2 9094   6.909   6.882   5.762  0.9968  2.4280  2.2729
 2047SOL     OW 9095   8.463   0.252   9.274 -0.1555  0.1000 -0.0634
 2047SOL    HW1 9096   8.423   0.180   9.225  0.7388  0.4384 -1.3250
 2047SOL    HW2 9097   8.398   0.322   9.271 -0.2715 -0.0214 -0.4227
 2048SOL     OW 9098   8.985   4.494   9.124 -0.0027  0.5670  0.1030
 2048SOL    HW1 9099   9.016   4.576   9.161  0.0061  0.7832 -0.3727
 2048SOL    HW2 9100   9.048   4.473   9.055 -1.0658  1.1954 -1.1155
 2049SOL     OW 9101   3.256   5.989   9.576  0.0347 -0.4164  0.1865
 2049SOL    HW1 9102   3.168   5.990   9.615  0.0925 -0.9149  0.3367
 2049SOL    HW2 9103   3.267   6.077   9.540 -0.8434 -0.5869 -0.5346
 2050SOL     OW 9104   0.195  10.287   1.845 -0.5836  0.3510  0.1599
 2050SOL    HW1 9105   0.102  10.265   1.852 -0.6718  1.0570  1.6504
 2050SOL    HW2 9106   0.240  10.214   1.886 -0.5405  0.3606  0.1285
 2051SOL     OW 9107   6.736   2.872   2.899 -0.1562  0.0797  0.3161
 2051SOL    HW1 9108   6.829   2.897   2.902 -0.0163 -0.4427  0.4331
 2051SOL    HW2 9109   6.721   2.828   2.983  0.0347 -1.7261 -0.5531
 2052SOL     OW 9110   2.104   4.888   2.793  0.2730  0.0723  0.7829
 2052SOL    HW1 9111   2.039   4.879   2.723  0.0590 -2.0329  1.1818
 2052SOL    HW2 9112   2.177   4.935   2.752 -1.3964  2.4796  0.3109
 2053SOL     OW 9113   0.248  10.445   9.574  0.1149  0.1695  0.1606
 2053SOL    HW1 9114   0.219  10.387   9.644  0.1652  0.9952  0.8834
 2053SOL    HW2 9115   0.177  10.508   9.565  0.2382  0.2371 -0.3413
 2054SOL     OW 9116   3.210   9.143   0.972 -0.2529  0.1649  0.0409
 2054SOL    HW1 9117   3.251   9.089   1.039 -1.0885 -1.6600 -0.8375
 2054SOL    HW2 9118   3.157   9.206   1.021  1.2824  0.7005  1.1050
 2055SOL     OW 9119   7.745   7.257   9.783 -0.0908  0.2058 -0.3267
 2055SOL    HW1 9120   7.817   7.285   9.727  0.3584  1.1068  0.6749
 2055SOL    HW2 9121   7.685   7.211   9.724  1.2628 -0.5100 -1.1815
 2056SOL     OW 9122   0.090   4.694   1.735  0.2943  0.6540 -0.4016
 2056SOL    HW1 9123   0.063   4.758   1.801 -0.8918  0.6726 -0.8921
 2056SOL    HW2 9124   0.029   4.706   1.663  0.0966 -0.9782 -0.5419
 2057SOL     OW 9125   4.978   5.853   6.056 -0.0892 -0.0695 -0.3785
 2057SOL    HW1 9126   4.925   5.880   6.131 -0.9676  0.2725 -1.1092
 2057SOL    HW2 9127   5.036   5.927   6.040 -2.3496  1.4299 -2.2472
 2058SOL     OW 9128   3.551   4.062  10.406 -0.1729 -0.6562  0.2261
 2058SOL    HW1 9129   3.645   4.077  10.395 -0.4421  1.1249  0.1184
 2058SOL    HW2 9130   3.545   3.976  10.448  1.6330  0.2005  2.4744
 2059SOL     OW 9131   0.254   5.343   9.619 -0.1229 -0.1157 -0.4859
 2059SOL    HW1 9132   0.202   5.313   9.694 -2.0508  0.5051 -1.5006
 2059SOL    HW2 9133   0.335   5.293   9.624 -1.4688 -2.3493  0.2652
 2060SOL     OW 9134   8.825   3.618   3.189  0.8426 -0.1594  0.1997
 2060SOL    HW1 9135   8.890   3.558   3.154  0.5455 -0.1323 -0.4089
 2060SOL    HW2 9136   8.804   3.583   3.276 -0.1965 -1.6167 -0.6092
 2061SOL     OW 9137   6.646   6.196   0.545 -0.3694  0.2663  0.0284
 2061SOL    HW1 9138   6.702   6.131   0.502 -0.7911  1.1728 -2.0027
 2061SOL    HW2 9139   6.564   6.150   0.562  0.0320 -0.2900  0.5036
 2062SOL     OW 9140   5.216   0.285   4.816 -0.2241 -0.0942 -0.6392
 2062SOL    HW1 9141   5.307   0.307   4.800 -0.0416 -1.8764 -2.4480
 2062SOL    HW2 9142   5.204   0.200   4.774 -2.1195 -1.0383  1.5751
 2063SOL     OW 9143   1.786   6.201   7.130 -0.2183 -0.0095 -0.2907
 2063SOL    HW1 9144   1.697   6.167   7.137 -0.4824  0.2257 -2.0148
 2063SOL    HW2 9145   1.821   6.160   7.051  0.9024  0.5608 -0.1075
 2064SOL     OW 9146   3.821   7.931   9.247 -0.4612  0.5607  0.5638
 2064SOL    HW1 9147   3.914   7.948   9.261 -0.0900 -0.8210 -0.1317
 2064SOL    HW2 9148   3.778   8.009   9.281  1.0064  1.7027 -0.0727
 2065SOL     OW 9149   3.163   9.131   0.425 -0.7201 -0.5300  0.2087
 2065SOL    HW1 9150   3.102   9.125   0.499 -1.4807 -0.9681 -0.4385
 2065SOL    HW2 9151   3.120   9.082   0.355 -0.0701 -0.0005 -0.5698
 2066SOL     OW 9152   2.650   8.872   9.632  0.4658 -0.2053  0.3179
 2066SOL    HW1 9153   2.586   8.819   9.680 -1.7387  0.5158 -1.6456
 2066SOL    HW2 9154   2.651   8.956   9.679 -1.5372  0.4339 -0.6617
 2067SOL     OW 9155   0.478   7.086   6.574 -0.2348  0.0340  0.1999
 2067SOL    HW1 9156   0.531   7.136   6.636  0.3036 -0.7790  0.4190
 2067SOL    HW2 9157   0.426   7.028   6.629 -0.4347 -0.0474 -0.0743
 2068SOL     OW 9158   1.455   5.419   8.228 -0.1285  0.8047  1.1557
 2068SOL    HW1 9159   1.474   5.336   8.272  0.1133  0.6520  0.7680
 2068SOL    HW2 9160   1.532   5.435   8.174 -0.1985  1.2566  1.1905
 2069SOL     OW 9161   5.639   5.254   6.611  0.3353 -0.2138  0.1661
 2069SOL    HW1 9162   5.579   5.224   6.542 -0.2544  0.8321  0.2165
 2069SOL    HW2 9163   5.702   5.309   6.565  1.2636 -1.2852  0.1203
 2070SOL     OW 9164   8.920   4.429   0.430 -0.0722  0.0363  0.0791
 2070SOL    HW1 9165   8.938   4.523   0.439 -1.0612  0.4432 -1.7689
 2070SOL    HW2 9166   9.007   4.388   0.432  0.4916  1.1530 -0.5237
 2071SOL     OW 9167   1.026   5.503   8.182 -0.1626  0.3076 -0.1002
 2071SOL    HW1 9168   0.980   5.534   8.104  0.3068 -1.6034 -1.1922
 2071SOL    HW2 9169   1.112   5.545   8.177  0.3840 -0.9243 -1.4269
 2072SOL     OW 9170   4.550   8.068   5.166  0.2561  0.2626 -0.3017
 2072SOL    HW1 9171   4.508   7.984   5.146  0.2173 -0.1623  1.4464
 2072SOL    HW2 9172   4.640   8.044   5.187 -0.0797  0.4605  1.5082
 2073SOL     OW 9173   5.771   2.493   1.244 -0.1293 -0.2956 -0.3503
 2073SOL    HW1 9174   5.765   2.399   1.261 -0.0690 -0.4245 -1.0037
 2073SOL    HW2 9175   5.845   2.501   1.183 -0.2915  0.1443 -0.4906
 2074SOL     OW 9176   4.773   2.192   6.292  0.1834  0.9500  0.3140
 2074SOL    HW1 9177   4.753   2.107   6.330  2.4263 -0.5592 -1.6275
 2074SOL    HW2 9178   4.826   2.236   6.358  0.9314 -0.1022  0.4338
 2075SOL     OW 9179   1.437   4.650   0.622  0.0774  1.0167  0.3687
 2075SOL    HW1 9180   1.450   4.555   0.616 -0.7834  0.9115 -0.0114
 2075SOL    HW2 9181   1.477   4.684   0.542 -1.6698  0.7180 -0.6828
 2076SOL     OW 9182   6.747   6.593   6.015  0.2330  0.5331  0.1840
 2076SOL    HW1 9183   6.792   6.615   6.097 -0.6642 -0.8608  1.0887
 2076SOL    HW2 9184   6.796   6.520   5.979 -0.3345  0.0613  0.3462
 2077SOL     OW 9185   3.185   8.081   1.810 -0.4248  0.2243  0.1236
 2077SOL    HW1 9186   3.105   8.078   1.862 -0.3758 -1.4852  0.1584
 2077SOL    HW2 9187   3.233   8.156   1.844 -0.2907 -0.9553  2.7423
 2078SOL     OW 9188   3.905   7.627   9.796  0.5550  0.0022  0.2239
 2078SOL    HW1 9189   3.889   7.661   9.884  1.1135 -1.5750  0.9717
 2078SOL    HW2 9190   3.986   7.578   9.804 -0.0877 -1.2932 -0.8428
 2079SOL     OW 9191   4.376   0.905   7.179  0.6134  0.2867 -0.3588
 2079SOL    HW1 9192   4.366   1.000   7.169  0.9525  0.3178 -0.3913
 2079SOL    HW2 9193   4.378   0.891   7.273  1.4293  0.4032 -0.3510
 2080SOL     OW 9194   2.025   0.336   7.497 -0.0044 -0.7605  0.4053
 2080SOL    HW1 9195   1.992   0.404   7.438 -1.2601 -1.5657  0.1513
 2080SOL    HW2 9196   2.121   0.342   7.489 -0.0783  0.8444  0.2532
 2081SOL     OW 9197   0.345   4.128   6.057 -0.0392  0.3502  0.4539
 2081SOL    HW1 9198   0.437   4.157   6.054 -0.0379  0.4444  1.1936
 2081SOL    HW2 9199   0.311   4.165   6.139 -0.2967 -0.9752  0.9722
 2082SOL     OW 9200   2.473   6.371   9.691 -0.0249  0.0510 -0.0077
 2082SOL    HW1 9201   2.385   6.407   9.698  0.1793  0.6109 -0.2473
 2082SOL    HW2 9202   2.500   6.357   9.782 -0.3091 -0.0007  0.0694
 2083SOL     OW 9203   7.459   6.234   6.992  0.2036 -0.4889 -0.4493
 2083SOL    HW1 9204   7.374   6.268   7.019  0.2019 -1.3625  0.7142
 2083SOL    HW2 9205   7.469   6.262   6.901 -1.4269 -0.5850 -0.6771
 2084SOL     OW 9206   2.136   3.868   7.812  0.1034  0.1876  0.4818
 2084SOL    HW1 9207   2.197   3.928   7.767 -1.1466  1.8798  0.9250
 2084SOL    HW2 9208   2.074   3.842   7.744 -0.3399  0.7665  0.6579
 2085SOL     OW 9209   4.731   4.831   2.848  0.7871  0.1725  0.1454
 2085SOL    HW1 9210   4.798   4.891   2.815  0.1439  0.5166 -0.5889
 2085SOL    HW2 9211   4.728   4.848   2.942  3.1791 -1.3590  0.5719
 2086SOL     OW 9212   6.322  10.415   4.945  0.8280 -0.5042 -0.1291
 2086SOL    HW1 9213   6.300  10.506   4.926  0.5468  0.0512  2.4793
 2086SOL    HW2 9214   6.238  10.375   4.967  1.0626 -1.2035 -0.4850
 2087SOL     OW 9215   7.745   4.979   0.246  0.3678  0.0491  0.0511
 2087SOL    HW1 9216   7.824   4.933   0.218  1.3735  2.7867 -1.9633
 2087SOL    HW2 9217   7.675   4.913   0.239  2.4860 -2.8997  3.2580
 2088SOL     OW 9218   8.408   1.313   3.489 -0.2569  0.1628  0.0524
 2088SOL    HW1 9219   8.437   1.401   3.467  0.2801 -0.0373 -0.0404
 2088SOL    HW2 9220   8.384   1.273   3.405  1.6004 -0.5303 -0.1847
 2089SOL     OW 9221   3.039   5.584   7.359 -0.4710  0.0020 -0.5601
 2089SOL    HW1 9222   3.128   5.551   7.362 -0.9113 -1.2630 -0.9736
 2089SOL    HW2 9223   3.029   5.634   7.440  0.6777  0.3807 -0.6327
 2090SOL     OW 9224  10.417   2.730   3.545  0.0713  0.5091  0.1970
 2090SOL    HW1 9225  10.498   2.712   3.496  0.1766 -1.5632  1.0072
 2090SOL    HW2 9226  10.391   2.818   3.517  0.9282  0.0300 -2.3969
 2091SOL     OW 9227   0.718   0.093   8.405  0.8118 -0.0893 -0.0349
 2091SOL    HW1 9228   0.764   0.038   8.341 -0.4469  0.2524 -1.2866
 2091SOL    HW2 9229   0.656   0.144   8.353 -1.6102 -1.1470  1.6206
 2092SOL     OW 9230   3.213   9.091   4.320  0.3521 -0.2195 -0.0807
 2092SOL    HW1 9231   3.198   9.160   4.385 -2.7653  0.6801 -1.5936
 2092SOL    HW2 9232   3.262   9.134   4.250 -0.6834  0.2103 -0.5544
 2093SOL     OW 9233   2.607   0.837   1.325  0.0976  0.0335 -0.6243
 2093SOL    HW1 9234   2.516   0.867   1.333  0.9295  2.1885  3.1252
 2093SOL    HW2 9235   2.610   0.756   1.376  0.2273 -0.2476 -1.0719
 2094SOL     OW 9236   3.946   7.901   3.980 -0.4484  0.5056  0.5391
 2094SOL    HW1 9237   3.902   7.822   4.013 -0.6150  0.1870 -0.4213
 2094SOL    HW2 9238   4.015   7.869   3.923  0.6372  1.0277  1.5019
 2095SOL     OW 9239  10.080   4.797   8.913  0.0353  0.6237 -0.5120
 2095SOL    HW1 9240   9.990   4.804   8.944  0.2097 -0.9617  0.4732
 2095SOL    HW2 9241  10.122   4.878   8.942 -0.6246  0.5712  0.6196
 2096SOL     OW 9242   2.748   7.977   9.107  0.1938  0.3036  0.2324
 2096SOL    HW1 9243   2.799   8.052   9.139  0.6933  0.9240 -1.8535
 2096SOL    HW2 9244   2.812   7.923   9.060 -0.1243 -1.5960  1.8462
 2097SOL     OW 9245   4.939   0.437   6.171  0.2844 -0.2697  0.2753
 2097SOL    HW1 9246   4.892   0.392   6.240 -0.7533  0.3563  0.0002
 2097SOL    HW2 9247   4.907   0.398   6.089  1.9598 -1.4466  0.1295
 2098SOL     OW 9248   4.210   7.185   6.708 -0.0836  0.9267  0.1310
 2098SOL    HW1 9249   4.239   7.124   6.776  0.9269  0.1158 -0.9999
 2098SOL    HW2 9250   4.267   7.167   6.633 -1.8918  0.9913 -1.3370
 2099SOL     OW 9251   6.679   0.841   6.549  0.1568 -0.3298 -0.1206
 2099SOL    HW1 9252   6.750   0.825   6.487  0.1634  0.3803 -0.3011
 2099SOL    HW2 9253   6.599   0.825   6.499  0.1651  0.0930 -0.2700
 2100SOL     OW 9254   2.159   6.475   9.209  0.2992 -0.5039 -0.0773
 2100SOL    HW1 9255   2.170   6.507   9.120 -2.1607 -0.3980 -0.4256
 2100SOL    HW2 9256   2.168   6.553   9.264 -0.6668 -0.0730 -0.4927
 2101SOL     OW 9257   3.008   6.081   4.551  0.0240 -0.0505  0.0660
 2101SOL    HW1 9258   2.974   6.161   4.591 -0.4798  0.2864 -0.9973
 2101SOL    HW2 9259   3.094   6.106   4.517 -0.5658  0.3588 -1.1916
 2102SOL     OW 9260   8.346   8.047   0.548 -0.6173 -0.2396 -0.2215
 2102SOL    HW1 9261   8.367   7.956   0.565  0.5702 -0.0918 -0.7951
 2102SOL    HW2 9262   8.251   8.048   0.535 -0.6318 -1.4009 -0.2861
 2103SOL     OW 9263  10.231   2.972   9.377 -0.6968 -1.0103  0.5603
 2103SOL    HW1 9264  10.156   3.030   9.360 -0.0978 -0.5362 -0.5608
 2103SOL    HW2 9265  10.208   2.890   9.335  0.0314 -0.3857 -1.1473
 2104SOL     OW 9266   4.180   7.139   5.043 -0.6793  0.1625 -0.0697
 2104SOL    HW1 9267   4.184   7.057   4.994  1.2000  0.5790 -0.6878
 2104SOL    HW2 9268   4.220   7.204   4.985 -1.5482  1.4073  0.6613
 2105SOL     OW 9269   8.182   4.213   2.446 -0.3530  0.1012  0.4252
 2105SOL    HW1 9270   8.172   4.275   2.374 -0.3507 -0.6495 -0.2429
 2105SOL    HW2 9271   8.093   4.186   2.467 -0.3694  0.4911  0.8655
 2106SOL     OW 9272   0.680   8.012   2.918 -0.0509  0.3152  0.2422
 2106SOL    HW1 9273   0.746   8.037   2.983 -0.3396 -1.5214  1.3260
 2106SOL    HW2 9274   0.599   8.004   2.968 -0.8505  1.2995 -0.8416
 2107SOL     OW 9275   5.774   2.939   4.133 -0.0643  0.0086  0.6292
 2107SOL    HW1 9276   5.844   2.949   4.068 -1.0362  2.7409 -0.1452
 2107SOL    HW2 9277   5.819   2.942   4.217  0.8846  0.3960  0.1266
 2108SOL     OW 9278   4.773   0.525   1.017  0.1258 -0.0071  0.2499
 2108SOL    HW1 9279   4.696   0.510   0.961  0.8117 -1.7699 -0.2975
 2108SOL    HW2 9280   4.761   0.465   1.090  0.6165  0.2533  0.5425
 2109SOL     OW 9281   0.689   8.339   2.409 -0.1914  0.6840  0.3974
 2109SOL    HW1 9282   0.664   8.304   2.494 -0.6112  0.6575  0.2655
 2109SOL    HW2 9283   0.606   8.349   2.362 -0.0755  1.7194  0.3813
 2110SOL     OW 9284  10.100   0.021   9.675 -0.1558  0.8251  0.0781
 2110SOL    HW1 9285  10.171   0.037   9.613  0.1389 -0.5658  0.0274
 2110SOL    HW2 9286  10.046  -0.046   9.632  0.7832 -1.1611  1.8365
 2111SOL     OW 9287   4.034   5.047   7.231 -0.2468 -0.0278 -0.3240
 2111SOL    HW1 9288   4.104   5.080   7.176  0.9939  0.9395  1.7063
 2111SOL    HW2 9289   4.074   5.039   7.318 -2.0362 -1.6878  0.4092
 2112SOL     OW 9290   5.472   9.640   8.320 -0.3359  0.1279  0.0753
 2112SOL    HW1 9291   5.509   9.706   8.380  0.0774 -1.5462  1.7537
 2112SOL    HW2 9292   5.526   9.647   8.241  0.4066  1.0392  0.6366
 2113SOL     OW 9293   2.428   0.463   9.813  0.3711  0.1578  0.2098
 2113SOL    HW1 9294   2.473   0.542   9.786 -0.9169  1.1668  0.8885
 2113SOL    HW2 9295   2.432   0.464   9.908 -0.5723 -0.0122  0.2636
 2114SOL     OW 9296   3.798   5.067   0.228  0.0507 -0.6146 -0.6344
 2114SOL    HW1 9297   3.889   5.084   0.205  0.5749 -0.5134  1.2936
 2114SOL    HW2 9298   3.763   5.153   0.252 -0.7192 -0.5767 -1.8213
 2115SOL     OW 9299   9.413   5.006   3.956  0.0365 -0.2855 -0.1491
 2115SOL    HW1 9300   9.499   5.003   3.914 -0.0928 -1.6668 -0.3526
 2115SOL    HW2 9301   9.358   5.053   3.893  0.3966 -0.2858 -0.4715
 2116SOL     OW 9302   8.535  10.615   1.153  0.3367  0.4405 -0.1684
 2116SOL    HW1 9303   8.529  10.519   1.153 -0.1975  0.4701  0.2865
 2116SOL    HW2 9304   8.480  10.643   1.227 -0.9659  1.1873 -1.3736
 2117SOL     OW 9305   3.619   5.609   4.831  0.2672  0.1507  0.3495
 2117SOL    HW1 9306   3.578   5.620   4.745  1.8920  0.2355 -0.4478
 2117SOL    HW2 9307   3.579   5.676   4.886 -0.1494  0.6805 -0.5889
 2118SOL     OW 9308   9.435   3.439   1.414  0.9346 -0.2131  0.1442
 2118SOL    HW1 9309   9.423   3.498   1.488 -1.9395  0.3498 -0.6457
 2118SOL    HW2 9310   9.438   3.352   1.452  0.8328  0.1520  1.0060
 2119SOL     OW 9311   8.809   6.428   9.755  0.3539  0.6366  0.3334
 2119SOL    HW1 9312   8.847   6.461   9.837 -0.2868  1.8610  0.1599
 2119SOL    HW2 9313   8.749   6.497   9.727  0.1425 -0.0166 -0.8869
 2120SOL     OW 9314   7.614   7.594   3.289 -0.3931 -0.5029 -0.3509
 2120SOL    HW1 9315   7.599   7.669   3.347 -0.0955 -1.2883  0.7775
 2120SOL    HW2 9316   7.704   7.605   3.258  0.6606 -1.7920  2.0111
 2121SOL     OW 9317   2.317   4.867   8.341  0.0450  0.3736 -0.4208
 2121SOL    HW1 9318   2.372   4.865   8.419  1.3268  0.5360 -1.2890
 2121SOL    HW2 9319   2.227   4.863   8.374  0.5806 -0.3211  1.0169
 2122SOL     OW 9320   9.873   7.987  10.225  0.3371  0.1191  0.1966
 2122SOL    HW1 9321   9.935   8.011  10.294  2.6358  0.8507 -1.9772
 2122SOL    HW2 9322   9.864   8.066  10.172  1.1990 -1.2664 -2.1445
 2123SOL     OW 9323   5.994   8.007   4.932 -0.0068 -0.3556  0.2280
 2123SOL    HW1 9324   5.974   8.004   5.025  0.6999  0.6668  0.4394
 2123SOL    HW2 9325   6.090   8.007   4.928 -0.0075  1.0376 -0.4096
 2124SOL     OW 9326   6.206   7.402   2.983 -0.2328 -0.0741 -0.4260
 2124SOL    HW1 9327   6.244   7.490   2.986 -0.0337 -0.1270 -1.0913
 2124SOL    HW2 9328   6.282   7.344   2.975 -0.4467 -0.1128 -2.9374
 2125SOL     OW 9329   4.646   7.293   4.143  0.2377  0.4942 -0.1515
 2125SOL    HW1 9330   4.650   7.349   4.065  0.1805  2.2755  1.0861
 2125SOL    HW2 9331   4.732   7.305   4.185 -0.4709  1.2151  1.1492
 2126SOL     OW 9332   1.007   2.758   3.382  0.1642  0.3949 -0.1026
 2126SOL    HW1 9333   1.090   2.799   3.356  1.9071 -1.5459  1.9824
 2126SOL    HW2 9334   0.944   2.788   3.317  2.9291  0.3530 -3.0479
 2127SOL     OW 9335   8.924   8.185   1.964 -0.5000 -0.2500 -0.5075
 2127SOL    HW1 9336   8.995   8.125   1.941  0.5752  0.8452 -0.1490
 2127SOL    HW2 9337   8.934   8.259   1.904 -0.5892  0.4547  0.3193
 2128SOL     OW 9338   3.365   1.783   9.152 -0.3515  0.5308  0.1038
 2128SOL    HW1 9339   3.460   1.788   9.139 -0.0496  0.8719  2.0793
 2128SOL    HW2 9340   3.343   1.864   9.200 -1.2942 -0.4001  1.3242
 2129SOL     OW 9341   5.588   4.690   8.939 -0.1297 -0.0100  0.0447
 2129SOL    HW1 9342   5.543   4.744   8.874 -2.5334 -1.2475  0.5770
 2129SOL    HW2 9343   5.574   4.600   8.909 -0.3471 -0.5496  1.6886
 2130SOL     OW 9344   7.807   6.515   0.205 -0.2135  0.6927 -0.1761
 2130SOL    HW1 9345   7.815   6.539   0.113  2.0011  2.0023  0.3053
 2130SOL    HW2 9346   7.751   6.437   0.205 -0.3670  0.7534 -2.5899
 2131SOL     OW 9347   3.432   0.217   9.204  0.0822 -0.0294 -0.3847
 2131SOL    HW1 9348   3.417   0.263   9.286 -0.0505  1.3701 -1.1581
 2131SOL    HW2 9349   3.350   0.227   9.155  0.6055  0.3334 -1.2208
 2132SOL     OW 9350  10.177   5.541   3.741  0.4953 -0.0565  0.0373
 2132SOL    HW1 9351  10.215   5.526   3.655  0.8118  0.0362  0.1616
 2132SOL    HW2 9352  10.084   5.559   3.723  0.2173 -1.5987 -0.1499
 2133SOL     OW 9353   6.229   7.863   9.936  0.0878 -0.3058  0.0684
 2133SOL    HW1 9354   6.231   7.772   9.967 -0.7095  0.3652  2.2981
 2133SOL    HW2 9355   6.206   7.914  10.014  2.3440  2.0297 -0.6472
 2134SOL     OW 9356   9.990   6.346   4.997  0.6328  0.1816 -0.4737
 2134SOL    HW1 9357  10.005   6.334   5.091  0.0887 -1.1452 -0.5366
 2134SOL    HW2 9358   9.903   6.310   4.981  0.7940  0.2222 -1.5261
 2135SOL     OW 9359   4.301   1.097   2.046 -0.1269 -0.3757 -0.1846
 2135SOL    HW1 9360   4.250   1.140   2.115  0.3422 -0.2521  0.0862
 2135SOL    HW2 9361   4.321   1.011   2.082  0.0003 -0.3622 -0.2262
 2136SOL     OW 9362   2.014   1.552   5.440 -0.0146 -0.1633 -0.3221
 2136SOL    HW1 9363   2.021   1.542   5.345 -0.8751 -0.7573 -0.3378
 2136SOL    HW2 9364   1.920   1.566   5.455  0.3673  2.1776  0.2411
 2137SOL     OW 9365   1.556   7.529   5.018 -0.4278 -0.4048  0.6515
 2137SOL    HW1 9366   1.577   7.573   4.935 -0.3027 -0.3784  0.6978
 2137SOL    HW2 9367   1.637   7.532   5.068 -0.1354 -1.5430  0.2753
 2138SOL     OW 9368   8.825  10.233   8.931 -0.1840 -0.0227  0.2689
 2138SOL    HW1 9369   8.856  10.146   8.954  0.3564  0.1832  0.3293
 2138SOL    HW2 9370   8.890  10.292   8.969 -0.6962  0.4185  0.4801
 2139SOL     OW 9371   6.957   0.973   2.412  0.4342  0.5686 -0.1502
 2139SOL    HW1 9372   6.938   1.004   2.501 -0.7930  0.4536 -0.3528
 2139SOL    HW2 9373   7.019   0.902   2.425 -1.2576 -0.8237  0.8281
 2140SOL     OW 9374   1.887   6.274   6.490 -0.1351 -0.9219 -0.2455
 2140SOL    HW1 9375   1.825   6.210   6.456 -0.9126  0.2237 -1.0722
 2140SOL    HW2 9376   1.939   6.226   6.555 -0.9830 -2.2501 -0.5214
 2141SOL     OW 9377   9.635   2.212   7.941  0.4180 -0.7388 -0.2491
 2141SOL    HW1 9378   9.672   2.288   7.986 -0.3855 -0.9964  0.8879
 2141SOL    HW2 9379   9.677   2.213   7.855 -1.0123  2.1284 -1.0336
 2142SOL     OW 9380   9.420   8.175   7.840  0.3579  0.0622 -0.1541
 2142SOL    HW1 9381   9.514   8.158   7.839  0.8220  1.9128  2.4471
 2142SOL    HW2 9382   9.390   8.142   7.925 -1.0389  0.8467 -0.3082
 2143SOL     OW 9383   7.106   5.825   3.476  0.1620 -0.6660  0.3094
 2143SOL    HW1 9384   7.020   5.817   3.434 -0.0391  1.5029  0.1976
 2143SOL    HW2 9385   7.157   5.752   3.440 -1.4367 -1.6599 -0.0511
 2144SOL     OW 9386   6.965   7.260   6.379 -0.1631 -0.3841 -0.1039
 2144SOL    HW1 9387   6.976   7.194   6.448 -0.1499  1.0147  1.2987
 2144SOL    HW2 9388   7.050   7.265   6.337 -0.0178 -0.8963  0.1104
 2145SOL     OW 9389   7.477   2.394   1.012  0.3056 -0.4356  0.5716
 2145SOL    HW1 9390   7.537   2.328   1.045  0.5204 -1.4408 -1.6308
 2145SOL    HW2 9391   7.525   2.476   1.018  0.6940 -0.7325  1.7235
 2146SOL     OW 9392   7.479   6.519   3.071 -0.4562 -0.9040  0.2117
 2146SOL    HW1 9393   7.488   6.490   3.161 -0.4768 -2.0601 -0.1440
 2146SOL    HW2 9394   7.512   6.609   3.071  1.7859 -1.6596  0.8949
 2147SOL     OW 9395   3.704   5.064   9.435  0.5400  0.2613  0.1628
 2147SOL    HW1 9396   3.786   5.065   9.484  0.7581  1.1255 -0.1871
 2147SOL    HW2 9397   3.637   5.037   9.498  1.3992 -2.6732 -0.0831
 2148SOL     OW 9398   5.200   4.939   8.455 -0.4730  0.2944  0.3682
 2148SOL    HW1 9399   5.265   5.000   8.421  0.1274 -0.3101  0.4046
 2148SOL    HW2 9400   5.118   4.964   8.411  0.2208 -0.2697 -1.3217
 2149SOL     OW 9401   8.188   0.098   6.653  0.0669  0.2659  0.1191
 2149SOL    HW1 9402   8.134   0.137   6.722 -0.4241  1.0870 -0.7040
 2149SOL    HW2 9403   8.150   0.012   6.638 -0.6471  0.6071 -0.0446
 2150SOL     OW 9404   9.591   4.930   2.566  0.8853  0.3066  0.0604
 2150SOL    HW1 9405   9.665   4.870   2.574  1.3880  0.5468 -2.0933
 2150SOL    HW2 9406   9.618   5.009   2.611  0.7672 -0.5602  1.7275
 2151SOL     OW 9407   0.930   3.372   9.926 -0.1068 -0.6564 -0.2223
 2151SOL    HW1 9408   0.901   3.286   9.896  1.0867 -0.9187 -0.6723
 2151SOL    HW2 9409   0.976   3.355  10.009  0.5816 -0.5377 -0.5678
 2152SOL     OW 9410   6.794   9.286   4.340 -0.3612  0.5151  0.5179
 2152SOL    HW1 9411   6.728   9.346   4.305 -0.9543  0.5047  1.5610
 2152SOL    HW2 9412   6.798   9.215   4.276 -0.0639  1.3780 -0.4420
 2153SOL     OW 9413   0.814   6.248   6.490  0.1651  0.4503 -0.6710
 2153SOL    HW1 9414   0.754   6.296   6.549 -0.6260  0.5390 -1.5267
 2153SOL    HW2 9415   0.894   6.300   6.491 -0.5753  1.6540 -1.3366
 2154SOL     OW 9416   9.216   1.721   0.575 -0.4618 -0.3238 -0.3468
 2154SOL    HW1 9417   9.155   1.784   0.611  1.5612  0.8612  1.2010
 2154SOL    HW2 9418   9.290   1.722   0.635  0.2345 -3.2040 -1.0147
 2155SOL     OW 9419   1.540   8.379   8.633 -0.2419  0.3572  0.1158
 2155SOL    HW1 9420   1.481   8.305   8.618 -1.4380  1.2733  0.1501
 2155SOL    HW2 9421   1.530   8.400   8.726  0.0875  0.5611  0.1075
 2156SOL     OW 9422   7.938   3.151   7.838  0.3516 -0.0113  0.1671
 2156SOL    HW1 9423   8.028   3.172   7.812 -0.2501  2.0276 -0.4817
 2156SOL    HW2 9424   7.920   3.211   7.910  0.2288 -2.0121  1.8809
 2157SOL     OW 9425   1.096   0.497   6.941 -0.2578  0.1122  0.6866
 2157SOL    HW1 9426   1.172   0.550   6.917  0.4255 -1.2789 -0.3816
 2157SOL    HW2 9427   1.121   0.456   7.024  0.4260 -0.7808  0.0592
 2158SOL     OW 9428   5.867   2.140   2.880  0.3047 -0.4398  0.5986
 2158SOL    HW1 9429   5.799   2.166   2.942  0.6527  1.3321  0.2813
 2158SOL    HW2 9430   5.934   2.097   2.934  1.7557  3.1465  1.9966
 2159SOL     OW 9431   2.178   9.474   0.158 -0.1604 -0.5544 -0.1232
 2159SOL    HW1 9432   2.167   9.463   0.063  2.0995 -0.9756 -0.3939
 2159SOL    HW2 9433   2.159   9.567   0.173  1.3084 -0.0200 -1.3336
 2160SOL     OW 9434   9.485   6.688   2.308  0.0465 -0.2226  0.2000
 2160SOL    HW1 9435   9.427   6.662   2.236  0.5508 -1.8432  0.3495
 2160SOL    HW2 9436   9.561   6.725   2.264  0.8885 -2.3043 -0.2097
 2161SOL     OW 9437  10.049   1.844   9.740  0.0048  0.4257  0.3508
 2161SOL    HW1 9438  10.058   1.749   9.730 -0.2591  0.4820 -0.4847
 2161SOL    HW2 9439   9.955   1.860   9.731  0.2867  1.0569 -2.4626
 2162SOL     OW 9440   7.638   3.076   5.888 -0.4096  0.0152  0.2920
 2162SOL    HW1 9441   7.548   3.103   5.872  0.1869  1.3159 -1.0579
 2162SOL    HW2 9442   7.687   3.158   5.898  0.9622 -0.5930 -0.9872
 2163SOL     OW 9443   1.354   3.691   1.586 -0.1500 -0.2728 -0.2662
 2163SOL    HW1 9444   1.431   3.739   1.617 -0.3340  0.2582 -0.6252
 2163SOL    HW2 9445   1.313   3.749   1.522 -1.2576 -0.2338  0.4538
 2164SOL     OW 9446   0.795   7.802  10.038 -0.1765 -0.2846 -0.0868
 2164SOL    HW1 9447   0.867   7.771   9.983  0.4715  0.9679  0.0203
 2164SOL    HW2 9448   0.813   7.764  10.124 -0.1660 -0.7425 -0.2897
 2165SOL     OW 9449   7.116   7.350   5.509  0.1360 -0.0270  0.4227
 2165SOL    HW1 9450   7.174   7.409   5.556 -0.7469 -0.6394  2.3847
 2165SOL    HW2 9451   7.174   7.283   5.472  0.9056  0.7915  0.1194
 2166SOL     OW 9452   0.928   0.895   5.459  0.3100 -0.5540  0.0691
 2166SOL    HW1 9453   0.953   0.819   5.511  0.9026 -1.1547 -1.0556
 2166SOL    HW2 9454   0.952   0.970   5.514  0.1609 -1.1704  0.9900
 2167SOL     OW 9455   0.683   1.404   0.080  0.6372  0.1921  0.0594
 2167SOL    HW1 9456   0.755   1.461   0.054  0.5146 -0.3796 -1.6500
 2167SOL    HW2 9457   0.718   1.354   0.154  2.2994 -0.6020 -1.1887
 2168SOL     OW 9458   1.485   2.346   3.032  0.7019  0.6271 -0.3180
 2168SOL    HW1 9459   1.497   2.263   2.986 -0.5975  0.8271 -1.0733
 2168SOL    HW2 9460   1.394   2.368   3.017  0.7453  1.6573  0.8049
 2169SOL     OW 9461   0.568   9.239   1.512  0.5836  0.2673 -0.2820
 2169SOL    HW1 9462   0.628   9.274   1.578  0.6781 -0.7015  0.1663
 2169SOL    HW2 9463   0.599   9.275   1.430 -0.2172  2.4112  0.3021
 2170SOL     OW 9464   0.550   0.310   6.481  0.6930 -0.0293 -0.2044
 2170SOL    HW1 9465   0.628   0.339   6.435 -0.5991 -0.2596 -2.7428
 2170SOL    HW2 9466   0.481   0.313   6.415 -1.4297  0.0026  1.8783
 2171SOL     OW 9467   6.892   3.451   2.299  0.7540 -0.1609  0.0024
 2171SOL    HW1 9468   6.831   3.392   2.343  1.3036 -1.8211 -1.3374
 2171SOL    HW2 9469   6.976   3.433   2.341  0.7349  0.4514  0.3040
 2172SOL     OW 9470  10.097   1.024   9.308  0.8721  0.1609 -0.4032
 2172SOL    HW1 9471  10.056   0.937   9.312  0.2870  0.4639  0.9954
 2172SOL    HW2 9472  10.059   1.065   9.230 -0.8179  0.0721  0.3144
 2173SOL     OW 9473   7.912   0.111  10.057 -0.0264  0.4645  0.0351
 2173SOL    HW1 9474   7.827   0.076  10.086 -1.1278  1.4264 -1.8385
 2173SOL    HW2 9475   7.928   0.067   9.974  1.0000  0.7772  0.0615
 2174SOL     OW 9476   3.271   6.761   3.559 -0.2461 -0.2113 -0.3827
 2174SOL    HW1 9477   3.192   6.727   3.602 -0.3426  0.8938  0.3365
 2174SOL    HW2 9478   3.261   6.856   3.561  0.0419 -0.0935 -2.3122
 2175SOL     OW 9479   7.101  10.439   3.764 -0.3578 -0.5424  0.7009
 2175SOL    HW1 9480   7.147  10.489   3.832  1.6502 -1.7537  0.3161
 2175SOL    HW2 9481   7.167  10.425   3.696 -1.8199 -0.9026 -0.6897
 2176SOL     OW 9482  10.660   7.207   4.779 -0.2148  0.2852  0.0214
 2176SOL    HW1 9483  10.617   7.172   4.701 -0.5507 -2.6967  1.3893
 2176SOL    HW2 9484  10.606   7.175   4.852  0.8770  1.7565  1.5433
 2177SOL     OW 9485   6.116   1.000   3.585  0.1349  0.1942 -0.1884
 2177SOL    HW1 9486   6.146   0.964   3.669 -1.5618 -0.7942  0.0409
 2177SOL    HW2 9487   6.181   1.067   3.563  0.3146  0.8891  2.1854
 2178SOL     OW 9488   9.725   6.892   9.834  0.1371  0.2527 -0.2850
 2178SOL    HW1 9489   9.736   6.915   9.741 -0.1238  0.4098 -0.2761
 2178SOL    HW2 9490   9.634   6.865   9.841 -0.2338  1.5521  0.2058
 2179SOL     OW 9491   8.086   4.574   6.105 -0.3996  0.3140 -0.0578
 2179SOL    HW1 9492   8.097   4.526   6.188 -1.8100  1.0440  0.6048
 2179SOL    HW2 9493   7.993   4.561   6.084 -0.0155  0.0107 -1.6314
 2180SOL     OW 9494   1.125  10.305   7.383 -0.7781  0.0250  0.3319
 2180SOL    HW1 9495   1.198  10.265   7.336 -0.8291  0.0292  0.2495
 2180SOL    HW2 9496   1.125  10.263   7.469  0.1004  0.9105  0.7830
 2181SOL     OW 9497   6.913   8.707  10.107 -0.0478 -0.1442  0.4296
 2181SOL    HW1 9498   6.914   8.666  10.020  0.3594 -0.4997  0.6011
 2181SOL    HW2 9499   6.986   8.667  10.153 -0.6422 -0.4142  1.1513
 2182SOL     OW 9500   9.258   8.902   3.767 -0.0141 -0.4114 -0.3326
 2182SOL    HW1 9501   9.226   8.903   3.677 -0.8928 -1.5084 -0.0440
 2182SOL    HW2 9502   9.198   8.960   3.814  0.1012 -0.2871 -0.3390
 2183SOL     OW 9503   4.212   2.985   7.435 -0.1568  0.6307 -0.5331
 2183SOL    HW1 9504   4.257   2.922   7.492 -1.6052  0.1941  0.1816
 2183SOL    HW2 9505   4.257   2.978   7.351  0.4829 -0.4898 -0.1222
 2184SOL     OW 9506   2.652   5.465   4.439 -0.0303  0.1721 -0.5879
 2184SOL    HW1 9507   2.627   5.556   4.419  1.0133  0.2656 -1.6152
 2184SOL    HW2 9508   2.744   5.471   4.463 -0.0703 -0.5669 -0.2407
 2185SOL     OW 9509   2.322   0.369   0.797 -0.4326 -0.2710  0.0588
 2185SOL    HW1 9510   2.329   0.346   0.890  0.6527 -0.4886 -0.0613
 2185SOL    HW2 9511   2.344   0.462   0.794  1.3465 -0.6635 -0.1687
 2186SOL     OW 9512   5.006   9.324   6.141  0.0092 -0.4137  1.0510
 2186SOL    HW1 9513   4.920   9.363   6.129  0.9944  1.8153  0.8009
 2186SOL    HW2 9514   5.016   9.265   6.066 -1.0659 -0.2900  0.7895
 2187SOL     OW 9515   8.062   0.562   9.161  0.2676 -0.0959  0.0947
 2187SOL    HW1 9516   8.089   0.638   9.213 -0.8331 -0.6546  1.5440
 2187SOL    HW2 9517   7.973   0.584   9.133  0.3323 -0.4161 -0.3613
 2188SOL     OW 9518   5.060   0.055   4.137 -0.1143  0.5539 -0.4085
 2188SOL    HW1 9519   4.977   0.021   4.104 -0.3327 -0.3817  1.0354
 2188SOL    HW2 9520   5.042   0.147   4.156 -0.1866  0.9297 -2.1190
 2189SOL     OW 9521   4.885   9.491   3.888  0.3470 -0.3259  0.1666
 2189SOL    HW1 9522   4.956   9.544   3.852 -0.9801 -0.2962 -2.6608
 2189SOL    HW2 9523   4.923   9.449   3.965  3.0849  0.5304 -0.6193
 2190SOL     OW 9524   0.517  10.576   8.456 -0.6461  0.7288 -0.4523
 2190SOL    HW1 9525   0.579  10.640   8.492  0.1972  1.3892 -2.8789
 2190SOL    HW2 9526   0.569  10.498   8.439 -1.4973 -0.3915  1.6715
 2191SOL     OW 9527   6.701   5.885   2.207  0.1385 -0.0370 -0.5359
 2191SOL    HW1 9528   6.768   5.850   2.149 -0.4929  1.3515 -2.1800
 2191SOL    HW2 9529   6.644   5.810   2.226  0.2161 -0.4750 -1.9413
 2192SOL     OW 9530   9.135   6.093   1.006  0.6906  0.0812  0.0930
 2192SOL    HW1 9531   9.172   6.093   0.918  1.6096 -0.0558  0.4721
 2192SOL    HW2 9532   9.173   6.016   1.048 -2.0955 -1.6488 -0.3446
 2193SOL     OW 9533   4.139   7.061   7.380 -0.3997  0.5745 -0.1796
 2193SOL    HW1 9534   4.152   7.144   7.426 -0.3722  0.5042 -0.0571
 2193SOL    HW2 9535   4.080   7.082   7.308 -0.9203  0.5696  0.2441
 2194SOL     OW 9536   8.613  10.636   4.040  0.5642 -0.6934  0.2675
 2194SOL    HW1 9537   8.580  10.612   3.954  2.0926 -0.2400 -0.4836
 2194SOL    HW2 9538   8.643  10.726   4.030  0.8632 -0.6684  1.2504
 2195SOL     OW 9539   7.481   1.319   9.778  0.0936  0.0846  0.1657
 2195SOL    HW1 9540   7.485   1.394   9.837  1.0956 -0.2915  0.6105
 2195SOL    HW2 9541   7.396   1.278   9.796  0.1376  0.3151  0.9315
 2196SOL     OW 9542   6.274   3.797   6.620  0.0544  0.3125  0.1048
 2196SOL    HW1 9543   6.353   3.810   6.672  0.5748  0.3967 -0.6899
 2196SOL    HW2 9544   6.297   3.826   6.532 -0.7766  0.0800 -0.2071
 2197SOL     OW 9545   7.322   6.008   3.399 -0.1370  1.0089  0.4934
 2197SOL    HW1 9546   7.325   6.005   3.304 -0.9541  0.6081  0.4692
 2197SOL    HW2 9547   7.265   5.935   3.423  1.5428 -0.0943  1.3899
 2198SOL     OW 9548   5.954   3.664   1.686 -0.6314 -0.1810  0.3274
 2198SOL    HW1 9549   5.860   3.651   1.681 -1.3454  4.0692 -2.0880
 2198SOL    HW2 9550   5.968   3.698   1.775 -1.0667 -2.0284  1.1484
 2199SOL     OW 9551   4.158   1.811   2.848  0.6986 -0.2767 -0.3639
 2199SOL    HW1 9552   4.099   1.797   2.921  1.7855 -0.4192  0.5025
 2199SOL    HW2 9553   4.116   1.880   2.796 -0.8129 -1.2314 -0.4458
 2200SOL     OW 9554   7.608   7.704   0.564 -0.0117 -0.1461 -0.0865
 2200SOL    HW1 9555   7.605   7.800   0.572  2.5879 -0.0829  1.0230
 2200SOL    HW2 9556   7.610   7.672   0.654 -2.0471 -1.3869 -0.4095
 2201SOL     OW 9557   2.551   5.626   3.008  0.1380  0.5923 -0.5488
 2201SOL    HW1 9558   2.585   5.561   3.070  0.2071  1.6594  0.5781
 2201SOL    HW2 9559   2.614   5.698   3.013 -1.6670  2.1644  0.7925
 2202SOL     OW 9560   4.923   7.025   9.003  0.1901 -0.0219  0.1426
 2202SOL    HW1 9561   4.885   6.940   9.026  1.1454 -0.7604 -0.8754
 2202SOL    HW2 9562   5.013   7.005   8.978  0.3987  1.2777 -0.2426
 2203SOL     OW 9563   5.440   8.946   6.014 -0.5418 -0.7654 -0.4946
 2203SOL    HW1 9564   5.521   8.916   6.055 -0.4983 -2.2167 -1.5450
 2203SOL    HW2 9565   5.382   8.969   6.087  1.1711  1.4561  0.2745
 2204SOL     OW 9566   7.920   4.378   2.744 -0.2043  0.0955 -0.5493
 2204SOL    HW1 9567   7.952   4.360   2.655 -0.8316 -0.8394 -0.6066
 2204SOL    HW2 9568   7.827   4.358   2.740 -0.8934  2.9037 -0.4187
 2205SOL     OW 9569   9.636   5.197   8.913  0.0549  0.3467  0.1019
 2205SOL    HW1 9570   9.714   5.182   8.860 -0.2028  0.6728 -0.3796
 2205SOL    HW2 9571   9.670   5.220   9.000  0.4741 -0.9495  0.3077
 2206SOL     OW 9572   8.288   7.860   6.927 -0.0316  0.2455 -0.4050
 2206SOL    HW1 9573   8.326   7.875   7.013 -0.0673  2.2404 -0.6747
 2206SOL    HW2 9574   8.220   7.794   6.941 -0.6330  1.1622  1.2803
 2207SOL     OW 9575   2.685   8.138   7.611  0.4410 -0.2097  0.0961
 2207SOL    HW1 9576   2.678   8.043   7.600  0.8535 -0.4412  1.6450
 2207SOL    HW2 9577   2.760   8.150   7.670  0.2062  1.0615  0.1602
 2208SOL     OW 9578   2.669   1.262   3.911 -0.4252  0.1921 -0.5304
 2208SOL    HW1 9579   2.590   1.314   3.897  0.0698  0.4443 -2.7684
 2208SOL    HW2 9580   2.643   1.172   3.891  0.1527  0.4828 -2.9728
 2209SOL     OW 9581   7.448   0.859   3.686  0.3033  0.2481  0.2930
 2209SOL    HW1 9582   7.468   0.952   3.693  0.9000  0.0810  0.9129
 2209SOL    HW2 9583   7.355   0.856   3.663  0.1382  0.9841  0.8262
 2210SOL     OW 9584   0.791   8.433   1.505 -0.2953 -0.0203 -0.2782
 2210SOL    HW1 9585   0.699   8.461   1.504  0.0539  1.1718 -0.4759
 2210SOL    HW2 9586   0.805   8.401   1.594 -0.7687  0.3122 -0.0770
 2211SOL     OW 9587   4.139  10.208  10.281 -0.2345  0.7259 -0.3596
 2211SOL    HW1 9588   4.211  10.164  10.237 -1.0255  0.9821 -1.9895
 2211SOL    HW2 9589   4.165  10.212  10.373 -0.2861 -3.4599 -0.0035
 2212SOL     OW 9590   6.957   9.390   1.701 -0.2520 -0.0600 -0.0480
 2212SOL    HW1 9591   7.001   9.471   1.674 -1.7680  0.8479  0.0906
 2212SOL    HW2 9592   6.874   9.392   1.654 -0.3606 -1.4995  0.0495
 2213SOL     OW 9593   4.074   4.584   7.245 -0.0259  0.3942 -0.4628
 2213SOL    HW1 9594   4.007   4.523   7.274 -2.0510  1.1842 -3.0434
 2213SOL    HW2 9595   4.026   4.665   7.225  2.0495  1.7454 -0.3263
 2214SOL     OW 9596   0.256   6.330   1.888 -0.0838 -0.6707  0.6437
 2214SOL    HW1 9597   0.231   6.334   1.981 -0.1187  0.8475  0.5992
 2214SOL    HW2 9598   0.330   6.270   1.886  1.1865  0.7457  1.9964
 2215SOL     OW 9599   7.248   4.303   8.505  0.2468 -0.3675 -0.1223
 2215SOL    HW1 9600   7.189   4.374   8.531 -0.2209 -0.1868 -1.6040
 2215SOL    HW2 9601   7.317   4.347   8.454  0.6248 -0.8305 -0.0186
 2216SOL     OW 9602   2.045   9.785   1.671 -0.3256 -0.7996  0.2793
 2216SOL    HW1 9603   2.005   9.853   1.725  0.2587  0.4268 -0.7907
 2216SOL    HW2 9604   2.096   9.832   1.605  0.6313 -2.2773 -0.1044
 2217SOL     OW 9605   2.173   4.618   6.786 -0.7976  0.1518 -0.0760
 2217SOL    HW1 9606   2.223   4.553   6.836 -2.1794 -1.5067 -0.7471
 2217SOL    HW2 9607   2.101   4.642   6.844 -0.5642  0.7120 -0.0200
 2218SOL     OW 9608   8.557   0.460   7.876  0.9799 -0.4676  0.3485
 2218SOL    HW1 9609   8.473   0.420   7.853 -0.0234  2.0240 -0.8113
 2218SOL    HW2 9610   8.576   0.429   7.964 -0.9419 -1.4746  0.4589
 2219SOL     OW 9611   9.057   7.927   2.938 -0.6450 -0.3432  0.5126
 2219SOL    HW1 9612   9.059   8.000   3.000  0.5275  1.7090 -1.7230
 2219SOL    HW2 9613   9.149   7.901   2.928 -0.8632 -0.9612  0.0143
 2220SOL     OW 9614  10.267  10.185   0.884 -0.1330 -0.1462  0.0035
 2220SOL    HW1 9615  10.266  10.281   0.879 -0.0289 -0.1492 -0.0941
 2220SOL    HW2 9616  10.288  10.166   0.975  1.4282 -0.0625 -0.3132
 2221SOL     OW 9617   4.081   5.691   8.358  0.1098  0.3582  0.5541
 2221SOL    HW1 9618   4.017   5.682   8.429  0.1069  0.5036  0.5701
 2221SOL    HW2 9619   4.038   5.651   8.282  0.5850 -0.8866  0.9119
 2222SOL     OW 9620   3.183   3.404   2.216  0.3233 -0.5560 -0.0242
 2222SOL    HW1 9621   3.148   3.449   2.139 -2.8133 -0.0542  1.5231
 2222SOL    HW2 9622   3.262   3.453   2.238  0.4994  0.1760 -2.0500
 2223SOL     OW 9623   5.353   4.637   6.704  0.2301  0.0662  0.1434
 2223SOL    HW1 9624   5.324   4.602   6.789 -0.4627 -1.3574 -0.6553
 2223SOL    HW2 9625   5.376   4.728   6.723  0.1118 -0.2276  1.8675
 2224SOL     OW 9626   2.156   0.441   5.820  0.1315 -0.4218  0.5453
 2224SOL    HW1 9627   2.122   0.518   5.865  0.7754  0.5652 -0.5873
 2224SOL    HW2 9628   2.245   0.430   5.855  0.2402 -0.3057  0.3090
 2225SOL     OW 9629   4.296   2.525   1.159 -0.0097 -0.1554  0.3431
 2225SOL    HW1 9630   4.247   2.532   1.241  1.9750  0.2277  1.5611
 2225SOL    HW2 9631   4.229   2.524   1.091 -1.6634  1.1550  1.8577
 2226SOL     OW 9632   8.394   0.664   1.926  0.0040  0.2367  0.4489
 2226SOL    HW1 9633   8.406   0.657   2.021 -0.2056  2.1268  0.6589
 2226SOL    HW2 9634   8.475   0.630   1.889  1.0292  1.4805  1.4203
 2227SOL     OW 9635   2.190   3.167   2.533  0.1837  0.3130 -0.0281
 2227SOL    HW1 9636   2.266   3.204   2.578  0.4174 -1.4233  1.1258
 2227SOL    HW2 9637   2.221   3.152   2.444  1.7386 -1.6227  0.7460
 2228SOL     OW 9638   6.955   8.494   0.446  0.3123 -0.3175 -0.4437
 2228SOL    HW1 9639   6.899   8.426   0.408  0.3916 -0.2869 -0.6141
 2228SOL    HW2 9640   6.926   8.576   0.405  1.5480 -0.4934 -1.7694
 2229SOL     OW 9641  10.578   2.004   5.875 -0.2794  0.2146 -0.2645
 2229SOL    HW1 9642  10.652   2.026   5.819 -1.0230  0.8461 -1.0136
 2229SOL    HW2 9643  10.604   2.035   5.962  1.3751 -1.8168  0.0609
 2230SOL     OW 9644   5.885   4.687   0.467 -0.3628 -0.2646 -0.1483
 2230SOL    HW1 9645   5.949   4.658   0.403  0.3176 -1.0530  0.8437
 2230SOL    HW2 9646   5.853   4.771   0.434  1.2487  0.1891 -0.6175
 2231SOL     OW 9647   8.654  10.435   8.052  0.1492 -0.0385 -0.2282
 2231SOL    HW1 9648   8.640  10.346   8.085 -0.1631  0.1193  0.0709
 2231SOL    HW2 9649   8.602  10.439   7.972  0.1510 -0.1226 -0.2338
 2232SOL     OW 9650   0.722   4.298   4.714 -0.0084 -0.5520  0.0113
 2232SOL    HW1 9651   0.704   4.392   4.719  0.2135 -0.5839  2.4111
 2232SOL    HW2 9652   0.780   4.289   4.638 -0.9679  1.0626 -0.9694
 2233SOL     OW 9653   0.750   0.304   1.466 -0.2885 -0.2401 -0.1024
 2233SOL    HW1 9654   0.842   0.330   1.466 -0.4389  0.3784 -1.3408
 2233SOL    HW2 9655   0.735   0.268   1.378 -1.4438  0.5101 -0.2325
 2234SOL     OW 9656   9.158   2.437   3.154  0.2149  0.5682  0.2388
 2234SOL    HW1 9657   9.190   2.520   3.118 -0.0291  0.5249 -0.0874
 2234SOL    HW2 9658   9.067   2.432   3.126  0.7388 -0.7022 -1.4176
 2235SOL     OW 9659   5.844   4.720   0.772  0.0597  0.2204  0.1057
 2235SOL    HW1 9660   5.858   4.727   0.678 -2.8828 -0.8039 -0.5122
 2235SOL    HW2 9661   5.804   4.803   0.797  2.0059  1.0278  0.8144
 2236SOL     OW 9662   7.014   1.870   0.425  0.0141  0.0867  0.6433
 2236SOL    HW1 9663   6.969   1.838   0.347  1.2595 -0.6776  0.2071
 2236SOL    HW2 9664   7.103   1.889   0.395  0.2131  0.8359  1.6443
 2237SOL     OW 9665   7.217   4.789   5.162 -0.4356  0.4011 -0.3140
 2237SOL    HW1 9666   7.204   4.828   5.076 -2.1990  1.1363  0.2525
 2237SOL    HW2 9667   7.257   4.859   5.214  0.2762  0.0778 -0.4110
 2238SOL     OW 9668   6.007   5.623   3.614  0.0686 -0.0677 -0.2759
 2238SOL    HW1 9669   5.931   5.630   3.556  0.6005 -0.4223 -1.0383
 2238SOL    HW2 9670   6.065   5.694   3.585 -0.3080  0.7380  0.8512
 2239SOL     OW 9671  10.503   7.786   8.049  0.2388 -0.0480  0.1256
 2239SOL    HW1 9672  10.518   7.723   7.978  0.4886 -0.1116  0.2319
 2239SOL    HW2 9673  10.438   7.744   8.105 -0.2705  0.1837 -0.2864
 2240SOL     OW 9674   8.717   6.720   3.584  0.9918 -0.2566 -0.0068
 2240SOL    HW1 9675   8.788   6.782   3.567  1.6990 -1.1515 -0.4407
 2240SOL    HW2 9676   8.715   6.664   3.506 -0.7427  0.2470 -0.3615
 2241SOL     OW 9677   2.608   9.815   8.506 -0.4647  0.0675 -0.2856
 2241SOL    HW1 9678   2.637   9.775   8.588 -1.3051 -2.3764 -1.0757
 2241SOL    HW2 9679   2.675   9.789   8.442  0.7227  2.7890 -0.2774
 2242SOL     OW 9680   9.238   8.488   4.995 -0.3004 -0.5323  0.2524
 2242SOL    HW1 9681   9.186   8.568   5.002  1.5928  0.7681  0.3936
 2242SOL    HW2 9682   9.268   8.487   4.904 -1.8905 -2.1796 -0.2950
 2243SOL     OW 9683   6.161   0.761   8.744 -0.1638  0.0889 -0.3368
 2243SOL    HW1 9684   6.169   0.706   8.666  0.5974  1.3179 -1.1757
 2243SOL    HW2 9685   6.070   0.793   8.741 -0.4896 -0.7934 -0.0580
 2244SOL     OW 9686   2.687   9.331  10.469 -0.8036 -0.7541  0.0853
 2244SOL    HW1 9687   2.699   9.301  10.379 -2.0135  0.2540 -0.4446
 2244SOL    HW2 9688   2.592   9.332  10.481 -0.6465 -1.0689  1.4484
 2245SOL     OW 9689   2.836   0.389   1.141  0.6755  0.5291  0.2971
 2245SOL    HW1 9690   2.902   0.332   1.102 -1.2562 -0.1670 -2.2618
 2245SOL    HW2 9691   2.844   0.471   1.091 -0.3918  0.4128 -0.0849
 2246SOL     OW 9692   6.165   2.014   9.041  0.6524 -0.3087  0.5252
 2246SOL    HW1 9693   6.143   1.939   9.097 -0.3648 -0.5131 -0.1189
 2246SOL    HW2 9694   6.253   2.040   9.068  1.2104 -2.0248  0.4547
 2247SOL     OW 9695   2.913   7.892   8.168 -0.2771 -0.5988  0.1978
 2247SOL    HW1 9696   3.000   7.869   8.200  0.7821 -0.9060 -2.6145
 2247SOL    HW2 9697   2.872   7.808   8.146 -0.2516 -0.3533 -0.8590
 2248SOL     OW 9698   8.032   3.415   8.952 -0.2350 -0.2796 -0.3405
 2248SOL    HW1 9699   7.948   3.445   8.985  1.8033  3.4694  2.1963
 2248SOL    HW2 9700   8.048   3.333   9.000 -1.2704  0.4001  1.2493
 2249SOL     OW 9701   4.353   2.298   2.725 -1.2472  0.0255 -0.4634
 2249SOL    HW1 9702   4.263   2.301   2.694 -0.5060 -0.5598 -2.9558
 2249SOL    HW2 9703   4.379   2.389   2.736 -1.2855  0.3612 -2.7029
 2250SOL     OW 9704   7.279   3.633   7.573 -0.0487 -0.2222 -0.3484
 2250SOL    HW1 9705   7.339   3.659   7.643  0.9863  0.2406 -1.3556
 2250SOL    HW2 9706   7.277   3.709   7.515 -2.6683  0.2806  0.2990
 2251SOL     OW 9707   0.927   0.352   1.027  0.0093  0.3909  0.2373
 2251SOL    HW1 9708   0.920   0.286   0.957  1.6324  0.6923 -0.2427
 2251SOL    HW2 9709   0.994   0.317   1.086 -1.5849 -0.0277  1.8791
 2252SOL     OW 9710   1.380   0.048  10.647 -0.1010  1.1238  0.0699
 2252SOL    HW1 9711   1.315  -0.021  10.635  0.2980  1.1028 -2.4893
 2252SOL    HW2 9712   1.348   0.098  10.723 -2.1849  0.1160 -0.0714
 2253SOL     OW 9713   5.139   1.777   3.636  0.6654  0.2686  0.5227
 2253SOL    HW1 9714   5.126   1.836   3.561 -2.5828  0.3821  1.0225
 2253SOL    HW2 9715   5.193   1.827   3.697  0.9450  1.3236 -0.5507
 2254SOL     OW 9716   7.991   4.847   1.694  0.1619 -0.2049 -0.2462
 2254SOL    HW1 9717   8.017   4.939   1.702  1.7996 -0.7660  1.3225
 2254SOL    HW2 9718   8.011   4.808   1.779 -1.2586 -1.8668 -0.6036
 2255SOL     OW 9719   4.492   8.777   1.808 -0.4357 -0.6667 -0.2282
 2255SOL    HW1 9720   4.429   8.739   1.870  0.4599 -1.5312  0.1770
 2255SOL    HW2 9721   4.574   8.779   1.856  0.3764 -1.7664 -1.5078
 2256SOL     OW 9722   5.654   5.069   1.245 -0.2062 -0.0569  0.2406
 2256SOL    HW1 9723   5.714   5.143   1.231 -0.0845 -0.0270  0.8677
 2256SOL    HW2 9724   5.695   4.996   1.197  0.9459 -0.3315  1.5600
 2257SOL     OW 9725   9.925   0.210   8.164  0.0423  0.2608  1.3236
 2257SOL    HW1 9726   9.894   0.124   8.137 -1.7540  0.7278  1.7496
 2257SOL    HW2 9727   9.845   0.263   8.171  1.1128  2.0704  0.6999
 2258SOL     OW 9728   7.597   4.050   4.322 -0.3482  0.5467  0.2434
 2258SOL    HW1 9729   7.601   4.022   4.413 -2.4249  0.0108  0.2178
 2258SOL    HW2 9730   7.513   4.015   4.290 -0.0928  1.5154 -1.5928
 2259SOL     OW 9731   0.590   6.512   5.642 -0.0233 -0.2099 -0.4063
 2259SOL    HW1 9732   0.637   6.514   5.725  1.0399  0.9057 -1.0102
 2259SOL    HW2 9733   0.645   6.562   5.582 -0.9833 -0.6384 -1.6782
 2260SOL     OW 9734   3.967   5.648   0.095  0.3709 -1.2888  0.1598
 2260SOL    HW1 9735   3.891   5.643   0.037  0.7111 -1.4136 -0.2745
 2260SOL    HW2 9736   4.009   5.731   0.073 -0.0941 -0.8199  0.9768
 2261SOL     OW 9737  10.205   7.769   7.903 -0.7755 -0.3959 -0.2914
 2261SOL    HW1 9738  10.236   7.718   7.978  0.4884 -0.2912 -0.7267
 2261SOL    HW2 9739  10.264   7.745   7.831  1.1239  3.0328 -0.0861
 2262SOL     OW 9740   7.945   6.588   2.138  1.0337  0.0322 -0.1562
 2262SOL    HW1 9741   7.888   6.533   2.085 -0.3643  2.0097 -0.8357
 2262SOL    HW2 9742   7.910   6.581   2.227  1.9293 -1.4595  0.1054
 2263SOL     OW 9743   3.097   6.574   1.468 -0.3285  0.4473  0.0905
 2263SOL    HW1 9744   3.021   6.629   1.487 -2.2289 -2.4481  1.6398
 2263SOL    HW2 9745   3.072   6.524   1.391  0.9056  0.9033 -0.6336
 2264SOL     OW 9746   1.026   3.326   9.610  0.4463 -0.0888 -0.1697
 2264SOL    HW1 9747   1.036   3.239   9.650 -0.5138 -0.0776  0.1133
 2264SOL    HW2 9748   0.932   3.344   9.615  0.5898  0.8122 -0.5622
 2265SOL     OW 9749   5.588   2.793   1.503 -0.6646 -0.0632 -0.4016
 2265SOL    HW1 9750   5.498   2.782   1.531  0.2405 -1.2756  2.3620
 2265SOL    HW2 9751   5.616   2.876   1.542 -0.5247  0.2949 -1.2195
 2266SOL     OW 9752   6.161   4.240   9.018  0.7218  0.2251  0.2382
 2266SOL    HW1 9753   6.250   4.211   9.037  0.4799  0.3969  1.7642
 2266SOL    HW2 9754   6.164   4.269   8.927  1.3391 -3.1801 -1.0054
 2267SOL     OW 9755   6.784   0.339   9.603 -0.0236  0.0585  0.6101
 2267SOL    HW1 9756   6.757   0.301   9.520  0.2932 -2.5310  1.5831
 2267SOL    HW2 9757   6.764   0.271   9.668  1.1813  1.3488  2.4425
 2268SOL     OW 9758   1.038   5.993   2.496  0.5510 -0.1256  0.7027
 2268SOL    HW1 9759   1.107   6.058   2.510  1.6244 -1.2063  0.5111
 2268SOL    HW2 9760   1.040   5.939   2.574 -2.9976  2.3254  2.7965
 2269SOL     OW 9761  10.586   9.944   2.745  0.3545 -0.0684  1.1349
 2269SOL    HW1 9762  10.577  10.039   2.748 -1.5278 -0.0639 -1.1827
 2269SOL    HW2 9763  10.680   9.928   2.753  0.7389  1.9971  1.2692
 2270SOL     OW 9764   3.481   7.371   1.397  0.2047  0.4480 -0.0506
 2270SOL    HW1 9765   3.414   7.342   1.459  0.2589  0.4981  0.0304
 2270SOL    HW2 9766   3.564   7.353   1.440  0.2512  0.0612 -0.2949
 2271SOL     OW 9767   2.882   4.785   8.876 -0.4980 -0.2719  0.4081
 2271SOL    HW1 9768   2.971   4.788   8.840 -0.2283 -1.0354  0.9810
 2271SOL    HW2 9769   2.866   4.874   8.908  1.1799 -0.7357  2.8745
 2272SOL     OW 9770   4.953   6.766   1.369  0.1091  0.4931 -0.3231
 2272SOL    HW1 9771   4.938   6.812   1.452  0.2811  0.3523 -0.2154
 2272SOL    HW2 9772   4.913   6.823   1.303  1.7377  1.6169 -0.3978
 2273SOL     OW 9773   9.969   0.714   2.475 -0.3228  0.6839  0.0392
 2273SOL    HW1 9774  10.053   0.695   2.433  0.3697  0.8265  1.3323
 2273SOL    HW2 9775   9.904   0.691   2.408  0.6569 -1.4169 -0.2782
 2274SOL     OW 9776   0.105   7.615   2.054 -0.1261 -0.1443 -0.6176
 2274SOL    HW1 9777   0.140   7.527   2.069 -2.3814 -0.8787  0.7359
 2274SOL    HW2 9778   0.031   7.602   1.994  1.6025  1.3452 -3.2891
 2275SOL     OW 9779   0.217   3.683   5.766 -0.0395 -0.2143  0.0146
 2275SOL    HW1 9780   0.270   3.606   5.741  1.1116  0.2289  0.9907
 2275SOL    HW2 9781   0.151   3.689   5.698  0.5826 -1.3744 -0.7350
 2276SOL     OW 9782   6.181   6.454   3.360 -0.2920 -0.3270 -0.1694
 2276SOL    HW1 9783   6.248   6.517   3.334 -1.1544  0.7513  0.1005
 2276SOL    HW2 9784   6.107   6.509   3.386 -1.0209 -1.4694  0.2184
 2277SOL     OW 9785   5.618   4.182   7.431  0.5719 -0.0659  0.5689
 2277SOL    HW1 9786   5.576   4.267   7.414  1.1501  0.2440  0.6676
 2277SOL    HW2 9787   5.638   4.148   7.344  2.7999  1.1516  0.5494
 2278SOL     OW 9788   8.725   7.279  10.032  0.5988  0.0186 -0.1235
 2278SOL    HW1 9789   8.810   7.257  10.070 -0.3951 -1.3649  1.4730
 2278SOL    HW2 9790   8.743   7.353   9.975  3.0303 -0.8118 -0.5713
 2279SOL     OW 9791   8.470   1.951   2.540 -0.4313 -0.1856  0.5749
 2279SOL    HW1 9792   8.425   2.033   2.563 -0.8116 -0.8237  2.2323
 2279SOL    HW2 9793   8.561   1.967   2.564  0.0895  0.7056 -1.7352
 2280SOL     OW 9794   7.848   9.010  10.529 -0.4535 -0.0965 -0.1499
 2280SOL    HW1 9795   7.802   8.952  10.589  1.1182 -1.6587 -0.3568
 2280SOL    HW2 9796   7.844   9.096  10.571 -2.5669 -0.3767  0.3281
 2281SOL     OW 9797   0.471   4.681   9.882  0.2968  0.2009 -0.2016
 2281SOL    HW1 9798   0.535   4.715   9.819  1.1069 -0.1749  0.3976
 2281SOL    HW2 9799   0.497   4.720   9.965 -0.6404  0.5284 -0.0548
 2282SOL     OW 9800   9.528   3.978   1.827  0.1500 -0.5868 -0.0158
 2282SOL    HW1 9801   9.497   3.992   1.738  0.0910  0.3084  0.1396
 2282SOL    HW2 9802   9.541   4.066   1.863 -0.7874 -0.9154  1.1964
 2283SOL     OW 9803   7.359   7.045   3.978 -0.1790  0.0871  0.6096
 2283SOL    HW1 9804   7.267   7.063   3.995  0.1632  1.8376  0.8599
 2283SOL    HW2 9805   7.361   7.014   3.887 -0.9749  0.5004  0.4414
 2284SOL     OW 9806   6.382   6.310   2.394  0.5855 -0.3963  0.4471
 2284SOL    HW1 9807   6.477   6.302   2.390  0.5987 -0.1488 -3.2633
 2284SOL    HW2 9808   6.356   6.254   2.468  3.5302 -0.6074  1.4573
 2285SOL     OW 9809   2.230   5.042   1.621  0.0485 -0.6153  0.2653
 2285SOL    HW1 9810   2.240   5.105   1.693 -2.2143 -1.4796  1.4391
 2285SOL    HW2 9811   2.310   4.990   1.624  0.8995  0.6496  0.8038
 2286SOL     OW 9812   7.613   3.418   0.095  0.0197  0.3693 -0.1226
 2286SOL    HW1 9813   7.518   3.424   0.106 -0.0041 -0.3443  0.1047
 2286SOL    HW2 9814   7.631   3.324   0.095  0.9893  0.4942  2.2819
 2287SOL     OW 9815   6.798   5.125   4.080  0.0759  0.2456 -0.0540
 2287SOL    HW1 9816   6.756   5.050   4.122  0.0482  0.8716  1.0794
 2287SOL    HW2 9817   6.886   5.128   4.118  0.0439  0.8473 -0.0255
 2288SOL     OW 9818   3.166   9.704   4.496 -0.1789  0.1484  0.1029
 2288SOL    HW1 9819   3.239   9.726   4.439  0.0076  0.1149  0.3270
 2288SOL    HW2 9820   3.203   9.707   4.584 -0.5918  0.7148  0.2606
 2289SOL     OW 9821   6.591   4.201   3.761 -0.3923  0.1922  0.5807
 2289SOL    HW1 9822   6.520   4.192   3.698 -0.3593 -1.0431  0.7064
 2289SOL    HW2 9823   6.597   4.116   3.804  0.4748  0.5993  1.3077
 2290SOL     OW 9824  10.257   6.781   0.830  0.0783  0.3340 -0.2124
 2290SOL    HW1 9825  10.281   6.689   0.840  1.4210  0.5152 -1.4922
 2290SOL    HW2 9826  10.205   6.784   0.750  0.4457  0.7529 -0.4365
 2291SOL     OW 9827   1.849   1.701  10.143 -0.6730  0.2668  0.0757
 2291SOL    HW1 9828   1.856   1.767  10.074 -1.3432  0.8399  0.5443
 2291SOL    HW2 9829   1.927   1.714  10.196 -0.9810  0.9218  0.3715
 2292SOL     OW 9830   0.760   1.184   6.645  0.0449  0.6216  0.2128
 2292SOL    HW1 9831   0.782   1.190   6.738 -0.4008 -1.6016  0.5191
 2292SOL    HW2 9832   0.749   1.275   6.617  0.5531  1.3579  2.2363
 2293SOL     OW 9833   2.620   0.124   3.125  0.5032 -0.2345  0.0176
 2293SOL    HW1 9834   2.607   0.190   3.057  1.0299 -0.0498  0.0908
 2293SOL    HW2 9835   2.532   0.095   3.148  0.3116 -0.1557 -0.6035
 2294SOL     OW 9836   3.700   5.159   1.270  0.4858 -0.1993 -0.3713
 2294SOL    HW1 9837   3.607   5.145   1.292  0.1162  0.5849 -1.3829
 2294SOL    HW2 9838   3.730   5.224   1.334  0.3380 -0.4437 -0.0497
 2295SOL     OW 9839   5.133   7.119   6.494 -0.3549 -0.1672 -0.2239
 2295SOL    HW1 9840   5.196   7.082   6.433 -0.3490  0.3932 -0.5650
 2295SOL    HW2 9841   5.101   7.044   6.544 -1.0797 -0.7849 -1.5540
 2296SOL     OW 9842   4.959   6.735  10.187  0.2813 -0.1552  0.1374
 2296SOL    HW1 9843   5.030   6.731  10.251  0.7482  0.3852 -0.3252
 2296SOL    HW2 9844   4.995   6.694  10.108 -0.0263 -0.1506 -0.0099
 2297SOL     OW 9845   3.544   8.809   4.669  0.0876 -0.3403  0.0075
 2297SOL    HW1 9846   3.503   8.883   4.714 -0.7545 -0.1605 -1.0142
 2297SOL    HW2 9847   3.473   8.769   4.619  0.9750 -0.5618 -1.1133
 2298SOL     OW 9848   1.323   5.617   1.312  0.2831 -0.1860 -0.0169
 2298SOL    HW1 9849   1.355   5.551   1.374 -0.2923 -0.2541  0.2163
 2298SOL    HW2 9850   1.390   5.622   1.245 -0.7766 -2.8413 -1.4275
 2299SOL     OW 9851   8.175   2.186   1.964  0.7449 -0.0740  0.1219
 2299SOL    HW1 9852   8.162   2.234   2.045  1.5002 -2.0700  1.4944
 2299SOL    HW2 9853   8.197   2.253   1.899 -0.8189  1.6709  1.2937
 2300SOL     OW 9854   2.857   4.411   0.226  0.3441  0.1135  0.4738
 2300SOL    HW1 9855   2.864   4.394   0.132  1.6568  1.4282  0.2952
 2300SOL    HW2 9856   2.917   4.348   0.266 -0.8781 -1.0513  0.5405
 2301SOL     OW 9857   1.269   5.442   7.659  0.5881 -0.7588 -0.3321
 2301SOL    HW1 9858   1.286   5.411   7.748  2.3840  1.0952  0.0432
 2301SOL    HW2 9859   1.274   5.537   7.666 -1.1426 -0.4635 -2.0978
 2302SOL     OW 9860   6.785   7.668   6.230 -0.1415 -0.1954  0.1360
 2302SOL    HW1 9861   6.870   7.708   6.245 -0.7031  0.8270  0.6994
 2302SOL    HW2 9862   6.800   7.605   6.159  1.0187  0.1557  0.0577
 2303SOL     OW 9863   2.297   5.195   9.251 -0.9948  0.1413  0.0926
 2303SOL    HW1 9864   2.334   5.128   9.194  0.9992  0.7917  0.5610
 2303SOL    HW2 9865   2.292   5.153   9.337  1.8839  1.0375  0.7822
 2304SOL     OW 9866   6.190   4.166   0.014 -0.1611 -0.2429  0.6358
 2304SOL    HW1 9867   6.178   4.251  -0.029  1.1243 -1.1398 -1.6737
 2304SOL    HW2 9868   6.279   4.169   0.049 -0.1365 -0.6185  0.6057
 2305SOL     OW 9869   2.619   2.788   3.489 -0.4806 -0.1324  0.3111
 2305SOL    HW1 9870   2.592   2.710   3.441 -2.4357 -0.8810  2.4579
 2305SOL    HW2 9871   2.551   2.853   3.470 -0.9733 -0.2570  1.5615
 2306SOL     OW 9872   7.315   8.990   5.552  0.2642 -0.3329  0.2872
 2306SOL    HW1 9873   7.405   9.019   5.542  0.1507 -0.4100 -1.1841
 2306SOL    HW2 9874   7.280   8.987   5.463 -2.1002  2.5319  0.9603
 2307SOL     OW 9875   7.132   8.224   2.736  0.1478  0.0617 -0.3084
 2307SOL    HW1 9876   7.121   8.276   2.815  0.6370  0.1048 -0.2673
 2307SOL    HW2 9877   7.204   8.266   2.689  0.6960 -0.6992 -0.1703
 2308SOL     OW 9878   7.599   1.690   8.958  0.0226  0.7851  0.5902
 2308SOL    HW1 9879   7.677   1.634   8.952 -0.1518  0.6538 -0.7725
 2308SOL    HW2 9880   7.630   1.777   8.935 -0.5017  0.4381 -1.6844
 2309SOL     OW 9881   0.579   2.968   0.988 -0.0496 -0.0803  0.2883
 2309SOL    HW1 9882   0.659   3.013   1.016  0.1137 -0.7158  0.8737
 2309SOL    HW2 9883   0.609   2.887   0.949 -0.3206  0.4920 -1.1751
 2310SOL     OW 9884   1.602   7.862  10.128  0.1263  0.4600  0.1286
 2310SOL    HW1 9885   1.624   7.914  10.206  0.8709 -0.4760  0.5573
 2310SOL    HW2 9886   1.585   7.927  10.060  0.4347  1.2774  0.8155
 2311SOL     OW 9887   5.217   9.043   4.588  0.5076 -0.3131 -0.0991
 2311SOL    HW1 9888   5.134   9.066   4.630  1.5022  0.8749  1.2896
 2311SOL    HW2 9889   5.268   9.124   4.586  1.0625 -0.6206 -2.4339
 2312SOL     OW 9890   4.944   0.172   1.116 -0.1528  0.4076 -0.7084
 2312SOL    HW1 9891   5.006   0.182   1.189  0.3620 -0.3567 -1.0247
 2312SOL    HW2 9892   4.883   0.245   1.126 -0.3621  0.0520  0.7459
 2313SOL     OW 9893   7.328   1.768  10.427 -0.6347  0.4086  0.1564
 2313SOL    HW1 9894   7.367   1.850  10.398 -1.2107  0.2820 -1.0650
 2313SOL    HW2 9895   7.400   1.722  10.471  0.0286  1.0503 -0.2246
 2314SOL     OW 9896   5.458   2.123   1.057 -0.1062  0.4685  0.2713
 2314SOL    HW1 9897   5.456   2.166   0.971 -0.1205 -1.7922 -0.9455
 2314SOL    HW2 9898   5.379   2.154   1.101 -1.4808 -0.2253 -1.5611
 2315SOL     OW 9899   7.830   6.485   1.086  0.1338  0.5385  0.3000
 2315SOL    HW1 9900   7.833   6.539   1.166 -0.0434  0.3510  0.4365
 2315SOL    HW2 9901   7.838   6.396   1.118 -3.5755  0.1239  0.5192
 2316SOL     OW 9902  10.168   8.334   3.383 -0.1098 -0.6297 -0.0512
 2316SOL    HW1 9903  10.145   8.410   3.330  1.9781 -0.4495 -0.7934
 2316SOL    HW2 9904  10.088   8.312   3.431 -1.4274  0.5608 -1.6166
 2317SOL     OW 9905   2.032   3.187   0.693  0.2292  0.8950 -0.2087
 2317SOL    HW1 9906   1.979   3.135   0.633 -1.2670  0.7546  1.1696
 2317SOL    HW2 9907   1.994   3.275   0.690 -1.4239  0.3653  2.1952
 2318SOL     OW 9908   1.404   9.723   7.228  0.0289 -0.6464  0.5561
 2318SOL    HW1 9909   1.357   9.769   7.158  1.4047  1.8609  1.1411
 2318SOL    HW2 9910   1.489   9.702   7.191  0.2244 -0.6729  1.0090
 2319SOL     OW 9911   2.032   5.462   3.336  0.0812 -0.2822 -0.2167
 2319SOL    HW1 9912   2.026   5.432   3.426 -0.5485 -0.7344 -0.4037
 2319SOL    HW2 9913   1.960   5.524   3.326  1.1540  1.0447  0.0623
 2320SOL     OW 9914  10.462   3.289   1.999  0.8152  0.3897 -0.0107
 2320SOL    HW1 9915  10.531   3.254   1.943  2.2581  0.9455  1.3543
 2320SOL    HW2 9916  10.385   3.237   1.977  2.0446 -1.3147 -0.4913
 2321SOL     OW 9917   8.244   0.850   2.380  0.2017 -0.4051  0.2737
 2321SOL    HW1 9918   8.221   0.914   2.448 -0.1807 -0.7236  0.4507
 2321SOL    HW2 9919   8.261   0.770   2.429  0.7624 -0.4172  0.0591
 2322SOL     OW 9920   4.501   6.496   8.135  0.3766  0.6813 -0.0965
 2322SOL    HW1 9921   4.561   6.506   8.061  0.3971  0.2243 -0.1447
 2322SOL    HW2 9922   4.416   6.522   8.100 -0.1087 -1.8685 -1.0322
 2323SOL     OW 9923   5.474   3.077   9.581  0.6236 -0.7093  0.1004
 2323SOL    HW1 9924   5.401   3.014   9.582  0.5897 -0.6964 -0.6840
 2323SOL    HW2 9925   5.495   3.091   9.673 -0.2646 -0.8358  0.3309
 2324SOL     OW 9926   4.419   1.494   2.873 -0.1374  0.1666  0.8723
 2324SOL    HW1 9927   4.328   1.503   2.900  0.4355  1.7949  2.3835
 2324SOL    HW2 9928   4.452   1.421   2.926 -0.1645  0.5626  1.4410
 2325SOL     OW 9929   3.427   4.825   3.857 -0.1052  0.6356  0.5055
 2325SOL    HW1 9930   3.356   4.843   3.919 -1.3613 -0.0322 -0.6580
 2325SOL    HW2 9931   3.432   4.905   3.803 -0.0634  0.6343  0.5075
 2326SOL     OW 9932   6.048  10.106   8.220 -0.4200  0.5115 -0.3750
 2326SOL    HW1 9933   6.073  10.090   8.311  1.0794 -0.0779 -0.8687
 2326SOL    HW2 9934   6.124  10.077   8.169 -1.9769 -1.0785 -1.9374
 2327SOL     OW 9935   6.834   0.412   5.461  0.5103 -0.3086 -0.0929
 2327SOL    HW1 9936   6.770   0.390   5.529  0.0924 -0.7357 -0.6110
 2327SOL    HW2 9937   6.919   0.389   5.499  0.4645  1.1964  0.9800
 2328SOL     OW 9938  10.349   6.233  10.118  1.0956  0.1995  0.6629
 2328SOL    HW1 9939  10.321   6.142  10.127  1.5358 -0.0432 -0.3187
 2328SOL    HW2 9940  10.269   6.284  10.129  0.1266 -0.4816 -2.3317
 2329SOL     OW 9941   9.541   4.541   9.497 -0.7400  0.3805  0.4539
 2329SOL    HW1 9942   9.449   4.530   9.523 -0.8051  0.7799  0.3952
 2329SOL    HW2 9943   9.548   4.492   9.415 -1.5403  2.3803 -0.8797
 2330SOL     OW 9944   4.696   4.055   6.124 -0.1471 -0.2258 -0.5613
 2330SOL    HW1 9945   4.729   3.997   6.193  0.9455  3.1612  2.1024
 2330SOL    HW2 9946   4.612   4.086   6.157  0.1608  1.0726 -0.9070
 2331SOL     OW 9947   7.251   9.169   6.169  0.1538  0.1126 -0.0248
 2331SOL    HW1 9948   7.218   9.252   6.204  0.1308  0.4389 -0.8043
 2331SOL    HW2 9949   7.308   9.135   6.237 -0.2168  0.5354  0.5027
 2332SOL     OW 9950  10.689   0.162   2.873 -0.4103 -0.3100 -0.0503
 2332SOL    HW1 9951  10.697   0.244   2.825 -0.5303 -0.4435 -0.3024
 2332SOL    HW2 9952  10.756   0.166   2.940  2.0461 -1.5000 -2.2357
 2333SOL     OW 9953   0.600   3.085   9.188 -0.4998  0.0488 -0.3437
 2333SOL    HW1 9954   0.682   3.135   9.180 -0.2221 -0.4163 -0.4356
 2333SOL    HW2 9955   0.626   3.004   9.231 -1.3102  0.8902  1.8635
 2334SOL     OW 9956   9.944   4.574   3.234  0.3708 -0.3523  0.0498
 2334SOL    HW1 9957   9.911   4.594   3.147 -0.4273  1.2053  0.6830
 2334SOL    HW2 9958  10.014   4.511   3.219  1.6085  1.3771 -1.9034
 2335SOL     OW 9959   5.243   1.606   1.160  0.2589  0.0135 -0.1009
 2335SOL    HW1 9960   5.303   1.635   1.229  1.2064  0.0235 -0.9172
 2335SOL    HW2 9961   5.230   1.684   1.105  0.0884 -0.1917 -0.3525
 2336SOL     OW 9962   3.486   3.584   0.380 -0.1294  0.3918  0.3587
 2336SOL    HW1 9963   3.410   3.631   0.415 -1.4921 -0.9066 -0.7148
 2336SOL    HW2 9964   3.458   3.554   0.293  1.6486 -0.0648 -0.0993
 2337SOL     OW 9965   4.090   9.805   5.026  0.2125 -0.1020 -0.0205
 2337SOL    HW1 9966   4.070   9.889   4.983  0.8727 -0.2195 -0.5749
 2337SOL    HW2 9967   4.169   9.823   5.076 -0.1178 -0.1763  0.5294
 2338SOL     OW 9968   8.693   2.763   3.603  0.2394  0.3219 -0.1397
 2338SOL    HW1 9969   8.620   2.700   3.600  0.2540  0.0941  2.0389
 2338SOL    HW2 9970   8.651   2.848   3.600 -0.2924  0.2071  2.0441
 2339SOL     OW 9971   2.731   3.808   6.887  0.4596 -0.1954 -0.1194
 2339SOL    HW1 9972   2.732   3.903   6.903 -0.2791 -0.5192  2.1267
 2339SOL    HW2 9973   2.822   3.782   6.892  0.8163  0.5109 -1.9155
 2340SOL     OW 9974   1.045   0.602   0.649 -0.4456 -0.5605  0.0306
 2340SOL    HW1 9975   1.106   0.618   0.721  1.9288 -0.6092 -1.8487
 2340SOL    HW2 9976   0.998   0.685   0.637 -0.3352 -0.3329  1.1218
 2341SOL     OW 9977   6.008   7.255   4.947 -0.2744  0.5183 -0.1284
 2341SOL    HW1 9978   5.939   7.222   5.004 -1.5167  1.0944 -1.2489
 2341SOL    HW2 9979   6.029   7.341   4.983  0.2273  0.1493  0.4954
 2342SOL     OW 9980   0.324   8.760   5.519 -0.1563 -0.2735  0.5917
 2342SOL    HW1 9981   0.395   8.709   5.559  0.5596  0.4000  0.2057
 2342SOL    HW2 9982   0.297   8.709   5.443  0.1330 -0.3785  0.5595
 2343SOL     OW 9983   7.563   2.235   8.874  0.5340  0.0756  0.5073
 2343SOL    HW1 9984   7.516   2.313   8.844  0.7621 -0.5557 -1.6543
 2343SOL    HW2 9985   7.503   2.193   8.935 -0.3988  0.9430  0.2205
 2344SOL     OW 9986   7.550   5.153   0.145  0.5746 -0.1556 -0.3639
 2344SOL    HW1 9987   7.629   5.111   0.178  1.5920  2.2544  0.5338
 2344SOL    HW2 9988   7.545   5.236   0.192 -3.3072 -0.7639  0.6364
 2345SOL     OW 9989   3.231   0.935   2.009  0.1420  0.2885 -0.1056
 2345SOL    HW1 9990   3.274   0.884   2.077  3.1878  2.0637 -0.5537
 2345SOL    HW2 9991   3.172   0.994   2.058 -0.1762 -0.6568  0.6958
 2346SOL     OW 9992   3.698   0.333   0.661 -0.1473 -0.0174  0.1922
 2346SOL    HW1 9993   3.617   0.384   0.651  0.2288  0.8833  1.4180
 2346SOL    HW2 9994   3.768   0.396   0.643  0.3025 -1.0282 -1.8114
 2347SOL     OW 9995   9.408   6.708   7.812  0.1401  0.1105  0.6209
 2347SOL    HW1 9996   9.319   6.673   7.812 -0.0217  0.5210  0.5115
 2347SOL    HW2 9997   9.401   6.793   7.768  0.7499 -0.2679 -0.2386
 2348SOL     OW 9998   8.433   8.719   8.628  0.2012  0.1041  0.0535
 2348SOL    HW1 9999   8.379   8.795   8.605 -0.0247 -0.5640 -1.7997
 2348SOL    HW210000   8.370   8.647   8.634  0.5973 -0.2187  0.3010
 2349SOL     OW10001   2.088   9.346   8.893 -0.2462  0.3184 -0.0735
 2349SOL    HW110002   2.043   9.427   8.872  0.1059  0.7559  0.7921
 2349SOL    HW210003   2.043   9.313   8.971 -0.7016 -0.5860 -0.6906
 2350SOL     OW10004   7.038   7.030   1.324 -0.0834 -0.4088 -0.4352
 2350SOL    HW110005   7.013   6.979   1.402 -0.6146  0.9815  0.3345
 2350SOL    HW210006   7.064   6.964   1.260 -0.5972 -1.6425  0.5808
 2351SOL     OW10007   8.021   9.216   2.942  0.2460  0.1656 -0.0480
 2351SOL    HW110008   7.930   9.185   2.945  0.0548  0.6697 -0.3075
 2351SOL    HW210009   8.060   9.168   2.869 -0.2208  0.9570 -0.8414
 2352SOL     OW10010   3.361   7.504   4.705 -0.1418  0.1318 -0.2988
 2352SOL    HW110011   3.325   7.431   4.756 -0.8751  1.2502  0.8215
 2352SOL    HW210012   3.302   7.511   4.630  0.1844 -0.6882 -0.6471
 2353SOL     OW10013   9.919  10.411   4.349 -0.5419 -0.1275 -0.1832
 2353SOL    HW110014   9.980  10.450   4.412 -1.8701  0.2340  0.9144
 2353SOL    HW210015   9.909  10.321   4.378 -0.1924 -0.3143 -0.6323
 2354SOL     OW10016   3.094   5.781   3.632  0.8569  0.6868  0.4768
 2354SOL    HW110017   3.061   5.847   3.693 -0.8185 -0.3418  0.7392
 2354SOL    HW210018   3.189   5.791   3.635  0.6727  2.9511  0.6315
 2355SOL     OW10019   8.873   5.151  10.352 -0.3641 -0.3276  0.5739
 2355SOL    HW110020   8.857   5.185  10.264 -0.8639  0.0620  0.8101
 2355SOL    HW210021   8.909   5.225  10.400  0.7881 -0.7866  0.4586
 2356SOL     OW10022   5.300   5.763   5.972  0.1026 -0.1978  0.0406
 2356SOL    HW110023   5.237   5.709   6.020  0.2937  0.1493  0.6788
 2356SOL    HW210024   5.288   5.737   5.880 -1.5087  0.3819  0.0539
 2357SOL     OW10025   0.926   1.163   9.878 -0.0405  0.0326 -0.3034
 2357SOL    HW110026   1.005   1.170   9.932  0.7522  0.0128 -1.4392
 2357SOL    HW210027   0.937   1.230   9.811 -0.9810 -0.0025 -0.5068
 2358SOL     OW10028   4.343   9.213   7.091 -0.4267  0.6119 -0.3022
 2358SOL    HW110029   4.332   9.212   7.186 -0.0507  0.4416 -0.2555
 2358SOL    HW210030   4.343   9.121   7.066 -1.6912  0.6876 -0.6198
 2359SOL     OW10031   7.251   7.101   5.419 -0.1679  0.1966  0.0791
 2359SOL    HW110032   7.346   7.111   5.424 -0.2156  1.1652 -0.7228
 2359SOL    HW210033   7.236   7.043   5.344 -0.2272  0.5771 -0.2086
 2360SOL     OW10034   1.235   1.006   8.396 -0.6618  0.0140 -0.6110
 2360SOL    HW110035   1.289   0.927   8.387  0.6871  0.8331  0.1133
 2360SOL    HW210036   1.192   1.015   8.311 -0.1555 -1.0110 -0.9888
 2361SOL     OW10037   5.195   9.064  10.543 -0.2109 -0.1734 -0.5463
 2361SOL    HW110038   5.103   9.042  10.529 -0.9515  0.8373  2.0798
 2361SOL    HW210039   5.193   9.136  10.606  2.3764  0.4659 -1.0648
 2362SOL     OW10040   6.641   8.743   9.880  0.5902 -0.2543  0.4712
 2362SOL    HW110041   6.708   8.723   9.814 -1.4422  0.3414 -1.8893
 2362SOL    HW210042   6.649   8.837   9.895 -1.4946  0.4385 -2.0627
 2363SOL     OW10043   6.101   0.803   3.801 -0.5553  0.3884 -0.4718
 2363SOL    HW110044   6.129   0.726   3.752 -0.9021  0.2080 -0.3867
 2363SOL    HW210045   6.177   0.861   3.800  0.1189 -0.4528  0.4903
 2364SOL     OW10046   6.804  10.664   6.244  0.0971  0.2916  0.4391
 2364SOL    HW110047   6.892  10.698   6.254  0.2898 -0.5858  2.0850
 2364SOL    HW210048   6.814  10.587   6.187  0.5987 -0.4734  1.5266
 2365SOL     OW10049   0.861   6.841   9.381  0.0462  0.1463  0.4481
 2365SOL    HW110050   0.807   6.920   9.377 -1.5497 -0.9464 -1.8992
 2365SOL    HW210051   0.799   6.770   9.398  1.0432 -0.9279 -0.2496
 2366SOL     OW10052   5.206   4.348   4.631 -0.4829  0.1189  0.4042
 2366SOL    HW110053   5.194   4.425   4.575 -1.1737  1.1823  1.9405
 2366SOL    HW210054   5.117   4.318   4.649 -0.2044 -1.9725 -1.3310
 2367SOL     OW10055   4.077   9.510   3.393 -0.0937 -0.5039  0.2234
 2367SOL    HW110056   3.993   9.471   3.369 -0.4547  1.7021 -2.5857
 2367SOL    HW210057   4.054   9.597   3.427  0.9565 -0.7654  1.7179
 2368SOL     OW10058   1.931   9.587   6.200  0.4354 -0.6292  0.3375
 2368SOL    HW110059   2.019   9.619   6.217  1.0577 -0.0324 -3.1825
 2368SOL    HW210060   1.876   9.665   6.207  0.9422 -0.0245 -1.7611
 2369SOL     OW10061   5.283   6.564   1.896  0.6139 -0.7748 -1.2094
 2369SOL    HW110062   5.356   6.614   1.859  0.0958 -0.3591 -1.7018
 2369SOL    HW210063   5.219   6.631   1.922  1.1892 -1.0255  0.9935
 2370SOL     OW10064  10.676   3.126   1.213 -0.2761 -0.2413 -0.1670
 2370SOL    HW110065  10.651   3.215   1.236 -0.0114  0.0369 -0.9209
 2370SOL    HW210066  10.729   3.095   1.287 -1.6378 -0.3349  0.8035
 2371SOL     OW10067   7.186   7.156   3.074  0.3218  0.3657  0.4523
 2371SOL    HW110068   7.139   7.090   3.126  0.8719  0.9190  1.6891
 2371SOL    HW210069   7.183   7.122   2.985 -0.0550 -0.9716  0.9438
 2372SOL     OW10070   4.792   6.784   0.826  0.0222  0.2145  0.1027
 2372SOL    HW110071   4.723   6.730   0.788 -0.9456 -0.3186  2.4629
 2372SOL    HW210072   4.766   6.874   0.804 -2.7762  0.2290  2.7294
 2373SOL     OW10073   2.663   3.365   0.977  0.1734  0.6684  0.0596
 2373SOL    HW110074   2.611   3.363   1.056  1.0527 -1.5810  0.6600
 2373SOL    HW210075   2.753   3.348   1.006  0.5271 -0.1687 -1.3968
 2374SOL     OW10076   2.758   5.158   9.457 -0.2240  0.1586 -0.4404
 2374SOL    HW110077   2.764   5.238   9.406 -1.0682  0.5389  0.0265
 2374SOL    HW210078   2.712   5.184   9.537 -0.1648 -0.7076 -0.1100
 2375SOL     OW10079   5.939   5.615   5.120 -0.0979  0.2773 -0.2032
 2375SOL    HW110080   5.999   5.586   5.189 -0.5185  0.0844  0.0829
 2375SOL    HW210081   5.995   5.623   5.043  0.2775 -0.0244  0.0293
 2376SOL     OW10082   6.887   9.335   8.555  0.3038 -0.2180 -0.0047
 2376SOL    HW110083   6.814   9.281   8.526  0.2981  0.6475 -1.7505
 2376SOL    HW210084   6.933   9.358   8.474  2.1250 -0.1808  0.9808
 2377SOL     OW10085  10.475   4.742  10.382 -0.2137  0.2842  0.8606
 2377SOL    HW110086  10.507   4.731  10.472  1.6146 -0.9491  0.1043
 2377SOL    HW210087  10.520   4.821  10.351 -1.8705  1.4964  1.4161
 2378SOL     OW10088   0.017   3.087   4.338  0.0198 -0.4387  0.2031
 2378SOL    HW110089   0.107   3.119   4.326  0.3325 -1.9526 -2.4229
 2378SOL    HW210090  -0.015   3.132   4.416  2.6093  1.1359  0.4701
 2379SOL     OW10091   7.088   8.304   9.247  0.2355  0.2900 -0.2528
 2379SOL    HW110092   7.004   8.258   9.249  0.7525 -0.7011  2.5182
 2379SOL    HW210093   7.076   8.378   9.307  1.5746 -0.3668  0.8762
 2380SOL     OW10094  10.190   5.040   8.932  0.2605 -0.1007  0.3084
 2380SOL    HW110095  10.201   5.112   8.995  0.2521  0.6068 -0.4741
 2380SOL    HW210096  10.136   5.078   8.862  1.4983 -0.3918 -0.8515
 2381SOL     OW10097   7.789   0.565   6.288 -0.1665  0.1221 -0.2778
 2381SOL    HW110098   7.881   0.586   6.272 -0.1683 -0.4254 -1.0789
 2381SOL    HW210099   7.762   0.515   6.211 -0.7848 -0.7983  0.5110
 2382SOL     OW10100   8.552  10.117   9.916 -0.2152  0.5186 -0.1155
 2382SOL    HW110101   8.543  10.085  10.006 -0.7460  1.2769  0.1142
 2382SOL    HW210102   8.590  10.204   9.925  0.3145  0.3492 -0.6690
 2383SOL     OW10103   4.467   2.032   4.333  0.4565 -0.0826  0.2489
 2383SOL    HW110104   4.554   2.037   4.292 -0.3642  0.2885 -1.5245
 2383SOL    HW210105   4.415   1.980   4.273 -0.6702  0.0003  1.1214
 2384SOL     OW10106  10.542   2.204  10.596 -0.3518 -0.1066  0.3728
 2384SOL    HW110107  10.455   2.238  10.574 -0.8994 -0.8128  1.3407
 2384SOL    HW210108  10.603   2.269  10.562 -1.2348  0.1143 -0.8341
 2385SOL     OW10109   7.551   2.284  10.517  0.2301 -0.5059 -0.0438
 2385SOL    HW110110   7.624   2.224  10.502  0.2937 -0.8467  1.5218
 2385SOL    HW210111   7.577   2.335  10.594 -0.7865  0.0167 -0.0308
 2386SOL     OW10112   3.172   2.908   8.236  0.5685 -0.6679  0.3958
 2386SOL    HW110113   3.093   2.963   8.235  0.2465 -1.1257  0.2185
 2386SOL    HW210114   3.235   2.958   8.287  0.7084  0.4611 -0.8154
 2387SOL     OW10115   1.214   9.537   9.988  0.1792 -0.0411  0.1891
 2387SOL    HW110116   1.274   9.611   9.973  0.4236 -0.4159 -0.8047
 2387SOL    HW210117   1.272   9.460   9.988 -0.2402 -0.3593 -0.2572
 2388SOL     OW10118   3.274   5.429   8.639  0.5330 -0.0907 -0.0337
 2388SOL    HW110119   3.309   5.510   8.677  2.2055 -1.6265  1.9863
 2388SOL    HW210120   3.328   5.414   8.562  1.7298 -0.3781  0.8308
 2389SOL     OW10121   1.125   5.172   8.810 -0.3371 -0.3646 -0.1499
 2389SOL    HW110122   1.093   5.169   8.720 -1.3937 -1.9998  0.2386
 2389SOL    HW210123   1.058   5.127   8.861  0.8984 -0.6835  1.2626
 2390SOL     OW10124   8.715   5.092   2.232 -0.4700 -0.2900 -0.5309
 2390SOL    HW110125   8.722   5.139   2.148 -1.6797 -1.2129 -1.1817
 2390SOL    HW210126   8.638   5.129   2.274 -0.0244 -0.0241  0.0583
 2391SOL     OW10127   0.735   7.452   6.603  0.2249  0.4353  1.1872
 2391SOL    HW110128   0.762   7.413   6.520  1.7018 -1.0371  2.3020
 2391SOL    HW210129   0.698   7.537   6.578  1.0875  0.2605 -0.9307
 2392SOL     OW10130   4.210   3.562   7.596  0.0682  0.1623 -0.2850
 2392SOL    HW110131   4.286   3.504   7.608  0.0323  0.2230  0.2235
 2392SOL    HW210132   4.144   3.506   7.554 -1.0351 -1.0499  2.7996
 2393SOL     OW10133   3.307   2.634   3.754  0.5587 -0.0739  0.0591
 2393SOL    HW110134   3.267   2.603   3.835 -0.7709 -1.2076 -0.9649
 2393SOL    HW210135   3.233   2.668   3.703  1.5564  1.9005 -0.1521
 2394SOL     OW10136   0.836  10.481  10.396 -0.1153 -0.1511  0.3507
 2394SOL    HW110137   0.807  10.416  10.332 -0.7127 -0.9253  1.3810
 2394SOL    HW210138   0.914  10.442  10.436  1.1448  0.9653 -0.8687
 2395SOL     OW10139   4.039   0.187   7.231 -0.3022 -0.1789  0.4595
 2395SOL    HW110140   4.017   0.194   7.138  2.7275  1.1297 -0.2786
 2395SOL    HW210141   4.096   0.262   7.248 -0.6193 -0.4881  3.3613
 2396SOL     OW10142   6.143   8.623   9.205  0.1047  0.5387  0.2426
 2396SOL    HW110143   6.098   8.703   9.235  0.3030  1.1758 -1.1028
 2396SOL    HW210144   6.121   8.616   9.112  1.2143 -0.2177  0.0172
 2397SOL     OW10145   6.366   0.347  10.182  0.4252  0.2088  0.1971
 2397SOL    HW110146   6.411   0.278  10.230  0.7508  1.0276  1.0900
 2397SOL    HW210147   6.435   0.410  10.161 -0.1779  1.1950  1.0746
 2398SOL     OW10148   0.434   3.626   4.211 -0.2384 -0.2992  0.6298
 2398SOL    HW110149   0.429   3.604   4.118  0.0959 -1.5333  0.8804
 2398SOL    HW210150   0.516   3.586   4.240  0.2343  1.0574  1.2113
 2399SOL     OW10151   8.487   7.696  10.297  0.1017 -0.4404 -0.0269
 2399SOL    HW110152   8.455   7.634  10.363 -0.2522 -2.6638 -2.1314
 2399SOL    HW210153   8.570   7.729  10.333  0.1109 -1.8621  1.3695
 2400SOL     OW10154   7.534   1.228   7.723 -0.1397  0.1563 -0.5545
 2400SOL    HW110155   7.502   1.284   7.652  1.5738  1.2883 -0.4973
 2400SOL    HW210156   7.597   1.169   7.680 -0.2356 -0.1928 -0.2197
 2401SOL     OW10157   1.300   3.404   1.269  0.4431  0.3426 -0.0155
 2401SOL    HW110158   1.218   3.363   1.239 -1.1720  1.7324  2.2127
 2401SOL    HW210159   1.344   3.335   1.319  0.1073 -0.0806 -0.2872
 2402SOL     OW10160   4.994   2.327   9.114  0.0299  0.1950  0.0133
 2402SOL    HW110161   4.944   2.256   9.157  0.6310 -0.4928 -0.3999
 2402SOL    HW210162   4.941   2.350   9.038 -0.1231  0.1237  0.0968
 2403SOL     OW10163   7.001   6.644   2.056 -0.3644  0.0229  0.2206
 2403SOL    HW110164   7.040   6.702   1.991  1.0167 -1.3738 -0.2753
 2403SOL    HW210165   7.070   6.631   2.121 -0.5278 -1.2403  0.1761
 2404SOL     OW10166   6.944   4.722   9.525  0.0937 -0.1764 -0.5029
 2404SOL    HW110167   6.900   4.804   9.548 -0.6480 -0.0799 -2.1338
 2404SOL    HW210168   7.015   4.714   9.589 -1.9199 -0.0713  1.8829
 2405SOL     OW10169   9.159   0.692   9.894  0.2858  0.0113 -0.0549
 2405SOL    HW110170   9.217   0.734   9.958  2.5037 -0.8668 -1.3714
 2405SOL    HW210171   9.097   0.760   9.869  1.2730  1.2718  0.8069
 2406SOL     OW10172   5.764   1.144   6.681 -0.1335 -0.0918 -0.2605
 2406SOL    HW110173   5.723   1.230   6.691  0.4230  0.2325 -0.7176
 2406SOL    HW210174   5.803   1.146   6.593 -0.5891 -1.0160 -0.4944
 2407SOL     OW10175   7.771   4.855   0.683  0.0229 -0.6741  0.0790
 2407SOL    HW110176   7.693   4.905   0.657 -1.0684 -1.6869  1.2522
 2407SOL    HW210177   7.844   4.902   0.643 -1.2383 -0.1019 -1.6858
 2408SOL     OW10178   3.030   9.119   0.684 -0.2641 -0.5779 -0.1547
 2408SOL    HW110179   3.074   9.180   0.744 -2.3375  0.1543  0.7142
 2408SOL    HW210180   2.941   9.154   0.675 -0.3397 -1.2717 -2.8620
 2409SOL     OW10181  10.228   3.241   3.159 -0.2177 -0.2842  0.3157
 2409SOL    HW110182  10.211   3.268   3.249  1.3999  2.5287 -0.0858
 2409SOL    HW210183  10.154   3.277   3.109 -0.0091  0.1030  0.2763
 2410SOL     OW10184   1.780   5.929   5.304  0.1532  0.3350 -0.3287
 2410SOL    HW110185   1.748   5.840   5.316  2.1104 -0.9158 -3.2446
 2410SOL    HW210186   1.729   5.981   5.366 -1.2353 -2.7267  1.3420
 2411SOL     OW10187   9.188   9.431   0.525  0.6664  0.7009  0.7913
 2411SOL    HW110188   9.206   9.480   0.445 -1.4405  1.2284  0.5864
 2411SOL    HW210189   9.128   9.361   0.498  0.8237  0.1849  1.7177
 2412SOL     OW10190   4.863   6.609   8.795 -0.1226  0.4768 -0.1135
 2412SOL    HW110191   4.941   6.661   8.811  0.4983 -0.1839 -0.9257
 2412SOL    HW210192   4.813   6.660   8.730  0.7652 -0.1713 -1.3553
 2413SOL     OW10193   2.847   8.402   7.971 -0.7801 -0.3490 -0.2878
 2413SOL    HW110194   2.826   8.345   8.045  0.2029  1.2052  1.2676
 2413SOL    HW210195   2.762   8.425   7.934 -1.3260 -0.7863  0.6446
 2414SOL     OW10196   9.224   2.394   2.195  0.4318 -0.1321  0.0035
 2414SOL    HW110197   9.201   2.324   2.134  0.2858  0.1995 -0.3251
 2414SOL    HW210198   9.320   2.398   2.192  0.6579 -2.0400  1.9575
 2415SOL     OW10199   7.903   7.829   6.730  0.1375 -0.1689 -0.3091
 2415SOL    HW110200   7.813   7.808   6.752 -0.8479  2.4086 -1.4645
 2415SOL    HW210201   7.900   7.919   6.699  3.1144 -0.0183 -0.4909
 2416SOL     OW10202   6.403   6.466   4.338  0.4600  0.3510  0.2058
 2416SOL    HW110203   6.334   6.415   4.295 -0.3096  2.5092 -1.2460
 2416SOL    HW210204   6.405   6.431   4.427 -1.4999 -0.7551 -0.1134
 2417SOL     OW10205   1.015   9.548   9.055 -0.3193  0.3872  0.4136
 2417SOL    HW110206   0.992   9.637   9.032  0.0206  0.1659 -0.8627
 2417SOL    HW210207   1.039   9.507   8.972 -0.9774 -1.0422  0.8949
 2418SOL     OW10208   0.252   8.367   8.305  0.2342  0.0039 -0.2412
 2418SOL    HW110209   0.230   8.276   8.326  1.1939 -0.0673  0.5008
 2418SOL    HW210210   0.168   8.413   8.308 -0.0467 -0.5410  1.0689
 2419SOL     OW10211   6.642   3.611   2.001  0.1425 -0.2778 -0.2882
 2419SOL    HW110212   6.595   3.668   2.062  0.6291  0.7904 -0.8759
 2419SOL    HW210213   6.617   3.522   2.027  1.0080  0.0831  2.0117
 2420SOL     OW10214   6.696   9.697   5.592  0.1604 -0.1854  0.1878
 2420SOL    HW110215   6.707   9.695   5.497  1.3846 -1.8794  0.3256
 2420SOL    HW210216   6.770   9.647   5.627  0.6047  1.6773  2.1440
 2421SOL     OW10217   1.620   0.679   1.995 -0.3456  0.5801  0.4047
 2421SOL    HW110218   1.678   0.640   1.930 -0.7077  0.5846  0.0790
 2421SOL    HW210219   1.667   0.669   2.078  0.1145  0.5708  0.1452
 2422SOL     OW10220   3.196   0.374   0.451  0.4706 -0.1343 -0.8987
 2422SOL    HW110221   3.142   0.404   0.378 -2.4277 -1.6616  0.4353
 2422SOL    HW210222   3.133   0.340   0.515  3.0457 -3.3517  0.2350
 2423SOL     OW10223   9.565   4.136   8.425 -0.2029  0.3187 -0.1343
 2423SOL    HW110224   9.587   4.171   8.338  0.8822 -0.7253 -0.2975
 2423SOL    HW210225   9.518   4.055   8.407 -0.1193  0.1833  0.2539
 2424SOL     OW10226   5.235   8.448   5.080 -0.7856 -0.3318  0.1783
 2424SOL    HW110227   5.211   8.400   5.001  0.2613 -1.2312  0.3817
 2424SOL    HW210228   5.157   8.499   5.102 -1.6172 -1.2461 -0.5637
 2425SOL     OW10229   9.583   7.954   8.498  0.2957 -0.8150  0.0851
 2425SOL    HW110230   9.619   8.014   8.433 -2.2773  0.0648 -0.6700
 2425SOL    HW210231   9.642   7.960   8.573  2.4504 -0.6384 -1.5466
 2426SOL     OW10232   9.324   8.961   4.054 -0.2333 -0.5457  0.1387
 2426SOL    HW110233   9.232   8.942   4.070  0.1758 -1.7176  1.3063
 2426SOL    HW210234   9.361   8.878   4.023  0.8263 -0.6591  1.6171
 2427SOL     OW10235   3.580   8.003   8.935 -0.0580  0.2125 -0.9187
 2427SOL    HW110236   3.541   8.090   8.945 -0.5071  0.0942 -1.6433
 2427SOL    HW210237   3.521   7.956   8.877  0.8429 -0.1750 -1.5381
 2428SOL     OW10238   5.178   1.959   8.362 -1.0408  0.4914 -0.0113
 2428SOL    HW110239   5.089   1.966   8.395 -1.2399 -0.4906 -0.2818
 2428SOL    HW210240   5.219   2.043   8.382 -0.8286 -0.3375  3.5685
 2429SOL     OW10241   9.203   2.718   5.052 -0.2017 -0.0012  0.3027
 2429SOL    HW110242   9.295   2.716   5.025 -0.5310 -0.4469 -0.8558
 2429SOL    HW210243   9.197   2.794   5.110  0.9584 -0.1469  0.6435
 2430SOL     OW10244   6.710   5.070   6.447  0.0178  0.2994 -0.1203
 2430SOL    HW110245   6.708   4.975   6.447 -2.9467  0.2728 -1.6939
 2430SOL    HW210246   6.623   5.097   6.475  0.8587  2.5912  0.5635
 2431SOL     OW10247   0.683   1.240   8.659 -0.4112  0.1815  0.5405
 2431SOL    HW110248   0.687   1.260   8.565  2.2136  1.9396  0.9204
 2431SOL    HW210249   0.725   1.155   8.667  0.3172  0.4976  0.1890
 2432SOL     OW10250   9.135   9.654   1.408  0.5975 -0.0702 -0.2564
 2432SOL    HW110251   9.113   9.588   1.474 -2.2386  0.1227 -0.8955
 2432SOL    HW210252   9.129   9.738   1.454 -0.1616 -0.0114 -0.4535
 2433SOL     OW10253   5.691   6.237   1.495  0.0256  0.4831 -0.0528
 2433SOL    HW110254   5.629   6.300   1.531 -0.0625  1.1770 -1.3460
 2433SOL    HW210255   5.777   6.269   1.522 -0.0746  0.5730  0.1599
 2434SOL     OW10256   8.597   3.026   5.708  0.0041 -0.1318 -0.0063
 2434SOL    HW110257   8.517   3.009   5.758  1.4196 -3.6900  1.3402
 2434SOL    HW210258   8.566   3.045   5.619 -2.3424  0.3836  0.8415
 2435SOL     OW10259   6.208   1.241   5.715  0.4868 -0.0420  0.2017
 2435SOL    HW110260   6.118   1.212   5.728  0.6326 -0.7684 -0.3393
 2435SOL    HW210261   6.241   1.186   5.645  1.8756 -0.9399  1.4979
 2436SOL     OW10262   0.316   9.389   7.253  0.0217 -0.2421 -0.1027
 2436SOL    HW110263   0.346   9.400   7.163 -1.0318 -0.5491 -0.5047
 2436SOL    HW210264   0.360   9.310   7.284  0.9254  0.2512 -0.1046
 2437SOL     OW10265   5.850   1.717   5.699 -0.4028  0.1861  0.2790
 2437SOL    HW110266   5.766   1.762   5.687 -0.1532  0.4919 -0.3760
 2437SOL    HW210267   5.908   1.759   5.636  0.4898  0.5894  1.3613
 2438SOL     OW10268   9.846   5.678   6.912 -0.3028  0.2567  0.6242
 2438SOL    HW110269   9.809   5.665   7.000  3.2180 -2.5163  1.9667
 2438SOL    HW210270   9.789   5.628   6.854 -0.7027 -0.9131  1.9731
 2439SOL     OW10271   8.960  10.053   5.061 -0.1134 -0.8510  0.1983
 2439SOL    HW110272   8.960  10.074   5.154 -0.2276 -0.5366  0.1274
 2439SOL    HW210273   9.010   9.972   5.054 -0.5775 -1.1770  0.6013
 2440SOL     OW10274   0.783   4.231   5.740 -0.1076  0.6164 -0.3909
 2440SOL    HW110275   0.814   4.151   5.784 -0.3215  0.7206 -0.0418
 2440SOL    HW210276   0.763   4.203   5.651 -2.8501 -0.4192  0.4295
 2441SOL     OW10277   2.914   5.455   4.963  0.3371 -0.0827 -0.3177
 2441SOL    HW110278   2.929   5.417   5.049  4.7700 -0.0671 -0.8863
 2441SOL    HW210279   2.858   5.390   4.919 -1.1933 -0.5642  2.1301
 2442SOL     OW10280   1.050   0.984   4.072  0.0032  0.0800  0.2526
 2442SOL    HW110281   0.957   1.007   4.069 -0.2153 -0.7992 -1.5225
 2442SOL    HW210282   1.071   0.979   4.165 -1.5261  1.0280  0.6859
 2443SOL     OW10283   4.916   1.346  10.255  0.3031  0.3341  0.6597
 2443SOL    HW110284   4.877   1.434  10.259 -1.9172 -0.5818  0.3880
 2443SOL    HW210285   4.876   1.299  10.328 -1.3629 -1.4895 -1.3150
 2444SOL     OW10286   1.210   8.524   9.887  0.3676 -0.0941  0.0456
 2444SOL    HW110287   1.273   8.510   9.958  1.6298  2.8711 -0.3525
 2444SOL    HW210288   1.260   8.570   9.820 -1.7622  0.6034 -1.1420
 2445SOL     OW10289   7.565   9.302   6.436 -0.1512  0.3988 -0.1158
 2445SOL    HW110290   7.481   9.347   6.440 -1.1270 -1.2704 -0.8086
 2445SOL    HW210291   7.620   9.359   6.382 -0.8756  1.4287  0.1973
 2446SOL     OW10292   9.301   7.215   3.405 -0.4765 -0.3549 -0.5721
 2446SOL    HW110293   9.284   7.147   3.339 -0.9066  1.1007 -2.0257
 2446SOL    HW210294   9.230   7.278   3.394 -0.5796 -0.0912  1.3468
 2447SOL     OW10295   3.644   8.245   0.779 -0.0994 -0.4469  0.5395
 2447SOL    HW110296   3.672   8.301   0.852  3.0609 -0.9958 -0.0867
 2447SOL    HW210297   3.680   8.159   0.801 -2.4553 -1.6111  0.1279
 2448SOL     OW10298   1.331   5.998   0.915  0.8068  0.2465  0.0736
 2448SOL    HW110299   1.278   6.076   0.931  0.4711  0.0063  0.1500
 2448SOL    HW210300   1.296   5.932   0.975 -0.7069 -0.7897 -1.8220
 2449SOL     OW10301   6.404   1.757   0.841  0.0029  0.0001 -0.0414
 2449SOL    HW110302   6.334   1.752   0.907  1.2404  0.5706  1.3602
 2449SOL    HW210303   6.360   1.792   0.764 -1.3482 -0.0133  0.6751
 2450SOL     OW10304   1.843   8.859   8.856 -0.1854  0.5926 -0.0101
 2450SOL    HW110305   1.916   8.850   8.795  0.2327 -0.6525  0.6353
 2450SOL    HW210306   1.827   8.953   8.861 -0.0322  0.7499 -1.7824
 2451SOL     OW10307   0.715   8.942   6.083 -0.1533 -0.3826 -0.1375
 2451SOL    HW110308   0.679   9.028   6.061  1.1890 -0.1873 -1.7939
 2451SOL    HW210309   0.713   8.893   6.000  0.2795 -1.5062  0.4929
 2452SOL     OW10310   3.301   5.383   7.534  0.1077 -0.1860 -0.4020
 2452SOL    HW110311   3.265   5.326   7.602 -1.2333  0.7801 -0.2683
 2452SOL    HW210312   3.267   5.470   7.555  2.9147  0.9228 -0.0115
 2453SOL     OW10313   3.381   0.669   6.587  0.0824 -0.4016  0.0333
 2453SOL    HW110314   3.299   0.712   6.565  0.2169  0.2087  0.7010
 2453SOL    HW210315   3.430   0.735   6.636  1.6743 -0.1532 -1.7602
 2454SOL     OW10316   5.567   4.207   8.135  0.4504 -0.7203 -0.0186
 2454SOL    HW110317   5.552   4.125   8.089 -1.0943 -0.2086 -0.4881
 2454SOL    HW210318   5.482   4.250   8.137  1.4381  1.4230 -0.8423
 2455SOL     OW10319  10.324   4.983   7.932  0.2615  0.4494 -0.0076
 2455SOL    HW110320  10.334   5.001   8.026 -0.8081 -0.2218  0.2607
 2455SOL    HW210321  10.405   4.940   7.907 -0.6146 -2.2436  1.3766
 2456SOL     OW10322   4.805   6.250   1.100  0.0466  0.8401 -0.5363
 2456SOL    HW110323   4.784   6.322   1.041  0.4837  0.5832 -1.0156
 2456SOL    HW210324   4.777   6.171   1.054  2.6392  0.3995 -1.5714
 2457SOL     OW10325   6.842   8.832   1.332 -0.5260  0.2371  1.2236
 2457SOL    HW110326   6.919   8.783   1.302  0.1290  2.0299 -0.2207
 2457SOL    HW210327   6.786   8.766   1.374  0.9094 -1.4561  0.6009
 2458SOL     OW10328   7.170   4.875   4.016 -0.4390  0.0413 -0.0453
 2458SOL    HW110329   7.123   4.954   4.043  0.2500  0.3687  0.2127
 2458SOL    HW210330   7.172   4.880   3.920 -0.8064  0.0866 -0.0540
 2459SOL     OW10331   6.981   1.118   7.427  0.1556 -0.1721  0.0378
 2459SOL    HW110332   6.909   1.057   7.442  0.1177 -0.1387 -0.0048
 2459SOL    HW210333   7.054   1.063   7.398  1.1527 -0.6284  3.1259
 2460SOL     OW10334   8.410   0.543   4.360  0.4644  0.2640 -0.5320
 2460SOL    HW110335   8.337   0.509   4.308  0.1889 -1.3555  0.8401
 2460SOL    HW210336   8.487   0.499   4.325 -0.0806 -3.5283  2.3990
 2461SOL     OW10337  10.020   5.631   7.955  0.0432 -0.1998 -0.1095
 2461SOL    HW110338   9.940   5.643   7.905  0.3047  0.3171 -0.4183
 2461SOL    HW210339  10.088   5.616   7.889  0.4238  0.6620  0.0681
 2462SOL     OW10340   4.806   6.920   6.910 -0.1405  0.1747  0.6021
 2462SOL    HW110341   4.786   7.002   6.955 -1.9018  0.1527 -0.0957
 2462SOL    HW210342   4.871   6.877   6.967  0.0550  1.5776  1.4739
 2463SOL     OW10343   1.996   2.050   8.206  0.5855  0.5087  0.3556
 2463SOL    HW110344   2.060   1.992   8.165  1.6207  0.8143  1.4814
 2463SOL    HW210345   1.926   2.059   8.141  2.2743  1.1912 -1.4467
 2464SOL     OW10346   9.404   9.580   9.868  0.7645 -0.6186 -0.7396
 2464SOL    HW110347   9.367   9.492   9.875  2.5267 -1.3858 -0.4078
 2464SOL    HW210348   9.453   9.579   9.786  0.8877  0.0341 -0.6808
 2465SOL     OW10349  10.291   0.478   1.475 -0.2590  0.5201  0.0837
 2465SOL    HW110350  10.200   0.505   1.462 -0.1029  0.7806 -0.4968
 2465SOL    HW210351  10.322   0.454   1.388  0.6125  1.6334  0.0678
 2466SOL     OW10352   3.809   3.853   6.583  0.9191  0.3139 -0.1776
 2466SOL    HW110353   3.898   3.818   6.578  0.6149 -0.5540  0.2896
 2466SOL    HW210354   3.752   3.779   6.561  0.2591  0.4690  0.9114
 2467SOL     OW10355   2.289   1.414   3.466 -0.0228  0.0867 -0.1684
 2467SOL    HW110356   2.293   1.335   3.520  0.2046  0.7829  0.8669
 2467SOL    HW210357   2.380   1.436   3.448 -0.0689  0.3022 -0.1519
 2468SOL     OW10358   8.783   8.771   4.741  0.1462 -0.5080  0.3287
 2468SOL    HW110359   8.795   8.793   4.833 -0.3005  0.5290  0.1544
 2468SOL    HW210360   8.689   8.758   4.731  0.1385 -0.1771 -0.0742
 2469SOL     OW10361   9.057   3.134   3.837 -0.0629 -0.1983  0.2051
 2469SOL    HW110362   9.000   3.171   3.905  0.2250  1.6594 -0.5065
 2469SOL    HW210363   8.998   3.086   3.779 -0.6585  0.2691  0.4196
 2470SOL     OW10364   1.021   7.727   7.346  0.0973  0.0693  0.1950
 2470SOL    HW110365   0.994   7.807   7.300 -0.1533  0.6323  1.3054
 2470SOL    HW210366   0.939   7.680   7.363  0.0949  0.3261  0.9079
 2471SOL     OW10367   0.919   9.543   6.934 -0.1973 -0.4668  0.7627
 2471SOL    HW110368   0.952   9.453   6.934  0.0355 -0.4356  2.8500
 2471SOL    HW210369   0.974   9.589   6.870  1.2836 -1.2925  1.3894
 2472SOL     OW10370  10.520   7.803   9.369  0.2348  0.1037 -0.3117
 2472SOL    HW110371  10.477   7.888   9.386  0.7325 -0.0682  2.3511
 2472SOL    HW210372  10.494   7.749   9.444  1.9867 -1.2626 -0.6392
 2473SOL     OW10373   1.430  10.447   4.714  0.6179  0.3234  0.3104
 2473SOL    HW110374   1.428  10.352   4.727  0.2516  0.3166  0.2180
 2473SOL    HW210375   1.496  10.460   4.646  0.1108  0.0629 -0.2410
 2474SOL     OW10376   9.583   2.534   6.624  0.3119 -0.2450  0.2155
 2474SOL    HW110377   9.650   2.486   6.673  2.4865  2.2484 -0.0911
 2474SOL    HW210378   9.598   2.510   6.532  2.3017  1.8552 -0.0919
 2475SOL     OW10379   8.826   8.963   0.285 -0.4512 -0.1059  0.1115
 2475SOL    HW110380   8.882   9.032   0.249 -0.9547  1.0849  1.5130
 2475SOL    HW210381   8.745   8.970   0.233 -0.5780  0.5278  0.3747
 2476SOL     OW10382   1.531  10.313   1.349  0.1606 -0.0879  0.0403
 2476SOL    HW110383   1.596  10.354   1.406 -0.4532  0.2852  0.4888
 2476SOL    HW210384   1.459  10.289   1.408  0.3339 -1.4837 -0.2692
 2477SOL     OW10385   9.801   3.976   2.279  0.2114  0.0076 -0.0327
 2477SOL    HW110386   9.795   3.985   2.374  0.1534  1.4261 -0.1558
 2477SOL    HW210387   9.713   3.952   2.252  0.9279 -3.9069  0.5608
 2478SOL     OW10388   5.467   9.183  10.629  0.4591  0.2524 -0.0733
 2478SOL    HW110389   5.524   9.186  10.553 -0.2716  1.2121 -0.6046
 2478SOL    HW210390   5.388   9.140  10.599  1.3668 -2.4039  1.0327
 2479SOL     OW10391   0.820   9.137   1.116 -0.8944  0.3127 -0.0802
 2479SOL    HW110392   0.810   9.087   1.034  3.3682  1.9998 -1.9251
 2479SOL    HW210393   0.883   9.087   1.167 -2.7051 -0.1534  1.8618
 2480SOL     OW10394  10.316   6.154   1.769 -0.6948  0.1842 -0.0540
 2480SOL    HW110395  10.366   6.195   1.699 -0.1173  0.3042  0.4247
 2480SOL    HW210396  10.377   6.149   1.843 -0.9286 -1.0145  0.0745
 2481SOL     OW10397   0.422   3.523   3.336 -0.4583 -0.2762  0.1076
 2481SOL    HW110398   0.512   3.537   3.367 -1.0427  1.2631  1.2155
 2481SOL    HW210399   0.395   3.608   3.302 -1.2528 -0.9314 -0.9721
 2482SOL     OW10400   7.875   5.036   8.476 -0.6810  0.3632 -0.0209
 2482SOL    HW110401   7.905   4.948   8.499  1.0332  0.3340 -2.1642
 2482SOL    HW210402   7.789   5.022   8.436 -0.1595 -0.4110 -0.8913
 2483SOL     OW10403   1.592   1.830  10.516  0.0280 -0.1891  0.7630
 2483SOL    HW110404   1.567   1.793  10.431 -3.1123  0.5756  1.2667
 2483SOL    HW210405   1.633   1.914  10.494 -0.0019 -0.3705 -0.0156
 2484SOL     OW10406   7.815   5.568   7.672 -0.6804 -0.0490  0.4306
 2484SOL    HW110407   7.738   5.572   7.729  0.0449  0.8340  1.3887
 2484SOL    HW210408   7.793   5.623   7.597 -0.6178  1.0285  1.1832
 2485SOL     OW10409   1.575   7.981   6.354 -0.0713  0.1300 -0.0455
 2485SOL    HW110410   1.541   7.899   6.318 -0.1921  0.8534 -1.6649
 2485SOL    HW210411   1.650   8.002   6.298  0.4019  0.7612  0.8099
 2486SOL     OW10412   5.006   1.226   4.751  0.3331 -0.4458 -0.2293
 2486SOL    HW110413   5.008   1.175   4.670 -1.5380 -0.0556 -0.5744
 2486SOL    HW210414   5.011   1.160   4.821  0.1560 -0.9296 -0.6655
 2487SOL     OW10415   6.750   5.429   4.174  0.2192  0.2393  0.5830
 2487SOL    HW110416   6.659   5.403   4.186  0.2062  0.0873  0.1686
 2487SOL    HW210417   6.788   5.360   4.120  1.3321 -1.2407  3.0525
 2488SOL     OW10418   2.288   6.283  10.584 -0.3074 -0.4782 -0.2321
 2488SOL    HW110419   2.348   6.357  10.592 -1.0942  0.1257  0.2871
 2488SOL    HW210420   2.263   6.282  10.492 -1.6582  1.0525  0.0595
 2489SOL     OW10421   4.562   0.964   4.894 -0.0533  0.2030  0.0416
 2489SOL    HW110422   4.623   0.897   4.927 -0.0143  0.2507  0.0671
 2489SOL    HW210423   4.495   0.915   4.847 -0.5750  0.0590  0.9062
 2490SOL     OW10424   1.349   7.107   1.539 -0.5239 -0.1582 -0.1893
 2490SOL    HW110425   1.359   7.012   1.536 -0.5410 -0.1612 -0.1512
 2490SOL    HW210426   1.400   7.135   1.615 -1.3141 -0.2422  0.3919
 2491SOL     OW10427   5.118   0.930   5.185 -0.3916  0.5291  0.3711
 2491SOL    HW110428   5.064   0.859   5.218 -0.5972  0.4746 -0.0709
 2491SOL    HW210429   5.183   0.945   5.254  0.3682 -0.8538 -0.0121
 2492SOL     OW10430   4.128   9.087   6.695 -0.3248 -0.2560 -0.3118
 2492SOL    HW110431   4.170   9.116   6.614 -0.3191  0.6154 -0.0108
 2492SOL    HW210432   4.131   8.992   6.691 -1.3447 -0.2510 -1.8633
 2493SOL     OW10433   5.785   1.858   9.311 -0.0340 -0.1915  0.3880
 2493SOL    HW110434   5.864   1.911   9.297  0.6829 -1.8257 -2.4208
 2493SOL    HW210435   5.781   1.846   9.406  2.8807  0.2741  0.6674
 2494SOL     OW10436   8.050   0.214   8.023  0.0865 -0.1820  0.8014
 2494SOL    HW110437   8.093   0.136   8.058  0.1547 -1.5600 -2.0601
 2494SOL    HW210438   8.109   0.246   7.956 -0.1777  2.1280  1.5764
 2495SOL     OW10439  10.023   2.785   2.278  0.2572 -0.1702  0.3381
 2495SOL    HW110440  10.043   2.762   2.369  0.2746 -0.9545  0.1382
 2495SOL    HW210441   9.933   2.755   2.265  0.3339 -0.2701  0.0307
 2496SOL     OW10442  10.329   1.733   0.970 -0.6220 -0.6746 -0.0390
 2496SOL    HW110443  10.236   1.736   0.950 -0.8926 -0.0389  1.1765
 2496SOL    HW210444  10.371   1.785   0.901 -1.1465 -1.0388 -0.6367
 2497SOL     OW10445   9.291   1.848   0.148  0.0533  0.1545 -0.0881
 2497SOL    HW110446   9.213   1.793   0.153  0.1889  0.0001  0.3192
 2497SOL    HW210447   9.258   1.938   0.149 -0.0671  0.1131  1.1731
 2498SOL     OW10448   7.168   3.603   3.361 -0.1816 -0.3283 -0.0157
 2498SOL    HW110449   7.203   3.532   3.415  1.2421  0.0938 -0.3580
 2498SOL    HW210450   7.201   3.683   3.402 -1.5350  0.1493  0.1957
 2499SOL     OW10451   8.509   7.815   0.164 -0.0713  0.2629 -0.2392
 2499SOL    HW110452   8.537   7.884   0.225  0.2515  0.5093 -0.6629
 2499SOL    HW210453   8.426   7.784   0.200  0.0375  0.5148  0.2416
 2500SOL     OW10454   5.498   1.642   0.806 -0.2406 -0.6052 -0.6464
 2500SOL    HW110455   5.503   1.720   0.862 -0.4358 -0.7509 -0.4243
 2500SOL    HW210456   5.501   1.677   0.717 -2.2113 -0.1884 -0.5803
 2501SOL     OW10457   3.143   2.776   7.012  0.5340 -0.0735 -0.6587
 2501SOL    HW110458   3.133   2.794   6.918  0.7908  1.3346 -0.4393
 2501SOL    HW210459   3.235   2.796   7.030  1.2089 -2.8056 -0.5733
 2502SOL     OW10460   2.873   9.371   7.094 -0.0393 -0.0804  0.4601
 2502SOL    HW110461   2.800   9.355   7.033  0.5002 -0.7675 -0.0279
 2502SOL    HW210462   2.889   9.465   7.088 -1.0112  0.1106  0.7217
 2503SOL     OW10463   3.914   2.581   4.337 -0.4778  0.2661  0.4603
 2503SOL    HW110464   3.888   2.500   4.293  0.2168 -0.1436  0.7838
 2503SOL    HW210465   3.950   2.636   4.267  2.0365 -0.9712  0.6896
 2504SOL     OW10466   1.309   0.391   9.041  0.1496 -0.0220 -0.6323
 2504SOL    HW110467   1.272   0.460   9.097  2.3605  0.4216  0.4031
 2504SOL    HW210468   1.263   0.312   9.067 -1.5300  0.8236 -0.9041
 2505SOL     OW10469   1.312   6.013  10.051  0.6312  0.3609 -0.1704
 2505SOL    HW110470   1.353   6.059   9.978  0.9533 -0.2911 -0.4072
 2505SOL    HW210471   1.341   6.060  10.129  0.6040  0.8200 -0.4350
 2506SOL     OW10472   4.693   4.167   7.453  0.0925 -0.4295  0.1656
 2506SOL    HW110473   4.784   4.145   7.433  0.0241 -0.1053 -0.5570
 2506SOL    HW210474   4.645   4.086   7.437 -0.0057 -0.1005 -1.3903
 2507SOL     OW10475  10.169   9.651   1.218 -0.6851  0.2032 -0.0739
 2507SOL    HW110476  10.147   9.743   1.206  0.3277  0.6567  1.2948
 2507SOL    HW210477  10.180   9.641   1.312  1.7754 -0.7041 -0.4035
 2508SOL     OW10478   5.138   2.604   4.306 -0.0875 -0.0759  0.1155
 2508SOL    HW110479   5.158   2.688   4.347 -0.7169 -0.1911  0.6789
 2508SOL    HW210480   5.223   2.560   4.299  0.3023  0.7769 -0.5862
 2509SOL     OW10481   0.887   7.928   1.112 -0.4779  0.6123 -0.3987
 2509SOL    HW110482   0.912   8.019   1.096 -0.2221  0.6068 -0.0362
 2509SOL    HW210483   0.961   7.891   1.160 -0.0692 -0.1032 -1.5291
 2510SOL     OW10484   6.174   0.693   9.638  0.1922  0.2099 -0.0334
 2510SOL    HW110485   6.217   0.778   9.647  0.9201 -0.1103 -0.4083
 2510SOL    HW210486   6.159   0.684   9.544 -0.3140  0.1335  0.0564
 2511SOL     OW10487  10.322   1.536   9.587  0.1997 -0.2299 -0.0631
 2511SOL    HW110488  10.358   1.621   9.562  0.1376 -0.1785  0.0197
 2511SOL    HW210489  10.392   1.492   9.635  0.4432 -0.4711 -0.6219
 2512SOL     OW10490   4.361   6.110   4.185 -0.5878  0.3086 -0.0083
 2512SOL    HW110491   4.394   6.070   4.266 -0.1592  0.4856 -0.0921
 2512SOL    HW210492   4.336   6.036   4.131  0.4026  0.1341 -0.2464
 2513SOL     OW10493   2.789   0.482  10.294  0.3727  0.5571  0.0314
 2513SOL    HW110494   2.732   0.558  10.278 -0.4911  0.0878  0.7892
 2513SOL    HW210495   2.871   0.521  10.323 -0.1334  1.2228  0.6336
 2514SOL     OW10496   3.719   4.498   3.042 -0.1298 -0.2958 -0.0026
 2514SOL    HW110497   3.703   4.422   2.986 -0.1589  0.7035 -1.4210
 2514SOL    HW210498   3.690   4.471   3.129 -0.2881 -1.8424 -0.5123
 2515SOL     OW10499  10.362   4.763   7.240  0.2385  0.1897  0.2767
 2515SOL    HW110500  10.367   4.826   7.313  1.4184 -0.6772  0.9829
 2515SOL    HW210501  10.273   4.729   7.244 -0.2736  1.4599  0.1804
 2516SOL     OW10502   7.709   0.728   4.548  0.2972 -0.3414  0.1386
 2516SOL    HW110503   7.669   0.755   4.631  0.7886 -1.2695  0.6908
 2516SOL    HW210504   7.635   0.708   4.491 -0.0454 -0.7187  0.7032
 2517SOL     OW10505   7.129   1.561   3.355  0.4263 -0.4045 -0.1693
 2517SOL    HW110506   7.162   1.475   3.329  0.0873 -0.9382  1.0881
 2517SOL    HW210507   7.068   1.586   3.286  0.6192 -1.1242 -0.6025
 2518SOL     OW10508   6.029   4.321   8.093 -0.3699 -0.3124 -0.0484
 2518SOL    HW110509   5.941   4.338   8.058 -0.6783  1.0430  1.2744
 2518SOL    HW210510   6.030   4.227   8.111 -1.9987 -0.1801  1.0007
 2519SOL     OW10511  10.347   6.738   4.141 -0.3850  0.5035 -0.8863
 2519SOL    HW110512  10.251   6.741   4.133 -0.3153  0.0570 -2.1672
 2519SOL    HW210513  10.373   6.667   4.083  0.6263 -0.4187  0.6497
 2520SOL     OW10514   4.167  10.020   0.832 -0.2960  0.4417  0.0896
 2520SOL    HW110515   4.162   9.959   0.905 -0.0841  0.6848  0.3109
 2520SOL    HW210516   4.226   9.978   0.769  0.4392  0.7448  0.5655
 2521SOL     OW10517   1.579   7.532   1.852 -0.0529  0.6762 -0.0781
 2521SOL    HW110518   1.553   7.486   1.932 -0.1274  0.8765  0.0158
 2521SOL    HW210519   1.630   7.607   1.883 -0.7316  1.1924 -0.1647
 2522SOL     OW10520   8.085   9.834   1.180 -0.1903  0.0830  0.1704
 2522SOL    HW110521   7.990   9.840   1.191 -0.0813 -1.0538  2.0436
 2522SOL    HW210522   8.106   9.742   1.197  1.3685  0.5294  0.8218
 2523SOL     OW10523   9.889   9.968   3.310 -0.3135  0.3989 -0.2019
 2523SOL    HW110524   9.972   9.978   3.264 -0.1111  0.8700  0.2655
 2523SOL    HW210525   9.847  10.053   3.305 -1.5893 -0.2767 -1.9710
 2524SOL     OW10526   1.631   7.599   9.790 -0.1637  0.0693  0.3153
 2524SOL    HW110527   1.569   7.671   9.782  1.6141  1.5408 -0.9072
 2524SOL    HW210528   1.690   7.626   9.861  1.2171  0.4210 -0.9240
 2525SOL     OW10529   4.962   7.156   2.829 -1.0880 -0.4553 -0.7394
 2525SOL    HW110530   4.932   7.237   2.871 -2.7824 -1.5038  0.1869
 2525SOL    HW210531   4.885   7.126   2.780  0.0283 -0.6822 -2.4207
 2526SOL     OW10532   2.112   2.327   9.559 -0.0282  0.0691  0.3292
 2526SOL    HW110533   2.056   2.391   9.516  0.2557  0.8641  1.1267
 2526SOL    HW210534   2.174   2.379   9.610  0.7800 -0.8165  0.2861
 2527SOL     OW10535   5.835   5.250   7.915 -0.5943  0.2787  0.1331
 2527SOL    HW110536   5.750   5.249   7.872 -1.2597  0.8610  1.3786
 2527SOL    HW210537   5.817   5.281   8.004  0.9862  0.8890  0.2786
 2528SOL     OW10538   8.335   3.707   8.764  0.5652 -0.1472 -0.6236
 2528SOL    HW110539   8.412   3.665   8.726  0.4254  0.8482 -2.0900
 2528SOL    HW210540   8.261   3.667   8.718  0.2881 -0.0857 -0.2349
 2529SOL     OW10541   0.265   3.785  10.495  0.0031  0.1291  0.0364
 2529SOL    HW110542   0.274   3.808  10.403  1.6166  0.2230  0.1888
 2529SOL    HW210543   0.354   3.788  10.529 -0.3399 -1.5579  1.2077
 2530SOL     OW10544   6.507   9.259   7.537 -0.5905  0.4576 -0.3329
 2530SOL    HW110545   6.442   9.228   7.600 -0.1680 -1.1904 -0.6586
 2530SOL    HW210546   6.492   9.353   7.531 -2.5334  0.2020  0.0450
 2531SOL     OW10547   6.907   3.960  10.094  0.0224  0.5160 -0.1882
 2531SOL    HW110548   6.935   3.870  10.077  1.5124  0.7412  0.8744
 2531SOL    HW210549   6.941   4.010  10.020  0.0733  0.3458 -0.2798
 2532SOL     OW10550   6.128   1.166   0.337 -0.3611  0.0719 -0.3433
 2532SOL    HW110551   6.052   1.109   0.338 -0.6136  0.4185  0.2134
 2532SOL    HW210552   6.200   1.111   0.368 -0.8496  0.3907  1.4538
 2533SOL     OW10553   3.170   4.490   3.368 -0.2563  0.5903 -0.1038
 2533SOL    HW110554   3.239   4.553   3.350  1.6375 -1.3927 -0.2981
 2533SOL    HW210555   3.206   4.406   3.338 -2.3427 -0.7148  0.7783
 2534SOL     OW10556   3.744   5.110   2.950  0.5007 -0.1038  0.1706
 2534SOL    HW110557   3.788   5.052   2.887  0.3399  0.6883 -0.6876
 2534SOL    HW210558   3.756   5.198   2.914 -0.6398  0.2526  0.6237
 2535SOL     OW10559   0.567   9.482   2.415  0.0933  0.1373  0.2348
 2535SOL    HW110560   0.570   9.389   2.435  0.1735 -0.0764 -0.6977
 2535SOL    HW210561   0.533   9.486   2.325  0.2667  0.9869  0.1981
 2536SOL     OW10562   9.903   4.070   7.272 -0.4097  0.3503 -0.7350
 2536SOL    HW110563   9.864   3.983   7.282 -0.0349 -0.0328 -2.3572
 2536SOL    HW210564   9.991   4.054   7.237 -0.0084  1.3444 -0.2249
 2537SOL     OW10565   3.512   7.974   1.301  0.0626  0.1436  0.5164
 2537SOL    HW110566   3.454   7.941   1.370 -0.4589 -0.2970 -0.1230
 2537SOL    HW210567   3.495   8.069   1.300  0.4753  0.2336  1.3527
 2538SOL     OW10568   3.060   9.925   7.615  0.1044 -0.3107  0.3282
 2538SOL    HW110569   3.142   9.888   7.584 -0.4810 -0.3166 -1.2691
 2538SOL    HW210570   3.084   9.971   7.696  1.3491 -1.7301  0.8213
 2539SOL     OW10571   1.946   2.078   7.437  0.4643 -0.3194 -0.8551
 2539SOL    HW110572   1.915   2.159   7.396  2.1750  0.2690 -1.0963
 2539SOL    HW210573   2.009   2.108   7.503 -0.6331 -1.3670  0.7158
 2540SOL     OW10574   2.042   0.189   2.565  0.1762  0.3002 -0.1411
 2540SOL    HW110575   2.022   0.102   2.599 -0.3060  0.9466  1.3348
 2540SOL    HW210576   2.039   0.246   2.642  1.7786  1.4253 -0.8475
 2541SOL     OW10577   1.071   4.293   5.440  0.5871 -0.0624 -0.0209
 2541SOL    HW110578   1.017   4.300   5.361  0.0803 -1.0939  0.2289
 2541SOL    HW210579   1.051   4.373   5.489 -1.2473 -0.7439  0.3970
 2542SOL     OW10580   3.384   1.192   3.304  0.0983  0.3442 -0.1880
 2542SOL    HW110581   3.360   1.203   3.396 -1.0453  1.0493 -0.5411
 2542SOL    HW210582   3.466   1.144   3.306  0.2457  0.6046  1.2114
 2543SOL     OW10583   1.953   7.922   0.553  0.4261  0.3685  0.1943
 2543SOL    HW110584   1.977   7.932   0.645  0.0281  1.3061  0.1978
 2543SOL    HW210585   1.966   8.009   0.515 -3.3689  1.1280  0.2878
 2544SOL     OW10586   4.041   5.372   4.801 -0.4269  0.1328 -0.3334
 2544SOL    HW110587   3.998   5.445   4.846 -2.6577 -1.1601 -0.1834
 2544SOL    HW210588   3.982   5.350   4.729  0.5516 -1.0507 -0.8147
 2545SOL     OW10589   2.083   5.926   4.099 -0.5008 -0.0293 -0.3314
 2545SOL    HW110590   2.081   5.938   4.194 -0.2201 -1.2191 -0.1654
 2545SOL    HW210591   2.022   5.993   4.066 -2.1133 -0.8517  0.8286
 2546SOL     OW10592   8.217   0.716  10.426  0.0482  0.4137 -0.3056
 2546SOL    HW110593   8.201   0.678  10.339 -1.2827 -1.6346  0.7484
 2546SOL    HW210594   8.156   0.789  10.432 -0.0872  0.3620 -0.9609
 2547SOL     OW10595   0.494   7.408   8.710 -0.1704  0.9118 -0.3046
 2547SOL    HW110596   0.445   7.364   8.641 -1.2502  0.0345  0.9881
 2547SOL    HW210597   0.455   7.496   8.714 -0.7986  0.6311 -0.1315
 2548SOL     OW10598   1.180   9.803   7.042  0.3294  0.7816  0.1991
 2548SOL    HW110599   1.115   9.775   7.107  0.8004  0.0955  0.3897
 2548SOL    HW210600   1.146   9.885   7.007 -1.8045 -0.6682 -1.3730
 2549SOL     OW10601   4.984   3.196   4.818  0.1777 -0.3798 -0.2377
 2549SOL    HW110602   4.910   3.250   4.846 -0.1942 -0.4037 -1.1383
 2549SOL    HW210603   5.061   3.244   4.848 -0.1809  0.0670 -0.0199
 2550SOL     OW10604   0.990   2.522   2.030  0.5262 -0.1538  0.0826
 2550SOL    HW110605   1.005   2.433   2.063 -0.9437 -0.0542  1.1492
 2550SOL    HW210606   0.979   2.575   2.109  0.2069  0.7459 -0.5465
 2551SOL     OW10607   6.911   8.099   5.125  0.3198 -0.2160  0.0681
 2551SOL    HW110608   7.000   8.103   5.089 -0.1287  2.0861 -0.9872
 2551SOL    HW210609   6.905   8.176   5.182 -0.8980 -0.5130  0.3648
 2552SOL     OW10610   1.971  10.417  10.657 -0.4975 -0.0185 -0.1789
 2552SOL    HW110611   1.995  10.324  10.652  0.4490  0.0812  1.6897
 2552SOL    HW210612   1.896  10.425  10.599  0.5187 -1.5624 -1.8345
 2553SOL     OW10613   6.778   0.717   7.815 -0.4909  0.6968 -0.2491
 2553SOL    HW110614   6.859   0.716   7.765 -0.2641 -0.5895  0.1016
 2553SOL    HW210615   6.715   0.671   7.759 -0.2501 -0.7007  0.5987
 2554SOL     OW10616   7.906   5.814   9.995  0.0835  0.1253  0.1305
 2554SOL    HW110617   7.878   5.727  10.022 -2.5161  0.7076 -0.3774
 2554SOL    HW210618   7.971   5.799   9.927 -0.4992 -1.4280 -0.1194
 2555SOL     OW10619   1.148   9.252   9.508  0.5710 -0.3772  0.0490
 2555SOL    HW110620   1.235   9.286   9.530  1.0173 -0.8582 -0.9261
 2555SOL    HW210621   1.088   9.315   9.547  1.3765  1.1233 -1.0274
 2556SOL     OW10622   1.713   4.114   9.134  0.5080  0.0813 -0.1782
 2556SOL    HW110623   1.786   4.171   9.158 -0.6151  1.8583 -0.8270
 2556SOL    HW210624   1.737   4.079   9.048 -0.0934  1.9762 -1.1663
 2557SOL     OW10625   6.136   9.524   7.296  0.1929 -0.4370 -0.0813
 2557SOL    HW110626   6.198   9.478   7.239 -0.3180  0.5515 -1.4945
 2557SOL    HW210627   6.089   9.454   7.342  2.0258 -1.2132  0.7231
 2558SOL     OW10628   2.278   6.189   6.511  0.2264 -0.3424 -0.0865
 2558SOL    HW110629   2.205   6.186   6.574  0.2641  0.8607  0.0427
 2558SOL    HW210630   2.357   6.186   6.566  0.2682 -0.6553 -0.1637
 2559SOL     OW10631   0.422   3.015   3.082  0.1879  0.1595  0.0106
 2559SOL    HW110632   0.351   3.014   3.146  0.1318  0.2707 -0.0507
 2559SOL    HW210633   0.378   3.028   2.998  0.2687  0.0948 -0.0418
 2560SOL     OW10634   8.123   7.094   4.997  0.2068  0.0070 -0.4871
 2560SOL    HW110635   8.055   7.141   5.046  1.4540  1.0835  0.2594
 2560SOL    HW210636   8.157   7.159   4.935 -0.9622 -1.1628 -2.4867
 2561SOL     OW10637  10.469   3.568   1.929 -0.2681 -0.0935  0.0393
 2561SOL    HW110638  10.453   3.490   1.983 -0.0483  0.8627  1.5609
 2561SOL    HW210639  10.526   3.537   1.859 -0.4110 -1.3639  0.4593
 2562SOL     OW10640   5.890   5.885   7.154  0.1121  0.1738  0.3397
 2562SOL    HW110641   5.879   5.905   7.247 -0.9491 -0.7259  0.4235
 2562SOL    HW210642   5.895   5.790   7.150 -0.2839  0.1785 -0.5603
 2563SOL     OW10643  10.321   4.937   9.246 -0.2924 -0.7399 -0.8682
 2563SOL    HW110644  10.234   4.902   9.264 -0.6036  1.1258  2.0730
 2563SOL    HW210645  10.306   5.009   9.185 -0.9046 -0.2655 -0.1816
 2564SOL     OW10646   1.637   8.652  10.255 -0.8049 -0.0196  0.4451
 2564SOL    HW110647   1.696   8.690  10.191  0.5923  2.0351  2.7676
 2564SOL    HW210648   1.589   8.585  10.207  0.1332  1.3778 -2.6833
 2565SOL     OW10649   0.130   5.312  10.294  0.4519  0.3576 -0.2905
 2565SOL    HW110650   0.076   5.361  10.357  0.0776 -0.2912 -0.0992
 2565SOL    HW210651   0.147   5.375  10.224  0.5668  0.9786  0.2803
 2566SOL     OW10652   2.169  10.217  10.231 -0.0714  0.2928  0.4766
 2566SOL    HW110653   2.158  10.279  10.158 -1.4380 -1.0944 -0.5630
 2566SOL    HW210654   2.247  10.167  10.208  0.5800  1.0681  0.9300
 2567SOL     OW10655   0.521   7.485   9.928 -0.2085  0.4401 -0.5551
 2567SOL    HW110656   0.559   7.527   9.851 -2.9573 -1.7352 -3.3493
 2567SOL    HW210657   0.431   7.518   9.932 -0.1399  0.4759  1.7607
 2568SOL     OW10658   9.556   5.274   5.960 -0.5590 -0.1003 -0.2314
 2568SOL    HW110659   9.536   5.287   5.867 -0.0054  0.7443 -0.2450
 2568SOL    HW210660   9.608   5.194   5.963 -1.0872 -0.4638 -0.5716
 2569SOL     OW10661   0.465   8.384   7.446 -0.2639 -0.3203  0.3599
 2569SOL    HW110662   0.551   8.359   7.412 -0.0659  0.2781  0.4201
 2569SOL    HW210663   0.463   8.344   7.534  0.1145 -0.0060  0.5165
 2570SOL     OW10664   6.006   6.304   9.692  0.2763  0.1920 -0.3882
 2570SOL    HW110665   6.094   6.341   9.683  0.2576  0.1360 -0.8413
 2570SOL    HW210666   5.994   6.292   9.786  0.5677  0.6526 -0.2919
 2571SOL     OW10667   1.030   6.508  10.334  0.3323 -0.7722 -0.0946
 2571SOL    HW110668   1.057   6.456  10.257  1.7356  0.2397 -0.3320
 2571SOL    HW210669   1.049   6.599  10.309  0.9006 -0.4301  1.4707
 2572SOL     OW10670   3.121   2.694   2.234  0.2173 -0.1119 -0.1877
 2572SOL    HW110671   3.168   2.682   2.316 -1.1476 -1.1048  0.4979
 2572SOL    HW210672   3.048   2.632   2.239  0.4378 -0.6490 -2.4201
 2573SOL     OW10673   9.131   6.633   0.262  0.3797  0.0518 -0.3081
 2573SOL    HW110674   9.146   6.599   0.174 -0.0542  0.5276 -0.5719
 2573SOL    HW210675   9.043   6.671   0.258  0.2551 -0.1438  0.3982
 2574SOL     OW10676   5.270   0.593   7.184 -0.5821  0.4069 -0.1448
 2574SOL    HW110677   5.224   0.511   7.167  0.1511  0.1550 -1.0069
 2574SOL    HW210678   5.255   0.611   7.276 -1.1966 -0.4206 -0.0749
 2575SOL     OW10679   0.155   5.770   9.688 -0.3401 -0.1264  0.2523
 2575SOL    HW110680   0.119   5.791   9.774 -2.4677  1.5566 -0.9603
 2575SOL    HW210681   0.194   5.852   9.657 -0.9403 -0.2707 -0.9694
 2576SOL     OW10682  10.569   6.867   2.280  0.1457  0.2082 -0.1723
 2576SOL    HW110683  10.653   6.829   2.306 -0.4200 -0.7472  0.3046
 2576SOL    HW210684  10.556   6.939   2.342  1.6664  1.8593 -1.6659
 2577SOL     OW10685   0.001   1.847  10.549 -0.0224  0.3821  0.3213
 2577SOL    HW110686  -0.056   1.887  10.483  0.8325  1.3815  0.1726
 2577SOL    HW210687  -0.060   1.800  10.606 -0.7890 -0.4152 -1.0935
 2578SOL     OW10688   2.487   8.967   7.569 -0.8210  0.4215  0.4561
 2578SOL    HW110689   2.454   9.030   7.633  1.3036 -0.2867  2.3944
 2578SOL    HW210690   2.530   9.021   7.503  0.1409  1.0898  1.5853
 2579SOL     OW10691   2.143   5.592  10.176 -0.2301 -0.0459 -0.4671
 2579SOL    HW110692   2.125   5.511  10.224  0.0587 -0.5325 -1.1683
 2579SOL    HW210693   2.066   5.647  10.193 -0.2407 -0.3087  0.3453
 2580SOL     OW10694   1.885   9.279   4.740  0.5002 -0.3142 -0.1453
 2580SOL    HW110695   1.889   9.184   4.745 -0.7689 -0.3391  1.0757
 2580SOL    HW210696   1.804   9.302   4.785 -0.3765  1.2202 -2.3071
 2581SOL     OW10697   1.568   5.339   0.884  0.3019 -0.0259  0.3083
 2581SOL    HW110698   1.525   5.254   0.875 -1.0834  0.7886 -1.1696
 2581SOL    HW210699   1.616   5.332   0.967  0.3005 -2.2548  0.1882
 2582SOL     OW10700   8.036   2.489   5.229 -0.8755 -0.5986  0.2697
 2582SOL    HW110701   7.968   2.492   5.161 -1.2387 -0.9669  0.6104
 2582SOL    HW210702   7.992   2.523   5.308 -0.2274  0.5944  0.1363
 2583SOL     OW10703   3.688   8.220   4.281 -1.0459  0.3014  0.3226
 2583SOL    HW110704   3.659   8.282   4.213 -1.4654 -0.2434 -0.0052
 2583SOL    HW210705   3.705   8.139   4.233 -1.8095 -0.2295  0.9271
 2584SOL     OW10706  10.096   9.483   4.368 -0.4176 -0.2531  0.0372
 2584SOL    HW110707  10.162   9.457   4.303 -0.9673 -1.6204 -0.0100
 2584SOL    HW210708  10.041   9.547   4.322  0.9098  0.9932  0.1143
 2585SOL     OW10709   7.595   5.244   3.661  0.3165  0.1029  0.3223
 2585SOL    HW110710   7.594   5.240   3.757 -1.1007  0.2792  0.3328
 2585SOL    HW210711   7.545   5.168   3.634  1.0807 -0.1861 -0.3073
 2586SOL     OW10712  10.675   6.966   0.792  0.1943 -0.1028  0.7915
 2586SOL    HW110713  10.725   6.889   0.820 -0.6186 -0.4175  1.4447
 2586SOL    HW210714  10.740   7.034   0.778  1.0393 -1.1555 -0.6907
 2587SOL     OW10715   4.924   4.939   7.886  0.0354  0.0529  0.3386
 2587SOL    HW110716   4.948   5.025   7.920 -0.4402  0.0320  0.7476
 2587SOL    HW210717   4.933   4.947   7.791  2.8839 -0.3506  0.4996
 2588SOL     OW10718   1.143   4.558   1.789 -0.3845  0.6363 -0.2793
 2588SOL    HW110719   1.144   4.584   1.881  3.9162  0.0232  0.0683
 2588SOL    HW210720   1.211   4.612   1.748 -0.2170 -1.0534 -2.4571
 2589SOL     OW10721   7.132  10.234   5.008 -0.0578 -0.0856 -0.1450
 2589SOL    HW110722   7.160  10.167   4.945  1.2509  0.0223  0.2880
 2589SOL    HW210723   7.153  10.317   4.966 -0.9124  0.0441 -0.3324
 2590SOL     OW10724   1.156   5.160   8.067  0.1293 -0.1383 -0.3903
 2590SOL    HW110725   1.207   5.233   8.033  0.4848 -0.4465 -0.5318
 2590SOL    HW210726   1.096   5.137   7.996 -0.0473  0.0723 -0.3112
 2591SOL     OW10727   3.277   3.621   3.598 -0.6633  0.4573 -0.3910
 2591SOL    HW110728   3.248   3.679   3.668  0.5995 -0.3993  0.8979
 2591SOL    HW210729   3.361   3.657   3.571  0.6785 -1.3013  1.1893
 2592SOL     OW10730   3.933   7.922   6.640  0.0810 -0.1478  0.3935
 2592SOL    HW110731   3.924   8.004   6.591 -0.2341 -0.0805  0.5622
 2592SOL    HW210732   3.952   7.856   6.573 -0.3353 -0.0542  0.1821
 2593SOL     OW10733   6.323   9.726   5.812  0.6568  0.3395  0.3058
 2593SOL    HW110734   6.228   9.728   5.825  0.7819  1.1854  1.1238
 2593SOL    HW210735   6.354   9.655   5.868  0.2889 -1.4574 -1.6321
 2594SOL     OW10736   6.298   7.083   8.698  0.5962 -0.0136 -0.1513
 2594SOL    HW110737   6.351   7.049   8.770  1.5427 -0.9432 -1.2472
 2594SOL    HW210738   6.212   7.043   8.710  1.1421 -1.2565 -0.3032
 2595SOL     OW10739   8.412   7.628   9.264 -0.2984  0.3401 -0.5081
 2595SOL    HW110740   8.375   7.675   9.189  2.1276  1.6736 -0.9676
 2595SOL    HW210741   8.384   7.680   9.340  0.5296  1.3180 -0.8438
 2596SOL     OW10742   4.360   2.035   9.801  0.1509 -0.0473 -0.3420
 2596SOL    HW110743   4.370   2.121   9.761  0.3605 -0.6752 -1.7343
 2596SOL    HW210744   4.397   2.044   9.888 -0.0256  1.3162 -0.3806
 2597SOL     OW10745   4.635   8.388   6.879  0.0690  0.3431 -0.2795
 2597SOL    HW110746   4.693   8.313   6.891 -0.4163 -0.2438 -1.4421
 2597SOL    HW210747   4.585   8.393   6.961  0.7938  0.0189  0.1944
 2598SOL     OW10748   6.102   6.885   9.036 -0.0974  0.0674  0.4088
 2598SOL    HW110749   6.028   6.824   9.046 -0.7782  0.5061 -1.5960
 2598SOL    HW210750   6.129   6.875   8.945 -0.5743  3.1075 -0.1655
 2599SOL     OW10751   5.116   1.503   1.620  0.2780  0.3556 -0.2847
 2599SOL    HW110752   5.078   1.586   1.592  0.7998  0.8093  0.3102
 2599SOL    HW210753   5.163   1.471   1.544 -2.1220 -0.7498 -1.3916
 2600SOL     OW10754   3.907   2.451   9.373  0.1384  0.5949 -0.0437
 2600SOL    HW110755   3.816   2.479   9.386 -0.6059 -1.5403 -0.2500
 2600SOL    HW210756   3.922   2.460   9.279  0.9118  2.9377  0.2290
 2601SOL     OW10757   8.232   4.253   0.529 -0.0185  0.0111 -0.2085
 2601SOL    HW110758   8.164   4.317   0.551  0.2261  0.1682  0.0903
 2601SOL    HW210759   8.219   4.182   0.592  1.0184  0.6984  0.8210
 2602SOL     OW10760   2.882   8.591   9.631 -0.1416 -0.7029 -0.1164
 2602SOL    HW110761   2.851   8.613   9.719  1.6481  0.4307  0.2755
 2602SOL    HW210762   2.973   8.620   9.629 -0.0329 -1.0018 -2.2537
 2603SOL     OW10763   0.856   6.355   0.672  0.0013 -0.3149 -0.6227
 2603SOL    HW110764   0.913   6.294   0.718  0.6410 -0.5423 -1.6842
 2603SOL    HW210765   0.823   6.306   0.597 -2.1644 -0.4123  0.3107
 2604SOL     OW10766   2.169   4.462   9.889  0.7619 -0.2679  0.1957
 2604SOL    HW110767   2.189   4.546   9.930 -0.4166  0.3028 -0.3492
 2604SOL    HW210768   2.210   4.467   9.802  0.4692 -0.1458  0.0634
 2605SOL     OW10769   9.488   1.808   8.468 -0.2483  0.1149 -0.2412
 2605SOL    HW110770   9.473   1.718   8.496 -0.0785  0.0348 -0.4021
 2605SOL    HW210771   9.403   1.849   8.474 -0.0910  0.2976  1.0667
 2606SOL     OW10772   0.954   5.482   3.610  0.1446 -0.1764  0.3005
 2606SOL    HW110773   1.047   5.461   3.596  0.3597  1.0100 -0.1208
 2606SOL    HW210774   0.907   5.409   3.568  0.8663  0.1580 -1.1479
 2607SOL     OW10775   4.961   2.445   2.913  0.4334  0.5946  0.0012
 2607SOL    HW110776   4.996   2.387   2.845  2.7428 -1.0480  2.3692
 2607SOL    HW210777   5.031   2.507   2.930 -0.5751  1.7381  0.0828
 2608SOL     OW10778   9.324  10.256   4.376 -0.1997 -0.6521 -0.1291
 2608SOL    HW110779   9.390  10.307   4.329  1.1671 -0.6241  1.7466
 2608SOL    HW210780   9.373  10.207   4.442 -2.2171  1.4677  3.2247
 2609SOL     OW10781   3.629   3.499   7.105 -0.3068  0.0504  0.6079
 2609SOL    HW110782   3.597   3.585   7.134 -1.1603 -0.3177  0.7976
 2609SOL    HW210783   3.717   3.492   7.142  0.4650  1.5577 -0.8207
 2610SOL     OW10784   5.001   8.764   2.352 -0.5037 -0.3470  0.2969
 2610SOL    HW110785   5.032   8.846   2.391 -2.8213  1.2565 -1.0168
 2610SOL    HW210786   5.058   8.751   2.277 -0.5050  0.4291  0.1499
 2611SOL     OW10787   5.812   0.176   7.993  0.3514  0.1314  0.1391
 2611SOL    HW110788   5.880   0.122   7.953  1.2887  1.6860 -0.4626
 2611SOL    HW210789   5.755   0.114   8.039  1.1721 -1.3729 -0.8114
 2612SOL     OW10790  10.679   2.130   4.854 -0.2078 -1.0172 -0.9319
 2612SOL    HW110791  10.593   2.093   4.833 -0.3120 -0.2900 -1.8324
 2612SOL    HW210792  10.695   2.103   4.944 -1.8395 -0.3041 -0.3920
 2613SOL     OW10793   0.355   4.080   7.141 -0.1324 -0.7639 -0.1718
 2613SOL    HW110794   0.291   4.151   7.142 -0.1608 -0.7749 -0.6657
 2613SOL    HW210795   0.307   4.004   7.108 -0.0382 -0.9490  0.1132
 2614SOL     OW10796   1.617   7.688   2.929  0.0891 -0.3457 -0.1869
 2614SOL    HW110797   1.640   7.597   2.947 -1.3935 -0.1058  4.0393
 2614SOL    HW210798   1.697   7.737   2.948 -0.2499 -0.4989  1.7808
 2615SOL     OW10799   9.107   2.728   3.555  0.1576 -0.2515  0.7976
 2615SOL    HW110800   9.133   2.641   3.525 -0.5370 -1.0859  2.4769
 2615SOL    HW210801   9.185   2.764   3.597  0.5236  0.0777 -0.1325
 2616SOL     OW10802   9.589   6.312   8.511  0.7160 -0.7442  0.2524
 2616SOL    HW110803   9.653   6.380   8.536 -0.1868  1.1312 -2.1248
 2616SOL    HW210804   9.528   6.309   8.585  1.3542  0.2994  0.8593
 2617SOL     OW10805   3.826   5.865   8.686 -0.0254  0.0311  0.4936
 2617SOL    HW110806   3.804   5.929   8.754 -0.1340  0.3160  0.1896
 2617SOL    HW210807   3.741   5.834   8.655  0.0170  0.2509  0.1562
 2618SOL     OW10808   4.386   2.999   9.612  0.2777  0.0627  0.3552
 2618SOL    HW110809   4.315   3.062   9.601 -0.4764 -0.4144  2.0972
 2618SOL    HW210810   4.453   3.027   9.550 -0.9245  1.2586 -0.4580
 2619SOL     OW10811   4.002   5.436   3.286  0.5394  0.2082 -0.1565
 2619SOL    HW110812   4.026   5.348   3.314  0.2357 -0.2732 -1.3254
 2619SOL    HW210813   4.081   5.489   3.300  0.4921 -0.0647  1.2494
 2620SOL     OW10814   2.318   4.572   5.765  0.4152 -0.1495 -0.1157
 2620SOL    HW110815   2.227   4.594   5.785  0.2138  1.0892 -2.1625
 2620SOL    HW210816   2.357   4.555   5.851 -0.3216  4.8659  1.5404
 2621SOL     OW10817   0.128   7.924  10.133 -0.1881 -0.2761  0.0109
 2621SOL    HW110818   0.143   7.950  10.042  1.0231  0.7693  0.4796
 2621SOL    HW210819   0.047   7.872  10.130 -1.3602  1.4780 -1.3738
 2622SOL     OW10820   1.870   0.408   3.715  0.1426  0.4661 -0.0974
 2622SOL    HW110821   1.889   0.440   3.626 -0.5921  0.9908 -0.0743
 2622SOL    HW210822   1.956   0.406   3.758  0.3133  1.8413 -0.2993
 2623SOL     OW10823   9.115   0.552   1.537  0.2790 -0.0802  0.0163
 2623SOL    HW110824   9.195   0.559   1.590  0.3476 -1.6971  0.1669
 2623SOL    HW210825   9.143   0.504   1.459  0.0174  1.6689 -1.2007
 2624SOL     OW10826   6.004   5.379   0.258  0.0118  0.6315  0.3555
 2624SOL    HW110827   6.054   5.459   0.245 -1.5578  1.4737 -0.8090
 2624SOL    HW210828   5.913   5.407   0.264 -0.4929 -0.9789  0.9224
 2625SOL     OW10829   8.895   0.926   4.099 -0.8597 -0.5124 -0.1081
 2625SOL    HW110830   8.838   0.977   4.157 -0.5720  1.3764 -1.4010
 2625SOL    HW210831   8.971   0.905   4.153 -0.3235  1.7194  0.1106
 2626SOL     OW10832   3.299  10.020   0.717 -0.0753 -0.0164 -0.0706
 2626SOL    HW110833   3.365   9.994   0.781 -0.3214  0.5708  0.4211
 2626SOL    HW210834   3.341  10.003   0.632 -0.0282 -1.4867  0.2324
 2627SOL     OW10835   1.726   9.056   0.550 -0.7236  0.2241  0.2539
 2627SOL    HW110836   1.752   9.030   0.461 -0.2408  1.3364  0.0612
 2627SOL    HW210837   1.636   9.025   0.558 -0.3113 -1.1528 -0.1040
 2628SOL     OW10838   9.744   2.544   1.245 -0.4557 -0.1175  0.4348
 2628SOL    HW110839   9.756   2.450   1.259 -0.0924 -0.3034 -0.9616
 2628SOL    HW210840   9.672   2.568   1.303 -2.2375 -1.7625 -0.9553
 2629SOL     OW10841   7.082   1.376   9.197  0.5488 -0.4568  0.2390
 2629SOL    HW110842   7.149   1.343   9.257 -0.4205 -0.4912  1.3417
 2629SOL    HW210843   7.017   1.417   9.254 -0.2598 -0.2203 -0.8203
 2630SOL     OW10844   5.830   0.858   5.641  0.5196  0.0904  0.2140
 2630SOL    HW110845   5.802   0.766   5.642  1.3737 -0.1988 -0.5520
 2630SOL    HW210846   5.853   0.875   5.550  0.7734  0.9407  0.4293
 2631SOL     OW10847   0.416   9.598   5.929 -0.7751 -0.0682 -0.6113
 2631SOL    HW110848   0.366   9.521   5.957 -1.6101  0.3968 -0.8013
 2631SOL    HW210849   0.490   9.561   5.879  0.5984 -0.8963  1.8463
 2632SOL     OW10850   9.279   1.834  10.510  0.0091 -0.2545 -0.5490
 2632SOL    HW110851   9.244   1.909  10.560 -0.6252 -0.8427 -0.0860
 2632SOL    HW210852   9.202   1.794  10.471  0.1457 -1.5254  0.4128
 2633SOL     OW10853   1.388   6.660   8.216 -0.5761  0.1992 -0.2807
 2633SOL    HW110854   1.443   6.737   8.199 -1.7291  0.8040 -1.4507
 2633SOL    HW210855   1.306   6.696   8.249 -1.1816 -0.5106 -0.9772
 2634SOL     OW10856   0.496   7.560   1.148 -0.0918  0.4391  0.3701
 2634SOL    HW110857   0.530   7.517   1.070  0.2379  1.4015 -0.0404
 2634SOL    HW210858   0.540   7.645   1.149 -1.0047  0.9226  0.9392
 2635SOL     OW10859   2.853   0.293   4.348 -0.0549 -0.2136  0.2163
 2635SOL    HW110860   2.838   0.202   4.374 -0.1933 -0.1480  0.3663
 2635SOL    HW210861   2.888   0.287   4.259 -0.3069 -0.4024  0.1288
 2636SOL     OW10862   5.417   6.437   3.676 -0.0642 -0.2222 -0.7650
 2636SOL    HW110863   5.479   6.378   3.635 -0.2141 -1.5196  0.7687
 2636SOL    HW210864   5.340   6.383   3.693 -1.5832  1.2780 -2.4002
 2637SOL     OW10865  10.561   2.746   5.055 -0.8176  0.5257  0.5339
 2637SOL    HW110866  10.521   2.733   4.969 -0.2771 -3.0350  0.6696
 2637SOL    HW210867  10.645   2.787   5.037 -2.0493  2.8450 -0.2547
 2638SOL     OW10868   2.378   2.983   4.474 -0.3789  0.5087 -0.4561
 2638SOL    HW110869   2.368   3.045   4.547  0.6562  0.1915 -0.0355
 2638SOL    HW210870   2.327   3.022   4.403 -1.9516  0.5022  0.6172
 2639SOL     OW10871   1.761   8.678   7.410 -0.1323  0.2554 -0.3030
 2639SOL    HW110872   1.797   8.643   7.492  1.4569  1.0580 -0.6183
 2639SOL    HW210873   1.750   8.602   7.354 -1.5404 -0.3467  0.7380
 2640SOL     OW10874   0.413   9.199   5.229  0.4454  0.3868  0.0343
 2640SOL    HW110875   0.500   9.236   5.215  0.2815  1.2278  1.0865
 2640SOL    HW210876   0.363   9.270   5.269  0.0896 -0.9242  2.0457
 2641SOL     OW10877   4.174   8.392   8.022  0.3425 -0.5614  0.1913
 2641SOL    HW110878   4.175   8.297   8.018 -0.7077 -0.5230 -2.3886
 2641SOL    HW210879   4.085   8.415   8.049  1.2449 -0.2435  3.3834
 2642SOL     OW10880   9.833   4.866   9.081  0.1794 -0.1879  0.6767
 2642SOL    HW110881   9.828   4.951   9.124 -0.1587 -0.7608  1.8078
 2642SOL    HW210882   9.760   4.866   9.019  0.5696  0.5827  0.2017
 2643SOL     OW10883   0.850   9.650   2.827  0.2037 -0.2078 -0.1726
 2643SOL    HW110884   0.906   9.601   2.887  0.3329 -0.7373 -0.7230
 2643SOL    HW210885   0.803   9.583   2.777 -0.1130  0.2278 -0.4657
 2644SOL     OW10886   5.308   6.826   4.657 -0.0554 -0.2102 -0.6772
 2644SOL    HW110887   5.323   6.838   4.751  0.2813 -0.9723 -0.6276
 2644SOL    HW210888   5.221   6.864   4.642 -0.1125 -0.0828 -0.0584
 2645SOL     OW10889   7.508   2.012   2.159 -0.8498  0.0509  0.6809
 2645SOL    HW110890   7.459   1.971   2.230 -0.2868 -0.1089  0.9870
 2645SOL    HW210891   7.594   1.969   2.162 -0.9264 -0.2074 -0.3134
 2646SOL     OW10892   3.519   7.243   9.836  0.5242  0.3592  0.6417
 2646SOL    HW110893   3.477   7.167   9.876  2.3559 -0.5109  1.0318
 2646SOL    HW210894   3.450   7.285   9.785 -0.2651 -2.3115 -0.6606
 2647SOL     OW10895   4.616  10.645   0.096 -0.6257  0.4143  0.0482
 2647SOL    HW110896   4.606  10.687   0.011  0.4078 -0.9380 -0.7981
 2647SOL    HW210897   4.536  10.594   0.108  0.3104 -1.5426 -1.4457
 2648SOL     OW10898   3.586   3.815   9.936  0.6725  0.2252 -0.1734
 2648SOL    HW110899   3.593   3.866  10.017 -0.2759 -2.7310  1.9743
 2648SOL    HW210900   3.494   3.824   9.911  0.1847 -1.2494  0.9194
 2649SOL     OW10901   2.159   1.136   1.751 -0.5613 -0.0159  0.4271
 2649SOL    HW110902   2.151   1.096   1.837 -1.7225  1.3559  0.9925
 2649SOL    HW210903   2.228   1.201   1.761 -1.4500  0.9121  0.6519
 2650SOL     OW10904   0.314   5.564   1.618  0.2950  0.1243 -0.4274
 2650SOL    HW110905   0.373   5.626   1.575 -1.2586  2.0949  0.0831
 2650SOL    HW210906   0.238   5.559   1.559  0.1215 -0.7984 -0.1378
 2651SOL     OW10907   9.971   7.895   0.678  0.1190 -0.3600 -0.2828
 2651SOL    HW110908   9.911   7.924   0.609  0.7662 -1.8839 -1.5420
 2651SOL    HW210909   9.940   7.808   0.702  0.1072  0.0157  1.1550
 2652SOL     OW10910   7.786   8.038   7.205 -0.0737  0.5866  0.2387
 2652SOL    HW110911   7.690   8.034   7.210 -0.0540  1.1504  1.1303
 2652SOL    HW210912   7.814   8.057   7.294  0.9550 -0.9909  0.2899
 2653SOL     OW10913   6.965   4.909   5.606  0.1846 -0.0601 -0.3395
 2653SOL    HW110914   6.927   4.866   5.529 -0.3665 -1.2180  0.5573
 2653SOL    HW210915   6.892   4.958   5.645  0.1195 -0.6053  0.2258
 2654SOL     OW10916   5.937   1.529   1.886 -0.1131 -0.1403 -0.3791
 2654SOL    HW110917   6.025   1.504   1.913 -0.2944  0.6530  1.0221
 2654SOL    HW210918   5.944   1.545   1.792  0.9262 -1.3398 -0.5355
 2655SOL     OW10919   0.327   2.890   7.196  0.1211  0.6914 -0.0476
 2655SOL    HW110920   0.406   2.863   7.150 -1.2089 -0.1833 -1.9388
 2655SOL    HW210921   0.347   2.874   7.289  2.1320  0.4778 -0.4726
 2656SOL     OW10922   6.185   6.278   3.662 -0.0630  0.2711  0.3763
 2656SOL    HW110923   6.203   6.257   3.570  1.8949  0.7319  0.6237
 2656SOL    HW210924   6.247   6.346   3.684 -0.4798  0.1423  2.0724
 2657SOL     OW10925  10.491   4.952   0.117 -0.3102  0.3015 -0.1480
 2657SOL    HW110926  10.515   4.895   0.190  4.1861  0.8874 -0.8761
 2657SOL    HW210927  10.474   5.037   0.159 -2.8438 -0.4310  0.5209
 2658SOL     OW10928   7.338   2.655   1.425 -0.3567 -0.0823 -0.7813
 2658SOL    HW110929   7.271   2.680   1.489  1.5002 -0.8760  1.6244
 2658SOL    HW210930   7.335   2.559   1.424  0.4209 -0.1118 -1.0183
 2659SOL     OW10931   0.848   5.129   0.541 -0.2140  0.0541  0.7546
 2659SOL    HW110932   0.943   5.131   0.536 -0.1083  0.4100  2.3673
 2659SOL    HW210933   0.819   5.194   0.477  0.6071 -0.0970  0.2115
 2660SOL     OW10934   6.319   6.880   6.566 -0.3113 -0.0768 -0.6086
 2660SOL    HW110935   6.382   6.946   6.594 -3.4304  3.1998 -0.5684
 2660SOL    HW210936   6.334   6.871   6.472  1.0357 -0.4085 -0.3857
 2661SOL     OW10937   3.973   7.915   9.494 -0.0971 -0.0480  1.3148
 2661SOL    HW110938   3.912   7.860   9.544 -1.0981 -0.5753 -0.4318
 2661SOL    HW210939   3.941   8.004   9.506 -0.7381 -0.2418  1.0699
 2662SOL     OW10940   6.416   7.202   6.251 -0.3549  0.5864 -0.2580
 2662SOL    HW110941   6.417   7.113   6.216  1.7911  0.5707 -0.2503
 2662SOL    HW210942   6.324   7.228   6.247 -1.0007 -1.5470 -0.4470
 2663SOL     OW10943   9.069   6.722   9.812  0.3463  0.1283 -0.2945
 2663SOL    HW110944   9.001   6.781   9.779  0.7651  1.3170  0.8749
 2663SOL    HW210945   9.102   6.765   9.890  1.9861 -0.7614 -0.4513
 2664SOL     OW10946   9.561   0.077   9.572 -0.3836 -0.3426  0.3236
 2664SOL    HW110947   9.500   0.150   9.566 -1.7134 -1.5177 -1.1611
 2664SOL    HW210948   9.620   0.088   9.497  0.1446 -0.1674  0.7590
 2665SOL     OW10949  10.103   6.453   2.161  0.2338 -0.3933 -0.5188
 2665SOL    HW110950  10.076   6.544   2.175  0.0123 -0.2673 -1.6137
 2665SOL    HW210951  10.028   6.401   2.189  0.2760 -0.2262 -0.0919
 2666SOL     OW10952  10.081   9.111   4.280  0.4289 -0.1755 -0.2165
 2666SOL    HW110953  10.034   9.187   4.246  1.5538  0.1708 -1.0321
 2666SOL    HW210954  10.134   9.145   4.352  1.6790  0.0270 -1.2063
 2667SOL     OW10955   9.048   6.799   6.981  0.5323 -0.0999  0.5239
 2667SOL    HW110956   9.016   6.743   7.052  1.4916  0.6856  1.6218
 2667SOL    HW210957   9.124   6.843   7.018  0.3184  1.2832 -0.5806
 2668SOL     OW10958   2.163   5.913   7.416  0.5543 -0.7493 -0.2115
 2668SOL    HW110959   2.235   5.906   7.353  0.1297  0.9995 -0.9543
 2668SOL    HW210960   2.204   5.897   7.501  1.5753 -0.9555 -0.7181
 2669SOL     OW10961   5.231  10.599   6.133 -0.1195 -0.7937 -0.6870
 2669SOL    HW110962   5.195  10.572   6.049 -1.6905 -0.6899 -0.0856
 2669SOL    HW210963   5.315  10.554   6.139 -0.5317 -1.7547 -1.7777
 2670SOL     OW10964   2.878   6.828   2.443  0.6458  0.2185  0.8143
 2670SOL    HW110965   2.905   6.918   2.421  0.4465 -0.1034 -0.9087
 2670SOL    HW210966   2.809   6.839   2.508 -1.0670  1.4728 -1.0975
 2671SOL     OW10967   3.517   6.485   4.662 -0.6202  0.2296  0.1854
 2671SOL    HW110968   3.426   6.513   4.649 -1.4339 -1.2728  2.1654
 2671SOL    HW210969   3.561   6.562   4.699 -2.0479 -0.0305  2.6640
 2672SOL     OW10970   2.026   8.233   4.604  0.0313  0.3574 -0.1925
 2672SOL    HW110971   2.006   8.239   4.697 -2.0304 -1.7812 -0.4052
 2672SOL    HW210972   1.987   8.150   4.576 -2.6105  2.4752 -3.6830
 2673SOL     OW10973   1.088   7.480   5.601  0.5339 -0.0914  0.0829
 2673SOL    HW110974   1.075   7.492   5.695  1.9276 -0.8294  0.3955
 2673SOL    HW210975   1.036   7.403   5.579  0.1504  0.1242  0.2260
 2674SOL     OW10976   5.658  10.505   3.737 -0.9550 -0.4220 -0.2610
 2674SOL    HW110977   5.596  10.447   3.781  0.7403 -2.0310  0.1037
 2674SOL    HW210978   5.701  10.450   3.672  0.5426  0.4678 -0.0629
 2675SOL     OW10979   9.987   9.163   6.118  1.0044 -0.3171  0.1340
 2675SOL    HW110980  10.080   9.141   6.118  1.2554  0.6775 -1.1132
 2675SOL    HW210981   9.942   9.079   6.125  1.9841 -0.7425  1.8880
 2676SOL     OW10982   3.753   0.286   4.251  0.3779 -0.6304  0.1638
 2676SOL    HW110983   3.749   0.377   4.222  0.2929  0.3464  2.9587
 2676SOL    HW210984   3.668   0.269   4.292  0.4586 -1.9148 -0.1402
 2677SOL     OW10985   0.752  10.345  10.071 -0.3801 -0.3510 -0.2752
 2677SOL    HW110986   0.709  10.356   9.986  0.5400 -3.3088 -1.2365
 2677SOL    HW210987   0.683  10.312  10.129 -1.3862  3.0289  0.6847
 2678SOL     OW10988   9.697   6.525   0.755 -0.3778  0.1007 -0.3181
 2678SOL    HW110989   9.775   6.487   0.716 -1.0405 -3.2431  1.2757
 2678SOL    HW210990   9.645   6.555   0.680  1.0948 -0.3727 -1.5811
 2679SOL     OW10991  10.172  10.386   1.888  0.2668 -0.0563 -0.7731
 2679SOL    HW110992  10.185  10.418   1.977  0.3566  0.4102 -0.9527
 2679SOL    HW210993  10.120  10.454   1.845  1.5145  0.4579 -1.5192
 2680SOL     OW10994   1.961   0.847   0.101  0.3089 -0.2680 -0.0173
 2680SOL    HW110995   1.948   0.803   0.185 -2.0023 -0.8076 -0.5958
 2680SOL    HW210996   1.975   0.775   0.039  2.1816  0.1327 -0.1344
 2681SOL     OW10997   8.389   6.269   5.306  0.6602 -0.7254 -0.6202
 2681SOL    HW110998   8.302   6.234   5.289  0.5538 -0.3510 -0.8379
 2681SOL    HW210999   8.408   6.326   5.232  0.3632  0.5871  0.2779
 2682SOL     OW11000   0.492   2.857   1.948  0.3102 -1.1861 -0.1652
 2682SOL    HW111001   0.572   2.872   1.898  0.2677  0.2822  0.1675
 2682SOL    HW211002   0.423   2.855   1.881  0.3205  0.2069 -0.2430
 2683SOL     OW11003   2.478   3.530   5.579  0.1806  0.8066  0.0470
 2683SOL    HW111004   2.456   3.437   5.585  0.6264  0.5621 -1.4432
 2683SOL    HW211005   2.569   3.535   5.609 -0.0976  0.8927  0.8772
 2684SOL     OW11006  10.364   9.006   2.925 -0.2245  0.0973  0.2891
 2684SOL    HW111007  10.417   8.999   2.846 -0.5656 -1.2629  0.1538
 2684SOL    HW211008  10.282   9.046   2.895  0.2543  1.0950  0.2764
 2685SOL     OW11009   3.364   4.345   8.871  0.4603  0.0567  0.0199
 2685SOL    HW111010   3.377   4.303   8.956 -2.0349 -0.9422 -0.0404
 2685SOL    HW211011   3.343   4.436   8.893  0.0607 -0.1383  0.4509
 2686SOL     OW11012   6.631   9.770   0.665 -0.2952  0.5170 -0.1097
 2686SOL    HW111013   6.652   9.719   0.586 -1.6218  0.1189 -0.2202
 2686SOL    HW211014   6.543   9.804   0.649 -0.5517  0.4902  1.1791
 2687SOL     OW11015   5.244   6.319   8.007 -0.0271  0.1689 -0.3487
 2687SOL    HW111016   5.160   6.322   7.961  1.4297 -0.5249 -3.2426
 2687SOL    HW211017   5.258   6.408   8.037 -2.1359  0.1374  1.0279
 2688SOL     OW11018   1.751   1.022   5.593 -0.0751  0.6141  0.0763
 2688SOL    HW111019   1.658   1.031   5.615  0.3185  0.6751  1.9079
 2688SOL    HW211020   1.797   1.064   5.666  1.4044  0.0048 -0.4686
 2689SOL     OW11021   4.358   1.753   0.370  0.2949 -0.0357  0.3402
 2689SOL    HW111022   4.318   1.783   0.289  0.5490 -2.2973 -0.7114
 2689SOL    HW211023   4.452   1.747   0.351  0.2763 -1.2667  0.5159
 2690SOL     OW11024   5.397   4.847   3.934 -0.0757  0.1347 -0.1127
 2690SOL    HW111025   5.473   4.871   3.987 -0.2480  1.4720 -0.4258
 2690SOL    HW211026   5.341   4.925   3.936 -1.6608 -0.9846  0.4723
 2691SOL     OW11027   7.249   5.365   5.546  0.3966 -0.2421  0.2646
 2691SOL    HW111028   7.213   5.277   5.531  0.0596 -0.6192  2.7784
 2691SOL    HW211029   7.288   5.360   5.634 -0.1587  2.2748  0.7243
 2692SOL     OW11030   8.038   0.470   0.495  0.5244  0.4706 -0.4250
 2692SOL    HW111031   8.003   0.490   0.582 -1.1031  3.0554 -1.5354
 2692SOL    HW211032   8.115   0.527   0.486  0.8277  0.0384 -0.5953
 2693SOL     OW11033   3.167   8.749   7.187  0.3295  0.3342  0.2590
 2693SOL    HW111034   3.229   8.818   7.209 -1.1376  2.9245 -3.0276
 2693SOL    HW211035   3.185   8.728   7.096 -1.9430 -0.6628 -0.0380
 2694SOL     OW11036   2.681   6.108   2.908  0.0607 -0.3004  0.0262
 2694SOL    HW111037   2.645   6.092   2.995  0.3271 -1.1532 -0.0095
 2694SOL    HW211038   2.661   6.027   2.859  0.0474  0.1062 -0.6559
 2695SOL     OW11039   0.446   6.206   7.327 -0.2359  0.1398 -0.3145
 2695SOL    HW111040   0.449   6.296   7.359 -0.0705  0.0610 -0.1055
 2695SOL    HW211041   0.360   6.174   7.353 -0.2601  0.2082 -0.3096
 2696SOL     OW11042   1.272   7.926   7.103 -0.2578  0.3784 -1.1291
 2696SOL    HW111043   1.311   7.987   7.040  1.7015  0.8568  0.4598
 2696SOL    HW211044   1.267   7.975   7.185 -0.9857 -0.8184 -0.4243
 2697SOL     OW11045   8.019   2.621   2.722 -0.2983  0.3181  0.0898
 2697SOL    HW111046   7.997   2.678   2.649  1.2575  0.9007  0.0189
 2697SOL    HW211047   7.978   2.538   2.702 -0.0622  0.5292 -1.3542
 2698SOL     OW11048   1.711   4.224   3.814  0.0841 -0.7348  0.2205
 2698SOL    HW111049   1.797   4.182   3.815  0.9469  0.9362 -0.4835
 2698SOL    HW211050   1.698   4.254   3.904  0.5316 -0.4584  0.1978
 2699SOL     OW11051   7.728   6.603   0.854 -0.5266 -0.0029 -0.0298
 2699SOL    HW111052   7.787   6.577   0.924 -0.1561 -2.3036 -1.1257
 2699SOL    HW211053   7.786   6.633   0.783 -0.8114  0.5085 -0.0532
 2700SOL     OW11054   9.432   8.518   6.398  0.2690  0.3735 -0.5294
 2700SOL    HW111055   9.342   8.496   6.372 -0.0849  2.2154 -1.0201
 2700SOL    HW211056   9.455   8.592   6.343  2.5023 -0.6724 -1.1219
 2701SOL     OW11057   1.657   5.309   1.613 -0.0368 -0.3775  0.4799
 2701SOL    HW111058   1.663   5.318   1.517 -2.5286  0.7826  0.3428
 2701SOL    HW211059   1.747   5.293   1.641  0.6112 -2.0125 -2.1459
 2702SOL     OW11060   4.131   3.831   6.300 -0.2618  0.6384 -0.1269
 2702SOL    HW111061   4.043   3.812   6.268 -1.5040  1.7672  2.3143
 2702SOL    HW211062   4.119   3.907   6.357  2.1090  0.1412  1.1442
 2703SOL     OW11063   6.962   8.415   0.704 -0.0630  0.2812 -0.7431
 2703SOL    HW111064   6.958   8.463   0.621 -2.7658  1.4773 -0.0184
 2703SOL    HW211065   7.004   8.331   0.681 -0.2320  0.7864 -3.1788
 2704SOL     OW11066   9.167   5.291   1.979 -0.4039  0.0697 -0.3016
 2704SOL    HW111067   9.173   5.379   2.018  0.1067  0.2125 -0.6870
 2704SOL    HW211068   9.097   5.248   2.027 -0.4708  0.5973  0.0823
 2705SOL     OW11069   1.452   4.289   9.517  0.5046  0.5417 -0.4119
 2705SOL    HW111070   1.524   4.335   9.474  0.8063  0.8788  0.4394
 2705SOL    HW211071   1.452   4.202   9.477  1.7883  0.3266  0.0216
 2706SOL     OW11072   6.435   1.225  10.173 -0.0317 -0.4425 -0.4358
 2706SOL    HW111073   6.485   1.154  10.134  0.8287  0.4591 -1.0145
 2706SOL    HW211074   6.475   1.238  10.259  1.0627  0.5661 -1.0663
 2707SOL     OW11075  10.236   7.915   0.574  0.2679 -0.4965  0.1448
 2707SOL    HW111076  10.263   7.921   0.665  1.2412 -2.0971  0.0170
 2707SOL    HW211077  10.143   7.895   0.577  0.4691 -1.4091  0.8468
 2708SOL     OW11078   4.817   4.752   0.953 -0.1394  0.6451  0.2531
 2708SOL    HW111079   4.905   4.717   0.967  1.3452  2.9273 -2.2911
 2708SOL    HW211080   4.792   4.721   0.866 -1.2669  1.1088  0.3971
 2709SOL     OW11081   1.571   0.022   2.254  0.2652 -0.1713  0.2256
 2709SOL    HW111082   1.481   0.052   2.242  0.3418 -0.0941 -0.1601
 2709SOL    HW211083   1.616   0.048   2.174  0.2966 -1.4370 -0.1918
 2710SOL     OW11084   2.864   1.230   3.415  0.2190  0.2922 -0.1658
 2710SOL    HW111085   2.878   1.225   3.320 -1.4457  0.0006 -0.4284
 2710SOL    HW211086   2.894   1.145   3.448  0.2749  0.1741 -0.5097
 2711SOL     OW11087   6.691   3.603   3.568 -0.1891  0.1166 -0.2971
 2711SOL    HW111088   6.720   3.519   3.603  1.2958  1.0317  0.7605
 2711SOL    HW211089   6.615   3.626   3.621  0.2847  0.1157  0.3920
 2712SOL     OW11090   9.858   1.543   1.164 -0.2296 -0.3088  0.3536
 2712SOL    HW111091   9.846   1.638   1.160 -0.1246 -0.3318 -1.6757
 2712SOL    HW211092   9.947   1.529   1.133 -0.7227 -1.1361 -0.7554
 2713SOL     OW11093   5.790   5.906   3.488  0.0688 -0.0058 -0.4220
 2713SOL    HW111094   5.812   5.926   3.397 -1.6242 -1.0096 -1.0962
 2713SOL    HW211095   5.790   5.810   3.492 -1.2975 -0.0056  0.2260
 2714SOL     OW11096   9.149  10.427   1.179  0.1415  0.1562 -0.3368
 2714SOL    HW111097   9.233  10.447   1.139 -0.8109  1.6481 -1.7307
 2714SOL    HW211098   9.090  10.497   1.148 -1.8736 -1.4312 -0.3182
 2715SOL     OW11099   4.473   1.488   3.714 -0.3302 -0.1679  0.6037
 2715SOL    HW111100   4.423   1.569   3.715  0.2469  0.2030  0.0909
 2715SOL    HW211101   4.478   1.465   3.621 -0.0977 -0.5447  0.7090
 2716SOL     OW11102   9.525   5.383   2.521 -0.8697 -0.0964 -0.1394
 2716SOL    HW111103   9.430   5.372   2.524 -1.0789  1.6505  1.3931
 2716SOL    HW211104   9.557   5.326   2.591 -0.7213 -1.0563 -0.9721
 2717SOL     OW11105   5.804   9.043   4.172  0.0651  0.8036  0.1386
 2717SOL    HW111106   5.817   8.970   4.111  0.4464 -0.0340  1.1821
 2717SOL    HW211107   5.711   9.064   4.165 -0.6570 -1.5475  1.6943
 2718SOL     OW11108   1.341   8.539   8.311 -0.3230  0.1469 -0.2970
 2718SOL    HW111109   1.305   8.611   8.258  3.6966  2.4574 -0.3108
 2718SOL    HW211110   1.298   8.549   8.396 -3.3292 -0.5890 -1.5802
 2719SOL     OW11111   2.208   7.332   6.099  0.4967 -0.4924 -0.4743
 2719SOL    HW111112   2.240   7.349   6.188  0.8394  0.7624 -0.8225
 2719SOL    HW211113   2.116   7.309   6.111  0.9053 -1.8503  0.3266
 2720SOL     OW11114   1.348   8.429   3.246 -0.4153 -0.0102 -0.6224
 2720SOL    HW111115   1.418   8.383   3.292 -0.8087  0.3565  0.3610
 2720SOL    HW211116   1.387   8.512   3.220 -0.5843  0.3555  0.2608
 2721SOL     OW11117   5.201   1.763   7.310  0.1638  0.0650  0.1492
 2721SOL    HW111118   5.263   1.690   7.324 -0.3635 -0.9250 -2.2618
 2721SOL    HW211119   5.126   1.741   7.366  0.6520 -0.4134  0.6359
 2722SOL     OW11120   4.826   1.010   9.212 -0.0333 -0.2670  0.5854
 2722SOL    HW111121   4.738   1.047   9.212  0.2049  0.2949  0.6489
 2722SOL    HW211122   4.851   1.008   9.304 -0.2261 -1.0226  0.6273
 2723SOL     OW11123  10.035   7.466  10.126  0.5314  0.0887 -0.1424
 2723SOL    HW111124  10.019   7.555  10.160 -2.3136 -0.2861 -0.2725
 2723SOL    HW211125  10.042   7.412  10.204  0.2823  0.1569 -0.0706
 2724SOL     OW11126  10.573   8.879   2.707 -0.1926 -0.5705 -0.1716
 2724SOL    HW111127  10.611   8.930   2.636  0.5410 -0.7167  0.1123
 2724SOL    HW211128  10.565   8.790   2.671  0.4421 -0.7091  0.0120
 2725SOL     OW11129   7.805   8.500   2.911  0.3389 -0.2120  0.6049
 2725SOL    HW111130   7.879   8.440   2.899  0.9065  0.8628 -1.9148
 2725SOL    HW211131   7.844   8.576   2.955  0.3184 -0.4338  1.0031
 2726SOL     OW11132   2.245   3.013   1.326  0.3960  0.4937  0.0474
 2726SOL    HW111133   2.213   2.990   1.239 -1.7067 -0.3226  0.9575
 2726SOL    HW211134   2.301   2.940   1.351  1.5964  1.0675 -0.8535
 2727SOL     OW11135   8.930   1.553   0.724 -0.1410  0.1150  0.7882
 2727SOL    HW111136   8.993   1.483   0.741 -0.2033 -0.0779  0.2282
 2727SOL    HW211137   8.965   1.629   0.772  0.4819 -0.0077  0.5379
 2728SOL     OW11138   9.016   1.007   7.803  0.5037 -0.2641  0.4896
 2728SOL    HW111139   9.071   0.962   7.739  1.2008  0.2070  0.7505
 2728SOL    HW211140   9.058   1.092   7.815 -1.8457  1.3268 -1.4860
 2729SOL     OW11141   3.375  10.614   2.392  0.0762 -0.0141 -0.3028
 2729SOL    HW111142   3.467  10.636   2.408 -0.1888  0.2548  0.9744
 2729SOL    HW211143   3.339  10.594   2.478 -1.0256 -0.3013 -0.8015
 2730SOL     OW11144   6.299   6.375   1.047 -0.3728  0.4395  0.1361
 2730SOL    HW111145   6.210   6.391   1.078  0.1549 -0.0367  2.0585
 2730SOL    HW211146   6.334   6.309   1.107  1.1869  0.4160 -0.7371
 2731SOL     OW11147   9.492   2.261   5.800 -0.5668  0.1952 -0.2963
 2731SOL    HW111148   9.506   2.350   5.768  0.5231 -0.0645 -0.5673
 2731SOL    HW211149   9.508   2.267   5.895  3.8327 -0.4876 -0.8132
 2732SOL     OW11150   3.665   3.081   3.168 -0.2334  0.3643  0.1970
 2732SOL    HW111151   3.642   3.070   3.260  0.6804  0.8098  0.4918
 2732SOL    HW211152   3.679   3.175   3.157 -1.3909  0.4636 -0.6690
 2733SOL     OW11153   4.030   1.216   7.304  0.6715  0.5331 -0.0869
 2733SOL    HW111154   4.068   1.304   7.303  0.8366  0.4636  0.0245
 2733SOL    HW211155   3.995   1.204   7.216  2.4339 -0.0667 -0.7369
 2734SOL     OW11156   2.102   9.753   0.154  0.6272  0.9917  0.5127
 2734SOL    HW111157   2.144   9.836   0.129 -0.4035  1.2385 -0.4583
 2734SOL    HW211158   2.030   9.779   0.212 -0.3545  0.8957 -0.6247
 2735SOL     OW11159   5.739   2.513   6.743 -0.7798  0.3958 -0.2342
 2735SOL    HW111160   5.801   2.573   6.784 -0.8014  0.3721 -0.1652
 2735SOL    HW211161   5.792   2.440   6.713 -0.8556  0.0607  0.4232
 2736SOL     OW11162   4.948   7.015  10.165 -0.2577  0.4172 -0.1252
 2736SOL    HW111163   4.918   6.925  10.175 -2.4618  1.1143  0.1419
 2736SOL    HW211164   4.997   7.015  10.083 -2.4745 -0.5666 -1.5659
 2737SOL     OW11165   8.897  10.559   3.620  0.1644 -0.4797  0.2788
 2737SOL    HW111166   8.821  10.540   3.566 -0.2622  1.4627  0.1422
 2737SOL    HW211167   8.891  10.497   3.692 -1.9854  0.1097  0.6725
 2738SOL     OW11168  10.201   2.604   0.506 -0.0224 -0.7211 -0.2506
 2738SOL    HW111169  10.120   2.652   0.487 -0.0955 -0.4184  0.7556
 2738SOL    HW211170  10.189   2.571   0.594  2.3395  2.4564  1.4811
 2739SOL     OW11171   2.493   2.588   8.131  0.7035  0.3714  0.4958
 2739SOL    HW111172   2.411   2.638   8.133 -0.0355 -0.8145  0.3333
 2739SOL    HW211173   2.558   2.648   8.169 -0.4234  0.9959  1.4992
 2740SOL     OW11174   8.254   5.038   5.719 -0.0900 -0.5265  0.2128
 2740SOL    HW111175   8.275   4.955   5.764 -0.5829  0.5741  2.6446
 2740SOL    HW211176   8.159   5.038   5.712 -0.1580  0.2091  1.0427
 2741SOL     OW11177   8.058   3.304   5.277 -0.9514  0.2666  0.3016
 2741SOL    HW111178   8.003   3.226   5.267  0.1580 -0.4570 -0.3830
 2741SOL    HW211179   8.020   3.368   5.216  1.4025 -1.6714 -3.5864
 2742SOL     OW11180   7.625   2.857   1.123 -0.3452  0.5826  0.5256
 2742SOL    HW111181   7.556   2.913   1.087 -1.9680 -1.3649  0.4350
 2742SOL    HW211182   7.609   2.859   1.218  1.3856  2.4686  0.8369
 2743SOL     OW11183   1.133   8.805   2.794  0.0589 -0.0319 -0.0498
 2743SOL    HW111184   1.138   8.715   2.761 -1.9583 -0.4744  0.6730
 2743SOL    HW211185   1.189   8.806   2.872 -0.4330 -0.8719  0.3244
 2744SOL     OW11186   7.323   4.258   0.652 -0.3852 -0.3080 -0.0058
 2744SOL    HW111187   7.243   4.262   0.704 -1.0297 -0.5560 -0.9541
 2744SOL    HW211188   7.385   4.315   0.699 -1.3170  0.4097  0.3819
 2745SOL     OW11189   3.956   6.669   4.326  0.8111 -0.4143  0.1608
 2745SOL    HW111190   3.903   6.745   4.303  1.2034  0.1536  1.0824
 2745SOL    HW211191   3.895   6.595   4.324  0.8455 -0.5141 -2.9550
 2746SOL     OW11192   4.059   2.841   1.118 -0.4470  0.1042 -0.1787
 2746SOL    HW111193   4.154   2.826   1.112 -0.2763  0.3816  1.4521
 2746SOL    HW211194   4.020   2.760   1.085  0.3558 -0.2221 -0.3610
 2747SOL     OW11195   2.010   0.535  10.123  0.1548 -0.0657  0.5514
 2747SOL    HW111196   1.938   0.575  10.172  0.6287  0.0748  1.1381
 2747SOL    HW211197   1.995   0.563  10.032 -0.8298 -0.4750  0.5726
 2748SOL     OW11198   5.571   3.435   8.203 -0.2122  0.0548  0.4013
 2748SOL    HW111199   5.511   3.507   8.216  2.0298  1.7664  2.0869
 2748SOL    HW211200   5.571   3.387   8.286 -1.4964 -1.8664 -0.6139
 2749SOL     OW11201   6.781  10.627   7.969  0.1777  0.0437 -0.6809
 2749SOL    HW111202   6.827  10.551   8.003 -2.3539 -0.1269  2.9270
 2749SOL    HW211203   6.847  10.696   7.965  1.8707 -1.5314 -1.2507
 2750SOL     OW11204   9.532   3.380   5.583 -0.6288  0.0055  0.3030
 2750SOL    HW111205   9.447   3.414   5.556 -2.3455 -2.1236  2.5623
 2750SOL    HW211206   9.534   3.291   5.549  1.3892  0.4798 -0.9446
 2751SOL     OW11207   1.182   6.455   9.443  0.3964 -0.0756 -0.1964
 2751SOL    HW111208   1.239   6.509   9.388  1.0706  2.1027  2.4549
 2751SOL    HW211209   1.240   6.388   9.478  0.6447  0.2859  0.0961
 2752SOL     OW11210   4.064   3.672   1.052 -0.3872  0.3686 -0.1571
 2752SOL    HW111211   4.080   3.693   0.960  0.9854 -0.4546 -0.1406
 2752SOL    HW211212   4.054   3.577   1.054 -0.8385  0.4244  0.4917
 2753SOL     OW11213   1.899   7.155   3.889 -0.7416  0.1782 -0.2700
 2753SOL    HW111214   1.823   7.130   3.837 -0.5884 -0.5614 -0.1541
 2753SOL    HW211215   1.868   7.155   3.979  0.0090 -2.9387  0.1202
 2754SOL     OW11216   3.600   2.390   0.107  0.0822  0.5718 -0.3738
 2754SOL    HW111217   3.679   2.344   0.136  0.2779  0.2658 -1.3544
 2754SOL    HW211218   3.531   2.324   0.111  0.3959  0.0926 -1.9436
 2755SOL     OW11219   0.346   7.771   6.318 -0.0247  0.0380  0.2932
 2755SOL    HW111220   0.323   7.681   6.341  0.9734 -0.6866 -1.3801
 2755SOL    HW211221   0.411   7.797   6.383  0.5980 -0.9079  0.0541
 2756SOL     OW11222   0.548   2.849   0.591 -0.0802  0.2167  0.1888
 2756SOL    HW111223   0.536   2.944   0.594  0.1533  0.4008 -2.6362
 2756SOL    HW211224   0.484   2.819   0.527  1.3930 -1.2369 -0.6707
 2757SOL     OW11225   3.429   4.077   2.293  0.4224  0.2326 -0.2354
 2757SOL    HW111226   3.509   4.118   2.327 -0.4836  1.5045  0.4729
 2757SOL    HW211227   3.364   4.148   2.295 -0.1605 -0.1238 -2.9462
 2758SOL     OW11228   3.337   0.901   7.522 -0.3050  0.5594 -0.4065
 2758SOL    HW111229   3.384   0.819   7.535  0.9526  1.2854 -0.2753
 2758SOL    HW211230   3.262   0.876   7.468  0.5804 -0.5119 -1.1948
 2759SOL     OW11231   2.700   9.056   8.292  0.8213 -0.2102  0.4939
 2759SOL    HW111232   2.689   9.095   8.379 -2.3055 -1.2268  0.6803
 2759SOL    HW211233   2.668   9.123   8.232  0.1566 -0.5894  0.4101
 2760SOL     OW11234   9.843   8.035   7.207  0.6042  0.1256  0.1624
 2760SOL    HW111235   9.844   7.940   7.194  0.7871 -0.1484  1.9428
 2760SOL    HW211236   9.775   8.067   7.147 -0.2629 -1.2653  0.3731
 2761SOL     OW11237   3.720   8.890   3.668 -0.4589  0.3021 -0.1578
 2761SOL    HW111238   3.735   8.800   3.637 -0.4619  0.1790  0.2007
 2761SOL    HW211239   3.633   8.887   3.706  0.3897 -0.0899  1.8618
 2762SOL     OW11240   2.521   6.494   6.451  0.7680  0.2153 -0.1518
 2762SOL    HW111241   2.437   6.467   6.488  1.0110 -0.5306 -0.1194
 2762SOL    HW211242   2.580   6.422   6.472  1.2480  0.4206 -0.7712
 2763SOL     OW11243   3.763   1.321   2.786 -0.3663  0.1047 -0.0124
 2763SOL    HW111244   3.829   1.318   2.856 -1.8001  2.1183  1.5566
 2763SOL    HW211245   3.796   1.387   2.725 -1.6952  2.5823  1.7749
 2764SOL     OW11246   9.187   2.284   1.509  0.4219 -0.0428 -0.4999
 2764SOL    HW111247   9.144   2.208   1.549  0.1500  0.7615  0.8036
 2764SOL    HW211248   9.241   2.321   1.579  0.0183  1.3647 -0.8930
 2765SOL     OW11249  10.503   0.302   8.874 -0.5610  0.0511  0.2624
 2765SOL    HW111250  10.531   0.211   8.874 -0.3829  0.1020  0.7208
 2765SOL    HW211251  10.531   0.336   8.959  0.5867  0.9064 -0.4287
 2766SOL     OW11252   1.556   2.560  10.468 -0.2597  0.3465  0.0773
 2766SOL    HW111253   1.568   2.654  10.456  0.1521  0.4637  1.3222
 2766SOL    HW211254   1.608   2.538  10.545 -1.1529 -0.7170  0.4111
 2767SOL     OW11255   4.919   5.962   1.322 -1.1097 -0.5535  0.2387
 2767SOL    HW111256   4.941   6.032   1.383  0.0759 -0.5576 -0.1493
 2767SOL    HW211257   4.862   5.903   1.371 -2.1199  0.6768  0.5723
 2768SOL     OW11258   0.981   7.032   3.708 -0.0201 -0.1361  0.1195
 2768SOL    HW111259   0.953   7.106   3.655  0.4872  0.3964  0.5837
 2768SOL    HW211260   0.941   7.046   3.793  0.0233 -0.4343  0.1920
 2769SOL     OW11261   7.537   7.281   1.398  0.3160  0.1925  0.0483
 2769SOL    HW111262   7.517   7.214   1.332  0.5768  0.1432  0.0206
 2769SOL    HW211263   7.506   7.363   1.359  0.3800  0.1489 -0.0942
 2770SOL     OW11264   5.958   8.805   1.703 -0.3376 -0.4972  0.1398
 2770SOL    HW111265   6.023   8.799   1.774  1.5589  2.4099 -1.1599
 2770SOL    HW211266   6.009   8.793   1.623 -2.3123 -2.9177 -0.8847
 2771SOL     OW11267   4.792   0.227   2.055 -0.4391  0.6416  0.5795
 2771SOL    HW111268   4.772   0.142   2.095  1.1741  0.9242  2.1061
 2771SOL    HW211269   4.757   0.220   1.966 -0.8112 -1.4248  0.8286
 2772SOL     OW11270   6.308   7.028   2.147  0.7238 -0.3323 -0.5583
 2772SOL    HW111271   6.217   7.018   2.173  1.0639  0.5894  1.0951
 2772SOL    HW211272   6.306   7.093   2.076  0.2079  0.7310  0.4070
 2773SOL     OW11273   1.468   5.347   3.034  0.0062 -0.9854  0.5760
 2773SOL    HW111274   1.436   5.260   3.055 -2.8491  0.1794  1.5392
 2773SOL    HW211275   1.414   5.375   2.960  0.4186  0.1826  0.6941
 2774SOL     OW11276   0.256   4.918   3.343  0.0040 -0.8022  0.1975
 2774SOL    HW111277   0.279   4.985   3.408  0.9442 -0.0553 -0.8725
 2774SOL    HW211278   0.169   4.943   3.313  0.2448 -0.1938 -0.0119
 2775SOL     OW11279  10.307   6.601   5.958  0.1430 -0.5576 -0.4138
 2775SOL    HW111280  10.268   6.522   5.996  1.5874 -0.6148  1.0696
 2775SOL    HW211281  10.362   6.568   5.887  0.1933 -0.8274 -0.2524
 2776SOL     OW11282   8.072   6.178   9.216 -0.1356  0.5338 -0.1796
 2776SOL    HW111283   8.087   6.118   9.142  1.4248  1.7016 -0.8651
 2776SOL    HW211284   8.156   6.182   9.261 -1.9746 -3.5872  4.5150
 2777SOL     OW11285   3.868   8.331   0.345  0.2706  0.0441 -0.1980
 2777SOL    HW111286   3.884   8.360   0.255  0.6859 -0.7866 -0.3991
 2777SOL    HW211287   3.773   8.335   0.354  0.2347  0.2750 -0.6220
 2778SOL     OW11288   8.750   7.867   3.619  0.8587  0.1208  0.9881
 2778SOL    HW111289   8.816   7.827   3.563  0.3972  0.2524  0.3199
 2778SOL    HW211290   8.777   7.959   3.626  0.9923  0.0729  1.0913
 2779SOL     OW11291   4.291   4.891   4.270  0.4928  0.0733  0.4454
 2779SOL    HW111292   4.275   4.984   4.287 -1.9133 -0.2595  0.3198
 2779SOL    HW211293   4.275   4.848   4.354 -1.0830 -0.4852 -0.1173
 2780SOL     OW11294  10.600   4.169   9.609  0.4608  0.1010  0.8947
 2780SOL    HW111295  10.556   4.230   9.550 -2.4167 -2.2383  0.3698
 2780SOL    HW211296  10.690   4.164   9.577 -0.9270 -1.0257 -3.4029
 2781SOL     OW11297   3.615   5.418   7.617  0.3991  0.3273  0.6141
 2781SOL    HW111298   3.587   5.351   7.554  2.3454 -0.4727  0.5270
 2781SOL    HW211299   3.535   5.444   7.661 -0.3733 -2.6726  1.2104
 2782SOL     OW11300   9.393   5.026   9.038  0.5983  0.5345  0.2850
 2782SOL    HW111301   9.477   5.055   9.003 -0.2182  1.0673 -1.3220
 2782SOL    HW211302   9.381   4.937   9.004  0.3115  0.6296  0.1293
 2783SOL     OW11303   3.025   3.356   4.813  0.0210  0.6045  0.1236
 2783SOL    HW111304   2.993   3.289   4.872 -1.8811  0.5889 -0.8422
 2783SOL    HW211305   2.974   3.434   4.835 -0.3416  0.7386 -1.1047
 2784SOL     OW11306   5.780   5.610  10.225  0.7110  0.8228 -0.0692
 2784SOL    HW111307   5.767   5.655  10.142 -1.7442 -2.9917 -2.0822
 2784SOL    HW211308   5.697   5.619  10.270 -0.7138 -2.9571 -1.4961
 2785SOL     OW11309   5.427   0.854   2.100  0.1304  0.2330 -0.0370
 2785SOL    HW111310   5.418   0.941   2.138  0.6218  0.4208 -0.3413
 2785SOL    HW211311   5.474   0.803   2.166 -0.9113 -0.0560  0.5087
 2786SOL     OW11312   9.188   1.637   2.299  0.6559  0.1380 -0.0588
 2786SOL    HW111313   9.248   1.571   2.262  2.9588  2.2608 -0.4030
 2786SOL    HW211314   9.231   1.665   2.380  0.5321  2.2527 -0.6769
 2787SOL     OW11315   2.340   4.406   2.146  0.3101  0.1497 -0.4117
 2787SOL    HW111316   2.392   4.432   2.223 -0.8512 -0.4407  0.6174
 2787SOL    HW211317   2.303   4.321   2.170 -2.9045  1.4813 -0.1292
 2788SOL     OW11318   2.885   2.458   9.829  0.0490 -0.3987 -1.1126
 2788SOL    HW111319   2.883   2.501   9.743  0.0328  0.7848 -0.5346
 2788SOL    HW211320   2.963   2.403   9.826  1.0643  1.0026 -1.2491
 2789SOL     OW11321   5.264   0.614   3.535 -0.4827 -0.5712  0.1619
 2789SOL    HW111322   5.273   0.703   3.501  1.3637  0.0390  1.9916
 2789SOL    HW211323   5.294   0.558   3.463  1.6262  0.5370  0.0836
 2790SOL     OW11324   4.979   4.582   3.084 -0.0425  0.0965 -0.0340
 2790SOL    HW111325   4.988   4.559   3.176  0.2328 -0.2328 -0.1434
 2790SOL    HW211326   4.884   4.586   3.070 -0.1277 -1.6774 -0.1807
 2791SOL     OW11327   3.194   6.851   2.197 -0.3354 -0.5211 -0.1768
 2791SOL    HW111328   3.192   6.755   2.200  1.7631 -0.6179 -0.0878
 2791SOL    HW211329   3.148   6.873   2.116  1.3647 -1.7976 -1.5702
 2792SOL     OW11330  10.011   1.779  10.258  0.0612 -0.0624 -0.6100
 2792SOL    HW111331  10.055   1.704  10.297 -1.1491 -0.3565  0.2212
 2792SOL    HW211332  10.082   1.832  10.221  1.1181 -0.5232  0.6930
 2793SOL     OW11333   3.530   8.465   8.598 -0.1485  0.0470 -0.0638
 2793SOL    HW111334   3.585   8.440   8.672 -2.4826  0.9455  2.1135
 2793SOL    HW211335   3.498   8.382   8.562 -0.8478 -0.3886  1.4818
 2794SOL     OW11336   3.428   4.181   0.147  0.0279  0.5048  0.8866
 2794SOL    HW111337   3.419   4.259   0.202 -0.4822  0.4216  0.9260
 2794SOL    HW211338   3.513   4.144   0.171  0.0027  0.7127  1.3046
 2795SOL     OW11339   0.664   3.544   0.173  0.2281 -0.0325  0.0783
 2795SOL    HW111340   0.712   3.612   0.127  0.9131 -1.2072 -1.0181
 2795SOL    HW211341   0.695   3.549   0.263  1.9184 -0.2970 -0.4589
 2796SOL     OW11342   7.940   5.548   6.124 -0.0197  0.2051 -0.7245
 2796SOL    HW111343   7.960   5.598   6.045 -1.6575  0.7994 -0.7961
 2796SOL    HW211344   8.000   5.582   6.191  1.2904 -0.2124 -1.6503
 2797SOL     OW11345   6.479   9.073   4.016 -0.1770 -0.2085 -0.2839
 2797SOL    HW111346   6.464   9.083   4.110 -0.0159 -1.0284 -0.1648
 2797SOL    HW211347   6.405   9.118   3.975  0.6489  1.6706  0.2023
 2798SOL     OW11348   8.288   6.549   2.849  0.2027 -0.7254  0.2295
 2798SOL    HW111349   8.365   6.530   2.795  0.1327 -0.1132 -0.0991
 2798SOL    HW211350   8.306   6.506   2.933  0.2569 -1.7986 -0.3194
 2799SOL     OW11351   6.419   5.377   7.303 -0.3361  0.3914 -0.6608
 2799SOL    HW111352   6.456   5.465   7.292  0.5169 -0.0060 -1.0868
 2799SOL    HW211353   6.417   5.341   7.215  0.2803 -0.3846 -0.3654
 2800SOL     OW11354   2.271   5.691   1.894 -0.0102  0.0307  0.3140
 2800SOL    HW111355   2.366   5.692   1.888  0.0264 -0.0616  0.8281
 2800SOL    HW211356   2.247   5.601   1.874  0.0854 -0.1920  1.1706
 2801SOL     OW11357   8.917   6.514   8.883 -0.1097  0.6122 -0.4180
 2801SOL    HW111358   8.849   6.510   8.816 -0.0566 -3.2106 -0.4807
 2801SOL    HW211359   8.995   6.480   8.839  0.3445 -0.4313  1.1042
 2802SOL     OW11360   9.277   3.634   1.963 -0.2327 -0.0809  0.0128
 2802SOL    HW111361   9.245   3.719   1.933 -0.8257 -0.8224 -1.5739
 2802SOL    HW211362   9.336   3.605   1.893  0.1776 -0.8565  0.6731
 2803SOL     OW11363   1.127   0.681   6.524  0.0867 -0.3233  0.2453
 2803SOL    HW111364   1.197   0.712   6.466  1.6501 -1.4071  1.4662
 2803SOL    HW211365   1.114   0.753   6.586  0.3561 -0.2248  0.1912
 2804SOL     OW11366   9.957   2.501   9.602  0.2344  0.4813 -0.1613
 2804SOL    HW111367  10.024   2.493   9.535  0.7465  1.5055  0.1951
 2804SOL    HW211368   9.987   2.445   9.674 -1.9182 -3.2671 -1.8980
 2805SOL     OW11369   0.166   3.399   0.237  0.0629 -0.1348  0.8350
 2805SOL    HW111370   0.139   3.402   0.329 -0.5032  0.4347  0.6564
 2805SOL    HW211371   0.260   3.381   0.241  0.1902  0.6215  1.5420
 2806SOL     OW11372   5.277  10.631   7.278 -0.0524 -0.5056  0.1502
 2806SOL    HW111373   5.315  10.703   7.229 -1.0087  0.1921  0.3997
 2806SOL    HW211374   5.347  10.600   7.335  0.2650  0.4642  0.2889
 2807SOL     OW11375   6.816   7.071   2.218 -0.3662  0.3305  0.4834
 2807SOL    HW111376   6.763   7.104   2.145  0.3326 -0.7623 -0.5614
 2807SOL    HW211377   6.854   7.149   2.258 -1.9987  1.0702  0.6831
 2808SOL     OW11378   8.280   8.455   2.959 -0.1543 -0.3380  0.2424
 2808SOL    HW111379   8.339   8.381   2.946 -0.5270 -0.5143 -0.5161
 2808SOL    HW211380   8.321   8.526   2.910  0.8251  0.3270  1.9290
 2809SOL     OW11381   3.029   9.036  10.604 -0.4379  0.6410 -0.2145
 2809SOL    HW111382   2.999   9.123  10.629 -2.3275 -0.0312  0.0576
 2809SOL    HW211383   2.958   8.977  10.632  0.9015 -1.0194 -0.1178
 2810SOL     OW11384   8.523   4.821  10.556  0.3570 -0.8405 -0.0274
 2810SOL    HW111385   8.462   4.826  10.630  1.1633 -1.5758  0.7124
 2810SOL    HW211386   8.571   4.740  10.570 -0.0293 -1.4333 -1.8197
 2811SOL     OW11387   8.811   9.863   1.454 -0.3324 -0.3795  0.2440
 2811SOL    HW111388   8.770   9.943   1.487 -0.1022  0.1757 -0.7661
 2811SOL    HW211389   8.751   9.831   1.387 -0.6095 -1.2764  0.9067
 2812SOL     OW11390   7.567   7.241   3.652  0.1883  0.6116 -0.0392
 2812SOL    HW111391   7.540   7.260   3.742 -0.2428 -0.0277 -0.0207
 2812SOL    HW211392   7.495   7.274   3.598  0.0765  0.2850 -0.0936
 2813SOL     OW11393   3.684   4.506   2.261 -0.8302  0.2872 -0.2187
 2813SOL    HW111394   3.718   4.434   2.208 -0.4263  2.2594 -2.8029
 2813SOL    HW211395   3.751   4.519   2.328  1.1456  0.8154 -2.1771
 2814SOL     OW11396   6.743   8.680   0.816  0.0669 -0.4073  0.0689
 2814SOL    HW111397   6.791   8.749   0.771 -0.6504 -0.5935 -1.0062
 2814SOL    HW211398   6.785   8.599   0.789 -0.1250 -0.4977  0.0388
 2815SOL     OW11399  10.050   9.921   6.870  0.0066  0.1190  0.2771
 2815SOL    HW111400  10.042   9.826   6.871  0.8167  0.0420  1.3644
 2815SOL    HW211401  10.070   9.942   6.779 -1.3216 -0.6193 -0.2240
 2816SOL     OW11402   4.864   2.718   6.834  0.2251  0.3610  0.4147
 2816SOL    HW111403   4.918   2.641   6.816 -1.6825 -1.0265  0.3686
 2816SOL    HW211404   4.892   2.782   6.768  0.2459 -1.1189 -1.0777
 2817SOL     OW11405   7.118   6.528   1.665 -0.0820  0.0727  0.1333
 2817SOL    HW111406   7.172   6.450   1.680  0.4108  0.6867  1.7984
 2817SOL    HW211407   7.047   6.497   1.608  0.7347 -1.3009 -0.2100
 2818SOL     OW11408   3.065   8.903   2.199 -0.4674  0.1533 -0.3691
 2818SOL    HW111409   3.012   8.824   2.215  1.9284 -1.8944 -1.7733
 2818SOL    HW211410   3.131   8.903   2.268 -0.5599  1.0621 -0.2708
 2819SOL     OW11411   0.662   2.161   3.919  1.0848 -0.4216 -0.1680
 2819SOL    HW111412   0.638   2.193   4.006  2.9111 -2.6163  1.2943
 2819SOL    HW211413   0.712   2.232   3.880  1.0343  0.2636  0.9605
 2820SOL     OW11414   2.223   0.461   7.929 -0.2992 -0.0465 -0.4154
 2820SOL    HW111415   2.216   0.557   7.929  0.2124  0.0919  2.9299
 2820SOL    HW211416   2.143   0.431   7.886 -0.9987  1.8423 -0.5404
 2821SOL     OW11417   1.347   3.153   6.692  0.2212 -0.0383 -0.1547
 2821SOL    HW111418   1.254   3.155   6.668  0.1288  1.0299  0.2370
 2821SOL    HW211419   1.393   3.133   6.610 -0.3356 -0.4364 -0.3793
 2822SOL     OW11420   1.611   9.313   2.864 -0.2842 -0.0471  0.0944
 2822SOL    HW111421   1.586   9.315   2.956 -2.8246 -0.0577 -0.5163
 2822SOL    HW211422   1.692   9.263   2.862  0.0067  0.2403  2.3417
 2823SOL     OW11423   1.401   2.116   2.419 -0.5826  0.1250 -0.1485
 2823SOL    HW111424   1.364   2.038   2.377 -0.9008 -0.3135  0.9203
 2823SOL    HW211425   1.391   2.185   2.354  0.3346 -0.8656 -1.3897
 2824SOL     OW11426   8.345   9.246   1.717  0.2733 -0.3078  0.2821
 2824SOL    HW111427   8.294   9.178   1.674  0.8813 -0.4184 -0.2697
 2824SOL    HW211428   8.431   9.243   1.675  0.4813  0.4304  0.6283
 2825SOL     OW11429   1.455   2.139   8.505 -0.6241 -0.1384  0.1130
 2825SOL    HW111430   1.376   2.163   8.456 -0.6914  0.1105  0.3372
 2825SOL    HW211431   1.448   2.045   8.517 -1.2522 -0.0201  0.7492
 2826SOL     OW11432   3.193   7.866   5.671 -0.3713 -0.1225 -0.1769
 2826SOL    HW111433   3.203   7.955   5.637  0.9605  0.1052  0.7460
 2826SOL    HW211434   3.259   7.815   5.624 -0.6824 -0.4911 -0.2206
 2827SOL     OW11435   1.303   8.819   3.885  0.5199 -0.5810  0.4055
 2827SOL    HW111436   1.252   8.840   3.964  0.7975  1.4564  0.0954
 2827SOL    HW211437   1.394   8.824   3.914  0.6220  0.2210 -0.0491
 2828SOL     OW11438   5.092  10.551   6.729 -0.2951  0.2733 -0.2122
 2828SOL    HW111439   5.005  10.548   6.769 -0.4503 -1.8952 -0.6006
 2828SOL    HW211440   5.075  10.557   6.635  0.0446  2.0447 -0.2008
 2829SOL     OW11441   2.919   0.865   0.014 -0.1320 -0.1328  0.0830
 2829SOL    HW111442   3.000   0.813   0.013  0.2702  0.4475 -1.8209
 2829SOL    HW211443   2.851   0.804  -0.014 -0.2440 -0.4539  1.0415
 2830SOL     OW11444   6.355   2.511   8.418  0.1973 -0.3358  0.2940
 2830SOL    HW111445   6.260   2.521   8.421 -0.6411 -4.4992 -2.8760
 2830SOL    HW211446   6.383   2.564   8.344 -0.1978 -1.4044 -0.6465
 2831SOL     OW11447   5.123  10.307   2.440  0.7720  0.3015 -0.1705
 2831SOL    HW111448   5.067  10.232   2.424  0.3668  0.4449  0.5310
 2831SOL    HW211449   5.198  10.272   2.488  0.1429  0.4792  0.9689
 2832SOL     OW11450   9.574   2.102   2.466 -0.0787 -0.2918  0.4887
 2832SOL    HW111451   9.556   2.029   2.408 -1.1522  1.2917 -1.2913
 2832SOL    HW211452   9.632   2.066   2.534  1.2363 -2.2216 -1.5391
 2833SOL     OW11453   9.831   1.126   3.952 -0.2207 -0.1320 -0.5993
 2833SOL    HW111454   9.781   1.187   3.897  2.5968  2.2588 -0.7522
 2833SOL    HW211455   9.837   1.169   4.037  1.4351 -0.3815 -0.5589
 2834SOL     OW11456   6.904   9.088   0.914 -0.2332  0.3226  0.4164
 2834SOL    HW111457   6.911   9.181   0.892 -0.6777  0.3472  0.3622
 2834SOL    HW211458   6.837   9.085   0.983 -0.3778  0.0203  0.2640
 2835SOL     OW11459   8.608   2.653  10.234 -0.0241 -0.0665 -0.1193
 2835SOL    HW111460   8.637   2.724  10.176 -0.3451 -0.8637 -1.2942
 2835SOL    HW211461   8.686   2.601  10.249 -0.1314 -0.3793 -0.6137
 2836SOL     OW11462   2.901  10.683   0.712 -0.3670 -0.0547 -0.3187
 2836SOL    HW111463   2.969  10.725   0.659 -2.2200  1.1476 -1.9065
 2836SOL    HW211464   2.908  10.590   0.691  1.1726 -0.0398  0.0534
 2837SOL     OW11465   0.629   0.235   2.745 -0.4604 -0.0656 -0.7894
 2837SOL    HW111466   0.533   0.245   2.747 -0.4766 -0.3374  0.0391
 2837SOL    HW211467   0.652   0.210   2.834  0.5582  1.4868 -0.5861
 2838SOL     OW11468   2.321   9.082  10.224  0.3476 -0.5003 -0.0916
 2838SOL    HW111469   2.378   9.007  10.240 -1.6246 -1.6766  2.2399
 2838SOL    HW211470   2.240   9.060  10.271 -0.4805  2.9156  0.3186
 2839SOL     OW11471   2.994   1.763   3.506  0.2013 -0.1677 -0.3406
 2839SOL    HW111472   2.935   1.688   3.496 -1.0339  0.6895  0.2175
 2839SOL    HW211473   2.954   1.815   3.576  1.6939  0.4000  0.1226
 2840SOL     OW11474   3.605   0.998   1.796  0.5025  0.4249 -0.6950
 2840SOL    HW111475   3.656   1.077   1.776  0.3747  0.7811  0.3167
 2840SOL    HW211476   3.514   1.028   1.801  0.6635  0.6914  1.8448
 2841SOL     OW11477   3.322   3.970   3.166 -0.4303 -0.1885 -0.1325
 2841SOL    HW111478   3.233   3.956   3.134 -0.5157 -0.9693  0.4271
 2841SOL    HW211479   3.374   3.903   3.121  0.0029  0.6821 -0.9594
 2842SOL     OW11480   2.571   2.849   1.641  0.1963  0.0784  0.0678
 2842SOL    HW111481   2.642   2.894   1.685 -0.4318  0.9085  0.2551
 2842SOL    HW211482   2.545   2.779   1.701  0.0686  0.5188  0.5269
 2843SOL     OW11483   2.796   2.874   6.365 -0.2115  0.5638  0.1738
 2843SOL    HW111484   2.709   2.893   6.332 -0.0649  0.2888 -0.4073
 2843SOL    HW211485   2.827   2.956   6.403  0.2240  1.3992 -1.8209
 2844SOL     OW11486   0.387   0.898   7.264 -0.7989 -0.2774  0.4123
 2844SOL    HW111487   0.317   0.906   7.329 -1.7890 -1.8728 -0.3595
 2844SOL    HW211488   0.465   0.930   7.308 -1.7823  0.3967  1.7454
 2845SOL     OW11489   7.570   7.207   3.036  0.7087  0.1958  0.1156
 2845SOL    HW111490   7.555   7.150   2.961 -0.5541 -0.7821  1.0560
 2845SOL    HW211491   7.596   7.148   3.107  2.3728  1.1441  0.3549
 2846SOL     OW11492   8.415   1.732   2.442  0.2519  0.1007 -0.1657
 2846SOL    HW111493   8.501   1.691   2.430  0.2745  0.3317 -0.8241
 2846SOL    HW211494   8.431   1.804   2.502  0.4972  0.0660 -0.1867
 2847SOL     OW11495   8.438   2.601   3.323  0.7506 -0.5175  0.0796
 2847SOL    HW111496   8.442   2.694   3.300 -0.0916  0.0394  1.9866
 2847SOL    HW211497   8.513   2.562   3.277  1.3352  1.1590 -0.4742
 2848SOL     OW11498   8.003  10.022   4.072 -0.0565 -0.0090  0.1466
 2848SOL    HW111499   8.000   9.926   4.064  0.9025 -0.1531  1.4093
 2848SOL    HW211500   7.989  10.053   3.982 -1.5154 -1.2911 -0.1184
 2849SOL     OW11501   6.672   5.413   3.302 -0.1881 -0.1033  0.0183
 2849SOL    HW111502   6.737   5.474   3.336 -0.6802  1.8466 -2.2540
 2849SOL    HW211503   6.720   5.358   3.241 -0.2650 -0.1372 -0.0127
 2850SOL     OW11504   2.845   6.841   0.314 -0.6520  0.1501  0.1325
 2850SOL    HW111505   2.937   6.856   0.334 -0.7857  2.4485 -0.7182
 2850SOL    HW211506   2.811   6.927   0.289 -2.3853 -1.1015 -2.1941
 2851SOL     OW11507   2.094   1.704   5.925 -0.5338 -0.0522 -0.1883
 2851SOL    HW111508   2.068   1.781   5.975  0.8284  0.9258 -0.8959
 2851SOL    HW211509   2.157   1.659   5.982  0.3105  0.5574 -0.6139
 2852SOL     OW11510   6.546   3.516   5.108  0.4056 -0.2568 -0.0607
 2852SOL    HW111511   6.537   3.440   5.165 -1.0019  0.4697  0.7443
 2852SOL    HW211512   6.491   3.495   5.032 -1.3790  0.6056  0.9305
 2853SOL     OW11513   1.411   5.560   6.049 -0.1386 -0.3993  0.5047
 2853SOL    HW111514   1.366   5.626   6.102 -0.6589 -1.1044  0.9568
 2853SOL    HW211515   1.345   5.493   6.033  0.5072 -1.0372  0.4485
 2854SOL     OW11516   9.513   7.688   1.853 -0.1593  0.4955 -0.4753
 2854SOL    HW111517   9.509   7.629   1.778  0.0727 -0.6957  0.3995
 2854SOL    HW211518   9.589   7.744   1.836  0.8611 -0.8052 -0.4423
 2855SOL     OW11519   5.801   0.902  10.194  0.5106 -0.5163 -0.7959
 2855SOL    HW111520   5.844   0.967  10.250 -0.5705  0.1009 -0.6366
 2855SOL    HW211521   5.711   0.899  10.227  0.2246 -1.1833 -1.6063
 2856SOL     OW11522   7.074   2.556   1.202 -0.0724 -0.4147  0.6519
 2856SOL    HW111523   7.061   2.463   1.183  0.2878 -0.4637  0.6396
 2856SOL    HW211524   7.008   2.577   1.267  0.1208 -0.7823  0.9713
 2857SOL     OW11525   4.818  10.531   8.310  0.5222 -0.0523 -0.5188
 2857SOL    HW111526   4.892  10.541   8.370  0.8096 -1.3547 -0.6273
 2857SOL    HW211527   4.741  10.542   8.366  0.7742 -1.9971  0.2985
 2858SOL     OW11528   7.827   0.685   0.436  0.0078  0.5689 -0.2328
 2858SOL    HW111529   7.739   0.724   0.437 -1.1270 -1.7390  1.4035
 2858SOL    HW211530   7.820   0.612   0.374  0.6638  0.1593  0.1636
 2859SOL     OW11531   3.674   0.731   9.376  0.0154  0.2925 -0.0830
 2859SOL    HW111532   3.661   0.741   9.471 -1.3277  1.1314 -0.3323
 2859SOL    HW211533   3.717   0.646   9.367  1.4592  0.7977  1.3640
 2860SOL     OW11534  10.641   8.352   5.480  0.0751 -0.1434 -0.1541
 2860SOL    HW111535  10.590   8.351   5.561  0.1376  0.7059 -0.0963
 2860SOL    HW211536  10.580   8.323   5.413 -0.5701  1.1082 -0.1258
 2861SOL     OW11537   0.762   2.160   8.451  0.6762 -0.1510 -0.1495
 2861SOL    HW111538   0.803   2.095   8.395  0.0000  1.2978 -2.4341
 2861SOL    HW211539   0.752   2.237   8.396 -1.9643  0.6934  1.3182
 2862SOL     OW11540   2.272   7.791  10.691 -0.0387 -0.4110 -0.3716
 2862SOL    HW111541   2.250   7.751  10.607  2.0180 -0.4820 -0.9491
 2862SOL    HW211542   2.323   7.869  10.667  0.9111 -0.6438  0.8017
 2863SOL     OW11543  10.133   3.769   9.079 -0.7196  0.2106  0.4792
 2863SOL    HW111544  10.140   3.822   8.999 -0.3653  0.8467  0.9200
 2863SOL    HW211545  10.096   3.686   9.050  1.4582 -0.4239 -0.7546
 2864SOL     OW11546   3.278   7.283   2.385  0.4527 -0.0852  0.0964
 2864SOL    HW111547   3.365   7.294   2.422  0.0715 -0.3959  1.1142
 2864SOL    HW211548   3.221   7.267   2.460 -0.4337 -0.2051 -0.5767
 2865SOL     OW11549   9.489  10.444   4.678  0.6561 -0.2585 -0.0503
 2865SOL    HW111550   9.548  10.368   4.675  2.3489  0.9231  1.0357
 2865SOL    HW211551   9.448  10.439   4.764  0.8029  0.0495  0.0407
 2866SOL     OW11552   6.346   7.200   1.279  0.4274 -0.1483 -0.0877
 2866SOL    HW111553   6.328   7.173   1.189 -1.5771  0.4627  0.0692
 2866SOL    HW211554   6.302   7.284   1.288 -1.0321 -1.0525  1.9709
 2867SOL     OW11555   8.436   2.779   4.248 -0.2973 -0.5078 -0.0894
 2867SOL    HW111556   8.378   2.763   4.323  0.7971 -0.2586  0.8478
 2867SOL    HW211557   8.388   2.746   4.173  0.0138 -4.3405  1.1355
 2868SOL     OW11558   3.775   9.215   0.072  0.2774  0.0234  0.5513
 2868SOL    HW111559   3.836   9.158   0.026  0.7921  1.1603 -0.1936
 2868SOL    HW211560   3.767   9.293   0.017 -1.3528  0.1868  0.9465
 2869SOL     OW11561   4.213   0.292   8.596  0.2875 -0.2303 -0.0506
 2869SOL    HW111562   4.214   0.255   8.508  0.1469  1.1250 -0.6581
 2869SOL    HW211563   4.194   0.218   8.654  0.3522 -1.1358 -1.1584
 2870SOL     OW11564   3.792   4.850   2.391 -0.1790  0.6789  0.3832
 2870SOL    HW111565   3.727   4.794   2.434  1.2835  0.6957  2.8176
 2870SOL    HW211566   3.815   4.804   2.311 -3.0386  0.6194 -0.5112
 2871SOL     OW11567   2.154   3.077   8.214  0.1364 -0.6317 -0.1097
 2871SOL    HW111568   2.135   3.169   8.230 -2.2096 -0.4767 -2.8354
 2871SOL    HW211569   2.211   3.077   8.137 -0.7545 -1.3828 -0.8131
 2872SOL     OW11570   4.856   7.014   5.462 -0.2986  0.4212  0.5572
 2872SOL    HW111571   4.855   7.099   5.419  1.0163 -0.3778 -1.1797
 2872SOL    HW211572   4.893   6.954   5.396  0.9211 -1.0648  2.4758
 2873SOL     OW11573   9.518   7.402   9.985 -0.5241 -0.6312 -0.2131
 2873SOL    HW111574   9.600   7.450   9.998  0.7025 -2.7876  0.5691
 2873SOL    HW211575   9.485   7.435   9.901 -0.3062  2.2065  0.7190
 2874SOL     OW11576   4.733   3.658   3.291 -0.3926  0.2694 -0.0162
 2874SOL    HW111577   4.666   3.614   3.344  0.3514 -1.4254 -0.4131
 2874SOL    HW211578   4.788   3.704   3.355 -0.8004  0.0897  0.4713
 2875SOL     OW11579   2.508   7.154   4.129 -0.5084  0.0697  0.1847
 2875SOL    HW111580   2.416   7.175   4.113 -0.4424  1.8295  1.7903
 2875SOL    HW211581   2.507   7.061   4.151 -1.5909 -0.4555 -1.8295
 2876SOL     OW11582   1.431   2.579   0.535 -0.4098 -0.0800  0.1670
 2876SOL    HW111583   1.360   2.531   0.579 -0.6415 -0.3597 -0.5033
 2876SOL    HW211584   1.400   2.669   0.530  0.5821  0.4893  2.6461
 2877SOL     OW11585   5.739   3.801   2.934  0.4612  0.0857 -0.0262
 2877SOL    HW111586   5.817   3.760   2.897  0.9371  0.3273  0.7083
 2877SOL    HW211587   5.719   3.873   2.874 -1.1893 -1.9365 -2.1448
 2878SOL     OW11588   2.271   1.880   7.177  0.4683 -0.0084  0.2625
 2878SOL    HW111589   2.220   1.958   7.155 -1.6162 -0.6230  2.3971
 2878SOL    HW211590   2.359   1.912   7.193  0.1229  1.5755 -0.8140
 2879SOL     OW11591   9.774   8.701  10.083  0.1078  0.1000 -0.1594
 2879SOL    HW111592   9.736   8.738  10.163 -0.7817 -0.7536 -0.1689
 2879SOL    HW211593   9.864   8.678  10.108 -0.2343 -0.3827  0.6790
 2880SOL     OW11594   2.236   6.921   6.164 -0.0383 -0.0138 -0.8187
 2880SOL    HW111595   2.273   6.845   6.211  1.0804 -0.4111 -2.2755
 2880SOL    HW211596   2.303   6.944   6.099 -0.4012  2.1757 -0.4951
 2881SOL     OW11597   3.778   3.727   2.495 -0.0564  0.3724  0.1344
 2881SOL    HW111598   3.826   3.644   2.501  1.3613  1.2706  2.2851
 2881SOL    HW211599   3.811   3.767   2.414 -0.7548 -1.0898 -0.9293
 2882SOL     OW11600   5.683   5.092   8.187 -0.2851  0.1237 -0.1562
 2882SOL    HW111601   5.617   5.037   8.228 -2.7662  1.9745 -1.4225
 2882SOL    HW211602   5.746   5.030   8.149 -1.9086 -1.7800  0.1014
 2883SOL     OW11603   4.831   1.053   4.201  0.1844  0.0471 -0.2691
 2883SOL    HW111604   4.886   0.992   4.249 -0.5120  0.4390  1.0880
 2883SOL    HW211605   4.764   0.999   4.159 -0.4529 -0.1304  0.9550
 2884SOL     OW11606   7.964   1.577   6.265 -0.1747  0.0693  0.0093
 2884SOL    HW111607   8.052   1.555   6.295 -0.3969 -0.4204  0.3216
 2884SOL    HW211608   7.914   1.496   6.275 -1.1488  0.8208  1.6485
 2885SOL     OW11609   1.158   2.626   3.568 -0.4686 -0.4052 -0.1615
 2885SOL    HW111610   1.215   2.701   3.587  0.2141 -1.1576  0.9037
 2885SOL    HW211611   1.083   2.663   3.522 -0.5625  1.0589  1.1011
 2886SOL     OW11612   9.630   6.814   2.077 -0.2338  0.4287  0.2694
 2886SOL    HW111613   9.703   6.786   2.022 -0.6775  0.5585 -0.3932
 2886SOL    HW211614   9.557   6.829   2.016 -0.8874  0.0707  0.9395
 2887SOL     OW11615   7.383   3.061   2.943  0.8153  0.3809  0.1763
 2887SOL    HW111616   7.464   3.027   2.980  1.2429  1.5222  0.3162
 2887SOL    HW211617   7.356   3.130   3.004  0.2149  0.6184 -0.3501
 2888SOL     OW11618   0.118   7.125   7.619 -0.8297  0.3151  0.2409
 2888SOL    HW111619   0.177   7.126   7.694 -0.4146 -0.5602 -0.0675
 2888SOL    HW211620   0.076   7.039   7.623  0.7066 -0.5843 -1.6768
 2889SOL     OW11621  10.146   2.584   4.094 -0.1525  0.1160  0.2231
 2889SOL    HW111622  10.203   2.660   4.080 -0.5781  0.5283  0.6750
 2889SOL    HW211623  10.059   2.614   4.069  0.0727 -1.0588 -2.1891
 2890SOL     OW11624  10.488   4.342   2.394 -0.2289 -0.0339  0.1189
 2890SOL    HW111625  10.534   4.407   2.339 -1.8559  1.3024  0.2729
 2890SOL    HW211626  10.518   4.360   2.483 -0.5769  0.4333  0.1444
 2891SOL     OW11627   8.690   5.578   0.448 -0.0994  0.0801  0.3617
 2891SOL    HW111628   8.778   5.542   0.436 -0.5092 -0.3624 -2.0469
 2891SOL    HW211629   8.644   5.512   0.500  0.2544 -1.0663 -0.7255
 2892SOL     OW11630   9.863   0.015   3.217  0.1547  0.1160 -0.1486
 2892SOL    HW111631   9.808   0.060   3.282 -3.3805 -2.0553 -1.3469
 2892SOL    HW211632   9.889  -0.066   3.259 -1.1282 -0.7393 -0.9234
 2893SOL     OW11633   4.548   2.462   5.881 -0.4720 -0.1875  0.2276
 2893SOL    HW111634   4.586   2.535   5.929  0.4878  1.0174 -2.1895
 2893SOL    HW211635   4.559   2.485   5.789 -4.4518 -1.1516 -0.7116
 2894SOL     OW11636   6.944   6.385   5.918 -0.0575  0.0118  0.3374
 2894SOL    HW111637   7.005   6.456   5.940 -0.4289  0.6570 -0.6146
 2894SOL    HW211638   6.969   6.313   5.975  2.7451 -0.3592 -1.1748
 2895SOL     OW11639   1.156  10.127   2.650 -0.8136  0.0914 -0.4806
 2895SOL    HW111640   1.140  10.034   2.666 -1.3105  0.5319  1.9834
 2895SOL    HW211641   1.074  10.170   2.673  0.0392  1.3076  0.4576
 2896SOL     OW11642   4.949   9.863   3.551 -0.3078 -0.2821  0.0609
 2896SOL    HW111643   4.884   9.866   3.622  0.7344 -1.8531  1.1312
 2896SOL    HW211644   4.960   9.770   3.532  0.8754  0.0156 -0.8109
 2897SOL     OW11645   1.677   0.071   7.828 -0.8263 -0.0541  0.2912
 2897SOL    HW111646   1.639  -0.016   7.821 -0.8977 -0.0608  0.7179
 2897SOL    HW211647   1.680   0.088   7.923  1.5572 -0.6402  0.3845
 2898SOL     OW11648   7.264   5.827   5.842 -0.2948  0.4727 -0.5417
 2898SOL    HW111649   7.355   5.812   5.814  0.2374  3.1631 -0.4740
 2898SOL    HW211650   7.238   5.908   5.798 -2.0788  0.6731  0.7892
 2899SOL     OW11651   0.077   0.506   1.680 -0.2640  0.1239 -0.2448
 2899SOL    HW111652   0.044   0.490   1.769 -0.8433  2.0755 -0.0710
 2899SOL    HW211653   0.029   0.443   1.626 -0.9608 -0.1283  0.6248
 2900SOL     OW11654   8.257   8.965   6.682 -0.1117  0.5249  0.0058
 2900SOL    HW111655   8.340   8.920   6.699 -0.8930 -1.3685 -0.8605
 2900SOL    HW211656   8.281   9.039   6.627  0.9463 -0.4718 -0.9375
 2901SOL     OW11657   6.561   3.649   1.458  0.2577  0.1079 -0.1780
 2901SOL    HW111658   6.568   3.582   1.390 -1.1307  0.5006 -0.7347
 2901SOL    HW211659   6.601   3.609   1.536 -1.0982 -1.6205 -0.3265
 2902SOL     OW11660   2.080   3.377  10.477  0.8216 -0.2130  0.6380
 2902SOL    HW111661   2.021   3.433  10.527  0.5930 -0.7706  1.0035
 2902SOL    HW211662   2.164   3.383  10.523  1.3302  1.3203 -0.4193
 2903SOL     OW11663   8.880   5.391   5.009 -0.4472 -0.2869 -0.0922
 2903SOL    HW111664   8.973   5.406   4.989 -0.0221 -2.0865  0.3776
 2903SOL    HW211665   8.868   5.430   5.095  0.2490 -1.2023  0.4475
 2904SOL     OW11666   7.450   8.310   9.941 -0.5308 -0.3650 -0.0567
 2904SOL    HW111667   7.534   8.297   9.898 -1.5941 -0.3919 -2.2371
 2904SOL    HW211668   7.414   8.222   9.949 -0.2373 -0.3920  1.2030
 2905SOL     OW11669   8.465   6.480  10.522 -0.2317  0.4378  0.3434
 2905SOL    HW111670   8.470   6.555  10.582  0.6856  2.0722 -1.6311
 2905SOL    HW211671   8.545   6.431  10.539 -0.2484  0.5736  0.8367
 2906SOL     OW11672   7.577   5.928   5.796 -0.5401 -0.3263 -0.0713
 2906SOL    HW111673   7.582   5.845   5.747  0.5310 -0.2951 -0.0505
 2906SOL    HW211674   7.518   5.982   5.745 -1.0021 -0.9969 -0.2607
 2907SOL     OW11675   8.458   8.478   2.627  0.0729  0.2743  0.1146
 2907SOL    HW111676   8.478   8.514   2.541  0.2345  0.9746  0.4363
 2907SOL    HW211677   8.409   8.547   2.671  2.9637  1.4105  1.8437
 2908SOL     OW11678   2.055   8.381   9.238  0.9167 -0.2825 -0.1804
 2908SOL    HW111679   2.005   8.461   9.252  1.1983  0.4654 -3.0334
 2908SOL    HW211680   1.988   8.314   9.222  0.7552 -0.0268 -0.5721
 2909SOL     OW11681   6.082   6.343   7.332 -0.2103  0.2442 -0.0061
 2909SOL    HW111682   6.128   6.340   7.248 -1.2704 -0.2387 -0.5841
 2909SOL    HW211683   6.117   6.421   7.376  0.9660  0.0257 -0.5261
 2910SOL     OW11684   2.272   6.726   7.678 -0.2715  0.0379  0.3067
 2910SOL    HW111685   2.320   6.795   7.632 -2.9098  2.3356  0.7728
 2910SOL    HW211686   2.286   6.745   7.771 -1.0507 -0.0135  0.4414
 2911SOL     OW11687   7.869   2.232   3.196 -0.2716 -0.3285  0.8459
 2911SOL    HW111688   7.963   2.228   3.215 -0.3203  0.1555  1.2217
 2911SOL    HW211689   7.860   2.305   3.135 -0.4052 -0.3794  0.8050
 2912SOL     OW11690   3.751   8.029   9.938  0.2235  0.3720 -0.1003
 2912SOL    HW111691   3.744   8.060   9.848 -0.4958 -0.2774 -0.2765
 2912SOL    HW211692   3.776   8.107   9.988 -2.7327  1.5889 -0.3373
 2913SOL     OW11693   9.902   6.474   2.354  0.6917 -0.4595 -0.1165
 2913SOL    HW111694   9.986   6.474   2.401  0.3863 -0.0294  0.4414
 2913SOL    HW211695   9.836   6.470   2.424  0.2522 -1.6123 -0.5709
 2914SOL     OW11696   7.072   3.669   8.176  0.5201  0.0852 -0.8513
 2914SOL    HW111697   6.978   3.689   8.177  0.7090  1.0561  0.7735
 2914SOL    HW211698   7.076   3.574   8.186 -0.2889  0.1040 -0.2416
 2915SOL     OW11699   1.379   3.606   5.537 -0.1189  0.2083 -0.5339
 2915SOL    HW111700   1.474   3.604   5.528  0.0787 -0.9399  1.4016
 2915SOL    HW211701   1.363   3.647   5.622 -1.3191 -0.2864 -0.4957
 2916SOL     OW11702   7.814   9.737   4.828 -0.1009  0.1772 -0.2343
 2916SOL    HW111703   7.817   9.769   4.738 -0.7226 -0.0461 -0.3397
 2916SOL    HW211704   7.824   9.815   4.882  2.1398  0.1103 -0.4815
 2917SOL     OW11705   1.018   7.192   7.511  0.0012 -0.4890  0.2256
 2917SOL    HW111706   1.101   7.224   7.476 -0.0211 -0.8105 -0.1351
 2917SOL    HW211707   0.957   7.198   7.438  0.0359 -1.4825  0.0915
 2918SOL     OW11708  10.621   9.531   3.110  0.1190  0.0053 -0.0595
 2918SOL    HW111709  10.562   9.460   3.085  0.4736 -1.2297  2.3397
 2918SOL    HW211710  10.570   9.611   3.095 -0.6908 -0.7894 -1.7577
 2919SOL     OW11711   8.985   4.935   2.565 -0.0283  0.2922 -0.3130
 2919SOL    HW111712   8.975   4.884   2.485 -0.9136 -1.5334  0.9120
 2919SOL    HW211713   9.073   4.972   2.558  0.3506 -0.7641 -1.6052
 2920SOL     OW11714   8.037   7.638   5.039  0.7901  0.2120  0.3112
 2920SOL    HW111715   7.966   7.676   5.091 -0.2253  0.3624 -1.1562
 2920SOL    HW211716   8.043   7.694   4.961  0.8374 -1.2695 -0.7757
 2921SOL     OW11717   6.295   6.210   5.651 -0.0075  0.0337 -0.0436
 2921SOL    HW111718   6.270   6.131   5.603  1.0552 -0.0985 -0.3946
 2921SOL    HW211719   6.383   6.193   5.684 -0.2932  0.5500  1.0454
 2922SOL     OW11720   7.256   1.847   4.773 -0.0064 -0.0356 -0.6442
 2922SOL    HW111721   7.227   1.930   4.734 -1.9232 -1.0804 -1.5725
 2922SOL    HW211722   7.293   1.798   4.700 -1.3844 -1.0519 -0.6890
 2923SOL     OW11723   4.396   9.561   6.766 -0.4149 -0.2681 -0.1756
 2923SOL    HW111724   4.335   9.635   6.753  0.8079  0.3261 -3.8636
 2923SOL    HW211725   4.340   9.490   6.798 -2.2451  1.3445  0.4521
 2924SOL     OW11726  10.013   6.505   1.237  0.3520 -0.4082  0.0063
 2924SOL    HW111727   9.977   6.589   1.265 -0.7481 -1.6269  2.6916
 2924SOL    HW211728  10.012   6.508   1.141 -0.1491  2.3844  0.0291
 2925SOL     OW11729   8.099   1.227   8.222 -0.0937  0.1054 -0.9524
 2925SOL    HW111730   8.168   1.252   8.283  0.5140  1.1672 -2.0462
 2925SOL    HW211731   8.132   1.148   8.180 -0.7769 -0.9955  0.4610
 2926SOL     OW11732   5.998   6.626   5.623 -0.5526  0.4765 -0.1936
 2926SOL    HW111733   5.955   6.633   5.538 -0.1781  2.4457 -0.2725
 2926SOL    HW211734   6.070   6.565   5.608 -0.8117  0.3898 -1.1620
 2927SOL     OW11735   6.473   0.401   3.062  0.3447 -0.0337 -0.2945
 2927SOL    HW111736   6.424   0.388   2.981 -0.4109  0.3322  0.0934
 2927SOL    HW211737   6.436   0.481   3.100  0.2887 -0.5219  0.7013
 2928SOL     OW11738   6.917   2.151   6.594  0.1923 -0.4584  0.3957
 2928SOL    HW111739   7.008   2.127   6.577 -0.0321 -0.5307 -0.7431
 2928SOL    HW211740   6.887   2.190   6.512 -0.6942 -0.0881  0.8877
 2929SOL     OW11741   0.252  10.344   0.321 -0.2572 -0.2201 -0.2918
 2929SOL    HW111742   0.330  10.363   0.372 -0.9314 -0.4438  0.8703
 2929SOL    HW211743   0.273  10.265   0.272  0.4620  0.0934 -0.4896
 2930SOL     OW11744   6.496  10.643   4.899  0.8268 -0.0987  0.7757
 2930SOL    HW111745   6.533  10.625   4.986  3.1619 -0.2250 -0.1683
 2930SOL    HW211746   6.555  10.598   4.838 -0.0494  1.0009 -0.9604
 2931SOL     OW11747   0.132   0.032   8.739 -0.1631  0.0099  0.1609
 2931SOL    HW111748   0.065  -0.026   8.774 -0.7660  0.3838 -0.3579
 2931SOL    HW211749   0.109   0.043   8.646  0.7364 -0.0313 -0.0786
 2932SOL     OW11750   3.689   0.368   5.169  1.2990 -0.2221  0.4269
 2932SOL    HW111751   3.663   0.332   5.253 -2.2249 -1.2093 -0.9132
 2932SOL    HW211752   3.646   0.454   5.164  0.0445 -0.8759 -0.9373
 2933SOL     OW11753   6.488   3.704   9.286  0.3089 -0.1405  0.9606
 2933SOL    HW111754   6.484   3.800   9.285 -0.2285 -0.1453  1.6380
 2933SOL    HW211755   6.579   3.684   9.310  0.5504  0.1845  0.3495
 2934SOL     OW11756   2.862   1.024   0.429  0.2722  0.3865  0.1731
 2934SOL    HW111757   2.828   1.027   0.339  0.6548 -3.4825 -0.3080
 2934SOL    HW211758   2.792   1.060   0.483 -1.1067  0.3225 -1.4824
 2935SOL     OW11759   0.862   4.737   6.508 -0.0664 -0.2328  0.5864
 2935SOL    HW111760   0.927   4.798   6.474 -0.1682 -0.0495  0.7228
 2935SOL    HW211761   0.902   4.699   6.586 -0.1394 -0.0899  0.6933
 2936SOL     OW11762   3.003  10.694   2.907  0.1706 -0.1513 -0.1405
 2936SOL    HW111763   2.966  10.743   2.981 -2.2380  1.1872 -2.0950
 2936SOL    HW211764   2.927  10.672   2.852  1.6011 -3.0632 -1.1516
 2937SOL     OW11765   9.857   0.190   8.521  0.2447  0.2180  0.1819
 2937SOL    HW111766   9.784   0.229   8.473 -0.2415 -0.4206  0.3881
 2937SOL    HW211767   9.861   0.100   8.488 -0.2399 -0.3006  1.4842
 2938SOL     OW11768   8.559   0.751   8.346 -0.2026  0.2227  0.1984
 2938SOL    HW111769   8.592   0.774   8.259 -1.6104  1.0416 -0.1572
 2938SOL    HW211770   8.508   0.671   8.333 -2.2360  1.5117 -0.2086
 2939SOL     OW11771   4.383   8.961  10.149 -0.2482 -0.5566  0.1131
 2939SOL    HW111772   4.322   8.945  10.221 -0.4396 -0.2381  0.0246
 2939SOL    HW211773   4.466   8.924  10.180 -0.9928 -3.0472 -0.7034
 2940SOL     OW11774  10.247   9.350   1.366 -0.0904 -0.0764 -0.8311
 2940SOL    HW111775  10.224   9.261   1.392 -0.4641 -0.0797 -1.1652
 2940SOL    HW211776  10.218   9.405   1.439  2.4825 -0.4399  0.6106
 2941SOL     OW11777   6.420   8.113   4.162 -0.1423  0.7797 -0.3555
 2941SOL    HW111778   6.337   8.154   4.138 -0.1894  1.3077  0.6649
 2941SOL    HW211779   6.483   8.146   4.097 -0.6687  0.5846 -0.9725
 2942SOL     OW11780   5.279   1.149  10.347 -0.1834 -0.3973 -0.2020
 2942SOL    HW111781   5.218   1.127  10.276  0.0507  0.4784 -0.6944
 2942SOL    HW211782   5.277   1.245  10.351  0.0659 -0.4203  0.7549
 2943SOL     OW11783  10.044   9.372   2.822  0.9292 -0.3746  0.5075
 2943SOL    HW111784  10.044   9.346   2.730  0.2674 -1.9676  0.9182
 2943SOL    HW211785  10.044   9.467   2.820 -0.3082 -0.3580 -1.1697
 2944SOL     OW11786  10.527   7.367   3.005  0.1243  0.3169  0.0708
 2944SOL    HW111787  10.470   7.305   3.050  0.8257 -0.4245 -0.0456
 2944SOL    HW211788  10.468   7.437   2.977 -0.5884 -0.0289  0.6717
 2945SOL     OW11789   1.920   9.287   0.153 -0.0209 -0.1388 -0.0347
 2945SOL    HW111790   1.886   9.353   0.213 -1.1782  0.0300 -0.8433
 2945SOL    HW211791   1.863   9.292   0.076  0.4755 -1.3963 -0.5238
 2946SOL     OW11792  10.393   0.747   1.120 -0.0772 -0.3077 -0.0569
 2946SOL    HW111793  10.453   0.717   1.051 -1.5896 -1.0871 -1.0642
 2946SOL    HW211794  10.332   0.805   1.074 -1.7538 -1.6748  0.3863
 2947SOL     OW11795   9.081   9.024   7.532 -0.0700 -0.0087  0.1550
 2947SOL    HW111796   9.121   9.102   7.495 -1.6237  1.7306  1.8971
 2947SOL    HW211797   9.038   8.981   7.458  0.1679  1.2125 -0.7163
 2948SOL     OW11798   1.250   0.531  10.502  0.0535 -0.0778  0.3761
 2948SOL    HW111799   1.302   0.531  10.583  2.1212 -0.1405 -0.8977
 2948SOL    HW211800   1.200   0.450  10.506 -0.6183  0.3655  2.0113
 2949SOL     OW11801   6.157   5.516   6.335 -0.1094 -0.1293  0.3906
 2949SOL    HW111802   6.240   5.481   6.301  0.8651  1.3901  1.1055
 2949SOL    HW211803   6.137   5.589   6.276 -0.5091  0.0171  0.7083
 2950SOL     OW11804   7.232   6.098   9.711  0.0099 -0.6145 -0.1144
 2950SOL    HW111805   7.283   6.102   9.631 -0.7111 -0.2274 -0.5691
 2950SOL    HW211806   7.249   6.010   9.746  0.5158 -0.6992 -0.5596
 2951SOL     OW11807   5.753   2.383   9.808  0.0333  0.2828 -0.5636
 2951SOL    HW111808   5.833   2.340   9.838 -0.4530  0.3446  0.9392
 2951SOL    HW211809   5.741   2.456   9.870 -0.7561  0.7587 -1.2556
 2952SOL     OW11810   4.390   2.110   5.219 -0.3692  0.3258 -0.1520
 2952SOL    HW111811   4.458   2.043   5.207 -0.3388  0.6848 -2.5726
 2952SOL    HW211812   4.313   2.074   5.177 -1.0716  0.8253  0.6771
 2953SOL     OW11813   1.364   8.306   6.669  0.4120 -0.0572  0.2110
 2953SOL    HW111814   1.451   8.275   6.692  0.7621 -0.7185 -1.8063
 2953SOL    HW211815   1.379   8.381   6.611 -0.2968 -0.8737 -1.0843
 2954SOL     OW11816   8.812   5.838   5.966  0.4482 -0.6111 -0.1814
 2954SOL    HW111817   8.898   5.843   6.008  0.0897 -0.1321  0.5001
 2954SOL    HW211818   8.785   5.929   5.955 -0.3800 -0.7728  0.4574
 2955SOL     OW11819   0.794   4.541   6.192 -0.2107 -0.1494  0.0100
 2955SOL    HW111820   0.839   4.611   6.146 -1.6312  1.7770  1.4004
 2955SOL    HW211821   0.721   4.517   6.135  0.1748 -0.3786 -0.3870
 2956SOL     OW11822   7.238   4.360   7.192 -0.3101 -0.2221 -0.2585
 2956SOL    HW111823   7.268   4.270   7.181 -2.6231 -1.1421  0.4513
 2956SOL    HW211824   7.189   4.379   7.112 -0.0798  0.3385 -0.2758
 2957SOL     OW11825   2.254   8.567   2.621 -0.0068 -0.4770  0.4964
 2957SOL    HW111826   2.178   8.624   2.618 -0.1620 -0.7153 -0.5956
 2957SOL    HW211827   2.325   8.623   2.653 -0.3930  0.0296  0.4824
 2958SOL     OW11828   2.485   8.687   7.386 -0.2090  0.6044  0.4259
 2958SOL    HW111829   2.406   8.742   7.382  0.4868  1.6027  0.2142
 2958SOL    HW211830   2.545   8.726   7.324 -0.3372 -1.4893 -1.1309
 2959SOL     OW11831   3.819  10.621   5.875 -0.1780  0.3980  0.0142
 2959SOL    HW111832   3.748  10.684   5.888  0.1652  0.8437 -0.2492
 2959SOL    HW211833   3.783  10.559   5.811 -0.4490  0.4310  0.1317
 2960SOL     OW11834   9.428   6.691  10.673 -0.2253 -0.5838  0.1958
 2960SOL    HW111835   9.376   6.771  10.676  0.6629  0.0095  0.3589
 2960SOL    HW211836   9.389   6.639  10.603  0.9636  1.2650 -1.9728
 2961SOL     OW11837   5.618   1.417   0.125  0.3482 -0.0987  0.6849
 2961SOL    HW111838   5.537   1.368   0.143 -0.1658  0.8203  0.9431
 2961SOL    HW211839   5.634   1.402   0.032  0.0263 -0.5037  0.6898
 2962SOL     OW11840  10.067  10.199   9.285 -0.3248 -0.3746  0.1589
 2962SOL    HW111841  10.069  10.139   9.210 -1.6355 -1.4483  0.9411
 2962SOL    HW211842  10.032  10.147   9.356  1.0429  0.5844  1.6022
 2963SOL     OW11843   1.531   2.118   0.468 -0.1373 -0.5833 -0.4641
 2963SOL    HW111844   1.465   2.172   0.425  2.4722  1.0212 -2.8468
 2963SOL    HW211845   1.551   2.165   0.549 -3.0100 -2.0517  1.2637
 2964SOL     OW11846   0.883   8.701   2.601 -0.1170  0.3040  0.6056
 2964SOL    HW111847   0.899   8.722   2.509 -0.7201  1.6318  0.7784
 2964SOL    HW211848   0.954   8.642   2.626  0.7267  0.8977 -0.3826
 2965SOL     OW11849   5.784   2.135   4.484 -0.3761  0.1905  0.1702
 2965SOL    HW111850   5.847   2.063   4.485 -0.8328 -0.2133  1.0124
 2965SOL    HW211851   5.789   2.172   4.572 -0.6490  0.7378 -0.0431
 2966SOL     OW11852   7.759   0.097   6.631  0.1146 -0.1423  0.4356
 2966SOL    HW111853   7.841   0.133   6.597 -0.7055  0.9185 -0.5004
 2966SOL    HW211854   7.757   0.007   6.598  0.3185  0.2256 -0.6257
 2967SOL     OW11855   9.698   9.943  10.030  0.1405 -0.1055  0.2251
 2967SOL    HW111856   9.663  10.019  10.077 -1.0136  1.4894 -2.9035
 2967SOL    HW211857   9.622   9.886  10.018  0.4284 -0.5132  0.3396
 2968SOL     OW11858   5.816   6.236   7.344  0.6118 -0.2150 -0.0025
 2968SOL    HW111859   5.755   6.306   7.367  0.3867 -0.4874  0.2344
 2968SOL    HW211860   5.900   6.280   7.335  0.5825  0.0061  0.7046
 2969SOL     OW11861   2.363   0.080   9.233 -0.3592 -0.2496 -1.0424
 2969SOL    HW111862   2.390   0.159   9.186 -1.0563 -1.0832 -2.9487
 2969SOL    HW211863   2.441   0.052   9.280  0.3024  0.7651 -1.5067
 2970SOL     OW11864   9.484   2.699   5.045  0.2788 -0.4748 -0.1307
 2970SOL    HW111865   9.495   2.626   5.107  0.5491 -1.9541 -1.8487
 2970SOL    HW211866   9.555   2.688   4.983  0.7719  1.7359 -0.0430
 2971SOL     OW11867   8.105   4.335   6.565  0.1353  0.6718 -0.7903
 2971SOL    HW111868   8.185   4.307   6.521  1.7691  2.5556  0.7861
 2971SOL    HW211869   8.082   4.260   6.621 -0.0566 -0.4232 -2.2771
 2972SOL     OW11870   7.350   8.886   7.623 -0.2957  0.0902 -0.0679
 2972SOL    HW111871   7.275   8.866   7.679 -0.3327 -1.8670 -0.7477
 2972SOL    HW211872   7.392   8.802   7.608  1.2898  0.9674 -0.7800
 2973SOL     OW11873   5.647  10.330  10.523 -0.2792  0.4674 -0.2329
 2973SOL    HW111874   5.599  10.328  10.606  0.3043  0.2590  0.1089
 2973SOL    HW211875   5.730  10.373  10.545 -1.0044  2.5032 -1.1951
 2974SOL     OW11876   3.158   7.020   1.068 -0.3919  0.4674 -0.2818
 2974SOL    HW111877   3.106   6.994   0.993  2.2077 -1.2327 -1.6625
 2974SOL    HW211878   3.217   7.087   1.035 -0.2925  0.8725  0.6745
 2975SOL     OW11879   1.713   8.258   3.899 -0.1481  0.5095 -0.0442
 2975SOL    HW111880   1.707   8.348   3.867 -2.6522  0.7013  0.7025
 2975SOL    HW211881   1.659   8.207   3.838 -0.5712 -0.0706  0.7946
 2976SOL     OW11882   7.937  10.501  10.180 -0.2634  0.2161 -0.1774
 2976SOL    HW111883   7.944  10.575  10.241  1.1105 -0.4455  0.5193
 2976SOL    HW211884   8.003  10.438  10.211  1.4120  0.3674 -3.0655
 2977SOL     OW11885   5.051   2.250   9.950  0.1518 -0.7508 -0.5285
 2977SOL    HW111886   5.073   2.176  10.006 -1.2435 -1.3264 -0.6975
 2977SOL    HW211887   4.962   2.273   9.974  0.6083  1.0021 -0.3677
 2978SOL     OW11888   2.561   6.852   5.565  0.7833 -0.0520 -0.9684
 2978SOL    HW111889   2.493   6.811   5.511 -1.3154 -0.6256  1.8546
 2978SOL    HW211890   2.641   6.803   5.545 -0.2113 -1.1196 -2.5318
 2979SOL     OW11891   3.484   8.776   6.092  0.1558  0.1633  0.1767
 2979SOL    HW111892   3.521   8.735   6.014  0.9871 -0.7181  0.9939
 2979SOL    HW211893   3.539   8.744   6.164  0.1433  1.8687  0.9968
 2980SOL     OW11894   1.493   9.831   9.102  0.2797  0.5673 -0.4380
 2980SOL    HW111895   1.556   9.760   9.110 -0.9571 -0.3367  2.3591
 2980SOL    HW211896   1.547   9.910   9.098  1.7104 -0.1184  2.4209
 2981SOL     OW11897   3.960   3.020   2.309  0.0529 -0.6381  0.5972
 2981SOL    HW111898   3.948   3.069   2.391 -0.0392  0.1717  0.1068
 2981SOL    HW211899   3.918   3.075   2.242  1.4478 -0.5517 -0.2439
 2982SOL     OW11900   7.061   0.932   8.549  0.0231  0.3433  0.0555
 2982SOL    HW111901   7.085   0.936   8.457 -0.6309 -1.6671 -0.2380
 2982SOL    HW211902   6.972   0.897   8.550  0.2985 -0.4325  1.4704
 2983SOL     OW11903   3.705   5.769   5.770 -0.1836  0.3227 -0.3927
 2983SOL    HW111904   3.649   5.747   5.845 -0.6658  0.5041 -0.6910
 2983SOL    HW211905   3.644   5.777   5.697  0.4546 -1.5237 -1.1876
 2984SOL     OW11906   1.999   2.781   7.906 -0.0922  0.9002  0.1280
 2984SOL    HW111907   1.911   2.749   7.884  0.1332  0.8811 -0.7897
 2984SOL    HW211908   2.053   2.755   7.832  1.3908 -1.7727  1.9667
 2985SOL     OW11909   3.128   0.077   5.507 -0.2002  0.5855 -0.2526
 2985SOL    HW111910   3.051   0.046   5.459  0.1607 -0.4782 -0.1711
 2985SOL    HW211911   3.178  -0.002   5.525 -0.4383  0.8972  2.0927
 2986SOL     OW11912   1.247   3.715   6.090  0.3185  0.3532 -0.4331
 2986SOL    HW111913   1.294   3.786   6.133  0.8501 -0.8905  1.1489
 2986SOL    HW211914   1.166   3.705   6.141  1.7106 -2.2466  1.5388
 2987SOL     OW11915   5.783   6.337   8.742 -0.3381 -0.3751  0.1601
 2987SOL    HW111916   5.797   6.428   8.715 -1.7634 -0.5443 -1.2939
 2987SOL    HW211917   5.850   6.322   8.809  1.6737  0.9231 -1.4219
 2988SOL     OW11918   5.033   5.161  10.072 -0.0471  0.5000 -0.6297
 2988SOL    HW111919   5.097   5.224  10.041 -1.3928  1.6864 -1.1361
 2988SOL    HW211920   4.950   5.190  10.033 -1.0402 -0.4766  0.6425
 2989SOL     OW11921   3.955   1.321   6.703  0.3737  0.3268 -0.0430
 2989SOL    HW111922   3.919   1.310   6.615  0.7609  1.2936 -0.3361
 2989SOL    HW211923   3.879   1.341   6.758  0.1375 -0.2261 -0.1669
 2990SOL     OW11924   9.988   7.049   8.976  0.0977 -0.3321 -0.4790
 2990SOL    HW111925   9.893   7.049   8.982  0.1086 -0.6168 -0.2279
 2990SOL    HW211926  10.009   7.110   8.906 -0.1736  1.3419  0.8445
 2991SOL     OW11927   7.237  10.190   4.305  0.6988 -0.3584 -0.2047
 2991SOL    HW111928   7.172  10.120   4.299 -0.7087  0.6251  2.2095
 2991SOL    HW211929   7.306  10.153   4.360  1.0608 -0.5803 -0.7944
 2992SOL     OW11930   6.933   7.071   6.596 -0.2396 -0.4384 -0.6496
 2992SOL    HW111931   6.907   7.116   6.677 -3.0193 -1.3528 -0.9478
 2992SOL    HW211932   6.968   6.987   6.626 -1.2406 -0.7668 -0.3643
 2993SOL     OW11933   0.638   6.794   4.969  0.0278  0.5900 -0.0068
 2993SOL    HW111934   0.695   6.732   5.014 -2.5293 -1.2484  0.9400
 2993SOL    HW211935   0.654   6.779   4.876 -0.6136 -1.6415  0.1963
 2994SOL     OW11936   2.701   8.391   8.935 -0.5912  0.5611 -0.1319
 2994SOL    HW111937   2.784   8.344   8.941 -0.2800  1.2338  1.7645
 2994SOL    HW211938   2.635   8.323   8.922  0.1303 -0.0940 -0.4506
 2995SOL     OW11939   3.280   7.897   4.053 -0.2572  0.3587  0.0908
 2995SOL    HW111940   3.285   7.913   3.959 -0.6497 -2.7853 -0.5650
 2995SOL    HW211941   3.190   7.920   4.077 -0.2827  0.7594 -0.3778
 2996SOL     OW11942   0.055   3.576   3.864  0.5256  0.4014 -0.1226
 2996SOL    HW111943  -0.023   3.552   3.813  1.7234 -0.9910 -1.3726
 2996SOL    HW211944   0.067   3.670   3.848 -1.5190  0.9270  1.0269
 2997SOL     OW11945   8.637   1.951   8.109  0.3376  0.1441  0.2731
 2997SOL    HW111946   8.625   1.890   8.182 -1.9516  0.4120  0.1785
 2997SOL    HW211947   8.709   1.913   8.058  0.7701 -1.0094  1.6769
 2998SOL     OW11948   8.248   0.224   8.938 -0.0733  0.4462  0.0922
 2998SOL    HW111949   8.284   0.160   9.001  0.1775  0.6802  0.1908
 2998SOL    HW211950   8.322   0.283   8.920 -0.4838  1.0992  0.5030
 2999SOL     OW11951   5.064   5.099   0.814  0.4774 -0.3026 -0.3791
 2999SOL    HW111952   5.141   5.106   0.870 -0.5166  1.1771  0.8485
 2999SOL    HW211953   5.092   5.136   0.730  1.7975 -2.0038 -0.7381
 3000SOL     OW11954   5.250   1.554   0.873  0.5191 -0.0342 -0.5221
 3000SOL    HW111955   5.233   1.572   0.965  1.2193 -1.1181 -0.1678
 3000SOL    HW211956   5.338   1.588   0.857  0.9051 -0.9700 -0.4523
 3001SOL     OW11957   4.020   8.342   3.082  0.3751 -0.2706 -0.4193
 3001SOL    HW111958   3.925   8.343   3.073  0.1226  1.8733  1.4913
 3001SOL    HW211959   4.042   8.251   3.103 -1.4586 -0.5023  0.6902
 3002SOL     OW11960   4.108   7.563   0.624  0.6228  0.0673  0.0673
 3002SOL    HW111961   4.081   7.476   0.594  1.0559  0.0244 -0.2220
 3002SOL    HW211962   4.032   7.598   0.670 -0.5136  0.6364 -2.1388
 3003SOL     OW11963   8.151   5.840   1.688 -0.0524  0.4057 -0.2366
 3003SOL    HW111964   8.088   5.875   1.624 -2.2548 -0.9535  1.0637
 3003SOL    HW211965   8.133   5.887   1.769  0.9756  0.3388  0.0491
 3004SOL     OW11966   7.897   0.260   0.230  0.3137 -0.1657 -0.4003
 3004SOL    HW111967   7.865   0.338   0.277  2.2867  0.5583 -0.1330
 3004SOL    HW211968   7.828   0.239   0.168 -0.2960  1.8070 -0.4561
 3005SOL     OW11969   9.681   3.838   8.102 -0.3351  0.1249 -0.0238
 3005SOL    HW111970   9.678   3.860   8.009  1.1293  0.9879  0.0952
 3005SOL    HW211971   9.610   3.775   8.115 -0.9748  0.4892 -1.5832
 3006SOL     OW11972   4.663   0.071   1.367 -0.0343 -0.0359  0.3789
 3006SOL    HW111973   4.604   0.001   1.338  0.7795 -1.8640  2.7975
 3006SOL    HW211974   4.748   0.029   1.375  0.8637  1.6928  0.2794
 3007SOL     OW11975   3.461   1.719   1.098 -0.4300 -0.1227 -0.0629
 3007SOL    HW111976   3.467   1.807   1.134 -2.0207 -0.1721  0.3663
 3007SOL    HW211977   3.539   1.674   1.131 -0.5822  0.5684  1.2679
 3008SOL     OW11978   3.950   8.006   1.358  0.4634 -0.4677 -0.1438
 3008SOL    HW111979   3.892   7.978   1.429  1.7708 -2.2288  0.3145
 3008SOL    HW211980   4.032   8.028   1.402  1.2004 -1.3075 -1.0488
 3009SOL     OW11981   0.104   5.101   2.690 -0.3370 -0.5655  0.2670
 3009SOL    HW111982   0.049   5.027   2.714  0.4754 -1.0356  0.7510
 3009SOL    HW211983   0.146   5.075   2.608 -2.5752  0.7550 -1.4256
 3010SOL     OW11984   1.239   6.079   5.557 -0.0916 -0.9386 -0.0691
 3010SOL    HW111985   1.149   6.055   5.579 -0.1277 -0.7822 -0.0421
 3010SOL    HW211986   1.233   6.171   5.528  0.3475 -0.2767  1.8135
 3011SOL     OW11987   9.720   5.202   7.577  0.1056  0.3016  0.1456
 3011SOL    HW111988   9.749   5.132   7.636 -1.1409 -0.5115 -0.1599
 3011SOL    HW211989   9.626   5.209   7.594  0.2837  2.2672  0.5268
 3012SOL     OW11990   2.924   8.180   9.176 -0.2668 -0.1548 -0.0811
 3012SOL    HW111991   2.992   8.141   9.230 -0.3426 -0.4057 -0.1657
 3012SOL    HW211992   2.959   8.266   9.152 -0.7155  0.4292  1.2885
 3013SOL     OW11993   0.034   0.090   7.487  0.3518 -0.6905  0.0200
 3013SOL    HW111994   0.004   0.162   7.542 -1.5840  0.2651 -2.1118
 3013SOL    HW211995  -0.046   0.040   7.469  1.2520 -1.9659 -0.5241
 3014SOL     OW11996   2.207   2.868   7.247  0.3728 -0.8208 -0.0332
 3014SOL    HW111997   2.239   2.860   7.337  0.9757 -0.1422 -0.1784
 3014SOL    HW211998   2.188   2.778   7.221 -1.1936 -0.9137  1.2543
 3015SOL     OW11999   9.665   0.773   8.190 -0.0898  0.4134  0.2417
 3015SOL    HW112000   9.760   0.769   8.206 -0.3546 -1.6450  1.7378
 3015SOL    HW212001   9.656   0.752   8.097  0.9256  0.8828  0.0222
 3016SOL     OW12002   9.398   7.070   6.978 -0.5149  0.9898 -0.2070
 3016SOL    HW112003   9.348   7.054   6.898  0.3538 -0.9310 -0.4443
 3016SOL    HW212004   9.336   7.112   7.038 -1.5121  1.3982 -1.4945
 3017SOL     OW12005   4.498   6.210   6.425  0.1980  0.1232  0.0051
 3017SOL    HW112006   4.515   6.116   6.432 -0.2456 -0.1866 -2.3289
 3017SOL    HW212007   4.524   6.246   6.511  2.6205 -1.7732  0.1571
 3018SOL     OW12008   0.844   9.000   0.567 -0.5896 -0.1200  0.3370
 3018SOL    HW112009   0.824   8.911   0.540  0.8700 -0.4120  0.0867
 3018SOL    HW212010   0.910   9.030   0.503  1.8929 -0.3018  2.6393
 3019SOL     OW12011   7.837   8.622   9.804 -0.1236  0.0824  0.7048
 3019SOL    HW112012   7.773   8.692   9.813  1.3477  1.6755 -0.4235
 3019SOL    HW212013   7.901   8.639   9.874  0.7287  0.4617 -0.1415
 3020SOL     OW12014   3.625   5.899   1.717 -0.6602 -0.5816  0.1708
 3020SOL    HW112015   3.572   5.819   1.727 -0.5566 -0.7252 -0.3963
 3020SOL    HW212016   3.716   5.868   1.725 -0.6486 -0.3537  1.0194
 3021SOL     OW12017   8.459   3.823   1.088 -0.6655 -0.2920 -0.4704
 3021SOL    HW112018   8.365   3.832   1.075 -0.6674  1.2470  0.4258
 3021SOL    HW212019   8.476   3.729   1.077 -1.9938 -0.3476 -2.4669
 3022SOL     OW12020   2.433   4.292   9.768 -0.7236  0.1107  0.5896
 3022SOL    HW112021   2.464   4.203   9.779  0.4673  0.6484  1.9179
 3022SOL    HW212022   2.340   4.288   9.792 -0.4862 -0.6227  1.4341
 3023SOL     OW12023   2.376   7.141   0.803 -0.0241 -0.0514  0.5336
 3023SOL    HW112024   2.350   7.228   0.774 -0.1468  0.1276  1.1837
 3023SOL    HW212025   2.441   7.113   0.739 -0.9264 -0.0194 -0.4368
 3024SOL     OW12026   2.968  10.551   0.099  0.4064  0.4437 -0.1729
 3024SOL    HW112027   3.057  10.522   0.078 -0.2011 -1.2494 -0.6045
 3024SOL    HW212028   2.942  10.496   0.172 -0.4030  0.7124 -0.2529
 3025SOL     OW12029   4.139   4.781   5.735  0.2613  0.2921 -0.5362
 3025SOL    HW112030   4.233   4.783   5.717  0.2057 -0.4330 -0.9716
 3025SOL    HW212031   4.100   4.838   5.668  0.1933 -1.2492 -1.8852
 3026SOL     OW12032   9.153   4.943   9.245  0.0836  0.1475 -0.6140
 3026SOL    HW112033   9.141   4.870   9.306  0.2003 -0.8344 -1.7238
 3026SOL    HW212034   9.215   5.001   9.289 -1.5650  0.6408  1.1848
 3027SOL     OW12035   0.807   7.937   9.812 -1.0168  0.1351  0.2619
 3027SOL    HW112036   0.777   7.898   9.894 -0.0671  0.1195  0.6182
 3027SOL    HW212037   0.871   8.003   9.839 -0.0566 -0.4522 -0.4882
 3028SOL     OW12038   8.564   1.279   5.619 -0.2824  0.0628 -0.4204
 3028SOL    HW112039   8.651   1.300   5.584 -0.4104  0.5204 -0.4678
 3028SOL    HW212040   8.506   1.286   5.543 -0.3312 -0.4598 -0.4364
 3029SOL     OW12041   5.938   2.188   1.867 -0.8959 -0.1702 -0.3029
 3029SOL    HW112042   5.971   2.106   1.904  2.1692  0.9951 -0.1325
 3029SOL    HW212043   5.864   2.162   1.813 -0.4928 -2.9477  0.3292
 3030SOL     OW12044   6.537   3.377   8.341 -0.0405 -0.0099 -0.0333
 3030SOL    HW112045   6.483   3.312   8.384  0.3188 -0.3897 -0.1452
 3030SOL    HW212046   6.527   3.456   8.394 -0.5799 -0.1178  0.0292
 3031SOL     OW12047   0.008  10.369   0.611  0.4626 -0.4139  0.4651
 3031SOL    HW112048   0.033  10.289   0.565 -0.9927 -1.8910  2.1202
 3031SOL    HW212049   0.058  10.367   0.693 -1.0042 -0.6486  1.3822
 3032SOL     OW12050  10.475   5.240   0.195 -0.0529 -0.3105  0.3040
 3032SOL    HW112051  10.478   5.321   0.247 -1.8327  1.1161 -1.6543
 3032SOL    HW212052  10.567   5.221   0.176  0.5511  0.0145  2.5532
 3033SOL     OW12053   7.688   7.241   2.730  0.8572 -0.8239 -0.3207
 3033SOL    HW112054   7.712   7.170   2.790  2.0574 -1.5942 -1.6421
 3033SOL    HW212055   7.771   7.284   2.710  0.7879 -1.5882 -2.6073
 3034SOL     OW12056   5.503   0.288   9.025 -0.4026  0.1776  0.1169
 3034SOL    HW112057   5.550   0.348   9.083  1.4864  1.0012 -2.0864
 3034SOL    HW212058   5.512   0.202   9.067  2.5801  0.4150  0.1995
 3035SOL     OW12059   1.225   5.597   3.991 -0.3636 -0.1797  0.1245
 3035SOL    HW112060   1.249   5.626   3.903 -1.4224 -2.1678 -0.8985
 3035SOL    HW212061   1.299   5.544   4.021  0.1441  0.7757  0.6081
 3036SOL     OW12062   9.981   3.076   3.302 -0.1179  0.3283 -0.0836
 3036SOL    HW112063   9.913   3.143   3.306 -1.3559 -0.9083  0.6330
 3036SOL    HW212064  10.040   3.098   3.374 -0.4546  0.7297  0.0742
 3037SOL     OW12065   3.156   9.100   3.601 -0.3639 -0.6059 -0.0160
 3037SOL    HW112066   3.227   9.055   3.645 -0.0013 -0.0002  0.0315
 3037SOL    HW212067   3.088   9.109   3.668 -0.0050 -0.1183  0.2896
 3038SOL     OW12068   5.674   7.267   7.104 -0.2336  0.0739 -0.3378
 3038SOL    HW112069   5.691   7.311   7.021  0.5511  0.5287  0.0514
 3038SOL    HW212070   5.580   7.282   7.120 -0.0728  1.2553 -0.4218
 3039SOL     OW12071   0.845   2.293   7.132 -0.0431  0.0014  0.4690
 3039SOL    HW112072   0.924   2.347   7.140  0.2902 -0.3281 -0.4865
 3039SOL    HW212073   0.851   2.231   7.205  0.6422 -0.0864  0.3469
 3040SOL     OW12074   4.680   3.659   1.405 -0.1374  0.4606  0.2578
 3040SOL    HW112075   4.657   3.635   1.494 -1.2318 -0.0000 -0.1388
 3040SOL    HW212076   4.693   3.754   1.409  1.3488  0.2559  1.2115
 3041SOL     OW12077   2.837   7.213   4.954  0.5722 -0.2592 -0.2215
 3041SOL    HW112078   2.802   7.136   4.909 -2.0650  0.9976 -0.4592
 3041SOL    HW212079   2.797   7.211   5.041  2.4862 -0.4642  0.7218
 3042SOL     OW12080   7.916   0.925   5.629 -0.3559 -0.4810 -0.4024
 3042SOL    HW112081   7.987   0.933   5.693  0.9623  1.3239 -1.9744
 3042SOL    HW212082   7.874   0.841   5.649  1.0331 -0.7305  1.7457
 3043SOL     OW12083   1.326   4.288   6.473  0.1198 -0.6199 -0.2617
 3043SOL    HW112084   1.389   4.359   6.466  0.9666 -1.2408  0.7681
 3043SOL    HW212085   1.243   4.327   6.444  0.5858  0.7397  0.1388
 3044SOL     OW12086   1.648   7.256   0.879  0.1423 -0.1462  0.3921
 3044SOL    HW112087   1.743   7.247   0.882  0.1718  0.1681  0.4308
 3044SOL    HW212088   1.624   7.286   0.967 -0.1390 -1.5528  0.8245
 3045SOL     OW12089   4.173   1.000   3.775 -0.5230  0.3740  0.4067
 3045SOL    HW112090   4.134   1.087   3.764 -1.0804 -0.0183 -0.9681
 3045SOL    HW212091   4.202   0.976   3.687  0.0038 -0.6542  0.8538
 3046SOL     OW12092   1.434   8.473   9.065 -0.2263  0.0930 -0.5688
 3046SOL    HW112093   1.529   8.478   9.077 -0.3754  2.5932  0.2065
 3046SOL    HW212094   1.419   8.513   8.979 -0.5994 -0.2399 -0.6612
 3047SOL     OW12095   4.481   8.625   9.228  0.0297 -0.3993 -0.5544
 3047SOL    HW112096   4.432   8.544   9.212 -0.9657  0.0138  0.2740
 3047SOL    HW212097   4.449   8.656   9.313 -0.3155  1.3588 -1.2907
 3048SOL     OW12098   8.495   7.665   9.805 -0.0176  0.3011 -0.2656
 3048SOL    HW112099   8.560   7.734   9.820  0.1868 -0.1578  1.0858
 3048SOL    HW212100   8.543   7.584   9.821 -0.4171 -0.1466 -1.2449
 3049SOL     OW12101   1.038   7.410   1.130  0.3469  0.1739  0.4441
 3049SOL    HW112102   1.081   7.324   1.131 -0.0715 -0.0510 -0.1810
 3049SOL    HW212103   1.091   7.462   1.070  0.3180  0.2059  0.4464
 3050SOL     OW12104   5.225   2.909   6.960 -0.1977  0.0370  0.0407
 3050SOL    HW112105   5.296   2.973   6.952  0.2641 -0.5448 -0.6982
 3050SOL    HW212106   5.247   2.859   7.038  0.2835 -0.2303 -0.2637
 3051SOL     OW12107   6.993   6.211   7.056 -0.3757  0.8284  0.3166
 3051SOL    HW112108   6.973   6.295   7.016 -1.1003  0.2586 -0.5569
 3051SOL    HW212109   6.994   6.149   6.983 -0.6303 -0.0550  1.0359
 3052SOL     OW12110   7.334   2.736   4.968 -0.4222  0.2188 -0.6384
 3052SOL    HW112111   7.323   2.647   5.004 -0.1002  1.0269  1.5898
 3052SOL    HW212112   7.427   2.742   4.947 -0.0708  0.5864  0.9013
 3053SOL     OW12113   0.192   4.837   6.933  0.0250 -0.3661  0.2721
 3053SOL    HW112114   0.267   4.884   6.894  0.0297 -1.4381 -1.1160
 3053SOL    HW212115   0.167   4.889   7.008 -0.3004  2.1585 -1.4750
 3054SOL     OW12116   9.741   8.350   2.983  0.1914 -0.3573  0.2622
 3054SOL    HW112117   9.771   8.437   2.958  1.9939 -1.3242 -1.1218
 3054SOL    HW212118   9.655   8.342   2.942  0.3847  0.4423 -0.3250
 3055SOL     OW12119   8.493   7.081   2.223 -0.4263 -0.4467 -0.5401
 3055SOL    HW112120   8.559   7.099   2.290 -0.2319 -1.1389 -0.5461
 3055SOL    HW212121   8.519   7.136   2.149  0.2234 -0.8212 -0.5903
 3056SOL     OW12122   1.733   0.858   8.654 -0.1689  0.4620  0.3875
 3056SOL    HW112123   1.690   0.775   8.633  1.6077 -0.6518  0.9589
 3056SOL    HW212124   1.679   0.896   8.724 -2.0106  0.7141 -1.0816
 3057SOL     OW12125   5.296   0.613   0.133  0.9404  0.0559  0.3698
 3057SOL    HW112126   5.259   0.698   0.158  2.6441  0.6056  1.1788
 3057SOL    HW212127   5.226   0.550   0.151 -1.0045  1.4115 -1.8792
 3058SOL     OW12128   5.353   5.419   1.327  0.5417 -0.6652 -1.1839
 3058SOL    HW112129   5.374   5.326   1.326  1.0938 -0.7592  2.7851
 3058SOL    HW212130   5.438   5.463   1.321  0.8654 -0.6796  1.8146
 3059SOL     OW12131   5.843  10.158   9.803 -0.0217 -0.6489 -0.0229
 3059SOL    HW112132   5.803  10.158   9.890  3.0320 -0.9849  1.5176
 3059SOL    HW212133   5.878  10.069   9.793 -1.4290 -1.0289 -2.2206
 3060SOL     OW12134   3.783   4.516   2.530  0.0309 -0.6988 -0.4409
 3060SOL    HW112135   3.693   4.548   2.529 -0.0827 -1.0013 -0.0503
 3060SOL    HW212136   3.778   4.431   2.573  0.8171  0.2515  1.6234
 3061SOL     OW12137   3.729   9.314   7.753  0.6378 -0.0582  0.2688
 3061SOL    HW112138   3.669   9.311   7.828 -1.6943 -4.6007 -1.4070
 3061SOL    HW212139   3.794   9.247   7.772  1.7855  0.7784 -0.5590
 3062SOL     OW12140   3.554   2.211   7.194  0.1482  0.1945  0.5330
 3062SOL    HW112141   3.490   2.159   7.144 -0.5600  0.7227  0.8870
 3062SOL    HW212142   3.518   2.215   7.282  0.4783  0.8182  0.6405
 3063SOL     OW12143   3.188   9.810   5.449 -0.2448 -0.1024 -0.0218
 3063SOL    HW112144   3.128   9.788   5.378 -0.4071 -0.3512  0.1917
 3063SOL    HW212145   3.260   9.748   5.439 -0.9675 -1.1421  0.9209
 3064SOL     OW12146   9.069   1.564   6.958  0.0063  0.2024  0.3149
 3064SOL    HW112147   9.040   1.567   6.867  0.1451 -0.0905  0.2604
 3064SOL    HW212148   8.989   1.575   7.010 -0.1967 -0.5731  0.1673
 3065SOL     OW12149   3.617   2.250   2.371  0.2043 -0.2961 -0.7710
 3065SOL    HW112150   3.618   2.179   2.307 -0.4403 -0.6620 -0.3767
 3065SOL    HW212151   3.709   2.275   2.379  0.6965 -2.2290  0.3320
 3066SOL     OW12152   2.558   6.816   2.320  0.1850 -0.1982 -0.1852
 3066SOL    HW112153   2.549   6.784   2.409 -0.2233 -0.2075 -0.2270
 3066SOL    HW212154   2.592   6.742   2.270 -1.4180 -0.8133 -0.4276
 3067SOL     OW12155   2.092   7.578   7.300 -0.3212  0.1259 -0.4697
 3067SOL    HW112156   2.079   7.631   7.221  0.3761 -0.8471 -1.2664
 3067SOL    HW212157   2.060   7.491   7.275 -1.9212  0.2451  0.9715
 3068SOL     OW12158   4.982   1.429   1.287  0.7592 -0.0389  0.0395
 3068SOL    HW112159   4.904   1.467   1.247  1.7183  2.7275  0.5758
 3068SOL    HW212160   5.055   1.467   1.239  1.8788  1.9657  3.0236
 3069SOL     OW12161   1.933  10.531   0.956  0.0504  0.4506 -0.1247
 3069SOL    HW112162   1.882  10.600   0.998 -0.1325 -0.0902  0.5621
 3069SOL    HW212163   1.995  10.578   0.900 -1.2704  1.1183 -1.0872
 3070SOL     OW12164   2.026   4.444   5.534 -0.4405  0.0813 -0.3074
 3070SOL    HW112165   2.105   4.398   5.563 -0.4215  0.2594 -0.0704
 3070SOL    HW212166   2.047   4.477   5.446 -0.8068 -1.2179 -0.9007
 3071SOL     OW12167   2.146   1.564   8.984  0.2207 -0.1965 -0.0940
 3071SOL    HW112168   2.205   1.635   8.959 -0.3360  0.1460 -0.4748
 3071SOL    HW212169   2.110   1.533   8.901 -1.2546  0.5995  0.2171
 3072SOL     OW12170   7.899   0.575   8.738 -0.2041  0.0840  0.1282
 3072SOL    HW112171   7.958   0.532   8.800 -0.9857 -1.5597 -0.2207
 3072SOL    HW212172   7.953   0.591   8.661  0.4675  1.0934  0.7736
 3073SOL     OW12173   0.246  10.675   5.276 -0.6298  0.0731  0.3258
 3073SOL    HW112174   0.265  10.618   5.351 -0.8818  0.6531  0.8326
 3073SOL    HW212175   0.332  10.706   5.247 -0.4065 -1.1964 -0.4726
 3074SOL     OW12176   4.380   0.370   0.436 -0.2847  0.2152  0.1203
 3074SOL    HW112177   4.304   0.428   0.429 -0.0873  0.7736  2.0078
 3074SOL    HW212178   4.448   0.414   0.384 -1.3270 -0.5271 -1.9734
 3075SOL     OW12179   3.579   1.975   5.298 -0.1569  0.2284  0.0080
 3075SOL    HW112180   3.545   2.040   5.359  0.4567  0.6021 -0.0412
 3075SOL    HW212181   3.663   1.949   5.335 -0.9689 -1.5119  0.7215
 3076SOL     OW12182   5.703   5.897   5.101 -0.6239 -0.3961 -0.1373
 3076SOL    HW112183   5.639   5.848   5.050 -0.3914  0.5921 -1.3995
 3076SOL    HW212184   5.759   5.939   5.036  0.2379  0.1701  0.9387
 3077SOL     OW12185   3.334   3.068   8.369 -0.2671 -0.2961 -0.0299
 3077SOL    HW112186   3.399   3.108   8.311 -0.3972  0.2075  0.1620
 3077SOL    HW212187   3.385   3.029   8.440 -0.2021  1.0911  0.7311
 3078SOL     OW12188   5.159   3.638   8.019 -0.0076  0.3201  0.0646
 3078SOL    HW112189   5.235   3.610   7.968 -0.0792  0.6472 -0.2293
 3078SOL    HW212190   5.108   3.692   7.958 -1.5467 -1.5631 -0.4363
 3079SOL     OW12191   6.318   1.877   9.554  0.0501  0.2695 -0.1000
 3079SOL    HW112192   6.254   1.947   9.541 -0.7194 -0.3851  0.0850
 3079SOL    HW212193   6.363   1.901   9.636  0.7835  1.2735 -0.7659
 3080SOL     OW12194   3.874   1.577   3.025  0.9461  0.2713 -0.8099
 3080SOL    HW112195   3.933   1.568   3.100 -0.9793  0.1745  0.7743
 3080SOL    HW212196   3.792   1.537   3.054 -0.9096  3.1036 -1.7194
 3081SOL     OW12197   2.083   2.956   5.617 -0.2331 -0.2576  0.4225
 3081SOL    HW112198   2.015   2.889   5.616  0.8591 -1.4060 -0.7150
 3081SOL    HW212199   2.068   3.008   5.538  0.5066 -0.8630 -0.1358
 3082SOL     OW12200   7.704   1.839   1.807 -0.4881  0.0050  0.2669
 3082SOL    HW112201   7.732   1.759   1.852  3.5966  0.9116 -0.2472
 3082SOL    HW212202   7.747   1.834   1.722 -0.5476  2.5224  0.0194
 3083SOL     OW12203  10.082   5.522   4.148  0.3154 -0.0002 -0.2454
 3083SOL    HW112204  10.171   5.556   4.147  0.2281  0.5114 -3.7472
 3083SOL    HW212205  10.028   5.594   4.115 -0.8266 -1.3958 -1.6131
 3084SOL     OW12206   8.219   0.444   7.007  0.2034  0.5606 -0.8904
 3084SOL    HW112207   8.263   0.468   7.089 -1.9888 -1.9261  1.1787
 3084SOL    HW212208   8.172   0.523   6.981 -2.1048  0.4596  2.4288
 3085SOL     OW12209   3.587   0.964   7.237 -0.3188  0.1045  0.4138
 3085SOL    HW112210   3.616   0.971   7.328  0.4494 -1.8304  0.3421
 3085SOL    HW212211   3.491   0.975   7.242 -0.1796  1.2015  1.2702
 3086SOL     OW12212   8.133   3.326   0.254 -0.1693 -0.0995 -0.6104
 3086SOL    HW112213   8.135   3.378   0.335 -2.8549 -0.4212 -0.2692
 3086SOL    HW212214   8.113   3.390   0.185 -0.1590 -0.1866 -0.6939
 3087SOL     OW12215   4.047   2.932  10.326 -0.0782  0.4327 -0.1872
 3087SOL    HW112216   4.018   3.022  10.309 -0.4709  0.0968 -1.3401
 3087SOL    HW212217   4.111   2.913  10.258  3.1441  1.1919  2.3342
 3088SOL     OW12218   2.820   7.375  10.035  0.2898 -0.6299 -0.6001
 3088SOL    HW112219   2.866   7.318   9.974 -1.5960 -1.5011 -1.3076
 3088SOL    HW212220   2.731   7.338  10.040 -0.5501  1.3362  0.1516
 3089SOL     OW12221   4.352   6.885   8.794  0.1427  0.2124  0.1167
 3089SOL    HW112222   4.386   6.927   8.715  0.1177 -0.0239 -0.0199
 3089SOL    HW212223   4.355   6.791   8.775  0.3182  0.1448  0.4699
 3090SOL     OW12224   3.034   8.247   2.452 -0.5232  0.3648  0.2109
 3090SOL    HW112225   3.090   8.235   2.529 -0.9978  0.8905  0.6457
 3090SOL    HW212226   2.971   8.314   2.478 -1.3798 -0.2347 -0.2649
 3091SOL     OW12227  10.125   3.385  10.367 -0.0195  0.4240 -0.0609
 3091SOL    HW112228  10.126   3.402  10.461 -0.2357  2.3208 -0.3559
 3091SOL    HW212229  10.048   3.330  10.354 -0.5696  0.9707  0.7594
 3092SOL     OW12230   2.992   6.422   4.933 -0.0825  0.3496 -0.1621
 3092SOL    HW112231   2.929   6.392   4.867  0.7844  0.3043 -1.0003
 3092SOL    HW212232   3.071   6.372   4.914  0.3565  0.7631  0.5564
 3093SOL     OW12233   4.262   4.734   2.431 -0.6880  0.3960  0.1411
 3093SOL    HW112234   4.227   4.821   2.411 -1.1070  0.5506  1.4515
 3093SOL    HW212235   4.199   4.696   2.492  0.7255  0.1298  1.4984
 3094SOL     OW12236   5.708   2.240   3.610  0.1540 -0.2970  0.8579
 3094SOL    HW112237   5.692   2.149   3.582 -1.4152  0.1686  0.1243
 3094SOL    HW212238   5.697   2.291   3.530  1.6341  0.5037  1.1469
 3095SOL     OW12239  10.078   7.975   1.648  0.2796 -0.4574  0.4044
 3095SOL    HW112240  10.145   7.973   1.716  1.1363 -1.8117 -0.4184
 3095SOL    HW212241  10.127   7.968   1.566 -0.7440  0.8805 -0.3523
 3096SOL     OW12242   7.254   8.441   5.453  0.0388 -0.4875  0.4961
 3096SOL    HW112243   7.274   8.531   5.479  1.1214 -0.6594  0.3124
 3096SOL    HW212244   7.251   8.392   5.535 -0.3953 -0.3248  0.5831
 3097SOL     OW12245   5.839   9.874   6.715 -0.1139 -0.1228  0.3862
 3097SOL    HW112246   5.809   9.819   6.787  2.3138 -1.9981  0.1072
 3097SOL    HW212247   5.807   9.830   6.636 -0.6895  0.5555  0.2334
 3098SOL     OW12248   3.914   5.433  10.440  0.2271  0.3442 -0.4376
 3098SOL    HW112249   3.900   5.348  10.398  0.3556  0.2452 -0.2784
 3098SOL    HW212250   3.881   5.422  10.529  0.1446  0.4935 -0.4501
 3099SOL     OW12251   0.473   4.085   8.887  0.1578 -0.3523  0.3108
 3099SOL    HW112252   0.446   4.176   8.886 -0.0617 -0.4200 -0.2230
 3099SOL    HW212253   0.449   4.053   8.974 -0.0249  0.0195  0.3949
 3100SOL     OW12254   2.169  10.313   3.414 -0.1235 -0.0519  0.0920
 3100SOL    HW112255   2.155  10.383   3.350 -0.8028  1.1152  1.4518
 3100SOL    HW212256   2.234  10.256   3.373  1.2824  1.9482 -0.6582
 3101SOL     OW12257   7.743   8.727   4.405  0.0116 -0.1588 -0.2446
 3101SOL    HW112258   7.755   8.632   4.401  1.1803 -0.0453  0.1669
 3101SOL    HW212259   7.673   8.740   4.468 -1.6992 -0.8210 -1.9097
 3102SOL     OW12260   1.606   6.999  10.074 -0.4393 -0.2400 -0.4311
 3102SOL    HW112261   1.564   6.991   9.989 -0.1208  0.0663 -0.6187
 3102SOL    HW212262   1.538   6.974  10.137 -1.0084  0.5577 -0.7044
 3103SOL     OW12263   6.408   6.362   4.653  0.5896  0.4441  0.8691
 3103SOL    HW112264   6.434   6.426   4.720 -2.7549  2.2117  0.7219
 3103SOL    HW212265   6.317   6.384   4.634  0.4403 -2.0449 -2.0034
 3104SOL     OW12266   7.000   3.530   3.727 -0.0026  0.5842  0.0514
 3104SOL    HW112267   6.933   3.480   3.680 -0.9283 -0.0094  1.9017
 3104SOL    HW212268   7.033   3.470   3.794 -2.2064  2.7269  3.3508
 3105SOL     OW12269   4.688   6.456   0.842 -0.5515  0.3745 -0.5388
 3105SOL    HW112270   4.654   6.510   0.770 -0.6411 -0.3706 -1.0682
 3105SOL    HW212271   4.782   6.451   0.825 -0.5970  0.0623 -0.6965
 3106SOL     OW12272   4.396  10.488   1.062  0.1186 -0.3118 -0.3104
 3106SOL    HW112273   4.358  10.411   1.021 -1.1119  0.4559 -0.6592
 3106SOL    HW212274   4.416  10.547   0.989  2.1357 -0.7244 -0.1519
 3107SOL     OW12275   2.471   1.749   5.785 -0.4246 -0.1496  0.3086
 3107SOL    HW112276   2.520   1.668   5.777  1.6230  0.9349  1.2713
 3107SOL    HW212277   2.436   1.764   5.697  0.2717 -1.3738 -0.1996
 3108SOL     OW12278  10.365   4.453   8.008  0.4880  0.0107 -0.3015
 3108SOL    HW112279  10.297   4.404   8.053  0.5235 -1.6803 -1.9801
 3108SOL    HW212280  10.409   4.502   8.077 -1.6270  0.2251  0.9922
 3109SOL     OW12281   2.935   6.757   4.792  0.2050 -0.5561  0.6871
 3109SOL    HW112282   3.005   6.818   4.770  0.2113 -0.6367  0.4821
 3109SOL    HW212283   2.930   6.697   4.717 -0.1643 -0.4752  0.6435
 3110SOL     OW12284   1.676   7.117   8.659 -0.5369  1.1416  0.5592
 3110SOL    HW112285   1.616   7.130   8.732 -1.3626 -0.5769  0.2187
 3110SOL    HW212286   1.733   7.045   8.686  0.2472  1.6015  0.1754
 3111SOL     OW12287   0.788   4.454   8.982 -0.4013  0.0395 -0.1696
 3111SOL    HW112288   0.762   4.373   9.026 -0.4478  0.9428  1.5217
 3111SOL    HW212289   0.715   4.514   8.995 -0.9734 -0.0075 -2.5952
 3112SOL     OW12290   1.143   5.638   8.430 -1.0030 -0.4194 -0.1639
 3112SOL    HW112291   1.155   5.576   8.358  1.4799 -1.8780  1.3623
 3112SOL    HW212292   1.134   5.723   8.387 -0.6770 -1.3583 -2.2067
 3113SOL     OW12293   3.976   8.203   9.212  0.0908 -0.6976 -0.9197
 3113SOL    HW112294   4.002   8.139   9.145 -1.5445 -2.4008 -0.0148
 3113SOL    HW212295   4.027   8.179   9.289 -0.3709 -0.7712 -0.6364
 3114SOL     OW12296   2.836   3.571   4.904  0.6324 -0.2257 -0.5426
 3114SOL    HW112297   2.811   3.663   4.901  1.6920  0.0496 -2.2206
 3114SOL    HW212298   2.758   3.525   4.935 -0.1462  1.1511 -0.4032
 3115SOL     OW12299   9.663   5.099   9.632  0.7656  0.0627 -0.4729
 3115SOL    HW112300   9.620   5.022   9.669  1.1704  0.4249  0.8344
 3115SOL    HW212301   9.756   5.086   9.652  0.8989  0.6377 -0.7030
 3116SOL     OW12302   2.184   5.056   4.402 -0.4227 -0.1661  0.1503
 3116SOL    HW112303   2.174   4.964   4.425 -0.8019 -0.1504  0.0677
 3116SOL    HW212304   2.212   5.099   4.483 -0.4560 -0.3191  0.2432
 3117SOL     OW12305   4.203   3.020   1.519 -0.1191 -0.1922 -0.4211
 3117SOL    HW112306   4.227   3.072   1.595 -1.9574 -1.6659  1.2489
 3117SOL    HW212307   4.158   3.081   1.461 -2.0421  0.2171  1.3899
 3118SOL     OW12308   7.942   5.866   1.990 -0.5880  0.3284  0.1612
 3118SOL    HW112309   7.916   5.814   1.914 -0.7414  1.3713 -0.5073
 3118SOL    HW212310   7.994   5.938   1.955  2.6619 -1.2109  1.3684
 3119SOL     OW12311   9.531   9.422   0.985 -0.2448  0.0593 -0.3639
 3119SOL    HW112312   9.538   9.502   1.037  1.1684  0.0312 -0.4551
 3119SOL    HW212313   9.619   9.384   0.989 -0.8859 -1.4810 -0.3472
 3120SOL     OW12314   3.463   4.850   6.071  0.0808  0.0945  0.0135
 3120SOL    HW112315   3.470   4.896   6.155  0.8650  0.7186 -0.3830
 3120SOL    HW212316   3.443   4.759   6.095 -0.9781  0.5282  0.8237
 3121SOL     OW12317   0.927   9.234   1.481  0.4021  0.1629  0.4493
 3121SOL    HW112318   0.863   9.224   1.411  0.4042 -0.4868  0.5327
 3121SOL    HW212319   1.011   9.216   1.439  0.3218 -1.1932  0.8032
 3122SOL     OW12320   2.217   0.485   9.120  0.2724  0.7786 -0.2588
 3122SOL    HW112321   2.280   0.424   9.157  0.1742  0.9426  0.1953
 3122SOL    HW212322   2.196   0.544   9.193 -2.0522 -0.5837  0.3010
 3123SOL     OW12323   9.381   7.637   5.596  0.4102  0.7389  0.3413
 3123SOL    HW112324   9.377   7.570   5.664 -0.3402 -0.5956 -0.9458
 3123SOL    HW212325   9.452   7.695   5.623  0.7681 -0.2960  1.7476
 3124SOL     OW12326   6.186   6.122   6.385 -0.0098 -0.4245  0.2454
 3124SOL    HW112327   6.173   6.047   6.443 -1.7596 -0.5246 -0.2394
 3124SOL    HW212328   6.106   6.127   6.333  1.0024  0.4206 -1.3088
 3125SOL     OW12329   6.761   5.099  10.684 -0.3579 -0.0332 -0.3411
 3125SOL    HW112330   6.697   5.143  10.628 -0.6512 -0.9830 -0.7745
 3125SOL    HW212331   6.756   5.007  10.658  0.5058 -0.2680  0.2862
 3126SOL     OW12332   2.354   4.675   9.175  0.5993  0.4332 -0.0694
 3126SOL    HW112333   2.395   4.739   9.117 -0.0824  2.8139  1.9013
 3126SOL    HW212334   2.428   4.624   9.210  1.1616  0.1084 -1.6401
 3127SOL     OW12335   9.904   1.541   9.376  0.1494 -0.5513 -0.5750
 3127SOL    HW112336   9.889   1.465   9.320  0.1293  0.3391 -1.8079
 3127SOL    HW212337   9.995   1.566   9.359 -0.2618  0.5303 -1.2370
 3128SOL     OW12338   1.908   7.094   7.143 -0.3218  0.5749 -0.5563
 3128SOL    HW112339   1.859   7.111   7.223  0.0930  2.4604 -0.6411
 3128SOL    HW212340   1.978   7.034   7.170 -1.8631 -1.1492 -0.1807
 3129SOL     OW12341   2.512   1.314   8.254  0.2460 -0.0911 -0.1227
 3129SOL    HW112342   2.508   1.347   8.343 -1.8652 -2.4660  0.8061
 3129SOL    HW212343   2.500   1.219   8.263  2.0690 -0.7008 -2.8071
 3130SOL     OW12344   9.971   3.326   8.344  0.5229 -0.0043 -0.1061
 3130SOL    HW112345   9.934   3.239   8.327  1.2936 -0.1579 -1.0754
 3130SOL    HW212346  10.064   3.310   8.356  0.3801  0.4303  1.9047
 3131SOL     OW12347   6.468   7.768   5.770  0.4788  0.2896 -0.1167
 3131SOL    HW112348   6.488   7.837   5.706 -1.5569  1.6198  0.5727
 3131SOL    HW212349   6.484   7.810   5.855 -0.1764 -0.2901  0.3008
 3132SOL     OW12350   0.787   3.706   6.653 -0.5676  0.1852 -0.2087
 3132SOL    HW112351   0.695   3.686   6.636 -0.5127 -0.4060  0.1622
 3132SOL    HW212352   0.788   3.746   6.740 -0.4532  0.0021 -0.1243
 3133SOL     OW12353   4.984   5.223   7.921 -0.2349 -0.4483  0.4487
 3133SOL    HW112354   4.901   5.268   7.938  0.2125  0.3366  0.6324
 3133SOL    HW212355   5.046   5.294   7.903  0.4243 -1.0166  0.4389
 3134SOL     OW12356   6.875   6.158   4.547 -0.1639 -0.1195 -0.1140
 3134SOL    HW112357   6.937   6.225   4.576  0.9658 -1.0107 -0.3886
 3134SOL    HW212358   6.791   6.204   4.540  0.5195  1.1880  0.0041
 3135SOL     OW12359   5.844   3.469   2.650  0.6427  0.1667 -0.0518
 3135SOL    HW112360   5.855   3.427   2.565  3.0233 -0.0946  0.3030
 3135SOL    HW212361   5.834   3.397   2.712 -1.0847  0.3560 -0.0533
 3136SOL     OW12362   8.731   7.131   8.931  0.5369  0.7027  0.3299
 3136SOL    HW112363   8.738   7.117   9.025  1.2059 -0.8275  0.0837
 3136SOL    HW212364   8.648   7.176   8.919 -0.4313 -0.6842  1.5106
 3137SOL     OW12365  10.604   4.267   5.779 -0.5461 -0.2534 -0.0391
 3137SOL    HW112366  10.692   4.276   5.815 -0.6456  1.6743 -0.1840
 3137SOL    HW212367  10.604   4.181   5.737  1.2619 -0.2987 -0.0190
 3138SOL     OW12368   7.689   5.653   9.545 -0.6357 -0.4067  0.6099
 3138SOL    HW112369   7.732   5.662   9.460  0.6471  0.0008  1.2735
 3138SOL    HW212370   7.760   5.658   9.609 -1.4920 -1.3771  1.6944
 3139SOL     OW12371   5.438   1.781   3.458 -0.2589 -0.1328 -0.9948
 3139SOL    HW112372   5.365   1.790   3.519  0.0411 -1.4127 -0.4150
 3139SOL    HW212373   5.405   1.726   3.388  0.5183 -1.9056 -0.0311
 3140SOL     OW12374   1.225   5.136   9.982 -0.3012 -0.3535  0.1195
 3140SOL    HW112375   1.295   5.186  10.026  0.7469 -0.7433 -1.0539
 3140SOL    HW212376   1.178   5.093  10.054  0.9705 -0.4711  0.9200
 3141SOL     OW12377   7.984   7.474   0.030  0.0231  0.6608  0.0122
 3141SOL    HW112378   7.946   7.418   0.098 -0.9686  1.1538 -0.1240
 3141SOL    HW212379   7.987   7.561   0.069 -0.4624  0.9266 -0.5367
 3142SOL     OW12380   3.147   8.311   9.818  0.0755  0.8560  0.1010
 3142SOL    HW112381   3.051   8.310   9.821 -0.0928  0.2703 -2.9027
 3142SOL    HW212382   3.173   8.238   9.874 -1.2385  0.8291  0.7014
 3143SOL     OW12383   0.337  10.658   0.628 -0.0610  0.3318  0.5074
 3143SOL    HW112384   0.304  10.625   0.712 -0.6602 -1.4197 -0.3564
 3143SOL    HW212385   0.271  10.722   0.600 -0.7984 -0.3873  0.5523
 3144SOL     OW12386   1.355   0.963   4.108  0.1142 -0.3667  0.3800
 3144SOL    HW112387   1.261   0.981   4.114  0.2264 -0.0704  1.3582
 3144SOL    HW212388   1.383   0.948   4.198  1.1434  0.2321  0.1777
 3145SOL     OW12389   6.585   8.094   2.039 -0.4912 -0.0586 -0.1279
 3145SOL    HW112390   6.569   8.011   2.085 -2.9988  0.0394 -0.6462
 3145SOL    HW212391   6.652   8.074   1.974 -0.6902 -1.5595  0.0945
 3146SOL     OW12392   8.093   8.714   1.208  0.2764 -0.6136  0.1208
 3146SOL    HW112393   8.167   8.661   1.177  1.0815  0.5874 -0.0675
 3146SOL    HW212394   8.131   8.775   1.270 -0.4877  0.2733 -0.2572
 3147SOL     OW12395   0.566   0.519   1.401  0.0015 -0.7813  0.3332
 3147SOL    HW112396   0.609   0.448   1.448  0.1984  0.9624  2.9928
 3147SOL    HW212397   0.497   0.550   1.460 -0.8835  0.4719 -1.2446
 3148SOL     OW12398   1.389   6.770   3.934 -0.1454 -0.3243 -0.2425
 3148SOL    HW112399   1.457   6.727   3.986  0.0492 -0.6541 -0.7589
 3148SOL    HW212400   1.307   6.733   3.967 -0.0002 -0.8110 -0.4192
 3149SOL     OW12401   0.492   2.504   5.978  0.7673  0.6416  0.1245
 3149SOL    HW112402   0.516   2.586   6.020  1.8516  1.4027 -1.8310
 3149SOL    HW212403   0.540   2.504   5.895  1.6172 -2.4410  0.4787
 3150SOL     OW12404   4.516   6.432   4.511 -0.2650 -0.9765 -0.0771
 3150SOL    HW112405   4.579   6.387   4.455  1.5125  0.7758  0.3760
 3150SOL    HW212406   4.505   6.518   4.472 -1.9092 -0.9955  0.2479
 3151SOL     OW12407   7.539   8.774   4.599 -0.2990  0.0450  0.1972
 3151SOL    HW112408   7.462   8.814   4.559  0.0461 -0.1701 -0.7175
 3151SOL    HW212409   7.513   8.755   4.689 -1.2217  0.2194 -0.0258
 3152SOL     OW12410  10.566   0.769   2.446  0.3062 -0.1302 -0.0011
 3152SOL    HW112411  10.595   0.789   2.536  3.9930 -0.7037 -0.8731
 3152SOL    HW212412  10.539   0.854   2.411 -0.0706  0.3073  1.2731
 3153SOL     OW12413   8.034   5.525   6.602  0.4868 -0.1310 -0.7943
 3153SOL    HW112414   7.989   5.464   6.544  0.0939 -0.2071 -0.4185
 3153SOL    HW212415   7.995   5.509   6.688  1.5358 -0.5028 -0.3729
 3154SOL     OW12416   3.114   6.058   0.363 -0.2119 -0.2779  0.7155
 3154SOL    HW112417   3.180   6.060   0.432  0.1349  0.5356  0.3720
 3154SOL    HW212418   3.161   6.032   0.284  0.0758  1.7722  0.1272
 3155SOL     OW12419   2.509   2.389   7.500 -0.1587  1.3172  0.4481
 3155SOL    HW112420   2.435   2.334   7.474  1.5509 -0.3228 -1.3026
 3155SOL    HW212421   2.527   2.442   7.422  1.8448  0.0756  0.0003
 3156SOL     OW12422   5.087   1.510   4.905  0.4675 -0.4005 -0.7608
 3156SOL    HW112423   5.154   1.472   4.848 -0.3908 -2.3939 -0.5207
 3156SOL    HW212424   5.117   1.491   4.993  1.8142  2.7222 -0.4315
 3157SOL     OW12425   0.171   7.168   0.757  0.0141 -0.1436 -0.1824
 3157SOL    HW112426   0.136   7.241   0.706 -0.3882 -0.2786 -0.1031
 3157SOL    HW212427   0.248   7.140   0.709  1.1790  1.4312  0.6829
 3158SOL     OW12428   4.707   0.163   3.228  0.4339  0.2431  0.6882
 3158SOL    HW112429   4.665   0.144   3.145  1.2324 -0.4026  0.4139
 3158SOL    HW212430   4.637   0.157   3.293 -0.0968  0.2700  0.1233
 3159SOL     OW12431  10.541   7.993   1.216 -0.0505  0.2066  0.1320
 3159SOL    HW112432  10.545   7.960   1.306  0.7964 -0.9382 -0.2959
 3159SOL    HW212433  10.515   8.085   1.225  0.6997  0.3047  1.5906
 3160SOL     OW12434   0.276   7.281   3.515  0.3380  0.1533  0.0690
 3160SOL    HW112435   0.212   7.345   3.485  0.5613  0.7327  0.8174
 3160SOL    HW212436   0.229   7.225   3.576 -0.0849 -0.9568 -1.2127
 3161SOL     OW12437   7.371   6.221   8.044 -0.0140 -0.5453  0.2302
 3161SOL    HW112438   7.406   6.296   8.092 -1.2539  0.1964  0.0016
 3161SOL    HW212439   7.361   6.252   7.954 -0.9894 -0.8190  0.2340
 3162SOL     OW12440   3.236   5.336   6.246  0.4861  0.5623 -0.3340
 3162SOL    HW112441   3.242   5.257   6.193  0.3246 -0.9614  1.7540
 3162SOL    HW212442   3.325   5.368   6.251  1.0049 -0.9026  0.6946
 3163SOL     OW12443   4.033   0.962   8.082  0.2118  0.0358 -0.5590
 3163SOL    HW112444   4.112   1.013   8.065 -0.4624  1.6799  0.8312
 3163SOL    HW212445   4.058   0.901   8.152  0.2670  0.5280 -0.1467
 3164SOL     OW12446   4.777   0.036   9.766  0.0005 -0.3975 -0.2495
 3164SOL    HW112447   4.842   0.000   9.705 -2.6890 -1.2480 -2.8585
 3164SOL    HW212448   4.812   0.121   9.791  2.6540 -1.3025 -0.5512
 3165SOL     OW12449   1.195   6.514   4.986 -0.0283 -0.1922 -0.2073
 3165SOL    HW112450   1.211   6.428   4.947 -3.2512 -0.9872 -0.0314
 3165SOL    HW212451   1.222   6.576   4.918  1.1755 -1.3317 -0.8210
 3166SOL     OW12452   6.658   6.959   7.393  0.1432  0.6411 -0.0649
 3166SOL    HW112453   6.653   7.042   7.441 -2.2645 -0.3210  1.5622
 3166SOL    HW212454   6.574   6.916   7.412  0.0127 -0.8310 -3.3595
 3167SOL     OW12455   3.193   5.836   7.262 -0.9666 -0.3787 -0.3213
 3167SOL    HW112456   3.104   5.802   7.260  0.0591 -3.2820 -1.7747
 3167SOL    HW212457   3.211   5.863   7.171 -0.1321 -0.4916 -0.2010
 3168SOL     OW12458   0.743   2.505   1.362  0.4009 -0.0822  0.2288
 3168SOL    HW112459   0.760   2.598   1.344  0.4869 -0.0819  0.3154
 3168SOL    HW212460   0.822   2.460   1.333  0.1633 -0.1814 -0.2832
 3169SOL     OW12461   5.778   8.970   3.907  0.5072  0.2852  0.2963
 3169SOL    HW112462   5.789   9.046   3.850  0.6688  1.8475  2.3119
 3169SOL    HW212463   5.687   8.943   3.895  0.4937  0.6714 -0.5410
 3170SOL     OW12464  10.487   1.107   3.002  0.0182 -0.0943 -0.2878
 3170SOL    HW112465  10.415   1.158   3.039 -1.1960 -0.2135 -2.3040
 3170SOL    HW212466  10.502   1.037   3.064 -2.5786 -0.8661 -0.3948
 3171SOL     OW12467   3.775  10.552  10.568  0.5412 -0.0489 -0.6986
 3171SOL    HW112468   3.687  10.565  10.603  0.6367 -2.8318  0.8631
 3171SOL    HW212469   3.822  10.633  10.591 -1.2500  0.9928 -0.5073
 3172SOL     OW12470  10.617   1.956   4.253  0.1521 -0.3469 -0.6581
 3172SOL    HW112471  10.629   2.011   4.175  1.6221 -1.6426 -1.4094
 3172SOL    HW212472  10.663   2.003   4.323 -0.5594  0.4726 -0.7170
 3173SOL     OW12473   6.571   3.596   6.588  0.0959 -0.0844  0.2133
 3173SOL    HW112474   6.570   3.687   6.617  1.6680  0.3768 -1.0684
 3173SOL    HW212475   6.592   3.546   6.666 -1.5585  0.5358  1.1151
 3174SOL     OW12476   0.007  10.210  10.189  0.0680 -0.0090 -0.1388
 3174SOL    HW112477   0.004  10.286  10.130 -0.0229  1.8568  2.1305
 3174SOL    HW212478  -0.079  10.209  10.231  0.2389 -1.1073  0.2135
 3175SOL     OW12479   3.538   9.978   3.786 -0.4467 -0.1671 -0.4951
 3175SOL    HW112480   3.632   9.970   3.773 -0.3818  0.4884 -0.4653
 3175SOL    HW212481   3.513   9.900   3.835 -0.0445 -0.7198 -1.1649
 3176SOL     OW12482   0.497   0.496  10.064  0.3174 -0.2997 -0.4403
 3176SOL    HW112483   0.405   0.488  10.090  0.2405 -2.7533 -1.2294
 3176SOL    HW212484   0.519   0.411  10.026  2.6886  0.5100 -1.0651
 3177SOL     OW12485   5.766   3.829   6.148 -0.4189  0.2818 -0.0428
 3177SOL    HW112486   5.840   3.862   6.198  0.0329 -0.9671  0.1457
 3177SOL    HW212487   5.805   3.791   6.069 -1.0075  1.0397 -0.7120
 3178SOL     OW12488   0.574   4.150   1.976  0.0572 -0.0790 -0.0529
 3178SOL    HW112489   0.608   4.237   1.954  0.6410 -0.1143  0.6869
 3178SOL    HW212490   0.592   4.098   1.897  1.5044 -0.0230  0.2073
 3179SOL     OW12491   1.019   2.642   6.063 -0.2437 -0.4204  0.2604
 3179SOL    HW112492   0.933   2.682   6.074  0.7691  1.7667  0.7300
 3179SOL    HW212493   1.028   2.631   5.968 -1.1992 -1.1660  0.2305
 3180SOL     OW12494   4.151   8.280   5.202 -0.1859  0.1136  0.0227
 3180SOL    HW112495   4.233   8.258   5.157  2.4595  0.7225  3.9614
 3180SOL    HW212496   4.115   8.196   5.228 -0.3302 -0.1300 -0.9295
 3181SOL     OW12497   0.464   8.569  10.257  0.3825  0.0202 -0.2666
 3181SOL    HW112498   0.379   8.581  10.299  1.0427  1.7652  0.7128
 3181SOL    HW212499   0.444   8.547  10.167 -1.1018 -0.5303  0.1814
 3182SOL     OW12500   4.395   1.705   7.681  0.1250 -0.0001 -0.5885
 3182SOL    HW112501   4.437   1.789   7.699  1.1468 -0.6502  0.2445
 3182SOL    HW212502   4.454   1.662   7.619 -1.0406  0.3782 -2.0053
 3183SOL     OW12503   7.220   2.916  10.445 -0.5385 -0.1781 -0.6431
 3183SOL    HW112504   7.160   2.980  10.484  0.5561 -0.9874  2.7368
 3183SOL    HW212505   7.291   2.968  10.409  0.8501  0.7428  2.9419
 3184SOL     OW12506   3.060   4.822   0.626 -0.4770 -0.0708 -0.4649
 3184SOL    HW112507   3.019   4.907   0.644  2.0663  1.0327  0.7176
 3184SOL    HW212508   3.031   4.766   0.698 -4.1115 -1.1084 -2.5050
 3185SOL     OW12509   3.199   5.566  10.193  0.2764  0.2326 -0.2447
 3185SOL    HW112510   3.185   5.626  10.266  1.9524 -1.1627  1.3304
 3185SOL    HW212511   3.159   5.484  10.222  1.4669 -0.5043 -0.6175
 3186SOL     OW12512   6.142   1.347   5.269 -0.2446  0.0192  0.1524
 3186SOL    HW112513   6.095   1.314   5.345  0.1269  0.8377  0.7467
 3186SOL    HW212514   6.088   1.320   5.194 -1.2315  0.2317  0.7680
 3187SOL     OW12515   7.077   6.801   3.727 -0.0942 -0.4549  0.5053
 3187SOL    HW112516   7.134   6.837   3.660  1.7287  1.9343  3.1254
 3187SOL    HW212517   7.029   6.876   3.762 -1.2706 -1.6599  1.6341
 3188SOL     OW12518   9.921   5.208  10.438 -0.5773 -0.2490 -0.4580
 3188SOL    HW112519   9.871   5.127  10.430  0.2766 -0.7743 -0.6202
 3188SOL    HW212520  10.009   5.185  10.409 -0.1065  0.5265  0.2893
 3189SOL     OW12521   2.304   6.774   1.322  0.1895  0.0177  0.2197
 3189SOL    HW112522   2.264   6.855   1.290  0.4423  0.6625  1.4766
 3189SOL    HW212523   2.244   6.705   1.295 -1.4983  0.8965  1.5243
 3190SOL     OW12524   4.864   1.659   0.632 -0.0887 -0.0580 -0.3049
 3190SOL    HW112525   4.883   1.751   0.653 -0.1929  0.0151 -0.5255
 3190SOL    HW212526   4.927   1.637   0.563 -0.2258 -0.0779 -0.4245
 3191SOL     OW12527   3.827   6.212   8.402  0.0436  0.4800 -0.1226
 3191SOL    HW112528   3.879   6.142   8.443 -1.9636 -0.7086  0.5284
 3191SOL    HW212529   3.739   6.175   8.395 -0.6806  2.3292 -1.4226
 3192SOL     OW12530   8.762   0.134   7.716 -0.6601  0.3538  0.0476
 3192SOL    HW112531   8.756   0.196   7.643 -0.1069  0.4650  0.0945
 3192SOL    HW212532   8.708   0.173   7.785 -2.2393 -0.3771 -0.7301
 3193SOL     OW12533   0.614   5.056   9.529  0.3010 -0.5493 -0.3724
 3193SOL    HW112534   0.705   5.048   9.557 -0.0547 -1.2053  0.6424
 3193SOL    HW212535   0.587   5.143   9.558  0.7215 -0.1908 -1.0429
 3194SOL     OW12536   6.497   7.492   5.381  0.2802 -0.5268  0.1669
 3194SOL    HW112537   6.514   7.466   5.290 -0.9711  1.5512 -0.7381
 3194SOL    HW212538   6.417   7.545   5.376  0.3858 -0.0611  2.4361
 3195SOL     OW12539   3.986   6.693   6.992  0.4511 -0.9487  0.0607
 3195SOL    HW112540   4.000   6.725   7.081 -0.9929 -0.9735  0.3297
 3195SOL    HW212541   4.067   6.714   6.946  0.8916 -0.1363  1.1493
 3196SOL     OW12542   8.971   7.194   9.252  0.5360  0.1596 -0.0512
 3196SOL    HW112543   8.876   7.208   9.248  0.3662 -1.1198 -1.3578
 3196SOL    HW212544   8.982   7.102   9.228  2.0929  0.1852  0.4995
 3197SOL     OW12545   1.026   1.555   4.105 -0.2002  0.1995  0.0272
 3197SOL    HW112546   1.019   1.543   4.199 -0.7876  0.0629 -0.0329
 3197SOL    HW212547   0.939   1.583   4.077  0.0814  0.6531 -0.4145
 3198SOL     OW12548   3.916   7.541   3.643 -0.2549  0.1454  0.0083
 3198SOL    HW112549   3.939   7.449   3.654  1.5901  0.5836  0.1541
 3198SOL    HW212550   3.911   7.553   3.548  3.2841  0.6359 -0.2813
 3199SOL     OW12551   5.853   1.996   8.553  0.0523  0.2797  0.4199
 3199SOL    HW112552   5.790   2.017   8.622 -1.1482  1.8446 -1.0611
 3199SOL    HW212553   5.839   1.903   8.535 -1.5142  0.4786  0.4743
 3200SOL     OW12554   0.869   3.642  10.404  0.5790 -0.3073 -0.0311
 3200SOL    HW112555   0.939   3.601  10.455  0.7429  1.1409  0.9914
 3200SOL    HW212556   0.788   3.615  10.448  0.5524 -1.1408 -0.5819
 3201SOL     OW12557   6.569   9.428   9.924 -0.5083  0.1112  0.5306
 3201SOL    HW112558   6.624   9.495   9.883 -0.3422  0.4425  1.2816
 3201SOL    HW212559   6.613   9.346   9.903 -0.7656  0.2126 -0.4819
 3202SOL     OW12560   8.299   8.516   8.095  0.5284  0.1799  0.4531
 3202SOL    HW112561   8.314   8.429   8.059  2.0103  0.8695 -0.7592
 3202SOL    HW212562   8.204   8.529   8.088  0.2724 -1.3630  0.7854
 3203SOL     OW12563   4.992   3.515   5.544  0.7552 -0.3617 -0.1117
 3203SOL    HW112564   5.064   3.520   5.481  1.2449 -0.3727  0.4262
 3203SOL    HW212565   4.962   3.425   5.539 -0.0266 -0.0581 -1.1915
 3204SOL     OW12566   3.674   0.681  10.571  0.4545 -0.4456 -0.2637
 3204SOL    HW112567   3.769   0.676  10.573  0.3824 -2.1027  1.5391
 3204SOL    HW212568   3.651   0.749  10.634  0.4189 -1.9303  1.4031
 3205SOL     OW12569   6.561   0.257  10.577 -0.4249  1.0289 -0.0842
 3205SOL    HW112570   6.556   0.193  10.647  0.4280  0.1590 -0.7930
 3205SOL    HW212571   6.651   0.291  10.582  0.4541 -0.7569 -2.1803
 3206SOL     OW12572   8.517   6.274   3.127 -0.1388  0.7895  0.2774
 3206SOL    HW112573   8.559   6.222   3.196  0.1374  2.2440  1.2517
 3206SOL    HW212574   8.424   6.250   3.133  0.1258 -0.3548 -0.0056
 3207SOL     OW12575   5.824   0.568   6.619 -0.2174 -0.1034 -0.2951
 3207SOL    HW112576   5.729   0.572   6.628 -0.1464  3.0691  0.4772
 3207SOL    HW212577   5.844   0.634   6.553  1.5478  0.9769  1.2391
 3208SOL     OW12578   8.491   2.513   9.889 -0.4631 -1.0042 -0.4682
 3208SOL    HW112579   8.583   2.538   9.896 -0.4848 -0.6060 -1.4275
 3208SOL    HW212580   8.449   2.588   9.847 -1.0868 -1.4829 -0.7164
 3209SOL     OW12581   7.815  10.547   3.124 -0.3094 -0.7199  1.1991
 3209SOL    HW112582   7.793  10.465   3.168 -0.1173 -1.2636  0.3175
 3209SOL    HW212583   7.757  10.550   3.048  2.0192 -1.8318 -0.7581
 3210SOL     OW12584   1.435   1.516   6.605 -0.0915  0.0313  0.0566
 3210SOL    HW112585   1.495   1.453   6.565  2.0748  1.3592  0.9679
 3210SOL    HW212586   1.415   1.578   6.535 -0.1195 -0.2492 -0.1827
 3211SOL     OW12587   5.736   4.546   1.844 -0.0713  0.3009 -0.3559
 3211SOL    HW112588   5.825   4.577   1.858  0.5411 -1.4574 -0.1850
 3211SOL    HW212589   5.706   4.593   1.766  0.4708  1.9473  0.3857
 3212SOL     OW12590   4.052   2.232   6.333  0.3744  0.1187 -0.3590
 3212SOL    HW112591   4.073   2.187   6.414 -0.3624  2.5770  1.3113
 3212SOL    HW212592   3.956   2.232   6.329  0.3071  2.1636  0.1442
 3213SOL     OW12593   6.406   7.415   9.115 -0.0796  0.2975  0.3750
 3213SOL    HW112594   6.400   7.506   9.142 -0.2433 -0.0659  1.6500
 3213SOL    HW212595   6.412   7.418   9.020 -2.3838  1.5276  0.2003
 3214SOL     OW12596   5.895   0.971   6.309  0.3609  0.1219 -0.1854
 3214SOL    HW112597   5.967   1.020   6.269  1.0315 -1.2972 -0.7588
 3214SOL    HW212598   5.863   1.029   6.378  0.8620  1.5424 -1.0966
 3215SOL     OW12599   9.241   2.484   5.755 -0.0234 -0.9956  0.4592
 3215SOL    HW112600   9.279   2.483   5.667  1.5696 -0.9616  1.1326
 3215SOL    HW212601   9.217   2.575   5.769  0.1172 -0.9215  0.2286
 3216SOL     OW12602   4.638   8.403   8.668 -0.0480  0.3851 -0.0188
 3216SOL    HW112603   4.718   8.403   8.721 -1.3854  0.1301  2.1500
 3216SOL    HW212604   4.665   8.439   8.584  1.9237  2.3655  1.3315
 3217SOL     OW12605   9.421   6.103   1.280 -0.7780  0.1720  0.2001
 3217SOL    HW112606   9.368   6.154   1.218 -2.0167  2.0720  2.6140
 3217SOL    HW212607   9.483   6.166   1.315  0.7028 -1.1670  0.0778
 3218SOL     OW12608   1.042   5.184   7.013 -0.7238 -0.0431 -0.4170
 3218SOL    HW112609   1.013   5.112   6.956 -0.6963  0.9488 -1.7443
 3218SOL    HW212610   0.960   5.225   7.043 -0.7384 -0.5707  0.2823
 3219SOL     OW12611   8.678   6.643   7.473  0.0144  0.2048 -0.8807
 3219SOL    HW112612   8.605   6.671   7.529 -1.6873 -1.8988 -1.8984
 3219SOL    HW212613   8.752   6.633   7.534 -1.4009 -0.6764  0.7976
 3220SOL     OW12614   4.262   4.505   8.114  0.5151  0.0935 -0.3962
 3220SOL    HW112615   4.297   4.452   8.042 -0.4154 -1.4408  0.2385
 3220SOL    HW212616   4.325   4.576   8.125  1.9597 -1.0494 -1.0925
 3221SOL     OW12617   1.058   8.275   2.546 -0.3194 -0.8671 -0.6468
 3221SOL    HW112618   1.032   8.294   2.456 -2.3202 -0.1556  0.0323
 3221SOL    HW212619   1.015   8.191   2.566 -1.8798  0.1087  0.3497
 3222SOL     OW12620  10.429   2.619   7.987  0.2349 -0.3016  0.0669
 3222SOL    HW112621  10.401   2.711   7.978 -0.1795 -0.5000 -0.8222
 3222SOL    HW212622  10.405   2.579   7.903 -1.2472 -1.6693  1.0825
 3223SOL     OW12623   7.700   0.458   6.727 -0.1461  0.5959 -0.2733
 3223SOL    HW112624   7.668   0.381   6.681  0.4634  1.1939 -1.7416
 3223SOL    HW212625   7.690   0.530   6.665  0.8401  1.4046  0.4607
 3224SOL     OW12626  10.204   0.664   7.989 -0.5769  0.7044  0.0503
 3224SOL    HW112627  10.139   0.721   7.947  0.0163  1.4267  0.0964
 3224SOL    HW212628  10.172   0.575   7.972 -1.3947  1.0363 -0.2212
 3225SOL     OW12629   7.453   4.969   7.905  0.0456 -0.4762  0.0429
 3225SOL    HW112630   7.423   4.995   7.992 -0.1253 -1.1709  0.1999
 3225SOL    HW212631   7.390   4.901   7.878  0.0924 -0.2568 -0.6213
 3226SOL     OW12632   7.271   4.935   3.413 -0.3678  0.2872 -0.2432
 3226SOL    HW112633   7.178   4.952   3.422 -0.0528  1.5916  0.8646
 3226SOL    HW212634   7.289   4.864   3.475 -0.4334  0.8201  0.3969
 3227SOL     OW12635  10.069  10.215   3.703  0.5642 -0.0909 -0.2479
 3227SOL    HW112636  10.126  10.215   3.626  0.4168  1.3982 -0.3835
 3227SOL    HW212637   9.981  10.203   3.667  0.3685  1.7137 -0.4602
 3228SOL     OW12638   5.171   3.760   1.382  0.1228  0.1812  0.0276
 3228SOL    HW112639   5.212   3.846   1.369 -2.1465  1.4754  0.9017
 3228SOL    HW212640   5.139   3.735   1.296  1.5284 -0.2481 -0.4054
 3229SOL     OW12641   2.062   2.878   2.978 -0.0253  0.1885 -0.1664
 3229SOL    HW112642   2.020   2.937   2.915 -0.1321  1.1786  0.8139
 3229SOL    HW212643   2.092   2.805   2.924 -3.0705 -0.6605 -0.9208
 3230SOL     OW12644   5.116   2.528   8.921  0.1535 -0.0926  0.1235
 3230SOL    HW112645   5.147   2.609   8.880  0.9822 -0.3198  0.2738
 3230SOL    HW212646   5.081   2.476   8.849  0.3543  0.0750 -0.0985
 3231SOL     OW12647   8.117   5.034   8.794  0.3886 -0.2411 -0.3363
 3231SOL    HW112648   8.128   4.953   8.745  1.2124  0.8424 -2.0367
 3231SOL    HW212649   8.029   5.064   8.771 -0.1105 -0.8756  0.6867
 3232SOL     OW12650  10.657   1.245   3.944 -0.2469 -0.5436 -0.4917
 3232SOL    HW112651  10.658   1.281   3.855 -1.5358  0.2356 -0.2182
 3232SOL    HW212652  10.702   1.160   3.936 -0.1188 -0.3700 -1.8247
 3233SOL     OW12653   3.749   2.659  10.243 -0.7752  0.1980 -0.0810
 3233SOL    HW112654   3.710   2.673  10.156  0.3053  1.6979 -0.3674
 3233SOL    HW212655   3.835   2.620  10.224 -0.7010  0.1606  0.3355
 3234SOL     OW12656   5.153  10.272   3.679  0.1910 -0.3418  0.0046
 3234SOL    HW112657   5.149  10.197   3.619  1.9399 -1.3929  1.1057
 3234SOL    HW212658   5.153  10.232   3.766 -0.8343  1.0763  0.6867
 3235SOL     OW12659   7.496   6.107   5.335  0.5154  0.1335 -0.0411
 3235SOL    HW112660   7.560   6.168   5.299  0.5169 -0.1434 -0.5065
 3235SOL    HW212661   7.532   6.021   5.317 -0.2261 -0.0375 -0.7644
 3236SOL     OW12662   0.996   6.079   6.778  0.6137  0.1297 -0.4781
 3236SOL    HW112663   0.968   6.130   6.854 -1.4860  0.4495 -1.3952
 3236SOL    HW212664   1.069   6.128   6.741  1.1110  0.4051  0.8199
 3237SOL     OW12665   1.377   2.840   0.153 -0.3121  0.2711  0.4549
 3237SOL    HW112666   1.413   2.752   0.162 -1.7838 -0.3919  0.1209
 3237SOL    HW212667   1.284   2.826   0.139 -0.4734  1.8695 -0.2251
 3238SOL     OW12668   2.183   8.676   9.383 -0.0175  0.0370 -0.5846
 3238SOL    HW112669   2.093   8.665   9.353 -0.0434  1.3015 -1.0235
 3238SOL    HW212670   2.177   8.743   9.452  0.3964 -0.9543  0.4484
 3239SOL     OW12671   9.447   7.210   0.746 -0.6897  0.1734  0.6077
 3239SOL    HW112672   9.539   7.223   0.769 -0.4540  0.7302 -0.5850
 3239SOL    HW212673   9.435   7.115   0.748  0.7508 -0.1646 -2.1339
 3240SOL     OW12674   4.663   6.753   1.064  0.0749 -0.0647  0.0521
 3240SOL    HW112675   4.721   6.746   0.988  2.3558 -0.2471  1.6863
 3240SOL    HW212676   4.664   6.665   1.102 -0.3455  0.2336  0.7645
 3241SOL     OW12677   5.658   7.508   1.551  0.0781  0.3269 -0.0515
 3241SOL    HW112678   5.746   7.498   1.514  1.4835  0.4098  2.9597
 3241SOL    HW212679   5.648   7.603   1.565 -0.3853  0.2956 -0.1497
 3242SOL     OW12680   6.729   7.553   4.069  0.6713 -0.2644  0.2166
 3242SOL    HW112681   6.705   7.600   3.988 -0.4488 -0.8578  0.1823
 3242SOL    HW212682   6.656   7.571   4.129  0.9977 -0.6772  0.7387
 3243SOL     OW12683  10.500   7.815   3.968 -0.5438  0.5155 -0.5714
 3243SOL    HW112684  10.507   7.741   3.908 -0.4530  0.0646 -0.0130
 3243SOL    HW212685  10.449   7.880   3.920 -2.0648 -0.5401 -0.4765
 3244SOL     OW12686   3.221   0.845   5.720  0.0177 -0.5320 -0.4033
 3244SOL    HW112687   3.157   0.861   5.651  0.2657  0.9419 -0.3201
 3244SOL    HW212688   3.173   0.795   5.786 -0.7423 -0.3585 -0.8148
 3245SOL     OW12689   5.813   2.917   9.740 -0.0402  0.0816  0.0534
 3245SOL    HW112690   5.762   2.909   9.659 -0.5996  0.9149  0.3037
 3245SOL    HW212691   5.855   2.832   9.751 -2.2286 -1.0339  0.4008
 3246SOL     OW12692   7.749   2.404   1.147  0.1986 -0.0669  0.0505
 3246SOL    HW112693   7.722   2.318   1.115 -1.9239  0.1071  1.2373
 3246SOL    HW212694   7.676   2.435   1.200  1.8880  1.4420  1.6571
 3247SOL     OW12695   7.884   5.295   8.408  0.2859  0.3233  0.0969
 3247SOL    HW112696   7.907   5.347   8.486  4.4786  2.0688 -1.9788
 3247SOL    HW212697   7.903   5.205   8.433  1.5070  0.8371  1.1441
 3248SOL     OW12698   8.333   1.730   3.448  0.4343 -0.8349 -0.1670
 3248SOL    HW112699   8.415   1.688   3.473  1.2373  1.4182  1.3642
 3248SOL    HW212700   8.288   1.745   3.530 -0.2147  0.4275 -0.7228
 3249SOL     OW12701   9.697   5.472   8.442  0.2934 -0.1269 -0.0301
 3249SOL    HW112702   9.712   5.474   8.347  1.0029 -1.1593  0.0440
 3249SOL    HW212703   9.780   5.501   8.480 -0.4881  1.8733  0.2814
 3250SOL     OW12704   3.796   2.551   5.641  0.0227 -0.5031 -0.2724
 3250SOL    HW112705   3.787   2.470   5.591 -0.4297 -1.5375  1.3673
 3250SOL    HW212706   3.745   2.616   5.593 -0.5445 -1.4969 -1.0448
 3251SOL     OW12707   5.743   4.993   0.486  0.1091  0.4429  0.4555
 3251SOL    HW112708   5.719   5.084   0.466  0.5521  0.2685 -0.9723
 3251SOL    HW212709   5.837   4.989   0.470  0.2979 -0.0052  1.5979
 3252SOL     OW12710   8.762   2.593   9.898 -0.0948  0.3207 -0.2343
 3252SOL    HW112711   8.782   2.670   9.951 -1.1957 -1.1046  2.4441
 3252SOL    HW212712   8.848   2.563   9.867  1.0631 -0.2040  2.9959
 3253SOL     OW12713   3.530   5.123  10.694  0.0572 -0.7065 -0.0005
 3253SOL    HW112714   3.565   5.063  10.760  1.5220  0.8205  0.6924
 3253SOL    HW212715   3.605   5.174  10.665 -1.3303  1.8465  0.5913
 3254SOL     OW12716   7.347   6.507   9.866  0.3083  0.6131 -0.2282
 3254SOL    HW112717   7.323   6.595   9.895  0.5940  0.9540 -1.0013
 3254SOL    HW212718   7.336   6.509   9.771  2.8107  0.6008 -0.5631
 3255SOL     OW12719   1.448   0.990   9.778  0.3699 -0.4415 -0.0763
 3255SOL    HW112720   1.474   0.900   9.758 -1.7048 -1.0848 -0.1017
 3255SOL    HW212721   1.497   1.013   9.856  0.5207 -1.8137  0.2491
 3256SOL     OW12722  10.290   4.167   0.781 -0.1022  0.3848  0.1796
 3256SOL    HW112723  10.271   4.246   0.729  0.0244  0.1571 -0.2190
 3256SOL    HW212724  10.368   4.130   0.741 -0.1334  0.0811  0.3937
 3257SOL     OW12725   1.429   9.543   9.003  0.0792 -0.1681 -0.2861
 3257SOL    HW112726   1.458   9.500   8.922 -2.1381  1.1210 -1.8722
 3257SOL    HW212727   1.334   9.548   8.995 -0.0346  1.8296  1.4570
 3258SOL     OW12728   3.258   0.400   5.786 -0.1742 -0.1083 -0.9513
 3258SOL    HW112729   3.287   0.349   5.862  0.9393 -0.6621 -1.7266
 3258SOL    HW212730   3.260   0.490   5.816 -0.9125 -0.4020  0.0429
 3259SOL     OW12731  10.011   5.314   5.634 -0.4113  0.0820  0.3465
 3259SOL    HW112732   9.961   5.233   5.628 -0.2682 -0.1365  1.8863
 3259SOL    HW212733   9.997   5.346   5.723 -0.2234  1.6061 -0.1279
 3260SOL     OW12734   8.675   0.183   4.974  0.2787  0.3482  0.2125
 3260SOL    HW112735   8.748   0.215   4.920  1.5181 -2.6478 -0.0628
 3260SOL    HW212736   8.701   0.204   5.064  1.1890 -0.1257  0.0696
 3261SOL     OW12737   0.045   7.252   8.430 -0.1408 -0.1398 -0.4945
 3261SOL    HW112738   0.116   7.297   8.385 -0.5363 -0.5348 -1.5572
 3261SOL    HW212739  -0.008   7.214   8.359 -1.5340  0.3324  0.2593
 3262SOL     OW12740  10.007   2.328   2.903  0.3612 -0.4584  0.0419
 3262SOL    HW112741  10.018   2.289   2.816 -2.2938 -2.1893  0.3893
 3262SOL    HW212742  10.069   2.281   2.958  1.3205 -0.0704 -0.6644
 3263SOL     OW12743   0.263   9.300   1.238  0.2254  0.5727 -0.2196
 3263SOL    HW112744   0.334   9.249   1.276  0.5648  0.8347 -0.5039
 3263SOL    HW212745   0.225   9.347   1.312 -0.3054 -0.3319  0.1075
 3264SOL     OW12746   8.619   9.619   3.918  0.3263 -0.5047 -0.0594
 3264SOL    HW112747   8.541   9.600   3.866  0.2083  1.2159 -0.5986
 3264SOL    HW212748   8.682   9.653   3.854  0.9715 -0.4358  0.5999
 3265SOL     OW12749   9.746   2.265   1.610  0.3965  0.5071 -0.1662
 3265SOL    HW112750   9.748   2.325   1.535 -0.9781  0.5749 -0.1619
 3265SOL    HW212751   9.832   2.277   1.652 -0.6750  4.4219  1.3533
 3266SOL     OW12752   1.344   9.143   3.983 -0.1070 -0.0232 -0.7098
 3266SOL    HW112753   1.396   9.107   4.055 -1.4082 -0.6000 -0.0257
 3266SOL    HW212754   1.255   9.150   4.019 -0.2674  2.2161 -1.3919
 3267SOL     OW12755   6.044   8.690   5.144  0.0929  0.2908  0.7415
 3267SOL    HW112756   6.041   8.781   5.114 -1.5284 -0.1806 -0.7163
 3267SOL    HW212757   5.983   8.687   5.218  1.0347  0.6008  1.5563
 3268SOL     OW12758   0.176   7.372   2.157 -0.3124 -0.2957  0.0761
 3268SOL    HW112759   0.179   7.391   2.251  0.3098  1.3920 -0.2490
 3268SOL    HW212760   0.265   7.347   2.135 -1.2699 -5.1720  0.6834
 3269SOL     OW12761   1.200   1.121  10.401 -0.4427  0.3421 -0.7270
 3269SOL    HW112762   1.202   1.144  10.494  1.9675 -0.6813 -0.4665
 3269SOL    HW212763   1.158   1.035  10.398 -0.8946  0.5555 -0.6535
 3270SOL     OW12764   5.920   7.076   5.895 -0.2596  0.5375 -0.6233
 3270SOL    HW112765   5.871   7.147   5.937 -0.2558 -0.8865  1.9363
 3270SOL    HW212766   5.900   6.998   5.946  0.9904 -1.0458 -2.3926
 3271SOL     OW12767   7.185   2.610   7.968 -0.1928  0.1104 -0.4786
 3271SOL    HW112768   7.245   2.682   7.948 -0.7852  0.3647 -1.4129
 3271SOL    HW212769   7.182   2.558   7.888 -1.1294  0.0428 -0.4165
 3272SOL     OW12770   1.456   9.761   0.561 -0.8985 -0.8195  0.3131
 3272SOL    HW112771   1.469   9.848   0.599 -1.1502 -1.0650  0.9706
 3272SOL    HW212772   1.529   9.750   0.499 -0.3211 -0.5349  0.9364
 3273SOL     OW12773   5.840  10.137   0.930 -0.6117  0.7817 -0.8197
 3273SOL    HW112774   5.745  10.129   0.930 -0.4799 -1.5542 -0.3172
 3273SOL    HW212775   5.869  10.079   1.000  1.2113  1.3397 -1.0466
 3274SOL     OW12776   5.994   5.606   7.125  0.1418  0.2225 -0.0579
 3274SOL    HW112777   6.043   5.547   7.182 -1.6547 -0.6761  0.6260
 3274SOL    HW212778   6.059   5.636   7.061  1.2858 -1.9332 -0.0113
 3275SOL     OW12779   6.912   7.110   0.460  0.2327 -0.6586 -0.0258
 3275SOL    HW112780   6.849   7.155   0.403  0.2022 -0.4272  0.1851
 3275SOL    HW212781   6.880   7.128   0.548  1.0320  0.1234  0.1144
 3276SOL     OW12782   5.530   4.310   9.331 -0.5351  0.1820 -0.2830
 3276SOL    HW112783   5.439   4.287   9.312 -0.7971  1.1683 -0.2926
 3276SOL    HW212784   5.550   4.379   9.267  0.1711  0.0637 -0.1893
 3277SOL     OW12785   9.993   2.842   1.362  0.1104  0.3207  0.3603
 3277SOL    HW112786  10.014   2.907   1.429 -1.5155  1.1052  0.1722
 3277SOL    HW212787   9.979   2.761   1.411  2.9302 -0.1495  0.5174
 3278SOL     OW12788   4.225   6.622   3.017  0.4587 -0.4178  0.0066
 3278SOL    HW112789   4.190   6.682   2.951  0.8055  0.7972  0.8841
 3278SOL    HW212790   4.215   6.669   3.100  2.7692 -0.6271  0.4679
 3279SOL     OW12791   9.106   3.993   2.863  0.1533 -0.2021  1.0633
 3279SOL    HW112792   9.194   3.999   2.901  0.2363  0.4794  0.7712
 3279SOL    HW212793   9.048   4.016   2.935  0.4128  3.5714  0.2461
 3280SOL     OW12794   9.635   5.197   9.380 -0.3024 -0.3229 -0.0898
 3280SOL    HW112795   9.645   5.159   9.467 -2.2498  1.1402  0.8518
 3280SOL    HW212796   9.628   5.291   9.395 -1.8238 -0.1204 -1.6786
 3281SOL     OW12797   7.338   8.726   1.919  0.4083  0.2716  0.3500
 3281SOL    HW112798   7.423   8.684   1.934 -0.5512 -1.6535  0.6788
 3281SOL    HW212799   7.322   8.777   1.998  0.4493 -0.8742  1.1338
 3282SOL     OW12800   7.214   0.204   1.613 -0.2974 -0.0856 -0.3453
 3282SOL    HW112801   7.197   0.141   1.682  0.0316 -0.4068 -0.5554
 3282SOL    HW212802   7.206   0.289   1.656  2.7774 -0.2621  0.8478
 3283SOL     OW12803   3.582   6.962  10.672 -0.6987  1.2354 -0.1291
 3283SOL    HW112804   3.664   6.929  10.710 -1.9156 -0.1860  1.3683
 3283SOL    HW212805   3.553   6.893  10.613 -1.5033  1.1060  0.4000
 3284SOL     OW12806  10.317   3.868   0.149 -0.2985 -0.2103  0.1367
 3284SOL    HW112807  10.279   3.879   0.237  0.4732  0.3045  0.4176
 3284SOL    HW212808  10.410   3.851   0.165  0.0152  0.7371 -0.6045
 3285SOL     OW12809   1.316   7.386   0.515 -0.6358 -0.2983  0.1684
 3285SOL    HW112810   1.403   7.371   0.552 -0.7918 -1.0163  0.2663
 3285SOL    HW212811   1.282   7.462   0.562 -0.0295  0.0395  0.0684
 3286SOL     OW12812   8.952   2.123   7.153 -0.0468 -0.0208  0.0606
 3286SOL    HW112813   8.995   2.204   7.180  2.5597 -0.0900 -3.1676
 3286SOL    HW212814   9.016   2.055   7.172 -0.5079 -0.7639 -0.9695
 3287SOL     OW12815   8.725   8.813   9.605  0.3030  0.0828  0.6205
 3287SOL    HW112816   8.774   8.788   9.683 -0.1157 -0.1617  0.8098
 3287SOL    HW212817   8.696   8.903   9.623  0.2211  0.0323  0.7380
 3288SOL     OW12818   4.149   1.915   8.516  0.1919  0.0590 -0.0558
 3288SOL    HW112819   4.072   1.860   8.529  0.4406 -0.6325 -1.3318
 3288SOL    HW212820   4.195   1.874   8.443  0.1269  2.2330 -1.3994
 3289SOL     OW12821   7.974   4.978   0.035 -0.7018  0.5890  0.3809
 3289SOL    HW112822   8.022   5.029   0.100 -0.9886 -0.4329  1.4365
 3289SOL    HW212823   8.034   4.908   0.010 -0.6620  0.8698 -0.3345
 3290SOL     OW12824   2.676   0.216   7.274 -0.1075  0.0520  0.3406
 3290SOL    HW112825   2.603   0.223   7.213 -1.2093  1.2635  1.7251
 3290SOL    HW212826   2.735   0.287   7.251  0.1046 -0.2645 -0.0978
 3291SOL     OW12827   9.590   8.074   0.268  0.0899 -0.2735  0.3788
 3291SOL    HW112828   9.562   8.133   0.338 -0.6041 -0.3478  0.1653
 3291SOL    HW212829   9.523   8.006   0.265  0.6333 -0.8126  0.2971
 3292SOL     OW12830   1.927   3.199   1.188  0.6852  0.7298  0.1740
 3292SOL    HW112831   1.839   3.196   1.224  0.9062 -0.8026  0.6932
 3292SOL    HW212832   1.924   3.141   1.112  1.5765 -0.6612  1.1241
 3293SOL     OW12833   5.662   9.993   5.369 -0.3841 -0.1395  0.5246
 3293SOL    HW112834   5.607   9.979   5.292 -1.8670 -0.5924  1.6036
 3293SOL    HW212835   5.599  10.009   5.440  0.8910 -0.8274  1.8513
 3294SOL     OW12836   1.727   2.533   6.155  0.5361 -0.5040  0.3634
 3294SOL    HW112837   1.720   2.476   6.232 -1.6571 -2.0679 -0.8974
 3294SOL    HW212838   1.652   2.510   6.100  1.5062  1.1980 -1.8534
 3295SOL     OW12839   4.259   1.588   5.950 -0.1639  0.4195  1.1819
 3295SOL    HW112840   4.175   1.617   5.985  0.2244  1.0517  1.6302
 3295SOL    HW212841   4.311   1.669   5.943  0.2521  0.1063  0.4841
 3296SOL     OW12842   6.601   2.153   7.857  0.4639  0.3702  0.4142
 3296SOL    HW112843   6.575   2.134   7.767 -0.5934  0.9872  0.5779
 3296SOL    HW212844   6.599   2.249   7.863  0.3744  0.3282  1.1384
 3297SOL     OW12845   6.914   6.739   1.140  0.2541 -0.2563 -0.4759
 3297SOL    HW112846   6.836   6.791   1.121  1.0814  0.4040 -2.2120
 3297SOL    HW212847   6.932   6.691   1.059  1.8464 -0.1394 -0.2122
 3298SOL     OW12848   5.424   0.851   3.864  0.7437  0.1013 -0.1228
 3298SOL    HW112849   5.510   0.880   3.835  0.1722  3.2470  0.9659
 3298SOL    HW212850   5.410   0.897   3.947 -1.0245 -2.2166  0.9783
 3299SOL     OW12851   9.893   9.729   9.375  0.6734  0.1905  0.5234
 3299SOL    HW112852   9.906   9.760   9.464  0.7060  1.0339  0.2428
 3299SOL    HW212853   9.857   9.641   9.384 -1.9737  1.2490  1.4442
 3300SOL     OW12854   3.343   8.262   4.677  0.2844 -0.0197  0.6829
 3300SOL    HW112855   3.376   8.270   4.587  0.5074 -0.5611  0.7141
 3300SOL    HW212856   3.365   8.346   4.718 -0.1784  0.3860  0.1215
 3301SOL     OW12857   3.830   5.182   8.736 -0.2092  0.0561  0.0294
 3301SOL    HW112858   3.841   5.183   8.831 -0.8414  1.3567  0.1099
 3301SOL    HW212859   3.748   5.134   8.722 -0.1155 -0.1377  0.1335
 3302SOL     OW12860   7.948   8.229   2.361  0.9819 -0.2136  0.3326
 3302SOL    HW112861   7.888   8.184   2.421 -0.5299  1.2459 -0.0187
 3302SOL    HW212862   7.961   8.315   2.401  2.8969 -0.4862  0.3946
 3303SOL     OW12863   7.503   2.347   4.306  0.2542 -0.0290  0.7156
 3303SOL    HW112864   7.423   2.397   4.321 -0.0268 -0.2619  0.0241
 3303SOL    HW212865   7.567   2.412   4.275 -0.7680 -0.3853 -2.4901
 3304SOL     OW12866   9.496   2.901   1.586  0.3673 -0.0454 -0.0588
 3304SOL    HW112867   9.462   2.905   1.497  0.0709  0.1850  0.0643
 3304SOL    HW212868   9.591   2.893   1.575  0.1811 -2.2244 -0.4234
 3305SOL     OW12869   7.396   9.923   0.693 -0.2353 -0.3421  0.1424
 3305SOL    HW112870   7.444   9.845   0.666 -1.0431 -0.0452 -2.4155
 3305SOL    HW212871   7.307   9.909   0.660 -0.7516  1.0773  0.8354
 3306SOL     OW12872  10.518   0.304   9.298 -0.4078  0.3029 -0.1722
 3306SOL    HW112873  10.452   0.359   9.254  1.2938  1.4757 -1.3717
 3306SOL    HW212874  10.599   0.322   9.251  0.7319 -1.3473  1.0680
 3307SOL     OW12875   1.814   3.389   4.202  0.1918 -0.1550 -0.3021
 3307SOL    HW112876   1.742   3.368   4.262  0.8804 -1.5119  0.0947
 3307SOL    HW212877   1.771   3.400   4.117 -0.4291 -1.7946 -0.2465
 3308SOL     OW12878   0.511   1.656   8.796 -0.1212  0.0835 -0.7439
 3308SOL    HW112879   0.512   1.569   8.837  0.8099 -0.5032 -1.9610
 3308SOL    HW212880   0.519   1.639   8.703 -0.7290  1.4576 -1.0727
 3309SOL     OW12881   3.432   6.771   8.885  0.4021  0.2805  0.5087
 3309SOL    HW112882   3.345   6.803   8.863  0.4564  0.0508 -0.0634
 3309SOL    HW212883   3.449   6.804   8.973 -0.7595 -0.6932  1.1282
 3310SOL     OW12884   2.849  10.369   5.706  0.0293  0.4361 -0.5313
 3310SOL    HW112885   2.901  10.330   5.775 -1.3697 -1.4881 -0.4795
 3310SOL    HW212886   2.812  10.448   5.745  1.0822  0.6210  0.1337
 3311SOL     OW12887   3.745   6.176   1.982 -0.6270  0.1408 -0.0407
 3311SOL    HW112888   3.663   6.176   1.933 -0.3639  0.3141 -0.4849
 3311SOL    HW212889   3.813   6.192   1.916 -0.1039 -1.3642  0.0933
 3312SOL     OW12890   3.916   3.202   4.688  0.1197 -0.2430  0.0804
 3312SOL    HW112891   3.865   3.222   4.610 -0.2376  1.6765  0.7375
 3312SOL    HW212892   3.861   3.143   4.739  0.8112 -2.3966 -1.5455
 3313SOL     OW12893   4.939   0.001   1.860  0.6785 -0.3482  0.3370
 3313SOL    HW112894   4.920   0.091   1.835 -0.3138 -0.7852 -0.5382
 3313SOL    HW212895   4.854  -0.043   1.860  1.2915 -1.6242 -0.6396
 3314SOL     OW12896   6.243   2.848   2.850 -0.5355  0.0740  0.5359
 3314SOL    HW112897   6.275   2.864   2.761  0.5652  0.5663  1.0078
 3314SOL    HW212898   6.215   2.757   2.850  0.2391 -0.1708 -0.0860
 3315SOL     OW12899   2.793   2.520   7.868 -0.5203 -0.3652 -0.2842
 3315SOL    HW112900   2.857   2.561   7.926 -1.2481  1.4459 -0.6965
 3315SOL    HW212901   2.836   2.515   7.783 -0.3232 -0.7498 -0.1632
 3316SOL     OW12902   4.274   0.685   3.631  0.2706 -0.0279  0.8981
 3316SOL    HW112903   4.319   0.604   3.609  1.7126  0.3600  2.2008
 3316SOL    HW212904   4.183   0.658   3.647  0.5222 -1.2264  0.4365
 3317SOL     OW12905   1.185   2.236   8.078 -0.0017 -0.2932  0.1932
 3317SOL    HW112906   1.201   2.203   7.990  0.6265  1.6002 -0.4605
 3317SOL    HW212907   1.122   2.308   8.065 -2.0521 -1.6907  1.6445
 3318SOL     OW12908   8.875   7.835   2.749 -0.5379 -0.0498  0.8688
 3318SOL    HW112909   8.942   7.882   2.798 -0.3357 -1.9773  2.5974
 3318SOL    HW212910   8.901   7.845   2.657  0.0980  2.1692  1.2253
 3319SOL     OW12911   5.966   8.517   3.366 -0.1406 -0.5069 -0.3446
 3319SOL    HW112912   5.981   8.539   3.458 -1.3788  1.6552 -0.6146
 3319SOL    HW212913   5.986   8.597   3.319 -0.8634 -1.1756 -1.8327
 3320SOL     OW12914   0.066   5.451  10.511  0.3550  0.6130  0.1074
 3320SOL    HW112915   0.096   5.540  10.489  1.4818  0.2403  0.0507
 3320SOL    HW212916  -0.019   5.464  10.552  0.4179  1.7129 -0.0735
 3321SOL     OW12917   2.660   9.613   0.298 -0.2400 -0.0514  0.1720
 3321SOL    HW112918   2.636   9.694   0.253 -0.8700 -0.2024  0.2273
 3321SOL    HW212919   2.577   9.571   0.318 -0.0985  0.8340  3.0235
 3322SOL     OW12920  10.182  10.462   3.157 -0.3465  0.0957 -0.2093
 3322SOL    HW112921  10.227  10.519   3.219 -0.4948  0.6707 -0.6209
 3322SOL    HW212922  10.200  10.500   3.072 -0.0325 -0.7680 -0.5366
 3323SOL     OW12923  10.442   2.020   2.331 -0.1788  0.3700 -0.5106
 3323SOL    HW112924  10.374   1.953   2.334 -0.2176  0.4290 -0.0742
 3323SOL    HW212925  10.472   2.028   2.421  1.4268 -0.6968 -0.9183
 3324SOL     OW12926  10.507   5.249  10.513  0.1335 -0.3095 -0.1625
 3324SOL    HW112927  10.519   5.334  10.555  0.4615 -0.0087 -0.8490
 3324SOL    HW212928  10.437   5.264  10.449  0.6360 -0.3919 -0.7330
 3325SOL     OW12929   7.524   0.394   3.570 -0.6758  0.1339 -0.8117
 3325SOL    HW112930   7.579   0.418   3.495  0.8333 -0.3999  0.0914
 3325SOL    HW212931   7.510   0.476   3.617  0.2048  0.1103 -0.4970
 3326SOL     OW12932   3.816   4.705   6.435  0.7017  0.0651 -0.1051
 3326SOL    HW112933   3.843   4.789   6.472 -0.7241 -0.2461  1.7865
 3326SOL    HW212934   3.730   4.689   6.473  0.1335 -1.3920 -1.8818
 3327SOL     OW12935   1.032   1.542   0.571 -0.1228 -0.3764  0.3010
 3327SOL    HW112936   1.117   1.504   0.594  0.1639  0.0235 -0.1040
 3327SOL    HW212937   1.034   1.631   0.606 -0.8601 -0.7642  1.3906
 3328SOL     OW12938   9.372  10.548   8.113  0.1129 -0.0231  0.0082
 3328SOL    HW112939   9.293  10.600   8.102 -0.7287 -1.5475 -1.8240
 3328SOL    HW212940   9.390  10.552   8.207  0.0571  3.3578 -0.0016
 3329SOL     OW12941   2.080   9.405   7.676  0.0977 -0.6555 -1.0972
 3329SOL    HW112942   2.025   9.444   7.745 -0.0283 -2.4730 -0.1040
 3329SOL    HW212943   2.166   9.444   7.690 -0.5736  1.1885 -1.7946
 3330SOL     OW12944   6.661   5.666   4.469  0.1110 -0.1832  0.0306
 3330SOL    HW112945   6.652   5.572   4.484  1.1261 -0.3697 -0.4394
 3330SOL    HW212946   6.623   5.707   4.547 -1.9415 -0.9120 -0.5049
 3331SOL     OW12947   8.896   5.866   1.433 -0.6275  0.3739 -0.1756
 3331SOL    HW112948   8.814   5.848   1.387 -0.4936 -0.8626  0.0482
 3331SOL    HW212949   8.935   5.939   1.384 -1.3503  0.2659 -0.9338
 3332SOL     OW12950   0.733   2.636   5.548  0.5164  0.0827  0.2850
 3332SOL    HW112951   0.652   2.607   5.590  0.1819 -0.2417 -0.5597
 3332SOL    HW212952   0.780   2.683   5.616 -1.0534  1.5729  0.4136
 3333SOL     OW12953   2.360   7.216   0.315 -0.2792  0.3492  0.5831
 3333SOL    HW112954   2.398   7.130   0.330 -0.6021  0.3987  1.7903
 3333SOL    HW212955   2.265   7.199   0.310 -0.2729  0.4993 -0.3366
 3334SOL     OW12956   9.109   8.457   1.951 -0.4067  0.1399 -0.0202
 3334SOL    HW112957   9.034   8.436   1.895 -0.2058 -0.3940 -0.0939
 3334SOL    HW212958   9.075   8.522   2.013 -0.8944  0.0013 -0.1383
 3335SOL     OW12959   3.779   1.830  10.205  0.1341 -0.1887 -0.6778
 3335SOL    HW112960   3.698   1.871  10.173  0.1190  0.4302  0.1474
 3335SOL    HW212961   3.799   1.876  10.286  1.0584 -0.6704 -0.6269
 3336SOL     OW12962   2.392   6.787   7.937 -0.1262 -0.0995 -0.1747
 3336SOL    HW112963   2.439   6.717   7.892  0.1503 -0.6209  0.9096
 3336SOL    HW212964   2.420   6.867   7.892  1.5504 -0.4253  0.2385
 3337SOL     OW12965   2.837   2.623   3.203 -0.2729 -0.3118  0.8229
 3337SOL    HW112966   2.914   2.659   3.159  0.2251 -0.4235  1.5855
 3337SOL    HW212967   2.789   2.577   3.134 -0.2744  0.7375  0.0933
 3338SOL     OW12968   0.488   3.633   4.979 -0.1556  0.1813  0.4277
 3338SOL    HW112969   0.560   3.642   5.041 -0.3510 -0.2322  0.7223
 3338SOL    HW212970   0.469   3.722   4.951 -0.6195  0.4683  1.6064
 3339SOL     OW12971   9.832   3.296   0.227  0.6874 -0.3187 -0.4267
 3339SOL    HW112972   9.785   3.360   0.173  0.7217  0.2543  0.2019
 3339SOL    HW212973   9.894   3.349   0.278  2.1902 -1.0801 -1.3930
 3340SOL     OW12974   6.612  10.209   9.347  0.4301  0.8801  0.2898
 3340SOL    HW112975   6.588  10.153   9.273 -0.3574 -0.8638  1.7932
 3340SOL    HW212976   6.681  10.266   9.312  0.6837 -0.4504 -1.5446
 3341SOL     OW12977   6.657   2.088   0.140 -0.0949  0.6206  0.1688
 3341SOL    HW112978   6.641   1.998   0.110  0.7344  0.5514 -0.0894
 3341SOL    HW212979   6.611   2.094   0.224 -1.5012  0.4590 -0.5626
 3342SOL     OW12980   1.637   7.118   1.608 -0.2586  0.1007  0.5425
 3342SOL    HW112981   1.640   7.058   1.683 -2.1101 -0.1320  0.4855
 3342SOL    HW212982   1.698   7.188   1.631 -1.3024  0.4164  2.6242
 3343SOL     OW12983   7.252   4.893   6.734  0.5722  0.2498 -0.0740
 3343SOL    HW112984   7.310   4.966   6.715  0.4697  0.6899  1.1914
 3343SOL    HW212985   7.170   4.934   6.762  0.0436 -0.3580 -0.7048
 3344SOL     OW12986   2.253   1.759   0.618  0.3980  0.7280 -0.0987
 3344SOL    HW112987   2.205   1.841   0.620 -0.5493  0.1971 -0.4218
 3344SOL    HW212988   2.187   1.693   0.597  1.2114 -0.0642 -0.2304
 3345SOL     OW12989   7.968  10.456   4.216 -0.6103  0.4235  0.4267
 3345SOL    HW112990   7.930  10.477   4.131  1.2255 -0.8893 -0.7933
 3345SOL    HW212991   7.980  10.541   4.259 -1.2229  1.1395 -0.7759
 3346SOL     OW12992   9.261   3.683   1.041 -0.0231  0.0577 -0.2557
 3346SOL    HW112993   9.188   3.740   1.066  0.9470 -0.1393  3.6214
 3346SOL    HW212994   9.219   3.608   1.000 -1.7166  1.2980 -0.9148
 3347SOL     OW12995   9.038   3.749   2.751 -0.3735  0.0635 -0.3427
 3347SOL    HW112996   9.076   3.830   2.784 -0.9766 -0.2431  1.2302
 3347SOL    HW212997   8.997   3.709   2.828  1.3164 -2.5740 -0.6658
 3348SOL     OW12998   5.028   8.640   1.271 -0.4782  0.4408  0.6004
 3348SOL    HW112999   4.946   8.625   1.318 -0.4324  0.7674  0.7864
 3348SOL    HW213000   5.011   8.718   1.217 -0.3250  0.4478  0.5615
 3349SOL     OW13001   7.476   1.291   0.310 -0.6410 -0.2831 -0.1362
 3349SOL    HW113002   7.453   1.246   0.228 -1.6842 -0.8579  0.4435
 3349SOL    HW213003   7.480   1.383   0.287  0.0657 -0.5212 -1.0396
 3350SOL     OW13004   4.207   8.715   3.191  0.3656 -0.5978 -0.1355
 3350SOL    HW113005   4.270   8.787   3.182 -0.1028 -0.2542 -0.7827
 3350SOL    HW213006   4.141   8.749   3.251  0.0198 -0.3910 -0.6274
 3351SOL     OW13007   2.696   2.673   7.563 -0.7031 -0.7675 -0.5175
 3351SOL    HW113008   2.709   2.611   7.492 -1.4613 -1.1448 -0.3376
 3351SOL    HW213009   2.700   2.620   7.642  3.3349  0.0702  0.0113
 3352SOL     OW13010   7.446   8.953   1.727  0.0354  0.2304 -0.3100
 3352SOL    HW113011   7.535   8.967   1.759  0.0385 -0.6554  0.1165
 3352SOL    HW213012   7.405   9.039   1.730  0.6902  0.5339  0.0778
 3353SOL     OW13013   7.150   7.614   1.880  0.0732  0.2824 -0.0896
 3353SOL    HW113014   7.185   7.698   1.849  1.5133 -0.2397  0.0294
 3353SOL    HW213015   7.216   7.582   1.941 -1.1047 -0.3150  0.9047
 3354SOL     OW13016   3.904   8.223   8.175  0.3809  0.5501 -0.0692
 3354SOL    HW113017   3.841   8.196   8.108 -0.1097 -1.9998  1.2956
 3354SOL    HW213018   3.873   8.309   8.203 -2.6855 -0.6670  0.6566
 3355SOL     OW13019   8.936   1.348   9.347 -0.7082  0.6821  0.3979
 3355SOL    HW113020   8.888   1.314   9.422 -1.3461  0.0807 -0.2752
 3355SOL    HW213021   8.880   1.418   9.313 -0.4644  0.8884  0.4174
 3356SOL     OW13022   4.307   1.084  10.468  0.1361 -0.3863 -1.0013
 3356SOL    HW113023   4.253   1.014  10.504  1.3759 -0.5368  0.6682
 3356SOL    HW213024   4.309   1.151  10.536  2.7066 -0.7640 -0.5981
 3357SOL     OW13025   3.781   5.610   5.495  0.1742 -0.2173 -0.0812
 3357SOL    HW113026   3.756   5.529   5.450 -0.9015 -0.1619  0.3742
 3357SOL    HW213027   3.762   5.593   5.588 -1.1212  0.9202 -0.1081
 3358SOL     OW13028   1.276   0.777   4.520  0.2181 -0.5549  0.3965
 3358SOL    HW113029   1.361   0.810   4.489 -0.8060  1.7056 -0.2015
 3358SOL    HW213030   1.268   0.811   4.609 -0.6124  0.4119 -0.0269
 3359SOL     OW13031   3.916   6.474   8.489  0.6209 -0.2799  0.5053
 3359SOL    HW113032   3.837   6.518   8.461  1.0201 -0.4321 -0.9446
 3359SOL    HW213033   3.900   6.381   8.471  1.7412 -0.1428 -1.4574
 3360SOL     OW13034   2.623   8.096   1.642 -0.8417 -0.1008  0.0767
 3360SOL    HW113035   2.609   8.018   1.588 -1.4725  0.5298 -0.7105
 3360SOL    HW213036   2.545   8.150   1.626  0.5486  1.6735 -1.1040
 3361SOL     OW13037   7.885  10.299  10.430 -0.0174 -0.0279 -0.0841
 3361SOL    HW113038   7.927  10.309  10.516 -0.9253  0.9569  0.2710
 3361SOL    HW213039   7.823  10.372  10.425 -0.4650 -0.4631 -1.3015
 3362SOL     OW13040   8.738   1.784   0.551  0.4353  0.2350 -0.0271
 3362SOL    HW113041   8.823   1.808   0.587  0.7009 -0.6890 -0.0164
 3362SOL    HW213042   8.725   1.845   0.478  0.5536  1.1537  0.7049
 3363SOL     OW13043   3.762   9.398  10.451  0.3097  0.2292  0.3598
 3363SOL    HW113044   3.754   9.477  10.504  0.0076  0.0357  0.6096
 3363SOL    HW213045   3.852   9.400  10.418 -0.2293  1.6379 -1.1789
 3364SOL     OW13046   1.077   0.798   9.608 -0.4318  0.5791 -0.2158
 3364SOL    HW113047   1.094   0.781   9.516  1.0381 -0.0110  0.1354
 3364SOL    HW213048   1.082   0.894   9.616  0.0422  0.5948 -0.6479
 3365SOL     OW13049   6.983   9.377   0.471 -0.0591 -0.3967  0.6891
 3365SOL    HW113050   6.942   9.298   0.437  1.6675 -1.2113  0.3775
 3365SOL    HW213051   6.912   9.425   0.512 -1.3460 -1.6086 -0.0287
 3366SOL     OW13052   4.632   3.861   1.844 -0.5081  0.1349 -0.3456
 3366SOL    HW113053   4.726   3.840   1.845 -0.4465  0.4265  0.2462
 3366SOL    HW213054   4.618   3.902   1.759 -0.2160 -0.4257 -0.6759
 3367SOL     OW13055   9.363   1.394   6.477  0.2078  0.2342  0.3593
 3367SOL    HW113056   9.321   1.309   6.477 -1.7209  1.1167 -0.6917
 3367SOL    HW213057   9.378   1.415   6.569  0.7624 -1.2209  0.6216
 3368SOL     OW13058   5.528   7.207   9.740  0.1071  0.1620 -0.7828
 3368SOL    HW113059   5.573   7.269   9.797 -0.5965  0.3210 -0.3833
 3368SOL    HW213060   5.478   7.262   9.679 -0.7742 -0.0010 -0.2217
 3369SOL     OW13061   8.404   6.224   7.997 -0.2234 -0.4015 -0.1153
 3369SOL    HW113062   8.317   6.221   8.036  0.7122  0.7351  2.2454
 3369SOL    HW213063   8.428   6.132   7.984 -1.0596 -0.7892  0.9544
 3370SOL     OW13064   4.296  10.279   0.904 -0.4571 -0.1723 -0.0795
 3370SOL    HW113065   4.233  10.212   0.878  0.6104 -0.7954 -1.1444
 3370SOL    HW213066   4.273  10.355   0.852 -1.9459  0.4865  1.4470
 3371SOL     OW13067   4.698   6.148   5.247 -0.0812 -0.5296  0.1317
 3371SOL    HW113068   4.686   6.055   5.232 -0.0264 -0.2716 -1.8369
 3371SOL    HW213069   4.636   6.190   5.187 -1.1407  0.7107  2.0148
 3372SOL     OW13070   5.209   7.584   7.680 -0.3078  0.6621  0.2935
 3372SOL    HW113071   5.292   7.615   7.714 -1.5800 -0.0483  4.5537
 3372SOL    HW213072   5.208   7.490   7.697 -2.2757  0.7826  1.1843
 3373SOL     OW13073   1.465   5.612   4.213 -0.3412 -0.0447 -0.6106
 3373SOL    HW113074   1.501   5.524   4.208 -0.8676 -0.2592 -0.7600
 3373SOL    HW213075   1.530   5.668   4.171  0.5122 -0.1948  0.4685
 3374SOL     OW13076   0.685   6.639  10.379  0.2514  0.4297 -0.1439
 3374SOL    HW113077   0.714   6.602  10.295 -0.5825 -1.1017  0.2178
 3374SOL    HW213078   0.749   6.607  10.443  0.6246  1.2215 -0.1100
 3375SOL     OW13079   9.817   4.310   7.383  0.3291 -0.1451 -0.2520
 3375SOL    HW113080   9.847   4.225   7.352 -0.6894 -0.8160  0.5262
 3375SOL    HW213081   9.747   4.290   7.446 -0.8775  1.2919 -1.0581
 3376SOL     OW13082   1.454   0.595   7.468  0.2751 -0.6360 -0.5818
 3376SOL    HW113083   1.498   0.572   7.386 -0.0827  0.2267 -1.0210
 3376SOL    HW213084   1.466   0.690   7.476  0.3183 -0.7119  0.3752
 3377SOL     OW13085   9.566   6.562   6.477  0.3154 -0.4262  0.3442
 3377SOL    HW113086   9.487   6.573   6.424  0.3617  0.5444  0.4547
 3377SOL    HW213087   9.632   6.615   6.433  1.1675 -1.9278 -0.2383
 3378SOL     OW13088   1.717   3.850   3.427 -0.2098  0.7024 -0.8870
 3378SOL    HW113089   1.795   3.904   3.417 -0.7571  1.5403 -0.7805
 3378SOL    HW213090   1.702   3.812   3.340  2.1856 -2.1743 -0.1807
 3379SOL     OW13091   9.261  10.054   0.102 -0.2595 -0.3670 -0.3559
 3379SOL    HW113092   9.179  10.005   0.099  0.3479 -1.3889 -0.8537
 3379SOL    HW213093   9.329   9.986   0.108  0.5937  0.4248 -0.8148
 3380SOL     OW13094   4.057   5.985   8.563 -0.1667  0.1510  0.1548
 3380SOL    HW113095   4.006   5.914   8.602  0.1033 -0.2538 -0.2110
 3380SOL    HW213096   4.133   5.941   8.524 -0.8377  0.4153 -1.5639
 3381SOL     OW13097   6.407   5.821   7.631 -0.0757  0.2513  0.0358
 3381SOL    HW113098   6.476   5.797   7.570 -1.6158 -1.4919 -1.1482
 3381SOL    HW213099   6.434   5.782   7.715  0.0742 -1.0135 -0.5761
 3382SOL     OW13100   4.964   1.916   1.294  0.0658 -0.4263 -0.1961
 3382SOL    HW113101   5.037   1.906   1.355  0.8603 -0.9032 -1.1898
 3382SOL    HW213102   4.944   2.010   1.295  0.2226 -0.4013  0.6217
 3383SOL     OW13103   9.100   6.448   0.470 -0.5053  0.3857  0.7083
 3383SOL    HW113104   9.100   6.503   0.392 -0.1755  0.5696  0.8340
 3383SOL    HW213105   9.191   6.421   0.480 -0.6775 -0.2427  0.6092
 3384SOL     OW13106   0.471   4.729   6.214  0.6846 -0.3033 -0.4137
 3384SOL    HW113107   0.484   4.803   6.154 -2.0298  0.2010 -0.5107
 3384SOL    HW213108   0.500   4.763   6.299  0.6616  0.4416 -0.6891
 3385SOL     OW13109   0.232   3.070   0.278  0.3090 -0.1438  0.3780
 3385SOL    HW113110   0.233   3.089   0.372 -0.2692  1.0966  0.1494
 3385SOL    HW213111   0.172   3.134   0.241  0.2686 -0.8393 -0.8076
 3386SOL     OW13112   3.867   2.869   1.348  0.6142  0.3267 -0.5635
 3386SOL    HW113113   3.928   2.906   1.284 -0.7974 -0.2712 -2.3509
 3386SOL    HW213114   3.828   2.794   1.303 -1.5284  0.7622  0.4403
 3387SOL     OW13115   2.513   5.315   9.048 -0.9495 -0.1054  0.3115
 3387SOL    HW113116   2.459   5.312   9.127 -0.0587 -1.1185  0.9012
 3387SOL    HW213117   2.588   5.370   9.072 -0.2286 -1.1475  0.4653
 3388SOL     OW13118   6.173   8.618   4.873  1.2628 -0.0309  0.0066
 3388SOL    HW113119   6.132   8.633   4.958 -0.1271 -0.3042 -0.5861
 3388SOL    HW213120   6.237   8.549   4.888 -0.6558 -1.8128  0.3824
 3389SOL     OW13121   7.481   9.457   4.118 -0.2411 -0.3678 -0.2013
 3389SOL    HW113122   7.482   9.382   4.177 -1.7286 -1.0858 -1.0513
 3389SOL    HW213123   7.405   9.444   4.062 -0.9179  2.0751  0.0213
 3390SOL     OW13124   2.494   9.040   9.994 -0.1445 -0.0187  0.3943
 3390SOL    HW113125   2.399   9.030  10.008  0.2493 -1.9644  2.0816
 3390SOL    HW213126   2.534   8.989  10.064  2.1916  0.9650 -0.1412
 3391SOL     OW13127   6.941   2.829   5.924  0.2929 -0.4266 -0.3402
 3391SOL    HW113128   6.964   2.771   5.852  1.6832  0.4040 -0.5906
 3391SOL    HW213129   7.022   2.840   5.973 -0.1872  0.5263  0.2601
 3392SOL     OW13130   0.244   5.846   4.094 -0.6321 -0.0761 -0.3632
 3392SOL    HW113131   0.150   5.837   4.110 -0.1883 -2.3558  1.5188
 3392SOL    HW213132   0.272   5.915   4.153 -0.8906 -0.4322  0.1791
 3393SOL     OW13133   6.341   8.261   8.718  0.0909  0.1738 -0.1046
 3393SOL    HW113134   6.317   8.219   8.801 -1.5920 -0.2005 -0.7414
 3393SOL    HW213135   6.418   8.213   8.688 -0.7438 -1.3297  0.0562
 3394SOL     OW13136   9.224   9.361   5.979 -0.0603 -0.4752  0.0936
 3394SOL    HW113137   9.253   9.302   5.909 -0.9626 -0.1723 -0.5487
 3394SOL    HW213138   9.131   9.375   5.961  0.0263  0.7311  0.5439
 3395SOL     OW13139   8.430   7.683   3.456  0.2725  0.3814  0.1697
 3395SOL    HW113140   8.453   7.621   3.386  1.1173  2.1991 -1.2428
 3395SOL    HW213141   8.489   7.662   3.528  0.8732 -0.1428 -0.4631
 3396SOL     OW13142   0.350   3.829   9.952  0.0348  0.7084  0.3464
 3396SOL    HW113143   0.355   3.734   9.967 -1.1063  0.6253  0.2592
 3396SOL    HW213144   0.301   3.837   9.870 -2.5885  1.4406  1.8864
 3397SOL     OW13145   0.881   2.790   9.118 -0.1951 -0.0744 -0.0574
 3397SOL    HW113146   0.794   2.806   9.153 -0.7069  2.2157 -2.0606
 3397SOL    HW213147   0.865   2.750   9.032  0.7987 -0.8281  0.0905
 3398SOL     OW13148   2.362   1.303   1.114 -0.8776 -0.4435  0.2236
 3398SOL    HW113149   2.449   1.294   1.154 -0.5482  2.8564  0.5649
 3398SOL    HW213150   2.321   1.218   1.126  3.2911 -3.2381 -2.6517
 3399SOL     OW13151   7.869   5.123   8.726 -0.3195 -0.1229 -0.0528
 3399SOL    HW113152   7.872   5.120   8.630 -0.6831  1.3699 -0.1386
 3399SOL    HW213153   7.796   5.182   8.746  0.3532  0.3447  1.1270
 3400SOL     OW13154  10.503   5.477   0.330  0.3447 -0.7222 -0.2874
 3400SOL    HW113155  10.452   5.557   0.319  0.4214 -0.3904  1.4861
 3400SOL    HW213156  10.582   5.491   0.278  1.1214  1.0850  1.2710
 3401SOL     OW13157   9.942   4.247   3.017  0.2674 -0.1242 -0.3185
 3401SOL    HW113158   9.900   4.245   3.103  0.9277  0.7699  0.0416
 3401SOL    HW213159   9.979   4.335   3.010 -1.5689  0.6048 -2.3958
 3402SOL     OW13160   9.608  10.201   2.745 -0.5141  0.1418  0.5907
 3402SOL    HW113161   9.579  10.278   2.696 -0.2047 -0.4537 -0.5845
 3402SOL    HW213162   9.545  10.192   2.816 -1.9635  0.1119 -0.6503
 3403SOL     OW13163   2.606   6.742   4.890 -0.7398  0.0310  0.0826
 3403SOL    HW113164   2.688   6.703   4.921 -0.8705  0.2079  0.6627
 3403SOL    HW213165   2.540   6.675   4.909 -0.4489 -1.0146 -2.3311
 3404SOL     OW13166   0.497   4.559   5.579 -0.0651 -0.4942  0.0856
 3404SOL    HW113167   0.552   4.556   5.501  0.0658 -0.5876  0.1794
 3404SOL    HW213168   0.416   4.514   5.554 -1.0763  1.6870 -0.8026
 3405SOL     OW13169   6.392   4.205   3.569  0.1193 -0.1012  0.0470
 3405SOL    HW113170   6.338   4.277   3.603 -0.1683 -0.1324 -0.3380
 3405SOL    HW213171   6.340   4.126   3.585  0.3262 -0.1983  0.2434
 3406SOL     OW13172   2.550   2.146  10.290  0.0782 -0.3665 -0.0729
 3406SOL    HW113173   2.538   2.180  10.379  0.0473 -2.2319  0.6849
 3406SOL    HW213174   2.470   2.097  10.271  0.7322 -1.3395 -0.4534
 3407SOL     OW13175   9.157   0.658   7.100  0.0128 -0.1412  0.6247
 3407SOL    HW113176   9.188   0.682   7.188  0.8812  0.4954  0.1644
 3407SOL    HW213177   9.178   0.565   7.093  0.8139  0.0178  0.7541
 3408SOL     OW13178   5.716  10.258   0.593  0.3350 -0.5960 -0.2522
 3408SOL    HW113179   5.691  10.257   0.500  1.2557 -0.8154 -0.5159
 3408SOL    HW213180   5.672  10.181   0.630  1.2033 -1.4302 -0.8798
 3409SOL     OW13181   8.265   9.577   8.995 -0.2496  0.3169  0.0830
 3409SOL    HW113182   8.274   9.506   9.059  0.6733 -0.9002 -1.3275
 3409SOL    HW213183   8.173   9.572   8.967 -0.5274  0.5340  0.9441
 3410SOL     OW13184   2.329   5.468   7.496  0.1164  0.8375  0.2946
 3410SOL    HW113185   2.406   5.456   7.551 -0.0400  0.9630  0.5411
 3410SOL    HW213186   2.264   5.508   7.554 -0.6020 -0.5360  0.4660
 3411SOL     OW13187   0.815   2.553   8.910 -0.3900  0.0609 -0.5297
 3411SOL    HW113188   0.898   2.564   8.863 -0.0333 -0.6448 -0.0858
 3411SOL    HW213189   0.794   2.461   8.899 -1.5856  0.4134 -1.3822
 3412SOL     OW13190   1.009   4.112   3.757 -0.4697 -0.4851  0.2562
 3412SOL    HW113191   0.987   4.037   3.702  2.8533 -1.6572  0.3524
 3412SOL    HW213192   1.063   4.076   3.827  2.5027  2.1299 -0.5019
 3413SOL     OW13193   3.014   1.356   5.210 -0.2238  0.8546 -0.0663
 3413SOL    HW113194   3.100   1.398   5.203 -0.1075  0.5016 -0.8116
 3413SOL    HW213195   3.032   1.272   5.252 -0.6079  1.9711  2.5516
 3414SOL     OW13196   5.576   5.820   0.230 -0.6905  0.5673 -0.2505
 3414SOL    HW113197   5.528   5.757   0.175 -1.4993  1.2518 -0.3483
 3414SOL    HW213198   5.511   5.888   0.250  0.2417  1.5043 -0.3633
 3415SOL     OW13199  10.644   8.599   5.334 -0.4001  0.3656  0.1220
 3415SOL    HW113200  10.687   8.550   5.264 -0.1454  1.0119 -0.1854
 3415SOL    HW213201  10.635   8.536   5.406 -1.6011 -0.6002 -0.8369
 3416SOL     OW13202  10.100   0.995   4.977 -0.7823  0.2188 -0.1205
 3416SOL    HW113203  10.112   1.080   4.934 -0.6178  0.0003 -0.5163
 3416SOL    HW213204  10.042   1.014   5.051 -0.5667  0.7150 -0.0698
 3417SOL     OW13205   9.379   5.065   3.252 -0.4210 -0.8372  0.3934
 3417SOL    HW113206   9.340   4.980   3.268  0.4064 -1.1414  0.8540
 3417SOL    HW213207   9.310   5.117   3.211 -0.3692 -2.3198 -1.7142
 3418SOL     OW13208   6.676   2.543  10.014  0.5928  0.2050  0.2392
 3418SOL    HW113209   6.596   2.525  10.063  1.3486 -0.5802  1.2430
 3418SOL    HW213210   6.747   2.514  10.072  1.6471  1.5645 -0.3132
 3419SOL     OW13211   1.303   5.695   3.759 -0.1034 -0.0770  0.0971
 3419SOL    HW113212   1.382   5.721   3.711  0.4434 -0.9798  0.4837
 3419SOL    HW213213   1.248   5.773   3.759  1.2743  0.9319  0.8002
 3420SOL     OW13214   4.849   6.890   5.703 -0.2713 -0.3516  0.7509
 3420SOL    HW113215   4.790   6.827   5.662 -1.2131  1.0720 -0.1554
 3420SOL    HW213216   4.865   6.956   5.635 -0.6342  1.2552  2.1669
 3421SOL     OW13217  10.675   0.149   1.298 -0.1914  0.4577 -0.2208
 3421SOL    HW113218  10.674   0.099   1.379 -2.0596 -1.0290 -1.0744
 3421SOL    HW213219  10.766   0.178   1.288  0.7568 -1.9422  0.8538
 3422SOL     OW13220   0.809   4.779   1.102 -0.1102  0.0592  0.2815
 3422SOL    HW113221   0.890   4.729   1.100  0.0603  0.2918  0.9697
 3422SOL    HW213222   0.822   4.849   1.038 -0.1943 -0.5347 -0.3872
 3423SOL     OW13223   6.309   2.325   1.721  0.4803  0.2759  0.0377
 3423SOL    HW113224   6.218   2.349   1.741  0.6500  1.0221 -0.0881
 3423SOL    HW213225   6.361   2.399   1.749  1.1514 -0.4985  0.8943
 3424SOL     OW13226   9.675   7.670   4.942 -0.2345  0.3316  0.3377
 3424SOL    HW113227   9.723   7.649   4.862 -0.1069 -1.8139  0.9052
 3424SOL    HW213228   9.585   7.643   4.923 -0.2343 -0.0456  0.8517
 3425SOL     OW13229   7.931  10.603   6.866 -0.4738 -0.2734 -0.5787
 3425SOL    HW113230   8.011  10.555   6.847  1.1851  1.5126  1.3458
 3425SOL    HW213231   7.938  10.683   6.812  0.0838  0.8184  1.0452
 3426SOL     OW13232   7.602   2.563   1.971  0.1972 -0.1163 -0.0070
 3426SOL    HW113233   7.588   2.496   1.904  1.5775 -1.5592  1.0880
 3426SOL    HW213234   7.654   2.520   2.038 -0.6708  1.4514  1.7688
 3427SOL     OW13235   1.628   6.686   5.014 -0.7253  0.0965  0.5139
 3427SOL    HW113236   1.592   6.613   5.065 -2.6033  0.7696  0.2366
 3427SOL    HW213237   1.570   6.759   5.033 -0.7582  0.7005 -1.6174
 3428SOL     OW13238   4.746   8.689   3.058  0.3413  0.5646  0.0334
 3428SOL    HW113239   4.749   8.688   3.154 -0.0196  0.4442  0.0466
 3428SOL    HW213240   4.787   8.771   3.033  2.9816 -0.6005  0.1831
 3429SOL     OW13241   4.222   9.777   5.451 -0.7592  0.3560 -0.0685
 3429SOL    HW113242   4.236   9.713   5.382 -1.5530  0.6753 -0.5265
 3429SOL    HW213243   4.292   9.841   5.439 -2.1202  1.5731 -1.9279
 3430SOL     OW13244   9.573   0.991   6.002 -0.2388 -0.2138  0.1730
 3430SOL    HW113245   9.601   1.017   5.914 -0.1999  1.0135  0.5292
 3430SOL    HW213246   9.489   1.035   6.014  0.3379  0.6379  1.2084
 3431SOL     OW13247   4.316   7.638   2.437  0.0522 -0.0979  0.4440
 3431SOL    HW113248   4.234   7.640   2.387 -1.6456 -0.0789  3.0293
 3431SOL    HW213249   4.332   7.729   2.460  1.2352 -0.0128 -0.6658
 3432SOL     OW13250   7.633   4.024   3.844 -0.4231  0.0658  1.0784
 3432SOL    HW113251   7.573   4.087   3.883 -0.2211  0.3208  0.9777
 3432SOL    HW213252   7.694   4.002   3.914  0.9351  1.7490  0.4739
 3433SOL     OW13253   0.238   8.151   5.687  0.1157 -0.0001  0.1655
 3433SOL    HW113254   0.158   8.118   5.646  0.2106  0.5251 -0.4470
 3433SOL    HW213255   0.249   8.239   5.653  0.8490  0.0087  0.3992
 3434SOL     OW13256   8.312   2.845   5.550 -0.0965 -0.1288  0.4974
 3434SOL    HW113257   8.330   2.933   5.585 -0.5349  0.1207  0.1060
 3434SOL    HW213258   8.281   2.795   5.626 -0.6472  0.2944  0.5605
 3435SOL     OW13259   8.622   9.167   3.260  0.1064 -0.1687 -0.1949
 3435SOL    HW113260   8.670   9.104   3.206  0.0999 -0.9781  0.7213
 3435SOL    HW213261   8.604   9.120   3.342 -0.5726  0.7683  0.2115
 3436SOL     OW13262   9.128   1.786   4.516 -0.5600 -0.3726 -0.1524
 3436SOL    HW113263   9.122   1.822   4.428  0.2557  5.3240  1.7524
 3436SOL    HW213264   9.206   1.732   4.514  0.3957  0.9368 -2.5516
 3437SOL     OW13265   6.501   9.562   7.291  0.2271  0.2077 -0.1640
 3437SOL    HW113266   6.444   9.625   7.335 -1.0132 -0.0888 -1.2907
 3437SOL    HW213267   6.478   9.568   7.199 -0.3749 -2.2895 -0.2592
 3438SOL     OW13268   3.890   8.678   6.993  0.3299 -0.3876 -0.1703
 3438SOL    HW113269   3.897   8.761   7.039  0.0485 -0.4217 -0.0662
 3438SOL    HW213270   3.893   8.702   6.900 -0.7566 -0.1625 -0.1576
 3439SOL     OW13271   9.350   9.676   6.846 -0.3621 -0.4465 -0.6459
 3439SOL    HW113272   9.257   9.680   6.870 -0.4666  2.7339 -1.1871
 3439SOL    HW213273   9.351   9.630   6.761 -1.5214  0.0543 -0.9463
 3440SOL     OW13274   5.791   1.986   6.883  0.1123 -0.2912  0.4217
 3440SOL    HW113275   5.756   2.063   6.927 -1.3789 -0.3859 -0.5217
 3440SOL    HW213276   5.713   1.940   6.849  1.1128 -0.6126 -1.6301
 3441SOL     OW13277   8.365   0.699   0.661  0.1781 -0.8455  0.2040
 3441SOL    HW113278   8.277   0.726   0.686  0.7404 -0.0302  1.3457
 3441SOL    HW213279   8.423   0.746   0.720  1.4122 -1.1310 -0.7351
 3442SOL     OW13280   4.680   8.001  10.276 -0.1800  0.6304 -0.4851
 3442SOL    HW113281   4.628   7.920  10.270 -0.4106  0.8536 -1.7254
 3442SOL    HW213282   4.771   7.971  10.283 -0.3512  0.2604  0.3405
 3443SOL     OW13283  10.660   7.174   2.544  0.0709  0.1283  0.0883
 3443SOL    HW113284  10.724   7.241   2.520 -0.9962  1.4740  0.8749
 3443SOL    HW213285  10.652   7.180   2.639 -1.8393  0.6023 -0.0662
 3444SOL     OW13286   4.047   0.185   9.517 -0.1401 -0.1998 -0.2227
 3444SOL    HW113287   3.993   0.125   9.464 -1.4725  0.7168  0.0500
 3444SOL    HW213288   4.069   0.134   9.595 -0.5480 -0.6300 -0.3784
 3445SOL     OW13289  10.644   2.593   8.995  0.1752 -0.3027 -0.1330
 3445SOL    HW113290  10.670   2.649   9.068 -0.9839  0.0487  0.0392
 3445SOL    HW213291  10.694   2.626   8.920 -0.8867  1.3419 -0.1504
 3446SOL     OW13292   3.735   2.203   9.702 -0.0009  0.5055 -0.2056
 3446SOL    HW113293   3.766   2.112   9.698  1.1169  0.8821 -0.5170
 3446SOL    HW213294   3.670   2.210   9.633 -0.2820 -0.1185 -0.0158
 3447SOL     OW13295   6.579   1.228  10.415 -0.3556 -0.2260  0.0410
 3447SOL    HW113296   6.509   1.183  10.463 -0.7105  0.3507  0.0799
 3447SOL    HW213297   6.650   1.236  10.478  0.2664 -1.9949 -0.3904
 3448SOL     OW13298   5.969   4.615  10.293 -0.1316 -0.0712  0.2223
 3448SOL    HW113299   6.054   4.656  10.306  0.0295 -0.3988  0.1910
 3448SOL    HW213300   5.932   4.608  10.381 -0.0911 -0.0170  0.2435
 3449SOL     OW13301   6.884   7.977   0.499 -0.5279  0.1829  0.1306
 3449SOL    HW113302   6.810   7.963   0.558  0.4362  0.1671  1.3573
 3449SOL    HW213303   6.897   7.893   0.456 -1.5332  0.3217 -0.4949
 3450SOL     OW13304   3.532   8.174   7.401 -0.1306  0.3585  0.2164
 3450SOL    HW113305   3.553   8.266   7.386  1.0717 -0.1577 -1.6515
 3450SOL    HW213306   3.605   8.141   7.454  0.0336  0.2468 -0.0727
 3451SOL     OW13307   1.580   1.903   3.093 -0.2169  0.1987  0.3256
 3451SOL    HW113308   1.534   1.857   3.023  0.9457  0.3537 -0.5582
 3451SOL    HW213309   1.510   1.945   3.143 -1.0436  0.9607 -1.3653
 3452SOL     OW13310   4.234   4.733   5.436 -0.3962  0.6461  0.3120
 3452SOL    HW113311   4.284   4.790   5.495 -0.3052  0.2535  0.6205
 3452SOL    HW213312   4.179   4.680   5.495 -0.6958  0.6208  0.0125
 3453SOL     OW13313   8.750   3.976   3.907 -0.2624  0.1644 -0.2729
 3453SOL    HW113314   8.836   4.001   3.942 -0.2592 -0.8047  0.4573
 3453SOL    HW213315   8.766   3.893   3.862 -0.7845  0.0652 -0.2804
 3454SOL     OW13316   7.527   7.367   7.807 -0.3512 -0.0063 -0.2430
 3454SOL    HW113317   7.477   7.423   7.866 -1.6351  0.8327 -2.0113
 3454SOL    HW213318   7.461   7.308   7.768  0.7868 -1.9740  0.6761
 3455SOL     OW13319   6.932   8.482  10.681  0.7314 -0.6883 -0.0659
 3455SOL    HW113320   6.948   8.469  10.588 -1.9518 -0.2472 -0.6941
 3455SOL    HW213321   6.959   8.400  10.722  0.2587 -1.6165 -1.5196
 3456SOL     OW13322   7.870   3.908   5.347 -0.1795  0.6241 -0.0312
 3456SOL    HW113323   7.953   3.887   5.303 -0.5678  0.3519 -0.6592
 3456SOL    HW213324   7.869   4.003   5.352  0.7420  0.5852  1.1312
 3457SOL     OW13325   5.006   5.198   2.677  0.1339 -0.1893  0.1029
 3457SOL    HW113326   4.913   5.207   2.700  0.3298 -0.0914  0.9129
 3457SOL    HW213327   5.007   5.189   2.582 -0.6678  0.4180  0.0220
 3458SOL     OW13328   8.003   6.493   2.884 -0.4813 -0.0686 -0.3785
 3458SOL    HW113329   7.947   6.514   2.809  0.9563 -0.8962 -1.7494
 3458SOL    HW213330   8.081   6.546   2.870 -0.3717  0.0913  0.7894
 3459SOL     OW13331   1.939   6.192   1.150  0.0500 -0.5875  0.1580
 3459SOL    HW113332   1.984   6.260   1.199 -0.4404  0.1848 -0.4305
 3459SOL    HW213333   1.856   6.180   1.197  0.0820 -0.6805  0.1899
 3460SOL     OW13334   8.546   3.418   3.650 -0.5616 -0.2448  0.6381
 3460SOL    HW113335   8.539   3.412   3.554  1.8274  1.5812  0.2545
 3460SOL    HW213336   8.514   3.506   3.671 -1.4799 -0.7893  1.5984
 3461SOL     OW13337   1.702   7.083   8.231 -0.3707  0.3047  0.6462
 3461SOL    HW113338   1.645   7.138   8.177  1.7993 -0.1319 -2.3128
 3461SOL    HW213339   1.775   7.140   8.255  1.3159 -0.8116 -1.4774
 3462SOL     OW13340   7.489   1.617   5.177 -0.5933 -0.4296  0.4286
 3462SOL    HW113341   7.530   1.548   5.229 -0.2351 -0.9289 -0.4977
 3462SOL    HW213342   7.399   1.586   5.165 -0.2724 -1.0456 -0.4906
 3463SOL     OW13343   2.410   6.744   5.342  0.2585 -0.0572  0.7279
 3463SOL    HW113344   2.378   6.771   5.255  0.1231 -0.8673  0.5223
 3463SOL    HW213345   2.497   6.708   5.325  1.2335  1.8727  1.2474
 3464SOL     OW13346   4.890   1.923   0.639 -0.2026 -0.0418 -0.2490
 3464SOL    HW113347   4.812   1.958   0.595 -0.7241  0.8715  1.3425
 3464SOL    HW213348   4.917   1.992   0.699  0.4084 -1.2809  0.9527
 3465SOL     OW13349   4.860   9.058   6.869  0.1085 -0.0906 -0.3600
 3465SOL    HW113350   4.815   8.978   6.842  2.6799 -1.7983  0.0049
 3465SOL    HW213351   4.918   9.079   6.796  2.9537 -1.4551  1.3151
 3466SOL     OW13352   9.233   0.303  10.660 -0.0343  0.1195  0.3423
 3466SOL    HW113353   9.193   0.371  10.605 -0.6408 -1.2551 -0.9823
 3466SOL    HW213354   9.327   0.320  10.655 -0.0750 -0.0041 -1.1675
 3467SOL     OW13355   3.589   7.756   0.195 -0.0233 -0.1425  0.4629
 3467SOL    HW113356   3.502   7.718   0.207  1.0821 -3.7033 -1.3819
 3467SOL    HW213357   3.578   7.848   0.220 -4.4945 -0.1594 -0.4603
 3468SOL     OW13358   7.069   6.985   0.296 -0.1220  0.0320  0.3225
 3468SOL    HW113359   7.034   7.030   0.374 -1.2888  0.2951 -0.3228
 3468SOL    HW213360   7.012   6.908   0.286  0.9486 -0.8123  0.5666
 3469SOL     OW13361   3.598   0.913   8.682 -0.1538 -0.1070  0.7209
 3469SOL    HW113362   3.642   0.998   8.683 -0.3231 -0.0204  0.8165
 3469SOL    HW213363   3.667   0.850   8.700 -0.0460  0.0192  0.7520
 3470SOL     OW13364   0.241   6.491   3.962 -0.1729 -0.0091 -0.1589
 3470SOL    HW113365   0.168   6.552   3.960 -1.0756 -1.0680 -0.9317
 3470SOL    HW213366   0.295   6.516   3.886 -0.6317 -0.2680 -0.5767
 3471SOL     OW13367   2.815   2.134   2.437  0.1606  0.3274  0.5013
 3471SOL    HW113368   2.748   2.094   2.493 -0.8638  0.0583 -0.8621
 3471SOL    HW213369   2.778   2.219   2.413  0.4197  0.2819 -0.0625
 3472SOL     OW13370   8.950   2.386   7.938  0.2313 -0.3004  0.1939
 3472SOL    HW113371   9.012   2.393   8.011  0.3185  0.4205  0.0561
 3472SOL    HW213372   8.928   2.476   7.916 -0.1730 -0.5260 -0.3543
 3473SOL     OW13373   3.447   7.666   0.907  0.3267  0.1758 -0.5098
 3473SOL    HW113374   3.522   7.650   0.849 -0.5482 -0.3738 -1.5233
 3473SOL    HW213375   3.486   7.692   0.991  1.6048  2.0629 -1.6385
 3474SOL     OW13376   6.037   8.083   8.307 -0.9069  0.2711 -0.2687
 3474SOL    HW113377   6.099   8.079   8.234 -1.0517  0.4853 -0.4063
 3474SOL    HW213378   6.078   8.143   8.370 -1.0410  0.5305 -0.4258
 3475SOL     OW13379   5.883   5.346   1.603 -0.1863 -0.4694  0.7056
 3475SOL    HW113380   5.971   5.340   1.641  0.0103 -1.1211  0.1711
 3475SOL    HW213381   5.883   5.281   1.532 -0.0520  1.6719 -1.3918
 3476SOL     OW13382   4.737   4.928   5.418 -0.0822 -0.1611  0.2296
 3476SOL    HW113383   4.766   4.915   5.508 -1.1221  1.0240  0.7665
 3476SOL    HW213384   4.764   5.017   5.397 -0.5014 -0.1691 -0.3659
 3477SOL     OW13385   3.606   7.511   0.718 -0.2625 -0.2342 -0.5608
 3477SOL    HW113386   3.565   7.567   0.652  0.4566  1.9035  0.7014
 3477SOL    HW213387   3.691   7.488   0.680 -0.3586 -0.0490 -0.8966
 3478SOL     OW13388   0.515   7.576   3.385 -0.1053 -0.6046 -0.0928
 3478SOL    HW113389   0.528   7.499   3.440 -1.0625 -0.2842  0.6200
 3478SOL    HW213390   0.432   7.614   3.416  0.2662  0.6237 -0.5332
 3479SOL     OW13391   8.862   8.290   1.267 -0.3178 -0.1230 -0.0188
 3479SOL    HW113392   8.788   8.265   1.323  0.3957  1.1195  1.5772
 3479SOL    HW213393   8.855   8.385   1.259  1.7987  0.2254  1.3327
 3480SOL     OW13394   1.093   0.020   6.625 -0.1747  0.6997 -0.7193
 3480SOL    HW113395   1.167   0.030   6.685  0.0258 -0.0452 -0.8308
 3480SOL    HW213396   1.040   0.099   6.639 -0.4427  0.2735  0.8644
 3481SOL     OW13397  10.197   7.076   9.912  0.3962  0.7124  0.1823
 3481SOL    HW113398  10.220   7.137   9.841 -0.3440  0.7126 -0.0634
 3481SOL    HW213399  10.102   7.081   9.918  0.2942 -0.6834 -0.0783
 3482SOL     OW13400   9.816   9.567   8.975 -0.1749 -0.0274 -0.5255
 3482SOL    HW113401   9.890   9.520   9.011 -0.4416  0.5232  0.7843
 3482SOL    HW213402   9.785   9.512   8.903 -0.4789 -1.8485  0.9432
 3483SOL     OW13403   1.829   2.361   8.758  0.7451  0.0921  0.1121
 3483SOL    HW113404   1.896   2.294   8.772  2.1090  0.6938 -2.8296
 3483SOL    HW213405   1.784   2.334   8.678  0.2979  1.8529 -0.2783
 3484SOL     OW13406   8.563   6.632   4.910 -0.2943 -0.1480 -0.6249
 3484SOL    HW113407   8.572   6.723   4.884  1.7271  0.0674  0.6479
 3484SOL    HW213408   8.582   6.582   4.831  1.7155  0.5354 -0.6380
 3485SOL     OW13409   8.170   3.163   3.389 -0.2399  0.0121  0.5179
 3485SOL    HW113410   8.266   3.163   3.381 -0.2910  0.5598 -0.1684
 3485SOL    HW213411   8.153   3.117   3.472  0.5843 -0.6573  0.3334
 3486SOL     OW13412   8.160   4.158   0.010  0.0722 -0.3868  0.2720
 3486SOL    HW113413   8.166   4.079   0.063  1.6396 -0.1062  0.5858
 3486SOL    HW213414   8.216   4.222   0.056 -1.9271  1.2513  0.5738
 3487SOL     OW13415   3.975   1.707   5.391 -1.2027 -0.5084 -1.0678
 3487SOL    HW113416   4.044   1.764   5.426 -1.8138 -0.5856  0.3544
 3487SOL    HW213417   4.020   1.625   5.372 -0.8728 -0.5572 -0.1521
 3488SOL     OW13418   8.085   0.728   8.193 -0.3447  0.2567 -0.7637
 3488SOL    HW113419   8.008   0.710   8.246 -0.4992  0.5178 -0.8972
 3488SOL    HW213420   8.124   0.642   8.176  1.6272  0.2779  2.6165
 3489SOL     OW13421   5.688   8.169   1.694 -0.6956  0.3518  0.0818
 3489SOL    HW113422   5.598   8.169   1.726 -1.3385 -1.5313 -1.4676
 3489SOL    HW213423   5.695   8.247   1.639 -1.6598  0.0798 -0.4367
 3490SOL     OW13424   4.731   2.582   6.185 -0.3828 -0.1954  0.0441
 3490SOL    HW113425   4.818   2.558   6.152  0.0171 -2.0366  2.1820
 3490SOL    HW213426   4.748   2.620   6.271 -1.7115 -1.3589  0.8656
 3491SOL     OW13427   6.095   4.064   5.927 -0.0048 -0.0805 -0.0986
 3491SOL    HW113428   6.130   3.976   5.935 -1.3079 -0.5814  0.4292
 3491SOL    HW213429   6.018   4.054   5.870  0.2782  0.8491 -0.6690
 3492SOL     OW13430   4.653   8.600   2.593 -0.4517  0.2929 -0.2756
 3492SOL    HW113431   4.608   8.672   2.636 -0.5025  0.5894 -0.8147
 3492SOL    HW213432   4.586   8.559   2.538 -0.3347  0.0526 -0.2407
 3493SOL     OW13433   1.453   6.920   7.446  0.5570  0.0047 -0.1136
 3493SOL    HW113434   1.461   6.985   7.516  0.4584 -0.6397  0.5141
 3493SOL    HW213435   1.412   6.845   7.488  0.0444 -0.2207 -0.9921
 3494SOL     OW13436   8.627   4.661   7.276 -0.2899  0.2016 -0.4729
 3494SOL    HW113437   8.623   4.640   7.369 -1.6401  1.4673 -0.2033
 3494SOL    HW213438   8.575   4.592   7.234 -2.1637  1.2170  0.0713
 3495SOL     OW13439   8.896   1.112   1.242  0.1754  0.3505  0.2849
 3495SOL    HW113440   8.971   1.102   1.184 -0.1550 -0.3297 -0.0347
 3495SOL    HW213441   8.820   1.116   1.184 -0.1049  0.2982  0.6387
 3496SOL     OW13442  10.678   1.064   6.494  0.5412  0.3606  0.0440
 3496SOL    HW113443  10.610   1.034   6.433 -0.0032  0.9006  0.3758
 3496SOL    HW213444  10.761   1.047   6.449  0.2227 -0.9682 -0.0787
 3497SOL     OW13445   7.799   1.182   2.778  0.2991 -0.5767 -0.7756
 3497SOL    HW113446   7.775   1.141   2.862 -2.0694  0.2870 -0.9593
 3497SOL    HW213447   7.884   1.222   2.794 -0.4179  0.1814  1.4591
 3498SOL     OW13448   3.027   6.660   6.380  0.2270 -0.0889 -0.5160
 3498SOL    HW113449   2.952   6.720   6.376 -0.1086 -0.4149  0.5315
 3498SOL    HW213450   3.098   6.714   6.415 -0.8029 -0.8943  3.2369
 3499SOL     OW13451   5.856   1.817   5.355  0.4489 -0.3453  0.3504
 3499SOL    HW113452   5.806   1.899   5.350  1.2978  0.0862 -1.6735
 3499SOL    HW213453   5.788   1.750   5.365 -0.4985  0.3357 -1.1215
 3500SOL     OW13454   1.707   3.006   8.031 -0.1481  0.2094  0.3606
 3500SOL    HW113455   1.788   2.995   8.082 -0.6572  0.7269  1.3008
 3500SOL    HW213456   1.727   3.075   7.968  0.8264 -1.1450 -0.8940
 3501SOL     OW13457   1.995   7.678   6.334 -0.5130  0.3229  0.2057
 3501SOL    HW113458   1.989   7.736   6.258  1.4119  0.4759  0.1189
 3501SOL    HW213459   2.006   7.737   6.409 -5.6150  0.4091  1.2531
 3502SOL     OW13460   7.739   8.119   4.782 -0.3241  0.1108  0.0622
 3502SOL    HW113461   7.708   8.029   4.779 -0.9099  0.1588  2.6578
 3502SOL    HW213462   7.825   8.114   4.824  0.4042  0.6415 -1.2791
 3503SOL     OW13463   5.716   0.663   5.176 -0.0093  0.9235  0.2482
 3503SOL    HW113464   5.737   0.690   5.087  1.0349 -1.1238 -0.1949
 3503SOL    HW213465   5.801   0.660   5.220 -0.1318 -0.8508  0.4401
 3504SOL     OW13466   8.677   4.227   3.635 -0.2686 -0.0720 -0.1318
 3504SOL    HW113467   8.667   4.144   3.589 -0.5133  0.1615 -0.4999
 3504SOL    HW213468   8.766   4.223   3.672 -0.1877 -0.3918 -0.3568
 3505SOL     OW13469   0.526   6.524   9.089 -0.1645 -0.2160  0.3720
 3505SOL    HW113470   0.463   6.583   9.047 -0.9222 -0.4697  1.1395
 3505SOL    HW213471   0.477   6.443   9.103  1.0486 -1.3106 -1.2992
 3506SOL     OW13472   5.317   2.481   1.190  0.0861 -0.2661 -0.0389
 3506SOL    HW113473   5.391   2.444   1.237 -0.6603 -1.1682  0.4628
 3506SOL    HW213474   5.350   2.563   1.153  1.7840 -1.3884 -1.1353
 3507SOL     OW13475   3.014   4.440   4.784 -0.2274  0.2588 -0.0754
 3507SOL    HW113476   3.090   4.412   4.733 -1.5292  1.0229 -2.6278
 3507SOL    HW213477   3.012   4.535   4.774 -0.7416  0.4012  1.1779
 3508SOL     OW13478   5.753   7.006   5.380 -0.7891 -0.1741 -0.5580
 3508SOL    HW113479   5.716   7.003   5.468 -0.1993 -2.2736 -0.3210
 3508SOL    HW213480   5.748   6.915   5.349  0.7289  0.1621 -1.9460
 3509SOL     OW13481   2.380   9.171   3.379  0.0750  0.0017 -0.7646
 3509SOL    HW113482   2.462   9.218   3.366  0.4414 -0.2443  0.5384
 3509SOL    HW213483   2.379   9.106   3.309  0.1749  1.0730 -1.8082
 3510SOL     OW13484   5.165   2.283   4.664 -0.4545  0.4409 -0.0932
 3510SOL    HW113485   5.084   2.236   4.645  0.7685 -2.2749  0.7823
 3510SOL    HW213486   5.214   2.223   4.721  2.6674  1.4076 -1.5077
 3511SOL     OW13487   8.367   1.733   7.871  0.0101 -0.2222 -0.0033
 3511SOL    HW113488   8.434   1.667   7.885 -0.3505 -0.1842  2.4700
 3511SOL    HW213489   8.374   1.790   7.947 -1.5155  0.9444 -0.6879
 3512SOL     OW13490   1.135   1.045   7.555  0.3195 -0.0346 -0.1112
 3512SOL    HW113491   1.066   1.097   7.596 -0.8497 -0.6527 -1.2017
 3512SOL    HW213492   1.162   1.097   7.480 -0.8374 -0.9188 -1.1923
 3513SOL     OW13493   9.739   5.792   9.709  0.1500  0.1175 -0.0465
 3513SOL    HW113494   9.826   5.796   9.668 -0.3731  2.2797 -1.1102
 3513SOL    HW213495   9.686   5.741   9.647  0.3156  0.0727 -0.1516
 3514SOL     OW13496   7.387   4.292   9.955 -0.1871  0.2278  0.7327
 3514SOL    HW113497   7.332   4.370   9.955 -1.2061 -0.3685 -1.9183
 3514SOL    HW213498   7.469   4.320   9.915  0.2044  0.3661  1.6158
 3515SOL     OW13499   6.569   8.661   7.129  0.1911  0.2886  0.2234
 3515SOL    HW113500   6.609   8.586   7.173  0.1365  0.0184 -0.1878
 3515SOL    HW213501   6.627   8.679   7.055  1.0478  1.6025  1.1656
 3516SOL     OW13502   0.136   0.998  10.504  0.4110  0.1420 -0.2079
 3516SOL    HW113503   0.212   1.025  10.555  2.6311 -2.7751 -1.6193
 3516SOL    HW213504   0.081   0.951  10.567  0.5025  1.0237  0.5470
 3517SOL     OW13505   1.189   4.548   6.185 -0.3930 -0.4921  0.1168
 3517SOL    HW113506   1.281   4.563   6.166 -0.4955 -0.2133 -0.1821
 3517SOL    HW213507   1.146   4.553   6.099 -0.5502 -1.6547  0.1107
 3518SOL     OW13508   0.319   2.221   3.193 -0.2863 -0.0605  0.6941
 3518SOL    HW113509   0.247   2.267   3.236 -0.9398  1.3326 -1.6710
 3518SOL    HW213510   0.278   2.181   3.116  1.4281  0.8847 -0.7933
 3519SOL     OW13511   0.008   0.656   6.121  0.2011 -0.3018 -0.7142
 3519SOL    HW113512   0.080   0.681   6.063  1.4861 -0.0988  0.8816
 3519SOL    HW213513   0.051   0.617   6.197 -1.2313  1.5689  1.1851
 3520SOL     OW13514   4.637   4.583   9.556 -0.1042  0.0348 -0.2524
 3520SOL    HW113515   4.728   4.606   9.573  0.2288 -0.6007 -1.1367
 3520SOL    HW213516   4.639   4.493   9.525 -1.2625 -0.7756  1.8013
 3521SOL     OW13517   1.515   6.551   5.244  0.4850  0.2255 -0.0706
 3521SOL    HW113518   1.475   6.472   5.207  0.7099  0.9291 -1.8791
 3521SOL    HW213519   1.444   6.595   5.291  0.4517 -1.2343  1.3613
 3522SOL     OW13520   5.240   0.326   7.221  0.0703 -0.0250 -0.2905
 3522SOL    HW113521   5.305   0.271   7.177  2.0751  1.7198  0.3349
 3522SOL    HW213522   5.223   0.281   7.304 -1.3315 -1.6684 -1.3914
 3523SOL     OW13523   8.770   5.613   3.643 -0.1521  0.0349 -0.0380
 3523SOL    HW113524   8.750   5.520   3.658 -0.0983  0.0093 -0.1192
 3523SOL    HW213525   8.763   5.654   3.729 -2.0093  0.3071 -0.2804
 3524SOL     OW13526   2.673  10.361   0.754  0.4364  0.0116 -0.0165
 3524SOL    HW113527   2.643  10.296   0.690 -1.8395 -1.1295  2.0250
 3524SOL    HW213528   2.633  10.443   0.725  0.4879 -0.2067 -0.7291
 3525SOL     OW13529   5.453   2.476   3.640  0.5928 -0.1399 -0.2425
 3525SOL    HW113530   5.513   2.412   3.602 -2.0632 -2.7208 -0.5042
 3525SOL    HW213531   5.406   2.427   3.708  0.1995  2.3400  1.4301
 3526SOL     OW13532   2.858  10.662   7.291 -0.0522 -0.4527 -0.3820
 3526SOL    HW113533   2.951  10.643   7.287  0.1670  0.6763 -1.4653
 3526SOL    HW213534   2.853  10.750   7.329 -0.6022 -0.1465 -1.1397
 3527SOL     OW13535   4.580  10.326   1.797 -0.0273  0.5482 -0.1945
 3527SOL    HW113536   4.543  10.344   1.711  0.1836  2.0029 -0.0071
 3527SOL    HW213537   4.658  10.273   1.779  0.5002  1.5603 -0.9846
 3528SOL     OW13538   2.326   5.085   3.574  0.0264  0.0529 -0.2087
 3528SOL    HW113539   2.242   5.092   3.529 -1.3904 -1.0855  2.0592
 3528SOL    HW213540   2.337   5.170   3.618  1.0992  0.9260 -2.0262
 3529SOL     OW13541   7.405   2.947   1.949  0.4555  0.6579  0.3548
 3529SOL    HW113542   7.468   2.901   1.893  1.1626  1.6782  0.2894
 3529SOL    HW213543   7.323   2.947   1.899  1.0310  1.3943 -0.6211
 3530SOL     OW13544   8.544   6.826   1.626 -0.1548 -0.1420 -0.0144
 3530SOL    HW113545   8.584   6.779   1.552  0.6180  0.1914  0.1935
 3530SOL    HW213546   8.491   6.895   1.584  1.2728  0.8476 -0.2410
 3531SOL     OW13547   5.307   9.248   0.910 -0.3207 -0.0621  0.2113
 3531SOL    HW113548   5.310   9.340   0.886 -1.1214 -0.2779 -0.8106
 3531SOL    HW213549   5.250   9.208   0.844 -1.2192 -1.0151  1.5048
 3532SOL     OW13550   5.285   1.160   6.186  0.2660  0.2560 -0.4469
 3532SOL    HW113551   5.333   1.208   6.119 -0.5892  1.2593 -0.3616
 3532SOL    HW213552   5.284   1.069   6.156 -0.5002  0.7630 -2.0260
 3533SOL     OW13553   7.128   9.240  10.223  0.2245 -0.3136  0.1561
 3533SOL    HW113554   7.150   9.213  10.312  2.6216 -1.1624 -0.6324
 3533SOL    HW213555   7.212   9.255  10.180 -0.8697  0.3629 -1.8994
 3534SOL     OW13556   5.272   5.588   6.927 -0.0555  0.2873  0.1035
 3534SOL    HW113557   5.353   5.595   6.877  0.1055  2.0757  0.5341
 3534SOL    HW213558   5.235   5.503   6.903  1.5205 -0.1914 -0.7285
 3535SOL     OW13559   8.681   6.659   5.805  0.2894 -0.2532  0.5723
 3535SOL    HW113560   8.668   6.734   5.747  1.2215 -0.4821  0.0424
 3535SOL    HW213561   8.623   6.676   5.880 -2.0084 -0.6234 -1.0314
 3536SOL     OW13562  10.376   3.743   5.609  0.1613  0.0927 -0.4662
 3536SOL    HW113563  10.327   3.820   5.637  2.0307  1.0823  0.2930
 3536SOL    HW213564  10.310   3.682   5.577 -1.6224  1.0026  1.2720
 3537SOL     OW13565   9.003   1.486   7.858 -0.0620  0.2064  0.4832
 3537SOL    HW113566   8.945   1.461   7.930  0.0937 -0.2701  0.4428
 3537SOL    HW213567   9.060   1.410   7.845  2.2283  1.4779  2.1580
 3538SOL     OW13568   5.587   6.363   7.988 -0.3344 -0.2527 -0.3277
 3538SOL    HW113569   5.660   6.386   7.930  0.3185 -2.3455 -0.4040
 3538SOL    HW213570   5.510   6.403   7.946  0.5092  0.5483 -1.1655
 3539SOL     OW13571   2.317   2.634   7.062 -0.2792 -0.5106  0.2685
 3539SOL    HW113572   2.386   2.663   7.002  0.5313 -0.1483  1.3503
 3539SOL    HW213573   2.236   2.664   7.021  0.0920 -1.7935 -1.5233
 3540SOL     OW13574   2.494   1.632   0.686 -0.0969 -0.1866  0.1549
 3540SOL    HW113575   2.413   1.642   0.636 -0.9148 -4.8376  0.1313
 3540SOL    HW213576   2.490   1.702   0.751 -3.2245  0.8858 -0.9767
 3541SOL     OW13577   4.770   6.487   4.670 -0.3985 -0.0355  0.3772
 3541SOL    HW113578   4.802   6.452   4.586 -1.4890  1.9678 -0.9602
 3541SOL    HW213579   4.733   6.572   4.647 -0.7798  0.5476  2.9295
 3542SOL     OW13580   5.086   0.134   3.761 -0.1821  0.7646  0.1468
 3542SOL    HW113581   5.094   0.209   3.820 -0.5475  0.8524  0.0835
 3542SOL    HW213582   5.175   0.099   3.756  0.3439  2.2114 -1.1750
 3543SOL     OW13583   1.675   5.230   0.289  0.2552  0.1111  0.3947
 3543SOL    HW113584   1.754   5.283   0.301  0.7101 -0.1029 -1.3400
 3543SOL    HW213585   1.627   5.274   0.219 -0.0400 -0.9809 -0.1200
 3544SOL     OW13586   1.400  10.506   6.830  0.4005  0.5269  0.0850
 3544SOL    HW113587   1.490  10.539   6.830  0.2046  1.0708  0.2267
 3544SOL    HW213588   1.346  10.585   6.837 -0.1219  0.2894 -1.0972
 3545SOL     OW13589   2.782   9.821   9.847 -0.2485 -0.2724  0.5848
 3545SOL    HW113590   2.790   9.726   9.848  0.0861 -0.2459  0.4683
 3545SOL    HW213591   2.746   9.843   9.933 -0.8919 -0.5508  0.3968
 3546SOL     OW13592   2.836   6.248   1.374 -0.2668  0.4594 -0.4533
 3546SOL    HW113593   2.790   6.169   1.347  1.8156 -0.2747 -2.1192
 3546SOL    HW213594   2.787   6.279   1.450 -3.1306 -0.5319 -1.7373
 3547SOL     OW13595   9.245   5.709   1.886 -0.3184 -0.0638  0.2917
 3547SOL    HW113596   9.331   5.751   1.891  0.0071 -0.4994 -1.0427
 3547SOL    HW213597   9.253   5.649   1.812 -1.0676 -1.7560  1.5074
 3548SOL     OW13598   7.357   1.656   3.477  0.7284  0.0178 -0.2453
 3548SOL    HW113599   7.312   1.649   3.393  1.1740  0.9228 -0.5706
 3548SOL    HW213600   7.295   1.701   3.534  0.7412  0.1401 -0.3282
 3549SOL     OW13601   4.742   9.947   1.589  0.1706 -0.6139  0.0136
 3549SOL    HW113602   4.819   9.955   1.533  0.4543  0.3609  0.5112
 3549SOL    HW213603   4.743   9.857   1.620  2.4654 -0.0361  1.8941
 3550SOL     OW13604   0.259   0.198   1.230  0.0774 -0.2217 -0.5792
 3550SOL    HW113605   0.330   0.168   1.286  0.6711 -2.1665 -2.2395
 3550SOL    HW213606   0.268   0.294   1.229 -0.7897  0.0814  3.5292
 3551SOL     OW13607   4.193   9.966   8.181  0.2675  0.6789 -0.1467
 3551SOL    HW113608   4.171   9.959   8.088  0.2625  1.6406 -0.2289
 3551SOL    HW213609   4.149  10.046   8.210  0.5732  0.5878  0.5954
 3552SOL     OW13610   3.286   5.993   4.140 -0.2971 -0.0432 -0.8789
 3552SOL    HW113611   3.377   5.967   4.150 -0.5666 -2.3292 -3.3551
 3552SOL    HW213612   3.288   6.067   4.080 -0.1047 -0.5316 -1.4785
 3553SOL     OW13613   9.704   3.252   6.185  0.3563 -0.5107 -0.2347
 3553SOL    HW113614   9.707   3.256   6.090 -1.4858 -1.1360 -0.3694
 3553SOL    HW213615   9.612   3.233   6.205  0.6515 -0.1179  1.6784
 3554SOL     OW13616   7.941   8.280   5.141  0.4331  0.2856 -0.4524
 3554SOL    HW113617   7.926   8.285   5.047  1.6073  0.2465 -0.6634
 3554SOL    HW213618   7.908   8.193   5.166  0.2704  0.2307 -0.8519
 3555SOL     OW13619   1.815   3.797   4.647  0.0292  0.2847  0.4600
 3555SOL    HW113620   1.829   3.889   4.623 -1.2821  0.3166 -0.2814
 3555SOL    HW213621   1.831   3.749   4.566 -1.3694  0.0850  0.2714
 3556SOL     OW13622   9.904   3.583   7.196 -0.2660 -0.0276  0.0547
 3556SOL    HW113623   9.967   3.583   7.267  0.3763 -1.2735 -0.4886
 3556SOL    HW213624   9.856   3.501   7.205  0.9659 -1.0548 -1.8719
 3557SOL     OW13625   4.883   0.474   6.738 -0.1731 -0.5325  0.2734
 3557SOL    HW113626   4.908   0.504   6.825 -1.7705 -0.5166  0.7659
 3557SOL    HW213627   4.814   0.410   6.754 -1.0752  0.0759 -1.0108
 3558SOL     OW13628   4.059   0.134   8.863  0.3263 -0.2519 -0.6353
 3558SOL    HW113629   3.968   0.115   8.886  0.8732 -2.1879  0.1072
 3558SOL    HW213630   4.074   0.223   8.895 -0.8700 -0.4501  0.5536
 3559SOL     OW13631   5.461   0.347   6.507 -0.0755  0.5384  0.3684
 3559SOL    HW113632   5.432   0.434   6.480 -1.4261 -0.1759 -0.5868
 3559SOL    HW213633   5.472   0.299   6.425 -0.7159 -0.6087  0.9254
 3560SOL     OW13634   3.180   5.174   2.321 -0.0141 -0.4795  0.5236
 3560SOL    HW113635   3.246   5.105   2.335 -0.5126 -0.9590  0.5365
 3560SOL    HW213636   3.188   5.230   2.398 -0.3575 -1.1497  1.0573
 3561SOL     OW13637   5.050   9.695   4.112 -0.1019 -0.0629 -0.0541
 3561SOL    HW113638   5.141   9.668   4.106 -0.0897 -0.2286  0.7576
 3561SOL    HW213639   5.050   9.764   4.178 -0.6180 -0.3148  0.2125
 3562SOL     OW13640   2.647   6.678   7.146 -1.0599  0.1491 -0.1997
 3562SOL    HW113641   2.721   6.620   7.165 -2.7654 -1.9530  0.4122
 3562SOL    HW213642   2.687   6.763   7.128  1.4342 -0.6591  1.0654
 3563SOL     OW13643   0.617   4.637  10.587  0.0646  0.3328 -0.1714
 3563SOL    HW113644   0.607   4.676  10.674 -0.3685 -0.4307  0.1349
 3563SOL    HW213645   0.534   4.592  10.571  0.1436  0.4681 -0.9836
 3564SOL     OW13646   4.134   6.315   7.652  0.4575 -0.0404  0.4695
 3564SOL    HW113647   4.158   6.312   7.744 -1.1311 -0.5638  0.8976
 3564SOL    HW213648   4.157   6.229   7.618 -1.1458 -0.7057  0.9908
 3565SOL     OW13649   5.975   9.546   7.959  0.9051  0.2813 -0.1339
 3565SOL    HW113650   5.948   9.581   7.874  0.8310  0.3795 -0.0694
 3565SOL    HW213651   6.070   9.537   7.952  0.8704  0.0545 -0.3146
 3566SOL     OW13652  10.017   7.941   7.622 -0.0013 -0.6311  0.0921
 3566SOL    HW113653  10.024   7.987   7.538  1.2250 -0.4000  0.3061
 3566SOL    HW213654  10.104   7.904   7.637 -0.0955 -0.3675  1.4332
 3567SOL     OW13655   7.729   0.223   4.565  0.4431  0.3053 -0.4547
 3567SOL    HW113656   7.818   0.190   4.571  0.6293  0.7572 -0.6594
 3567SOL    HW213657   7.701   0.204   4.476 -0.0253 -0.7129 -0.1053
 3568SOL     OW13658   9.955   9.323   4.114 -0.0067  0.1819  0.0061
 3568SOL    HW113659  10.026   9.319   4.050  0.1977 -1.3248  0.3050
 3568SOL    HW213660   9.883   9.365   4.066  0.7365  0.8112 -0.6080
 3569SOL     OW13661   5.316   2.514   6.441  0.3991  0.2289  0.2514
 3569SOL    HW113662   5.403   2.539   6.473  0.3759 -0.4145  0.8591
 3569SOL    HW213663   5.295   2.434   6.490 -1.2448  1.2689  1.3842
 3570SOL     OW13664   2.742   3.755   3.701  0.3089 -0.0822 -0.2985
 3570SOL    HW113665   2.732   3.659   3.698 -1.0573  0.0425 -0.4414
 3570SOL    HW213666   2.750   3.775   3.794 -2.9245 -0.0946  0.1226
 3571SOL     OW13667   4.007   4.284   2.431  0.1877  0.1245  0.1693
 3571SOL    HW113668   4.030   4.195   2.405 -0.2845  0.7122 -2.6062
 3571SOL    HW213669   3.913   4.280   2.449  0.1432  0.0563 -0.0652
 3572SOL     OW13670   6.228   3.266   5.232  0.1882  0.3542 -0.7261
 3572SOL    HW113671   6.192   3.330   5.171 -0.4117  1.1947  0.4649
 3572SOL    HW213672   6.317   3.251   5.200 -0.0164  0.9782 -1.6417
 3573SOL     OW13673  10.609   8.824  10.295 -0.2190 -0.7388 -0.4657
 3573SOL    HW113674  10.582   8.733  10.301  0.0110 -0.7347  1.1778
 3573SOL    HW213675  10.652   8.842  10.379  1.1045  0.4488 -1.3349
 3574SOL     OW13676   3.967   1.833   3.304  0.1688  0.3618  0.3432
 3574SOL    HW113677   4.029   1.884   3.356 -0.5374 -0.5216  2.1392
 3574SOL    HW213678   3.967   1.746   3.345 -2.4261  0.4014  0.5781
 3575SOL     OW13679   6.851   3.427   2.641 -0.2116 -0.3307 -0.0141
 3575SOL    HW113680   6.925   3.369   2.656  0.1818 -0.4285 -2.0669
 3575SOL    HW213681   6.774   3.377   2.670  0.2649 -1.2747 -0.3626
 3576SOL     OW13682   0.061   5.146   8.235 -0.3946  0.0364 -0.0306
 3576SOL    HW113683   0.125   5.179   8.299  0.1400  0.9107 -0.9844
 3576SOL    HW213684   0.067   5.051   8.242  1.2034  0.0866 -0.2507
 3577SOL     OW13685   0.494   7.449   1.678  0.0580 -0.4422  0.3842
 3577SOL    HW113686   0.453   7.483   1.758  2.9191 -0.6991  2.1133
 3577SOL    HW213687   0.548   7.522   1.646  0.2192 -0.8823 -0.3710
 3578SOL     OW13688   0.986   3.159   5.373 -0.2787  0.3659  0.7047
 3578SOL    HW113689   1.015   3.163   5.464  0.6846  4.5353  0.4136
 3578SOL    HW213690   0.911   3.219   5.370 -0.3337  0.2487 -1.2140
 3579SOL     OW13691   7.644   4.732   9.021 -0.3260 -0.6493 -0.3057
 3579SOL    HW113692   7.719   4.734   9.081  0.8281  0.6754 -1.7024
 3579SOL    HW213693   7.683   4.740   8.934 -2.0873 -0.0805 -1.0893
 3580SOL     OW13694   8.117   3.602   9.365  0.1015 -0.6318  0.6900
 3580SOL    HW113695   8.176   3.674   9.346 -1.7560  1.2824  1.6531
 3580SOL    HW213696   8.043   3.615   9.306 -0.3954 -1.5905  1.0730
 3581SOL     OW13697   9.565   9.554   2.956 -0.2551 -0.0685 -1.0848
 3581SOL    HW113698   9.506   9.523   2.888  0.6531 -0.9724 -1.4773
 3581SOL    HW213699   9.563   9.486   3.023 -0.2636  0.2799 -0.7220
 3582SOL     OW13700   2.573   8.638   6.540 -0.4330  0.5800  0.5237
 3582SOL    HW113701   2.542   8.556   6.578  0.6351  1.0285  2.4957
 3582SOL    HW213702   2.562   8.703   6.609  0.0893  1.8052 -0.4952
 3583SOL     OW13703   2.578   6.826   1.009  0.1042 -0.0357 -0.5651
 3583SOL    HW113704   2.579   6.819   1.105 -0.8248 -0.0590 -0.5469
 3583SOL    HW213705   2.486   6.815   0.986 -0.4498  4.2196 -1.1279
 3584SOL     OW13706   9.966   5.917   3.059  0.5504  0.0328 -0.0335
 3584SOL    HW113707   9.955   5.827   3.029  0.1741  0.5861 -1.7162
 3584SOL    HW213708  10.052   5.943   3.025 -0.3530  1.0298 -1.7265
 3585SOL     OW13709   7.273   4.358   0.389 -0.3541 -0.0247 -0.0707
 3585SOL    HW113710   7.364   4.378   0.413  0.5497  0.2145 -3.2594
 3585SOL    HW213711   7.259   4.269   0.423  1.5765 -0.6244 -0.7119
 3586SOL     OW13712   9.494   9.260   5.652  0.0202 -0.2989  0.6133
 3586SOL    HW113713   9.504   9.218   5.738  0.0297 -2.0315 -0.1749
 3586SOL    HW213714   9.488   9.186   5.591  1.0399  0.9016 -0.9961
 3587SOL     OW13715   9.124   1.626   8.818  0.2450  0.1501  0.1655
 3587SOL    HW113716   9.096   1.715   8.841 -2.7233 -0.7067  0.2251
 3587SOL    HW213717   9.144   1.630   8.724  2.5293  1.3354  0.6123
 3588SOL     OW13718   1.033   4.793   9.953 -0.2009  0.0099  0.1787
 3588SOL    HW113719   1.059   4.823   9.866  2.7266 -2.1155  0.1793
 3588SOL    HW213720   0.947   4.753   9.940 -0.1005  0.3026 -1.6170
 3589SOL     OW13721   4.962   7.132   3.284 -0.1014  0.4057  0.2165
 3589SOL    HW113722   5.052   7.164   3.279 -0.2348  0.8955  0.8305
 3589SOL    HW213723   4.908   7.211   3.283 -0.6236  0.0820 -1.6145
 3590SOL     OW13724   6.359   4.756   1.641  0.1303  0.4012 -0.1342
 3590SOL    HW113725   6.317   4.703   1.709 -0.1674  2.6268  1.5048
 3590SOL    HW213726   6.290   4.814   1.610  0.9570  1.2406 -0.4390
 3591SOL     OW13727   7.077   6.870   5.738 -0.4627  0.0863  0.5688
 3591SOL    HW113728   7.116   6.783   5.735 -1.7949 -0.5195 -0.6611
 3591SOL    HW213729   7.151   6.930   5.742  0.5093 -1.0777  0.4135
 3592SOL     OW13730   5.281   3.412   3.586 -0.4767  0.0432 -0.3355
 3592SOL    HW113731   5.188   3.397   3.569 -0.3574  0.8834 -1.9925
 3592SOL    HW213732   5.307   3.475   3.519  0.6482  2.0259  1.8465
 3593SOL     OW13733   3.908   2.260  10.563  0.4964 -0.1946 -0.1321
 3593SOL    HW113734   3.999   2.232  10.550  0.6709  0.7411 -1.0651
 3593SOL    HW213735   3.894   2.254  10.657  2.6349  2.8510  0.5200
 3594SOL     OW13736   1.810   9.529   9.522 -0.1908  0.4958  0.2354
 3594SOL    HW113737   1.830   9.603   9.579 -1.0097 -0.3069  1.6163
 3594SOL    HW213738   1.892   9.512   9.475 -0.0084  2.2782 -0.1495
 3595SOL     OW13739   5.558  10.082   0.977  0.5294  0.4025  0.6110
 3595SOL    HW113740   5.565  10.124   1.063  2.6319 -1.4989  1.4432
 3595SOL    HW213741   5.474  10.035   0.980  0.2862  0.8681  1.3589
 3596SOL     OW13742   9.537   2.298   6.079  0.1463  0.5215 -0.3443
 3596SOL    HW113743   9.627   2.291   6.048 -0.5227 -0.9915 -2.1730
 3596SOL    HW213744   9.545   2.320   6.172  2.3680  0.9226 -0.5810
 3597SOL     OW13745   0.667   3.873   5.232 -0.8015  0.1129  0.5034
 3597SOL    HW113746   0.713   3.936   5.287 -3.0768  1.1362  1.3806
 3597SOL    HW213747   0.628   3.811   5.295 -0.1221 -1.1114 -0.2424
 3598SOL     OW13748   0.809   8.410   4.905 -0.1897 -0.7765  0.7228
 3598SOL    HW113749   0.819   8.481   4.969  1.6246  0.0987 -0.4652
 3598SOL    HW213750   0.898   8.383   4.884 -0.7262 -1.0959 -1.3666
 3599SOL     OW13751   3.812   5.341   0.619  0.0461  0.0232 -0.3041
 3599SOL    HW113752   3.767   5.400   0.559  0.6555 -0.3304 -1.1306
 3599SOL    HW213753   3.904   5.367   0.614  0.0106  0.4772  1.0623
 3600SOL     OW13754  10.372  10.400   2.884 -0.9300 -0.3540  0.8671
 3600SOL    HW113755  10.420  10.439   2.810  1.4289 -0.5695  2.1996
 3600SOL    HW213756  10.335  10.475   2.930 -1.9715 -0.1843 -0.1908
 3601SOL     OW13757   6.351   1.698   6.929  0.1924 -0.8069  0.8678
 3601SOL    HW113758   6.284   1.748   6.884  1.1579 -0.5263 -0.3072
 3601SOL    HW213759   6.338   1.718   7.022  0.2516  1.2539  0.4685
 3602SOL     OW13760   7.096   5.151  10.505 -0.0290  0.5431  0.8671
 3602SOL    HW113761   7.085   5.057  10.520  0.7588  0.5593  1.6373
 3602SOL    HW213762   7.037   5.192  10.568 -1.8885  0.5956 -0.7827
 3603SOL     OW13763   3.664   1.495   6.460 -0.7291 -0.1834  0.2102
 3603SOL    HW113764   3.572   1.474   6.475 -0.6673 -0.2362  0.5114
 3603SOL    HW213765   3.704   1.411   6.438 -0.4842 -0.3964  1.4035
 3604SOL     OW13766   0.193   1.622   1.039  0.2040  0.5387 -0.8072
 3604SOL    HW113767   0.284   1.645   1.024 -0.1548  2.1797 -0.7532
 3604SOL    HW213768   0.171   1.561   0.969  0.6337  2.1831 -2.4675
 3605SOL     OW13769  10.563   4.106   1.635 -0.1589  0.5867 -0.5172
 3605SOL    HW113770  10.496   4.172   1.618 -0.4071  0.7250  0.8400
 3605SOL    HW213771  10.645   4.156   1.642 -0.4008  0.8272  0.8709
 3606SOL     OW13772   4.059   8.223   7.566  0.2211  0.1402 -0.1502
 3606SOL    HW113773   3.968   8.201   7.546 -0.7607  1.1928  2.6862
 3606SOL    HW213774   4.098   8.140   7.595  0.0899 -0.2365 -1.0254
 3607SOL     OW13775   1.166   9.665  10.238 -0.3313  0.3181  0.0379
 3607SOL    HW113776   1.175   9.597  10.170  3.6098 -0.2482  0.8665
 3607SOL    HW213777   1.142   9.744  10.189 -0.6481 -0.7185 -1.5776
 3608SOL     OW13778   1.640   7.321   6.352 -0.6252 -0.2164 -0.1831
 3608SOL    HW113779   1.710   7.379   6.383 -1.1740 -0.2003  1.0689
 3608SOL    HW213780   1.613   7.359   6.268  0.4799  0.0957 -0.4094
 3609SOL     OW13781   9.369   8.613   3.491  0.2173 -0.0614 -0.5546
 3609SOL    HW113782   9.425   8.649   3.421  0.2245  0.1837 -0.4248
 3609SOL    HW213783   9.379   8.518   3.482 -0.4230 -0.0631 -1.4057
 3610SOL     OW13784   4.052   5.185   1.384  0.0179  0.0782  0.2045
 3610SOL    HW113785   4.002   5.226   1.313 -3.4056 -0.6279  1.9991
 3610SOL    HW213786   4.090   5.259   1.432  0.7907  0.6395 -1.1813
 3611SOL     OW13787   6.446   3.191   7.299  0.6121  0.3730  0.4173
 3611SOL    HW113788   6.511   3.185   7.369  0.8487  0.4219  0.2030
 3611SOL    HW213789   6.487   3.148   7.224 -0.1101 -0.7577  0.6419
 3612SOL     OW13790   3.385   9.457   0.790 -0.2579 -0.4068 -0.7024
 3612SOL    HW113791   3.403   9.451   0.884 -3.4020 -0.8863 -0.0328
 3612SOL    HW213792   3.390   9.551   0.771 -3.0824  0.1984  0.8660
 3613SOL     OW13793   4.356   4.486  10.516  0.4302  0.2841  0.3217
 3613SOL    HW113794   4.333   4.579  10.512 -0.3483  0.0945  0.2745
 3613SOL    HW213795   4.377   4.463  10.425  0.3271  0.3419  0.2832
 3614SOL     OW13796   6.693   3.607   8.415 -0.0411 -0.2103  0.0724
 3614SOL    HW113797   6.658   3.614   8.504 -0.2128 -0.7171  0.0463
 3614SOL    HW213798   6.761   3.540   8.421  2.2717  1.9937  0.5305
 3615SOL     OW13799   3.795   6.464   7.310 -0.0105 -0.0938 -0.4426
 3615SOL    HW113800   3.891   6.470   7.314  0.0819  0.4923 -2.2659
 3615SOL    HW213801   3.775   6.376   7.341  1.0829 -0.1227  0.2540
 3616SOL     OW13802   0.342   9.297   3.634 -0.1244 -0.1232 -0.0193
 3616SOL    HW113803   0.339   9.327   3.725  0.7920  1.8729 -0.5857
 3616SOL    HW213804   0.410   9.230   3.634 -2.0186 -2.1720  1.2408
 3617SOL     OW13805   7.449   2.156   1.574 -0.2261  0.4406 -0.0328
 3617SOL    HW113806   7.382   2.096   1.606 -0.0050  0.2169  0.0101
 3617SOL    HW213807   7.527   2.102   1.564 -0.2756  0.5161 -0.9036
 3618SOL     OW13808   9.781   5.341   0.949 -0.1741  0.3127 -0.3358
 3618SOL    HW113809   9.770   5.248   0.929  0.4799  0.2540 -0.4220
 3618SOL    HW213810   9.872   5.360   0.928  0.1597  0.5838  1.2959
 3619SOL     OW13811   5.761   6.455   0.477  0.7971  0.4238  0.2258
 3619SOL    HW113812   5.830   6.514   0.510  1.6569 -0.8510  0.7747
 3619SOL    HW213813   5.780   6.371   0.518 -0.8823 -0.0581  0.0786
 3620SOL     OW13814   0.280  10.103  10.329 -0.0924  0.1148 -0.6544
 3620SOL    HW113815   0.212  10.156  10.286  0.1154  0.8182 -0.1248
 3620SOL    HW213816   0.296  10.032  10.267 -0.9337  0.2307 -1.0285
 3621SOL     OW13817   2.312   8.468   4.300  0.2266 -0.0913 -0.2517
 3621SOL    HW113818   2.293   8.524   4.376  1.3517 -1.2774  0.9599
 3621SOL    HW213819   2.385   8.512   4.256 -0.0891  0.3354 -0.3531
 3622SOL     OW13820   4.559   8.014   8.026  0.4800 -0.2482  0.3031
 3622SOL    HW113821   4.640   8.061   8.044  1.5438 -2.1882  0.9649
 3622SOL    HW213822   4.535   8.039   7.937  1.9473  0.1747  0.0036
 3623SOL     OW13823   8.928   0.141   5.519  0.6794 -0.2104  0.1274
 3623SOL    HW113824   8.843   0.102   5.537  0.6736 -1.0221 -1.5401
 3623SOL    HW213825   8.947   0.193   5.597 -0.5694 -1.3412  1.2279
 3624SOL     OW13826   5.833   5.922   7.412 -0.0369 -0.4444 -0.2256
 3624SOL    HW113827   5.742   5.906   7.437 -0.7206  0.9227 -1.6623
 3624SOL    HW213828   5.844   6.017   7.421  1.2970 -0.5969  0.0278
 3625SOL     OW13829   2.630   8.615   8.831 -0.0820 -0.0984  0.2287
 3625SOL    HW113830   2.678   8.533   8.844  0.5034  0.3657  1.0937
 3625SOL    HW213831   2.539   8.591   8.846 -0.3887 -1.2949 -2.7497
 3626SOL     OW13832   1.705   3.749   2.194 -0.2160  0.4228 -0.0305
 3626SOL    HW113833   1.755   3.828   2.211 -1.9194  1.1365  2.1922
 3626SOL    HW213834   1.647   3.772   2.121  0.2711  0.7298 -0.3266
 3627SOL     OW13835   6.793   2.275   6.386  0.5438  0.4394 -0.4075
 3627SOL    HW113836   6.855   2.290   6.315  1.0537 -0.9268 -0.2832
 3627SOL    HW213837   6.707   2.297   6.348  0.8518  0.0975 -1.3250
 3628SOL     OW13838   4.841   6.333   5.919  0.0676 -0.0906 -0.2247
 3628SOL    HW113839   4.771   6.274   5.949 -0.1552  0.3162  0.0658
 3628SOL    HW213840   4.922   6.290   5.946 -0.0727 -0.5188 -0.4761
 3629SOL     OW13841   5.543   6.960   3.997  0.8051  0.4703 -0.4053
 3629SOL    HW113842   5.570   6.870   4.014  0.2957  0.5019  0.6047
 3629SOL    HW213843   5.456   6.968   4.036  1.0868  1.5656  0.0534
 3630SOL     OW13844   9.530   9.090   2.236  0.1650  0.1231  0.7837
 3630SOL    HW113845   9.592   9.163   2.240  0.5802 -0.2371  1.0684
 3630SOL    HW213846   9.450   9.124   2.276 -0.5070  1.2348 -1.3497
 3631SOL     OW13847   0.298   6.415   7.816 -0.6355  0.2966  0.1379
 3631SOL    HW113848   0.265   6.377   7.735  0.7367  2.1166 -1.3741
 3631SOL    HW213849   0.232   6.480   7.841 -1.1492 -0.3954  0.5929
 3632SOL     OW13850   6.763   1.952   6.305 -0.7636 -0.3184  0.0084
 3632SOL    HW113851   6.745   2.040   6.338 -1.7866 -1.1171  1.7656
 3632SOL    HW213852   6.721   1.949   6.220 -0.4896  0.9603 -0.1977
 3633SOL     OW13853   7.728   9.399   5.636 -0.1679 -0.0354  0.7417
 3633SOL    HW113854   7.705   9.469   5.575 -0.9333  0.0749  1.1435
 3633SOL    HW213855   7.741   9.322   5.580 -0.1004  0.2408  0.3738
 3634SOL     OW13856   3.562   4.176   8.180  0.1315  0.5478 -0.1738
 3634SOL    HW113857   3.503   4.239   8.221 -0.3655 -0.4822  0.7545
 3634SOL    HW213858   3.617   4.145   8.252  1.1808  0.7928 -0.8508
 3635SOL     OW13859  10.045   8.478   6.799 -0.2118  0.5730 -0.0485
 3635SOL    HW113860   9.973   8.437   6.846 -1.0114  0.6946 -1.1285
 3635SOL    HW213861  10.066   8.556   6.851 -0.7326  0.4388  0.3715
 3636SOL     OW13862   4.355  10.356   4.894 -0.2449  0.0147  0.6442
 3636SOL    HW113863   4.297  10.303   4.839 -0.2204 -1.2337  1.7838
 3636SOL    HW213864   4.312  10.359   4.979  0.2407  1.0420  0.8694
 3637SOL     OW13865   9.984   7.538   6.542 -0.2260 -0.1005 -0.0612
 3637SOL    HW113866   9.992   7.446   6.570 -0.4402 -0.2104 -0.3552
 3637SOL    HW213867   9.890   7.550   6.527 -0.3688  0.5560  1.2590
 3638SOL     OW13868   0.642   9.395   5.208 -0.6057 -0.5832 -0.0046
 3638SOL    HW113869   0.563   9.434   5.172  0.3304  0.6127 -0.8284
 3638SOL    HW213870   0.647   9.430   5.297 -0.4600  0.1857 -0.3044
 3639SOL     OW13871   1.253   2.265   1.507  0.0938 -0.4235 -0.1275
 3639SOL    HW113872   1.301   2.194   1.548  0.8414  1.2930  2.1932
 3639SOL    HW213873   1.178   2.279   1.564  0.7119  1.4958  0.2978
 3640SOL     OW13874   8.843   0.773   2.987 -0.1486  0.0401  0.4561
 3640SOL    HW113875   8.853   0.781   2.892  0.4865 -0.9208  0.4199
 3640SOL    HW213876   8.849   0.863   3.020  1.0880  0.2542 -0.2955
 3641SOL     OW13877  10.579   4.674  10.632  0.4700 -0.0678  0.1267
 3641SOL    HW113878  10.587   4.720  10.715 -1.6270 -0.3480  0.5264
 3641SOL    HW213879  10.535   4.592  10.653  1.2188 -0.8060 -1.0556
 3642SOL     OW13880  10.440   8.476   7.510 -0.6351  0.6540  0.1319
 3642SOL    HW113881  10.516   8.453   7.563  0.3979 -1.3235 -2.0141
 3642SOL    HW213882  10.370   8.420   7.545 -0.2669  0.1791  0.1229
 3643SOL     OW13883   8.721   5.516   6.132  0.8114 -0.4294 -0.6450
 3643SOL    HW113884   8.663   5.583   6.168  1.6099 -0.6181  1.1247
 3643SOL    HW213885   8.670   5.435   6.137  0.5399 -0.2794 -0.9485
 3644SOL     OW13886   3.435   9.335   4.496 -0.4461  0.3891  0.1413
 3644SOL    HW113887   3.498   9.273   4.460  1.1932  0.7834  2.1537
 3644SOL    HW213888   3.436   9.409   4.435  0.3165 -0.0171 -0.3524
 3645SOL     OW13889   8.317   1.805   6.094 -0.0818  0.2916 -0.2623
 3645SOL    HW113890   8.311   1.835   6.184  0.2814  1.1074 -0.4965
 3645SOL    HW213891   8.246   1.850   6.048  0.2575  0.5349 -0.5535
 3646SOL     OW13892   8.025   5.971   6.539 -0.0269  0.7145  0.0513
 3646SOL    HW113893   7.973   5.911   6.486  0.0846  0.1445  0.5719
 3646SOL    HW213894   8.077   6.021   6.476  0.9184 -0.7207 -0.3457
 3647SOL     OW13895   9.543   1.812   3.036 -0.5792 -0.0627  0.3700
 3647SOL    HW113896   9.497   1.814   3.120  0.1445 -0.7799  0.7999
 3647SOL    HW213897   9.630   1.846   3.056 -0.6613  0.5261 -0.2642
 3648SOL     OW13898   5.897   0.199   9.721  0.0966  0.0165  0.4777
 3648SOL    HW113899   5.882   0.111   9.687 -0.2143  0.1059  0.3787
 3648SOL    HW213900   5.978   0.191   9.772  1.4118  0.2129 -1.4674
 3649SOL     OW13901   3.356   3.860   6.280 -0.3100 -0.4400  0.1918
 3649SOL    HW113902   3.308   3.920   6.222  0.3283 -0.6836 -0.6139
 3649SOL    HW213903   3.321   3.774   6.259 -0.9909 -0.4102  1.1146
 3650SOL     OW13904   1.499  10.464   0.107 -0.0320 -1.1590 -0.2138
 3650SOL    HW113905   1.557  10.406   0.058 -0.6130 -0.5252 -1.7049
 3650SOL    HW213906   1.431  10.407   0.142  0.1651 -1.5599 -0.4782
 3651SOL     OW13907   3.505   6.728   2.072 -0.0333  0.4102 -0.4355
 3651SOL    HW113908   3.533   6.675   2.146 -1.7082 -0.0278 -0.0882
 3651SOL    HW213909   3.506   6.818   2.105  2.3501  0.6184 -0.8868
 3652SOL     OW13910   5.516   5.655   3.562  0.1076  0.1374  0.7022
 3652SOL    HW113911   5.487   5.570   3.530  0.6256  0.5131 -0.8456
 3652SOL    HW213912   5.490   5.717   3.494  0.3464  1.1367  1.4866
 3653SOL     OW13913   4.237   7.622   0.938  0.3753 -0.2734 -0.0018
 3653SOL    HW113914   4.331   7.602   0.940  0.6548  0.9819  0.0787
 3653SOL    HW213915   4.202   7.562   0.873  1.2174 -0.8148  0.0171
 3654SOL     OW13916   6.284   2.158   0.076  0.1603  0.3628  0.2824
 3654SOL    HW113917   6.257   2.199  -0.006 -0.5804 -0.5541  0.0571
 3654SOL    HW213918   6.223   2.193   0.141  1.0428  1.4575  0.5569
 3655SOL     OW13919   7.122   9.948   2.088 -0.2323 -0.2116  0.4153
 3655SOL    HW113920   7.083  10.032   2.112 -0.4563 -0.2880  0.3316
 3655SOL    HW213921   7.211   9.969   2.060  0.1290 -0.1558  1.5645
 3656SOL     OW13922   1.038   0.806   7.622  0.2544 -0.0828  0.1512
 3656SOL    HW113923   1.051   0.890   7.578 -1.3764 -0.1695 -0.5911
 3656SOL    HW213924   0.964   0.821   7.681  0.5636 -0.7467  0.7220
 3657SOL     OW13925   5.429   0.381   0.040  0.3916  0.2529 -0.6317
 3657SOL    HW113926   5.390   0.460   0.076 -0.9040 -0.9095  0.6230
 3657SOL    HW213927   5.508   0.367   0.091 -0.0889  0.0117  0.0525
 3658SOL     OW13928   2.941   5.552   2.955  0.3489 -0.0208 -0.2590
 3658SOL    HW113929   2.991   5.632   2.968  0.7033 -0.2537 -0.1664
 3658SOL    HW213930   2.898   5.564   2.870  0.3307  0.3009 -0.2047
 3659SOL     OW13931   5.541   2.815  10.032 -0.0534 -0.5032  0.8306
 3659SOL    HW113932   5.493   2.840  10.111  0.3159  1.0803  0.6020
 3659SOL    HW213933   5.546   2.896   9.981  0.8842 -1.1722 -0.1918
 3660SOL     OW13934   4.379   6.923   3.119  0.2634 -0.0132 -0.6150
 3660SOL    HW113935   4.438   6.998   3.118  2.4511 -1.6363 -0.6984
 3660SOL    HW213936   4.427   6.854   3.074 -0.0003 -2.6003  2.6687
 3661SOL     OW13937   1.953   8.669   0.620 -0.0479  0.0689  0.2220
 3661SOL    HW113938   2.013   8.661   0.545  0.4710 -0.5925  0.7026
 3661SOL    HW213939   1.867   8.679   0.580  0.3362  0.7275 -0.4765
 3662SOL     OW13940   6.405   9.147   6.610  0.6323  0.0773 -0.0651
 3662SOL    HW113941   6.500   9.147   6.595  0.3012  1.1353 -2.7301
 3662SOL    HW213942   6.369   9.103   6.533 -1.0822  0.2641  0.5949
 3663SOL     OW13943   6.705   4.118   6.779  0.1046  0.8133 -0.0927
 3663SOL    HW113944   6.695   4.191   6.717  0.5754 -0.2000 -1.3919
 3663SOL    HW213945   6.622   4.117   6.828  0.2104  2.3958  0.1715
 3664SOL     OW13946   6.418   9.740   2.330 -0.1207 -0.0838  0.0175
 3664SOL    HW113947   6.393   9.821   2.286 -0.1792  0.0437  0.2841
 3664SOL    HW213948   6.506   9.758   2.365 -0.6309  0.3050  1.1543
 3665SOL     OW13949   5.520   0.691   7.468  0.4956  0.4788  0.4846
 3665SOL    HW113950   5.582   0.763   7.467  1.1668 -0.0858  0.3209
 3665SOL    HW213951   5.526   0.652   7.381  0.2818  0.1090  0.6276
 3666SOL     OW13952   0.533   8.755   1.191  0.2950  0.4085  0.0398
 3666SOL    HW113953   0.464   8.691   1.173 -1.1130  1.4880  1.3337
 3666SOL    HW213954   0.614   8.706   1.181 -0.6997 -1.3064 -0.0436
 3667SOL     OW13955   2.612   4.540   1.610  0.5252 -0.2011  0.1343
 3667SOL    HW113956   2.606   4.471   1.676  1.8997  0.1809  0.6706
 3667SOL    HW213957   2.704   4.562   1.606  0.2496  0.8527 -0.8284
 3668SOL     OW13958   2.742   1.941   4.454  0.7077 -0.0402 -0.5216
 3668SOL    HW113959   2.831   1.966   4.430  1.2112  2.2453  3.0026
 3668SOL    HW213960   2.752   1.880   4.526 -0.6590 -1.2663 -1.2985
 3669SOL     OW13961   5.019   2.852   0.657  0.2638  0.0088  0.8139
 3669SOL    HW113962   4.983   2.782   0.711 -0.0352 -0.8671 -0.4711
 3669SOL    HW213963   4.967   2.929   0.680 -0.6747 -0.6330  0.8762
 3670SOL     OW13964   6.269   5.972  10.203  0.3289 -0.3510 -0.0180
 3670SOL    HW113965   6.216   6.000  10.278  1.4076 -0.1634  0.6837
 3670SOL    HW213966   6.226   5.892  10.172 -0.1313 -0.4267  0.7951
 3671SOL     OW13967   4.870   8.219   2.345  0.0898 -0.5914  0.4087
 3671SOL    HW113968   4.897   8.309   2.367 -3.5847  0.8122 -0.1624
 3671SOL    HW213969   4.814   8.192   2.418 -0.3737 -1.6780 -0.3206
 3672SOL     OW13970   4.681   2.917   9.787 -0.3188  0.5601 -0.2660
 3672SOL    HW113971   4.722   2.845   9.739 -1.8612  1.2544 -2.8747
 3672SOL    HW213972   4.646   2.876   9.866  1.3431 -0.9215 -0.2361
 3673SOL     OW13973   6.937   0.429   5.894 -0.0090 -0.2581  0.0820
 3673SOL    HW113974   7.001   0.464   5.955  0.2962 -1.6853  0.6252
 3673SOL    HW213975   6.933   0.493   5.823  1.6286  0.1232  0.3011
 3674SOL     OW13976   9.021   6.348   8.424  0.4542  0.4783  0.4876
 3674SOL    HW113977   9.050   6.263   8.456 -0.8711  0.2245  1.0943
 3674SOL    HW213978   9.079   6.411   8.466  2.2835 -0.1509 -0.9507
 3675SOL     OW13979   8.991   6.727   8.433 -0.3633  0.0571 -0.4381
 3675SOL    HW113980   9.051   6.654   8.448 -1.4674 -1.0185 -1.0286
 3675SOL    HW213981   8.959   6.750   8.521  0.0640 -0.1015 -0.2388
 3676SOL     OW13982   7.233   9.862   9.332  0.0258 -0.6498 -0.5630
 3676SOL    HW113983   7.225   9.788   9.272 -2.6119 -0.8257 -0.1219
 3676SOL    HW213984   7.273   9.825   9.411  2.4872 -0.6525 -1.7446
 3677SOL     OW13985   7.701   3.542   8.829  0.5919  0.5612  0.6047
 3677SOL    HW113986   7.612   3.576   8.838  0.8046  1.3157  0.0090
 3677SOL    HW213987   7.718   3.497   8.912 -0.2445  0.6403  0.8318
 3678SOL     OW13988   4.846   1.335   8.150  0.1027  0.5276  0.4592
 3678SOL    HW113989   4.825   1.252   8.109 -0.7704 -0.1742  2.2026
 3678SOL    HW213990   4.916   1.372   8.096 -0.5302 -0.6065 -1.2102
 3679SOL     OW13991   5.623   2.575   6.127 -0.1771 -0.2960 -0.1578
 3679SOL    HW113992   5.597   2.647   6.069  0.4392  1.0007  1.1149
 3679SOL    HW213993   5.669   2.514   6.069 -0.1671  0.6264 -1.1660
 3680SOL     OW13994   3.595   7.132   8.304  0.8422 -0.2937  0.3285
 3680SOL    HW113995   3.556   7.129   8.391  0.5350 -0.9882  0.1697
 3680SOL    HW213996   3.630   7.221   8.296 -0.0923  0.1170  0.7381
 3681SOL     OW13997   0.230   2.085   8.207  0.2612  0.1400  0.2980
 3681SOL    HW113998   0.197   2.015   8.264  1.6695  0.3206  1.3804
 3681SOL    HW213999   0.314   2.052   8.175  1.0604  1.4209  1.0219
 3682SOL     OW14000   5.705   6.267   2.481 -0.0227  0.8486  0.2015
 3682SOL    HW114001   5.643   6.338   2.463  0.5025  1.3096  0.2092
 3682SOL    HW214002   5.740   6.242   2.396 -1.3906 -0.5222 -0.0223
 3683SOL     OW14003   9.168   0.014   3.988 -0.0203  0.1015 -0.1986
 3683SOL    HW114004   9.088   0.031   3.938 -0.2867 -1.0864 -0.2006
 3683SOL    HW214005   9.145  -0.060   4.045  1.0517 -0.1944 -0.1432
 3684SOL     OW14006   8.068   7.865   7.618 -0.0240  0.0784 -0.4021
 3684SOL    HW114007   8.022   7.783   7.639 -0.7610 -0.2484 -2.9857
 3684SOL    HW214008   8.037   7.927   7.685 -1.5539 -1.0409 -0.0080
 3685SOL     OW14009   6.528   7.483   3.216 -0.4102  0.1815 -0.4745
 3685SOL    HW114010   6.606   7.453   3.262 -1.5832 -2.0940  0.2016
 3685SOL    HW214011   6.550   7.471   3.123 -0.3231 -1.6128 -0.2633
 3686SOL     OW14012  10.419   0.751   4.349  0.1283  0.0792 -1.0743
 3686SOL    HW114013  10.342   0.698   4.330 -1.1149  2.4103 -3.1347
 3686SOL    HW214014  10.406   0.783   4.438 -0.9061 -0.1628 -1.1317
 3687SOL     OW14015   3.624   1.744   3.804  0.7793  0.1732 -0.3850
 3687SOL    HW114016   3.688   1.783   3.864 -0.8098  0.1136  1.4425
 3687SOL    HW214017   3.544   1.794   3.818 -0.2809 -1.3360 -0.7286
 3688SOL     OW14018   1.183   1.815   2.946 -0.3239  0.4490 -0.3346
 3688SOL    HW114019   1.116   1.811   2.878 -1.4108  1.9885  0.5759
 3688SOL    HW214020   1.258   1.857   2.903  0.7061 -2.5521 -1.7663
 3689SOL     OW14021   7.172   2.405   6.574  0.1752 -0.5403  0.2004
 3689SOL    HW114022   7.092   2.444   6.541  1.4059  0.4935 -1.7436
 3689SOL    HW214023   7.162   2.311   6.558 -1.3109 -0.6562  1.5908
 3690SOL     OW14024   8.061   4.228   9.314 -0.3650 -0.1564 -0.0826
 3690SOL    HW114025   8.137   4.275   9.349  0.1113  0.4422 -1.8092
 3690SOL    HW214026   8.005   4.297   9.279 -1.2741 -0.6692  0.3216
 3691SOL     OW14027   6.683   5.267   7.916  0.0970  0.0546 -0.1480
 3691SOL    HW114028   6.630   5.187   7.922  0.9250 -0.5303 -0.5143
 3691SOL    HW214029   6.768   5.237   7.885  0.0693  1.2230 -1.4615
 3692SOL     OW14030   9.352   4.894   2.963 -0.0716 -0.2350 -0.0551
 3692SOL    HW114031   9.335   4.804   2.936 -3.1334  0.1473  0.2192
 3692SOL    HW214032   9.307   4.903   3.047 -1.4865  2.0037 -0.9557
 3693SOL     OW14033   1.282   9.450   7.093  0.2982 -0.6529 -0.6702
 3693SOL    HW114034   1.365   9.408   7.115 -0.3284 -1.1630  0.9200
 3693SOL    HW214035   1.304   9.514   7.026  2.0082 -0.6858 -0.1867
 3694SOL     OW14036   5.149   2.228   4.366 -0.3511 -0.4197 -0.1397
 3694SOL    HW114037   5.116   2.288   4.431  2.0506  0.2659  0.5590
 3694SOL    HW214038   5.157   2.144   4.412  2.1710  0.2620  0.8355
 3695SOL     OW14039  10.253   8.883   3.376 -0.1259 -0.2385 -0.0782
 3695SOL    HW114040  10.266   8.880   3.281  1.9643  0.5701  0.1370
 3695SOL    HW214041  10.322   8.828   3.412  1.7840  2.6332  1.0732
 3696SOL     OW14042   0.666   4.918   0.378  0.3632  0.2024  0.0175
 3696SOL    HW114043   0.724   4.864   0.324  1.1989  1.2054 -0.1117
 3696SOL    HW214044   0.723   4.984   0.416 -0.7231  1.3691 -0.2978
 3697SOL     OW14045   1.381   8.658   6.847  0.0602 -0.4905  0.6384
 3697SOL    HW114046   1.410   8.629   6.934  0.1278  1.5103  1.3433
 3697SOL    HW214047   1.401   8.752   6.846 -0.3898 -0.3833 -1.3737
 3698SOL     OW14048   7.564   3.962   4.567  0.3840  0.3230  0.1033
 3698SOL    HW114049   7.488   3.921   4.608  0.1993 -0.0596 -0.6029
 3698SOL    HW214050   7.594   4.027   4.630  1.1646 -1.4262  1.6343
 3699SOL     OW14051   4.987   5.333   5.667 -0.3418 -0.4898 -0.1232
 3699SOL    HW114052   4.986   5.249   5.713 -1.3214 -1.7263 -2.2149
 3699SOL    HW214053   4.894   5.353   5.655 -0.1531  1.5205  1.2953
 3700SOL     OW14054  10.513   7.723   8.518 -0.1550 -0.2414  0.2606
 3700SOL    HW114055  10.593   7.761   8.555  1.0926 -0.3865 -2.1324
 3700SOL    HW214056  10.536   7.632   8.499 -0.5411 -0.0390 -1.3145
 3701SOL     OW14057  10.019   6.107   1.822  0.5251  0.4891 -0.2750
 3701SOL    HW114058   9.985   6.173   1.882  0.8369  1.5722 -1.2374
 3701SOL    HW214059  10.104   6.142   1.794 -0.0236  0.5200 -2.0601
 3702SOL     OW14060   1.727   8.122   8.615 -0.3690  0.0591 -0.0983
 3702SOL    HW114061   1.711   8.147   8.525  0.5779  3.0475  0.4479
 3702SOL    HW214062   1.762   8.033   8.610 -0.3693  0.1525 -2.6426
 3703SOL     OW14063   4.572   1.124   1.976  1.1674  0.2046  0.3384
 3703SOL    HW114064   4.532   1.206   1.947  1.8947 -0.0005 -1.3818
 3703SOL    HW214065   4.502   1.080   2.025  0.2452  1.1374 -0.0765
 3704SOL     OW14066   2.280   5.689   3.175  0.3650 -0.8397 -0.1021
 3704SOL    HW114067   2.248   5.779   3.173 -0.2070 -1.0056  0.9753
 3704SOL    HW214068   2.368   5.694   3.137  0.8731  0.4060  1.1747
 3705SOL     OW14069   3.947   1.934   9.716 -0.2026 -0.6066 -0.3178
 3705SOL    HW114070   3.959   1.928   9.621 -0.6337  1.0767 -0.5036
 3705SOL    HW214071   4.000   2.008   9.743  0.5220 -1.5229  0.9076
 3706SOL     OW14072   9.560   4.232   3.518  0.1419 -0.0720  0.2055
 3706SOL    HW114073   9.552   4.324   3.493  2.0139 -0.1498 -0.8811
 3706SOL    HW214074   9.616   4.234   3.596 -1.0361 -0.2184  1.0791
 3707SOL     OW14075   7.652   7.440   9.372 -0.1586  0.3986 -0.4911
 3707SOL    HW114076   7.605   7.510   9.328  0.5034  0.7269 -0.6960
 3707SOL    HW214077   7.607   7.429   9.455 -2.4491 -1.3306 -1.8333
 3708SOL     OW14078   0.353   5.475   8.860  0.3553 -0.3096 -0.2159
 3708SOL    HW114079   0.319   5.564   8.852 -0.7123 -0.3472  2.7517
 3708SOL    HW214080   0.415   5.466   8.787  0.3855  2.7853 -0.6800
 3709SOL     OW14081  10.656   8.665  10.609 -0.4199  0.0706  0.1972
 3709SOL    HW114082  10.652   8.602  10.681  1.3588 -1.6032 -1.0579
 3709SOL    HW214083  10.707   8.738  10.644 -1.2140  0.1658  1.2074
 3710SOL     OW14084  10.399   3.642   7.458  0.1341  0.8367  0.0022
 3710SOL    HW114085  10.394   3.547   7.463  0.9947  0.4606 -3.6266
 3710SOL    HW214086  10.493   3.662   7.466  0.1542  1.1890 -0.9864
 3711SOL     OW14087   4.122   7.883   7.313 -0.4183  0.2705  0.6521
 3711SOL    HW114088   4.076   7.931   7.244 -0.7592  1.0002  1.3686
 3711SOL    HW214089   4.214   7.909   7.302 -0.0024 -1.6985 -1.1987
 3712SOL     OW14090   1.028   9.862   4.657  0.4292  0.5163  0.3912
 3712SOL    HW114091   0.986   9.828   4.736 -2.1893 -1.0209 -1.4870
 3712SOL    HW214092   1.094   9.797   4.636  0.4908  0.4467  0.7799
 3713SOL     OW14093   6.683   1.228   5.740 -0.2186  0.5302 -0.3506
 3713SOL    HW114094   6.624   1.195   5.672 -2.1753  3.2210 -0.1251
 3713SOL    HW214095   6.673   1.323   5.736 -0.3340  0.8369  3.5633
 3714SOL     OW14096   5.825   4.866   1.146  0.1281 -0.7874  0.4771
 3714SOL    HW114097   5.848   4.871   1.053 -0.6541 -0.4968  0.2929
 3714SOL    HW214098   5.909   4.859   1.191  0.5214 -0.7991 -0.2420
 3715SOL     OW14099   1.720   5.499  10.121 -0.3079 -0.4742 -0.4685
 3715SOL    HW114100   1.780   5.573  10.120  0.1682 -0.7116  2.1523
 3715SOL    HW214101   1.643   5.531  10.168  0.0551 -1.6713  1.0447
 3716SOL     OW14102  10.337   8.608   1.737  0.0571  0.2336 -0.6598
 3716SOL    HW114103  10.351   8.513   1.737  1.0924  0.3660 -1.1004
 3716SOL    HW214104  10.424   8.645   1.756 -0.1387  1.1024 -1.3672
 3717SOL     OW14105   4.344   4.774   7.569 -0.4197 -0.2349  0.3517
 3717SOL    HW114106   4.335   4.688   7.530  0.6770  0.0169 -0.5114
 3717SOL    HW214107   4.387   4.827   7.502  1.3056  0.2767  1.7728
 3718SOL     OW14108   7.500   9.037   3.419  0.8127 -0.3815 -0.2414
 3718SOL    HW114109   7.440   9.011   3.489 -1.1598  1.9543 -0.9352
 3718SOL    HW214110   7.448   9.094   3.362  3.4309  1.0015 -1.4382
 3719SOL     OW14111   3.542   3.713   1.077 -0.0209 -0.2278 -0.1644
 3719SOL    HW114112   3.462   3.711   1.025 -0.6757  1.3259  0.7188
 3719SOL    HW214113   3.610   3.739   1.015 -0.6571  0.8634 -0.4291
 3720SOL     OW14114   3.851   5.596   2.673 -0.6753 -0.5056 -0.5679
 3720SOL    HW114115   3.897   5.673   2.707 -1.5123  0.0144 -0.5820
 3720SOL    HW214116   3.842   5.613   2.580  2.4423 -2.3498 -1.3677
 3721SOL     OW14117   0.340   0.724   9.398  0.8235 -0.1088 -0.2669
 3721SOL    HW114118   0.285   0.649   9.374 -1.0888  2.1913 -4.0475
 3721SOL    HW214119   0.394   0.739   9.321  0.7678  2.6331  0.1316
 3722SOL     OW14120   0.036   4.313   0.379  0.4528  0.4798 -0.0648
 3722SOL    HW114121   0.100   4.278   0.441  1.5378 -0.0277 -1.4199
 3722SOL    HW214122   0.004   4.237   0.331 -2.8536  0.3884  1.9676
 3723SOL     OW14123   9.637   0.439   1.108 -0.6508  0.2638 -0.4380
 3723SOL    HW114124   9.659   0.346   1.110 -1.6213  0.0337  0.6416
 3723SOL    HW214125   9.667   0.473   1.193  1.2152  1.3346 -1.4603
 3724SOL     OW14126   2.617   2.354   9.823  0.0261 -0.3170  0.2021
 3724SOL    HW114127   2.625   2.294   9.896 -0.4880  1.4413  1.7856
 3724SOL    HW214128   2.693   2.412   9.831 -1.5940  1.8253  1.2992
 3725SOL     OW14129   5.899   6.553   5.357 -0.7216  0.0071 -0.5169
 3725SOL    HW114130   5.907   6.482   5.421 -0.4391  1.2000  0.8164
 3725SOL    HW214131   5.969   6.537   5.294 -1.3959 -1.5421 -0.9132
 3726SOL     OW14132   1.380   5.015  10.461 -0.0016 -0.3619 -0.3725
 3726SOL    HW114133   1.474   4.999  10.456  0.1535  0.5231 -0.5119
 3726SOL    HW214134   1.340   4.939  10.420  0.6643 -0.5624 -0.6629
 3727SOL     OW14135   3.454   1.703   0.010 -0.4229 -0.0339  0.2354
 3727SOL    HW114136   3.464   1.758   0.088 -2.7082  0.8648 -0.0108
 3727SOL    HW214137   3.431   1.764  -0.060 -0.9737 -1.0944 -0.5421
 3728SOL     OW14138  10.499   4.137   2.991  0.3461  0.1712 -0.1771
 3728SOL    HW114139  10.446   4.059   3.005  0.6222 -0.0723 -0.4586
 3728SOL    HW214140  10.458   4.181   2.916 -0.3906  0.8164  0.5934
 3729SOL     OW14141   7.457   4.165   5.810 -0.2997 -0.3085 -0.2045
 3729SOL    HW114142   7.426   4.152   5.720  0.9072 -0.9109 -0.5479
 3729SOL    HW214143   7.377   4.160   5.863 -1.3127  1.9261 -1.3775
 3730SOL     OW14144   3.184   6.660   0.587  0.2003  0.1145 -0.4008
 3730SOL    HW114145   3.119   6.590   0.583 -0.5791  0.7301  0.9712
 3730SOL    HW214146   3.268   6.614   0.594 -0.3332 -0.7103  1.0613
 3731SOL     OW14147   5.242   8.935   8.912  0.2272  0.0058 -0.1454
 3731SOL    HW114148   5.271   8.845   8.925  0.7125  0.1362 -0.2965
 3731SOL    HW214149   5.149   8.928   8.891  0.0010 -0.3856  0.9133
 3732SOL     OW14150   9.990   3.714   1.405 -0.5808  0.0769  0.1175
 3732SOL    HW114151  10.016   3.755   1.487  0.3831  1.3384 -0.7884
 3732SOL    HW214152  10.061   3.734   1.344 -0.6853 -1.8829 -0.7242
 3733SOL     OW14153  10.368   0.162   0.309  0.1733  0.3497 -0.2602
 3733SOL    HW114154  10.400   0.072   0.317 -0.2001  0.2367 -0.0540
 3733SOL    HW214155  10.274   0.156   0.321  0.1092  0.7318 -0.5458
 3734SOL     OW14156   7.657   6.851   5.973 -0.5346  0.0680  0.4236
 3734SOL    HW114157   7.615   6.899   6.045 -0.9660  0.3651 -0.0178
 3734SOL    HW214158   7.585   6.831   5.913 -0.0086  0.8589 -0.4978
 3735SOL     OW14159   7.266   2.560  10.118 -0.3175  0.2188  0.2686
 3735SOL    HW114160   7.324   2.496  10.159 -0.4520 -1.0515 -1.4077
 3735SOL    HW214161   7.325   2.621  10.074 -0.2216  0.1369  0.2842
 3736SOL     OW14162   8.922   6.404   1.255  0.3593  0.7392 -0.0103
 3736SOL    HW114163   8.953   6.320   1.222  1.6175  1.1216  0.1424
 3736SOL    HW214164   8.921   6.394   1.350 -0.4437  0.5868 -0.0282
 3737SOL     OW14165   0.811   2.398   3.850  0.3085  0.6149  0.0992
 3737SOL    HW114166   0.782   2.473   3.902  0.7258  1.0637 -0.3078
 3737SOL    HW214167   0.906   2.402   3.853  0.3755  1.4295 -1.7755
 3738SOL     OW14168   8.000   1.940   8.918 -0.0717 -0.2190 -0.2365
 3738SOL    HW114169   8.047   1.857   8.929 -0.6876 -0.3590  1.6304
 3738SOL    HW214170   8.015   1.987   9.000  0.7740  1.8327 -1.4720
 3739SOL     OW14171   7.016   1.376   3.005 -0.0093 -0.1935 -0.7982
 3739SOL    HW114172   7.060   1.355   2.924 -1.3176  0.7639 -1.8146
 3739SOL    HW214173   6.962   1.299   3.024 -1.2546  0.3422 -1.9819
 3740SOL     OW14174   7.225   5.788   1.590 -0.5773 -0.0745  0.8215
 3740SOL    HW114175   7.279   5.852   1.542 -0.3313  0.6285  2.0067
 3740SOL    HW214176   7.143   5.834   1.606 -1.1029 -0.7235  0.0875
 3741SOL     OW14177   1.175   3.943   0.099  0.1138  0.7726  0.0585
 3741SOL    HW114178   1.087   3.949   0.137  0.8838 -0.2541  2.1902
 3741SOL    HW214179   1.161   3.910   0.011 -1.6241  0.2178  0.4912
 3742SOL     OW14180   2.178   6.783   2.492 -0.5460 -0.9991  0.5247
 3742SOL    HW114181   2.254   6.728   2.510  0.0684 -0.3075  0.0923
 3742SOL    HW214182   2.213   6.872   2.488 -1.5669 -0.5279  1.5102
 3743SOL     OW14183   1.968   9.116   1.942 -0.2532  0.1169  0.6191
 3743SOL    HW114184   2.004   9.093   2.028 -1.3960 -1.2953  0.7534
 3743SOL    HW214185   2.017   9.063   1.880 -0.6998 -0.2839  0.6016
 3744SOL     OW14186   7.773   0.380   3.735  0.2082 -0.7102 -0.2286
 3744SOL    HW114187   7.738   0.461   3.697 -2.3522 -2.1671 -1.1997
 3744SOL    HW214188   7.721   0.366   3.814  1.4237 -0.8549  0.5807
 3745SOL     OW14189   1.293   2.810   9.156 -0.1449 -0.0689 -0.2523
 3745SOL    HW114190   1.318   2.898   9.129  1.4002 -0.5908 -0.6352
 3745SOL    HW214191   1.222   2.785   9.097 -0.2270  0.7039 -0.4863
 3746SOL     OW14192   6.619   7.525   4.505 -0.1512  0.0338  0.1572
 3746SOL    HW114193   6.635   7.457   4.571  0.0508  1.0376  1.1783
 3746SOL    HW214194   6.675   7.598   4.532  0.9270  0.0250 -1.8789
 3747SOL     OW14195   3.476   8.093   0.319 -0.2537 -0.1926  0.6090
 3747SOL    HW114196   3.513   8.180   0.333 -0.7913  0.1603 -0.1277
 3747SOL    HW214197   3.383   8.108   0.303 -0.4224 -0.9360  0.8284
 3748SOL     OW14198   1.734   9.494   6.889  0.2193  0.2578 -0.9131
 3748SOL    HW114199   1.808   9.454   6.933  0.0268 -0.4621 -1.2300
 3748SOL    HW214200   1.772   9.537   6.812  0.1920 -1.0326 -1.6760
 3749SOL     OW14201   0.306   8.209   6.617  0.8135  0.0841 -0.1200
 3749SOL    HW114202   0.264   8.138   6.667  0.5301  0.3306 -0.0053
 3749SOL    HW214203   0.381   8.235   6.670 -0.0329  0.9918  0.6454
 3750SOL     OW14204   1.766   9.743   7.226 -0.2588 -0.2915  0.3231
 3750SOL    HW114205   1.800   9.679   7.288 -0.4849 -1.0788 -0.3419
 3750SOL    HW214206   1.713   9.692   7.165 -2.2729  0.8112  1.0414
 3751SOL     OW14207   8.776   2.932   4.716  0.2558  0.5982  0.4347
 3751SOL    HW114208   8.804   2.985   4.640 -0.4667  1.0296  0.4601
 3751SOL    HW214209   8.848   2.942   4.779 -0.5590  2.9395  1.1121
 3752SOL     OW14210   9.110   3.998   6.681 -0.5005  0.1910 -0.5083
 3752SOL    HW114211   9.055   4.019   6.606 -1.8348 -0.3090  0.2870
 3752SOL    HW214212   9.180   3.944   6.646 -0.9383  0.2126 -1.4348
 3753SOL     OW14213   0.016   2.012   7.346  0.5761  0.3631  0.0300
 3753SOL    HW114214   0.062   2.083   7.302  0.0154  0.8295  0.1973
 3753SOL    HW214215  -0.050   2.055   7.400  0.7410 -0.2444  0.7295
 3754SOL     OW14216   0.486   0.870   1.806 -0.6813 -0.2150  0.0303
 3754SOL    HW114217   0.405   0.878   1.756  0.3031  3.0109 -1.2933
 3754SOL    HW214218   0.547   0.825   1.748 -0.8641 -0.6245  0.1533
 3755SOL     OW14219   7.643   9.101   0.825  0.0867 -0.3603  0.1024
 3755SOL    HW114220   7.718   9.042   0.834  2.7853  2.5456 -1.5340
 3755SOL    HW214221   7.617   9.092   0.733 -1.0248 -0.6131  0.4191
 3756SOL     OW14222   5.453   7.036   6.993  0.0153  0.2661 -0.3000
 3756SOL    HW114223   5.383   7.055   6.931 -0.1225  2.1698  0.3793
 3756SOL    HW214224   5.522   7.099   6.973  0.2071  0.5333  1.0807
 3757SOL     OW14225   2.311  10.589   1.546  0.3040 -0.5241  0.2295
 3757SOL    HW114226   2.301  10.678   1.512  0.4978 -0.7639 -0.4692
 3757SOL    HW214227   2.401  10.565   1.523  0.2905 -0.8587  0.5196
 3758SOL     OW14228   7.476   4.581   4.313  0.3132 -0.0669  0.8502
 3758SOL    HW114229   7.548   4.616   4.365  0.4724  1.1455 -0.1238
 3758SOL    HW214230   7.506   4.495   4.285  1.5090  0.5145  0.2681
 3759SOL     OW14231   2.611   8.585   7.612  0.1433  0.3092 -0.5985
 3759SOL    HW114232   2.549   8.597   7.540  1.0791 -1.5588 -1.8158
 3759SOL    HW214233   2.641   8.673   7.633 -2.3634  1.1977 -0.4265
 3760SOL     OW14234   5.727   1.112   1.961  0.2710 -0.1295  0.0720
 3760SOL    HW114235   5.668   1.038   1.957  0.7087 -0.5219  0.6947
 3760SOL    HW214236   5.712   1.151   2.048  0.0682  0.4950 -0.2324
 3761SOL     OW14237   6.418   5.490   5.584 -0.6042 -0.3591 -0.0256
 3761SOL    HW114238   6.364   5.566   5.566 -0.8018 -0.6648 -0.7571
 3761SOL    HW214239   6.403   5.431   5.510  0.1323 -0.7791  0.1424
 3762SOL     OW14240   8.134   3.632   6.797 -0.1281 -0.4464 -0.2418
 3762SOL    HW114241   8.045   3.665   6.785 -0.8043 -1.2122  2.2193
 3762SOL    HW214242   8.145   3.568   6.726 -2.8173 -2.7626  1.2329
 3763SOL     OW14243   7.042   6.777  10.402  0.4733  0.4132 -0.1972
 3763SOL    HW114244   7.108   6.716  10.437  1.0110  0.5646 -0.9360
 3763SOL    HW214245   7.064   6.786  10.309 -0.9141  0.0463 -0.5869
 3764SOL     OW14246   7.252   1.961   6.348  0.3373 -0.0205  0.1744
 3764SOL    HW114247   7.347   1.958   6.350  0.4108  1.3109  0.0154
 3764SOL    HW214248   7.231   2.009   6.268 -0.4898 -0.8567 -0.1260
 3765SOL     OW14249   6.614   5.325   6.737 -0.0662 -0.4914  0.1054
 3765SOL    HW114250   6.698   5.308   6.696  0.5755 -1.8498  1.8324
 3765SOL    HW214251   6.627   5.407   6.785  0.4142 -0.9057  0.6911
 3766SOL     OW14252   5.827   1.155   3.219 -0.4205  0.6296 -0.4223
 3766SOL    HW114253   5.918   1.146   3.191 -0.5914  0.7839 -1.0493
 3766SOL    HW214254   5.776   1.153   3.137 -1.0982 -0.9080 -0.0155
 3767SOL     OW14255   1.768   9.803   6.295  0.3808 -0.6620  0.0479
 3767SOL    HW114256   1.715   9.874   6.257 -0.0320 -0.6954  0.5521
 3767SOL    HW214257   1.808   9.842   6.372  1.4587 -0.5084 -0.5634
 3768SOL     OW14258   8.718   0.809   7.087  0.0643 -0.2069  0.4921
 3768SOL    HW114259   8.746   0.740   7.148  2.0599 -0.6986 -0.8566
 3768SOL    HW214260   8.727   0.769   7.000 -0.1843  1.2734 -0.2473
 3769SOL     OW14261   6.524  10.233   1.414  0.3367  0.0377 -0.4664
 3769SOL    HW114262   6.458  10.298   1.391  1.0451  0.9437 -0.0145
 3769SOL    HW214263   6.482  10.178   1.480 -0.5641 -0.5151 -1.4741
 3770SOL     OW14264   7.654   3.532   3.136  0.4796 -0.1573 -0.2396
 3770SOL    HW114265   7.629   3.472   3.067 -1.2196  1.8446 -1.4911
 3770SOL    HW214266   7.650   3.480   3.216  1.2812 -2.2248 -1.4572
 3771SOL     OW14267   4.487   3.885  10.548 -0.8350 -0.1635  0.2206
 3771SOL    HW114268   4.395   3.867  10.566 -0.4339 -0.6837  1.9825
 3771SOL    HW214269   4.534   3.809  10.584  0.2284 -0.4227 -1.5900
 3772SOL     OW14270   2.879   1.576   2.631  0.3024  0.2770 -0.5782
 3772SOL    HW114271   2.924   1.493   2.646 -0.2969 -0.0677 -0.6631
 3772SOL    HW214272   2.844   1.569   2.542 -0.4185  0.2992 -0.3043
 3773SOL     OW14273   3.787   3.581   9.587 -0.2217  0.6709  0.0519
 3773SOL    HW114274   3.742   3.516   9.532  0.2407  0.2807  0.1307
 3773SOL    HW214275   3.719   3.646   9.607  0.1082  2.0871 -2.8557
 3774SOL     OW14276   3.413   4.605   3.633  0.1046 -0.6482 -0.1743
 3774SOL    HW114277   3.393   4.656   3.554  0.6586  0.1199  0.1677
 3774SOL    HW214278   3.498   4.638   3.661 -0.5858 -0.1084  1.3781
 3775SOL     OW14279   2.563   7.787   7.825 -0.4316  0.5430  0.4165
 3775SOL    HW114280   2.526   7.863   7.868 -0.5754  1.1688 -0.7826
 3775SOL    HW214281   2.656   7.807   7.817 -0.3596  0.3153  0.6557
 3776SOL     OW14282   3.230   6.470   5.141  0.3589 -0.1214 -0.0114
 3776SOL    HW114283   3.174   6.497   5.068 -1.0078 -0.9810  0.6899
 3776SOL    HW214284   3.225   6.543   5.203  0.5357  0.0633 -0.2063
 3777SOL     OW14285   5.703   0.521   0.935 -0.2070 -0.0527  0.3667
 3777SOL    HW114286   5.712   0.525   0.839  0.4828 -0.8711  0.3882
 3777SOL    HW214287   5.667   0.434   0.952 -0.7849  0.2693  0.8290
 3778SOL     OW14288   0.363   2.010   2.043 -0.1166 -0.3710  0.2098
 3778SOL    HW114289   0.390   1.951   2.113 -0.2548 -0.4288  0.2146
 3778SOL    HW214290   0.303   1.959   1.990 -1.2063  0.1288  0.9094
 3779SOL     OW14291   5.046   7.741   1.593 -0.0818  0.1773 -0.2117
 3779SOL    HW114292   5.118   7.768   1.535  0.3048 -3.2946 -1.5659
 3779SOL    HW214293   5.084   7.742   1.681  1.6480 -1.4384 -0.8842
 3780SOL     OW14294   1.098   4.071   4.358 -0.2179  0.2162  0.4150
 3780SOL    HW114295   1.064   4.150   4.316  2.7355  0.4109 -1.9385
 3780SOL    HW214296   1.133   4.019   4.286  1.0879 -1.6048  2.2520
 3781SOL     OW14297   8.519   2.878   3.294  0.2156 -0.5285  0.2939
 3781SOL    HW114298   8.486   2.950   3.241 -0.8835 -1.5248 -0.4276
 3781SOL    HW214299   8.614   2.885   3.288  0.1105 -0.2609 -1.3359
 3782SOL     OW14300   6.533   9.788   4.862 -0.1242  0.0159 -0.3113
 3782SOL    HW114301   6.462   9.748   4.911 -1.1681  0.4200 -1.4463
 3782SOL    HW214302   6.529   9.881   4.884  0.5316 -0.0642  0.1826
 3783SOL     OW14303   2.506   1.676   9.953  0.2697 -0.1389  0.1181
 3783SOL    HW114304   2.550   1.625   9.885  2.6028  1.8844 -0.0561
 3783SOL    HW214305   2.436   1.722   9.908  1.4071  0.7009 -0.8469
 3784SOL     OW14306   5.539   0.175   2.021  0.4235  0.3307  0.3769
 3784SOL    HW114307   5.479   0.248   2.033  0.0473  0.0231  0.3676
 3784SOL    HW214308   5.626   0.213   2.037  0.4122  1.1948 -1.3916
 3785SOL     OW14309   5.126   7.886   8.233 -0.4278 -0.0249  0.2664
 3785SOL    HW114310   5.211   7.887   8.278  0.3210 -0.3168 -1.0697
 3785SOL    HW214311   5.086   7.802   8.257  0.4332 -0.6521 -0.3974
 3786SOL     OW14312   7.338   8.589   9.296 -0.1611  0.0029 -0.5346
 3786SOL    HW114313   7.396   8.655   9.259  0.7166  0.0900  0.9243
 3786SOL    HW214314   7.366   8.506   9.256  1.0426  0.0304  0.2272
 3787SOL     OW14315   3.388   0.325   0.907  0.1028 -0.3794  0.2919
 3787SOL    HW114316   3.448   0.367   0.968  0.0145 -0.6438  0.5612
 3787SOL    HW214317   3.404   0.369   0.823 -0.6689  0.8860  0.7653
 3788SOL     OW14318   5.964   0.151  10.409 -0.2726 -0.3843 -0.2217
 3788SOL    HW114319   6.052   0.114  10.403  0.7965  1.8338  0.7820
 3788SOL    HW214320   5.937   0.165  10.318 -0.0476 -1.9940 -0.5707
 3789SOL     OW14321   6.447   8.275   9.033 -0.1295  0.1634 -0.2811
 3789SOL    HW114322   6.357   8.307   9.039 -0.0531  0.6298 -1.3899
 3789SOL    HW214323   6.439   8.187   8.997 -0.1012  0.5084 -1.1413
 3790SOL     OW14324   8.847   1.684   7.820  0.0371 -0.1150 -0.1471
 3790SOL    HW114325   8.918   1.623   7.837  1.1068  0.7064 -1.4669
 3790SOL    HW214326   8.864   1.759   7.877 -0.1708 -0.2126  0.0455
 3791SOL     OW14327   2.017   3.345   7.006  0.2201 -0.4004  0.1047
 3791SOL    HW114328   2.042   3.368   6.917 -0.2975  0.5507  0.1989
 3791SOL    HW214329   2.052   3.256   7.019  0.6910 -0.3614 -0.8763
 3792SOL     OW14330   3.812   3.311   5.009  0.3215  0.0896  0.3596
 3792SOL    HW114331   3.739   3.368   4.984  0.3237 -0.5921 -1.2721
 3792SOL    HW214332   3.797   3.230   4.961  1.7661 -0.3226  0.5641
 3793SOL     OW14333   8.095   9.507   6.764 -0.6278 -0.1663 -0.8695
 3793SOL    HW114334   8.015   9.543   6.726 -0.8428  1.0731  0.6679
 3793SOL    HW214335   8.066   9.431   6.813 -0.6764 -0.4110 -1.2706
 3794SOL     OW14336   9.196   4.171   2.215  0.2117  0.5147  0.2168
 3794SOL    HW114337   9.135   4.118   2.267 -0.0439  0.8291  0.2396
 3794SOL    HW214338   9.178   4.144   2.124  1.3244 -0.7373  0.3299
 3795SOL     OW14339   4.171   3.570   5.123  0.1204  0.0110 -0.0044
 3795SOL    HW114340   4.138   3.614   5.044  0.1260  0.0689  0.0255
 3795SOL    HW214341   4.178   3.478   5.098  0.0144  0.0105 -0.0368
 3796SOL     OW14342   4.731   0.423   4.171 -0.8354 -0.2835 -0.3269
 3796SOL    HW114343   4.654   0.467   4.135  0.3178 -0.3480 -3.1076
 3796SOL    HW214344   4.698   0.337   4.200 -1.9300 -0.0456 -0.8058
 3797SOL     OW14345   7.453   4.524   6.624  0.2312 -0.2576  0.0480
 3797SOL    HW114346   7.538   4.562   6.644  0.0284  1.1371 -1.5007
 3797SOL    HW214347   7.473   4.450   6.566  0.4014  0.2576 -0.5689
 3798SOL     OW14348   1.597   6.511   0.909 -0.5292  0.2791  0.5321
 3798SOL    HW114349   1.686   6.484   0.931 -0.6162  0.1483  0.7330
 3798SOL    HW214350   1.607   6.596   0.866 -0.1884 -0.4347 -0.8572
 3799SOL     OW14351   2.273   9.841   6.863 -0.0077 -0.2189  0.3661
 3799SOL    HW114352   2.203   9.850   6.798  0.7902  2.7649 -0.2510
 3799SOL    HW214353   2.353   9.854   6.813  0.8176 -0.8432  1.4907
 3800SOL     OW14354   3.569   1.478   9.021 -0.0781 -0.3154  0.1100
 3800SOL    HW114355   3.594   1.399   9.069 -2.0566 -0.3667  1.1303
 3800SOL    HW214356   3.556   1.448   8.931  3.7069 -0.2089 -0.6687
 3801SOL     OW14357   1.165   7.553   4.035  0.6839  0.4516  0.4415
 3801SOL    HW114358   1.172   7.570   3.941  0.5916  2.0663  0.6929
 3801SOL    HW214359   1.135   7.636   4.072 -0.6399 -0.5478  1.7454
 3802SOL     OW14360   5.683   2.957   3.301  0.1198 -0.2071 -0.0907
 3802SOL    HW114361   5.767   2.937   3.342 -0.8778 -3.1759  0.7550
 3802SOL    HW214362   5.618   2.943   3.371 -1.2367 -0.3573 -1.3192
 3803SOL     OW14363   1.039   8.384   8.957  0.1471  0.4637  0.3001
 3803SOL    HW114364   1.102   8.381   8.885  0.0365  1.7012  0.1395
 3803SOL    HW214365   0.983   8.307   8.943  0.7679  0.1116 -0.3239
 3804SOL     OW14366   4.172   0.152   7.735  0.2048  0.3619  0.2550
 3804SOL    HW114367   4.263   0.122   7.747  0.7723  1.6599 -0.5796
 3804SOL    HW214368   4.160   0.218   7.802 -0.4317 -0.4098  0.9158
 3805SOL     OW14369   6.564   8.077   9.668 -0.4660  0.7783  0.7242
 3805SOL    HW114370   6.497   8.143   9.658 -1.1405  0.1442  0.9658
 3805SOL    HW214371   6.540   8.029   9.748 -1.1159 -1.0157 -0.4785
 3806SOL     OW14372   2.094   0.295   3.866  0.2644 -0.4183  0.3345
 3806SOL    HW114373   2.160   0.261   3.806 -1.3014 -0.5934 -1.3566
 3806SOL    HW214374   2.053   0.217   3.904 -1.3487 -0.4741 -1.3541
 3807SOL     OW14375   7.494   1.033   1.913  0.1893  0.2006 -0.5143
 3807SOL    HW114376   7.506   1.015   1.820  1.1347 -0.3012 -0.3059
 3807SOL    HW214377   7.497   1.129   1.919 -3.1838  0.4792 -1.3957
 3808SOL     OW14378   6.181   8.249   4.750 -0.3029 -0.0042  0.3835
 3808SOL    HW114379   6.220   8.297   4.823  1.0073 -0.1672 -0.1864
 3808SOL    HW214380   6.224   8.163   4.752  1.2202  0.6345 -1.7308
 3809SOL     OW14381   0.519   6.171   3.882  0.2576 -0.5741  0.0643
 3809SOL    HW114382   0.593   6.110   3.892  1.8098  1.2637  0.5091
 3809SOL    HW214383   0.538   6.241   3.944 -0.6354  1.1125 -1.4677
 3810SOL     OW14384   7.518   8.426   4.391  0.0991 -0.4775 -0.6588
 3810SOL    HW114385   7.580   8.353   4.393 -0.7788 -1.2465 -0.3344
 3810SOL    HW214386   7.432   8.384   4.399 -0.4451  0.5822 -0.7443
 3811SOL     OW14387   2.415  10.245   2.035  0.4676  0.5634 -0.6506
 3811SOL    HW114388   2.352  10.302   2.080  0.2857 -0.6894  0.7671
 3811SOL    HW214389   2.370  10.216   1.957  0.1829  1.5359 -0.8661
 3812SOL     OW14390   3.896   5.471   3.004 -0.5814 -0.6182 -0.5371
 3812SOL    HW114391   3.916   5.463   3.098 -0.2326  0.2876 -0.5243
 3812SOL    HW214392   3.801   5.467   3.000 -0.6626  0.4370 -0.0126
 3813SOL     OW14393   6.737   4.049   7.235 -0.0273 -0.3422  0.6530
 3813SOL    HW114394   6.715   4.124   7.290 -0.8982  0.3876 -0.6179
 3813SOL    HW214395   6.782   4.087   7.159 -0.4637 -1.0930 -0.0016
 3814SOL     OW14396  10.292   8.227   9.429 -0.1873  0.2064 -0.3288
 3814SOL    HW114397  10.331   8.270   9.353  0.9506 -1.4198 -0.7438
 3814SOL    HW214398  10.319   8.280   9.504  0.5846  0.6152 -0.8810
 3815SOL     OW14399   6.302   4.054  10.375 -0.1495 -0.4754 -0.1890
 3815SOL    HW114400   6.224   4.013  10.411 -0.0543 -0.4784  0.0210
 3815SOL    HW214401   6.374   4.001  10.409  0.0442  0.4309  0.9098
 3816SOL     OW14402   8.460   9.623   0.077 -0.1110  0.5250  0.5399
 3816SOL    HW114403   8.395   9.670   0.129  0.6047 -0.2996  2.2536
 3816SOL    HW214404   8.544   9.640   0.120  0.6654  0.5374 -0.8862
 3817SOL     OW14405   9.090   2.606   2.311 -0.3553  0.2601 -0.1584
 3817SOL    HW114406   9.130   2.524   2.282  1.7552  1.0323  0.3309
 3817SOL    HW214407   9.043   2.583   2.391  1.8740 -0.1809  1.1059
 3818SOL     OW14408  10.619   1.342   2.357  0.1114 -0.0781 -0.2021
 3818SOL    HW114409  10.556   1.396   2.405 -0.7269 -0.8715 -0.3756
 3818SOL    HW214410  10.565   1.290   2.297  0.6205 -2.5991  1.3822
 3819SOL     OW14411   2.578   2.201   6.372  0.0944  0.1984  0.0912
 3819SOL    HW114412   2.612   2.291   6.372  0.6553  0.0780  2.8276
 3819SOL    HW214413   2.629   2.156   6.439 -2.1513 -1.3435  0.9031
 3820SOL     OW14414  10.497   9.042   5.160 -0.1886  0.0899  0.2056
 3820SOL    HW114415  10.492   8.953   5.195 -1.8821  0.7993  1.9440
 3820SOL    HW214416  10.429   9.090   5.206 -1.1106  1.6899 -2.5673
 3821SOL     OW14417   1.101  10.111   4.772 -0.3642  0.1889 -0.1112
 3821SOL    HW114418   1.039  10.160   4.718 -0.7217 -0.0392  0.0825
 3821SOL    HW214419   1.089  10.020   4.744 -2.6365 -0.3821  2.2538
 3822SOL     OW14420   4.393   6.050   7.004  0.0878  0.1029  0.3120
 3822SOL    HW114421   4.449   6.088   6.937  1.9841 -1.0269  1.1726
 3822SOL    HW214422   4.311   6.030   6.959  0.9859  0.2311 -1.4404
 3823SOL     OW14423   1.164   8.319   8.715  0.4609  0.5127  0.1635
 3823SOL    HW114424   1.202   8.264   8.783  0.2047  1.1958  0.8726
 3823SOL    HW214425   1.227   8.315   8.643  0.9663  0.1595  0.6153
 3824SOL     OW14426  10.472   4.526   9.798  0.0981 -0.2593 -0.1755
 3824SOL    HW114427  10.411   4.575   9.854 -0.2666 -1.1718  0.2526
 3824SOL    HW214428  10.453   4.557   9.710 -0.5142 -0.0239  0.0287
 3825SOL     OW14429   7.295   7.469   5.677  0.0615 -0.4848 -0.0842
 3825SOL    HW114430   7.338   7.553   5.661 -1.7297  0.4848 -0.0471
 3825SOL    HW214431   7.366   7.408   5.695  1.3793  1.0836  0.1662
 3826SOL     OW14432   0.648   9.204   0.561 -0.0505 -0.3087 -0.2905
 3826SOL    HW114433   0.713   9.142   0.593  0.5217  0.3524 -0.1502
 3826SOL    HW214434   0.595   9.153   0.499 -1.0413 -1.5513  1.4846
 3827SOL     OW14435   5.940   0.119   0.368 -0.1279  0.9017  0.0030
 3827SOL    HW114436   5.971   0.190   0.423 -3.1015 -0.0485  3.2598
 3827SOL    HW214437   5.845   0.121   0.377 -0.6007 -1.0341 -3.0537
 3828SOL     OW14438   1.052   4.141   9.111  0.1912  0.4551 -0.0065
 3828SOL    HW114439   1.091   4.145   9.198  0.9657 -1.0853 -0.2687
 3828SOL    HW214440   1.102   4.075   9.064 -2.5367 -1.5050 -0.4241
 3829SOL     OW14441   3.984   3.367   2.333  1.0905 -0.4483  0.1456
 3829SOL    HW114442   3.891   3.352   2.316  0.8769 -1.2769  1.7910
 3829SOL    HW214443   4.019   3.401   2.251 -0.4537 -1.0981 -0.8141
 3830SOL     OW14444   8.892   0.832   6.476  0.3433  0.1777 -0.3665
 3830SOL    HW114445   8.802   0.828   6.509  0.5934 -1.2080  0.2061
 3830SOL    HW214446   8.904   0.749   6.430  1.0919  0.6807 -1.0979
 3831SOL     OW14447  10.490   1.731  10.684  0.1296  0.0470 -0.0224
 3831SOL    HW114448  10.464   1.639  10.677  2.2892 -0.6033 -0.0850
 3831SOL    HW214449  10.451   1.761  10.766  0.0963 -1.1741  0.4188
 3832SOL     OW14450   4.463  10.641   5.675  0.2013 -0.2311 -0.1011
 3832SOL    HW114451   4.536  10.674   5.728  1.1420  0.8398 -1.9749
 3832SOL    HW214452   4.485  10.665   5.585 -1.2990 -2.0660 -1.0338
 3833SOL     OW14453   1.141   6.261   8.666 -0.0342 -0.0827  0.1194
 3833SOL    HW114454   1.155   6.170   8.692 -1.2146 -0.1046  0.7571
 3833SOL    HW214455   1.055   6.283   8.702 -0.8969  0.5136 -2.1757
 3834SOL     OW14456  10.549   1.685   3.264  0.1210 -0.0215  0.5284
 3834SOL    HW114457  10.552   1.778   3.243 -0.6554 -0.1543 -0.2216
 3834SOL    HW214458  10.579   1.641   3.185 -0.0081 -0.4269  0.7019
 3835SOL     OW14459   0.961   7.170   5.600 -0.0907 -0.5825  0.3753
 3835SOL    HW114460   0.979   7.087   5.642 -0.4603 -0.8598 -0.0003
 3835SOL    HW214461   0.879   7.200   5.640  0.0568 -0.3844  0.5306
 3836SOL     OW14462  10.110   7.261   3.008  0.5953 -0.3766  0.2995
 3836SOL    HW114463  10.094   7.342   2.959 -0.3269 -0.3114  0.6844
 3836SOL    HW214464  10.023   7.220   3.015  0.9186 -0.9806  0.8279
 3837SOL     OW14465   8.819   1.061   8.636  0.3857 -0.1088  0.1147
 3837SOL    HW114466   8.878   1.111   8.691  1.5631 -0.5705 -0.6691
 3837SOL    HW214467   8.764   1.012   8.697  0.1163  1.0943  0.8660
 3838SOL     OW14468   5.364   9.038   1.369  0.5670 -0.0131  0.2052
 3838SOL    HW114469   5.337   8.946   1.380  0.9144 -0.1208  0.1614
 3838SOL    HW214470   5.356   9.053   1.274 -0.6607  0.3681  0.3565
 3839SOL     OW14471   4.934   1.369   5.941  0.5397 -0.2275 -0.2601
 3839SOL    HW114472   4.864   1.366   6.006  1.3775 -0.8458  0.6390
 3839SOL    HW214473   4.949   1.277   5.918  0.4295 -0.0360 -1.1432
 3840SOL     OW14474   3.046   0.887   8.417  0.5931 -0.5341  0.1568
 3840SOL    HW114475   3.062   0.874   8.324 -1.0732 -0.2235 -0.1916
 3840SOL    HW214476   3.073   0.804   8.458  1.0420 -0.7770 -0.6179
 3841SOL     OW14477   1.630   8.686   5.288  0.4688  0.1950  0.1521
 3841SOL    HW114478   1.558   8.658   5.232  0.5557 -1.0922  0.6510
 3841SOL    HW214479   1.599   8.767   5.329  0.2214  0.8854 -1.3560
 3842SOL     OW14480   2.467  10.474   4.286  0.2821  0.0116 -0.0418
 3842SOL    HW114481   2.383  10.467   4.332  1.5289 -1.3826  2.1793
 3842SOL    HW214482   2.463  10.406   4.218 -1.0006  1.0954 -1.1034
 3843SOL     OW14483   2.532   1.432   3.267  0.3238  0.3594 -0.1833
 3843SOL    HW114484   2.478   1.484   3.208  0.5085  1.2188  0.4009
 3843SOL    HW214485   2.595   1.494   3.303  0.3777 -0.2148  0.7292
 3844SOL     OW14486   0.879   4.945   1.386  0.1224  0.2925 -0.3777
 3844SOL    HW114487   0.941   5.018   1.386 -0.4842  0.8178  0.3258
 3844SOL    HW214488   0.929   4.872   1.423  0.4517  0.5845 -0.2399
 3845SOL     OW14489   1.316   6.002   0.459 -0.0916 -0.3322 -0.6510
 3845SOL    HW114490   1.369   5.975   0.385 -1.4524 -1.4867 -1.2471
 3845SOL    HW214491   1.251   6.062   0.422  0.5345  0.7938  0.0090
 3846SOL     OW14492   7.643   4.573   1.827  0.4558 -0.0512  0.5359
 3846SOL    HW114493   7.705   4.646   1.833  0.0981  0.5110 -1.7821
 3846SOL    HW214494   7.590   4.592   1.750  0.0245 -2.5177  0.1242
 3847SOL     OW14495   6.522   9.537   8.893 -0.0040 -0.1534 -0.1903
 3847SOL    HW114496   6.608   9.526   8.851 -0.4956  1.7425 -1.8569
 3847SOL    HW214497   6.541   9.580   8.976  0.6445  0.4580 -0.6463
 3848SOL     OW14498   2.325   0.221   2.722 -0.2452 -0.4952  0.3869
 3848SOL    HW114499   2.415   0.205   2.751  0.0893  0.3541 -0.1321
 3848SOL    HW214500   2.313   0.163   2.647  0.3669  0.3814 -0.4169
 3849SOL     OW14501   0.772   9.809   0.039  0.0096  0.6177 -0.8319
 3849SOL    HW114502   0.821   9.870  -0.016 -0.1062 -0.6300 -2.3990
 3849SOL    HW214503   0.816   9.724   0.025  0.4313  0.3629  1.5988
 3850SOL     OW14504   6.823   2.126   5.582 -0.0150 -0.3937  0.6114
 3850SOL    HW114505   6.838   2.044   5.534 -2.4052 -1.1950  1.0979
 3850SOL    HW214506   6.770   2.179   5.522 -1.2389 -0.5559  1.5143
 3851SOL     OW14507   1.626  10.002   0.997  0.2340  0.7730 -0.0696
 3851SOL    HW114508   1.546   9.973   0.955 -0.5237  0.5396  1.4813
 3851SOL    HW214509   1.605  10.090   1.030  0.9439  1.1211 -0.5173
 3852SOL     OW14510   5.471   0.506   3.759  0.1700  0.2369 -0.0138
 3852SOL    HW114511   5.388   0.506   3.806  0.4991 -1.2273  0.6221
 3852SOL    HW214512   5.449   0.542   3.673 -0.9405  0.6458  0.4147
 3853SOL     OW14513   2.963   5.712   7.583 -0.1182 -0.2615  0.0259
 3853SOL    HW114514   3.019   5.750   7.651 -0.1498  2.2024 -1.1920
 3853SOL    HW214515   2.926   5.788   7.537 -1.5312 -1.8178 -1.5845
 3854SOL     OW14516   3.340   8.346   8.806  0.2441 -0.0548  0.5567
 3854SOL    HW114517   3.419   8.350   8.861 -0.1214  1.8479  1.0367
 3854SOL    HW214518   3.282   8.412   8.843 -0.1226  1.1544 -1.9495
 3855SOL     OW14519   9.671   0.960  10.257  0.9268  0.1686  0.5135
 3855SOL    HW114520   9.765   0.975  10.260  1.1922 -1.0346 -0.7282
 3855SOL    HW214521   9.658   0.877  10.304  0.4992  0.2562  0.5603
 3856SOL     OW14522   4.089   9.344   2.924  1.0190 -0.6044  0.1977
 3856SOL    HW114523   4.115   9.436   2.930  0.1149 -0.2460 -1.0387
 3856SOL    HW214524   4.050   9.324   3.009  1.4690  0.0599  0.5675
 3857SOL     OW14525   9.053   5.283   6.982  0.1812  0.1422  0.1310
 3857SOL    HW114526   8.959   5.280   7.001  0.6804  0.1395  3.0462
 3857SOL    HW214527   9.058   5.319   6.893 -2.5626 -0.0264 -0.1824
 3858SOL     OW14528   1.266   1.532   2.639  0.2436 -0.1088 -0.1820
 3858SOL    HW114529   1.333   1.468   2.664  1.4167  0.9960 -0.3981
 3858SOL    HW214530   1.192   1.514   2.698  1.2571 -0.4592  1.0170
 3859SOL     OW14531   7.380   7.103   8.792 -0.5010  0.5017 -0.0078
 3859SOL    HW114532   7.443   7.169   8.763 -0.7464  0.7568  0.0398
 3859SOL    HW214533   7.295   7.138   8.766 -0.6930  0.5403  0.6502
 3860SOL     OW14534   1.962   8.074   4.259 -0.0894  0.0493 -0.0642
 3860SOL    HW114535   2.039   8.020   4.240  0.6735  1.1767 -0.2697
 3860SOL    HW214536   1.943   8.057   4.351 -1.1089 -2.0935 -0.6250
 3861SOL     OW14537   9.256   1.375   2.182  0.2966 -0.3353 -0.2829
 3861SOL    HW114538   9.237   1.409   2.095  0.4008 -0.4129 -0.3367
 3861SOL    HW214539   9.178   1.325   2.206  0.2803 -0.3384 -0.3429
 3862SOL     OW14540   2.292   5.371   3.669 -0.4175  0.3452 -0.3007
 3862SOL    HW114541   2.293   5.399   3.760 -0.6700  2.7596 -0.9473
 3862SOL    HW214542   2.207   5.403   3.636  0.5065  1.3495 -1.8380
 3863SOL     OW14543   0.783   0.243   7.145  0.3393  0.4279  0.4234
 3863SOL    HW114544   0.784   0.222   7.052 -0.9210 -0.1285  0.5161
 3863SOL    HW214545   0.737   0.326   7.151 -3.4595 -1.4993  0.8321
 3864SOL     OW14546   6.716   3.133   9.131  0.4055  0.6442 -0.2799
 3864SOL    HW114547   6.675   3.170   9.209  0.3007  0.3395 -0.1897
 3864SOL    HW214548   6.788   3.080   9.164  1.1034  1.4691 -0.4602
 3865SOL     OW14549   9.768   9.482   0.363  0.4105 -0.1170  0.1910
 3865SOL    HW114550   9.701   9.494   0.295  0.5610  0.4729  0.1389
 3865SOL    HW214551   9.833   9.550   0.345  1.5426 -1.3137 -0.3588
 3866SOL     OW14552  10.426   7.232   3.811 -0.3936 -0.4130 -0.3362
 3866SOL    HW114553  10.445   7.139   3.795 -1.2514 -0.6181 -0.1896
 3866SOL    HW214554  10.372   7.232   3.890  0.9260  0.3366  0.6102
 3867SOL     OW14555  10.091   3.893   5.404 -0.4622  0.1610 -0.1867
 3867SOL    HW114556  10.114   3.985   5.416 -1.2595  0.3300  0.1303
 3867SOL    HW214557  10.075   3.884   5.310 -2.3874  0.8540  0.0368
 3868SOL     OW14558   7.851   7.241   5.354  0.1251 -0.3529  0.5503
 3868SOL    HW114559   7.854   7.266   5.261 -1.1142  0.4068  0.6986
 3868SOL    HW214560   7.778   7.292   5.390 -0.8754 -2.3125  1.4334
 3869SOL     OW14561   5.098   9.723   7.300  0.0188 -0.1965  0.1310
 3869SOL    HW114562   5.122   9.669   7.375 -0.5013 -1.7396 -0.7723
 3869SOL    HW214563   5.008   9.698   7.281  0.0811  0.3235 -0.8874
 3870SOL     OW14564   0.997   1.818   8.867 -0.0658  0.1153 -0.0781
 3870SOL    HW114565   0.943   1.807   8.946  1.6434 -4.6514  0.8131
 3870SOL    HW214566   0.941   1.788   8.796 -0.0685 -0.3936  0.1334
 3871SOL     OW14567   1.458   4.647   4.545 -0.2050  0.1127 -0.3219
 3871SOL    HW114568   1.382   4.705   4.540  0.7030  1.2645 -1.5589
 3871SOL    HW214569   1.460   4.618   4.637 -2.2202 -0.1323 -0.2965
 3872SOL     OW14570   9.407  10.355   9.181 -0.4987 -0.4317  0.3066
 3872SOL    HW114571   9.423  10.407   9.103  0.9397 -0.0229  0.8359
 3872SOL    HW214572   9.364  10.415   9.242  2.7633  0.8166  1.5854
 3873SOL     OW14573   7.624   5.834   2.086 -0.4105 -0.0239  0.0019
 3873SOL    HW114574   7.561   5.789   2.143 -1.3847 -0.9438 -1.7350
 3873SOL    HW214575   7.698   5.774   2.080  1.0150  1.2852  2.4815
 3874SOL     OW14576   1.267   5.704   7.703 -0.1894 -0.3941  0.1444
 3874SOL    HW114577   1.303   5.784   7.666 -1.2571 -0.3652 -0.8968
 3874SOL    HW214578   1.172   5.721   7.707 -0.3949 -1.5011  0.1376
 3875SOL     OW14579   3.481   8.936   6.564  0.5488  0.3857 -0.1531
 3875SOL    HW114580   3.389   8.929   6.541  0.7946  0.3949 -1.2227
 3875SOL    HW214581   3.516   9.001   6.503  1.4569 -0.3579 -0.4537
 3876SOL     OW14582   6.110   0.461   9.824 -0.4246 -0.0100  0.4621
 3876SOL    HW114583   6.084   0.405   9.751  0.2737 -0.4788  0.5525
 3876SOL    HW214584   6.142   0.541   9.783 -2.7497  0.9443  0.3812
 3877SOL     OW14585   0.925   3.852   3.695  0.2237  0.0459  0.4863
 3877SOL    HW114586   0.959   3.811   3.616  0.6887 -0.8707  1.1298
 3877SOL    HW214587   0.876   3.782   3.739  0.0658  0.5038  1.0577
 3878SOL     OW14588   4.263   4.510   8.524 -0.4200 -0.0643 -0.3120
 3878SOL    HW114589   4.297   4.497   8.613  1.4839 -1.9319 -1.2148
 3878SOL    HW214590   4.192   4.447   8.516  0.6276 -1.2297 -0.6749
 3879SOL     OW14591   2.166   3.388   0.906 -0.1928 -0.2009 -0.0499
 3879SOL    HW114592   2.239   3.408   0.965 -0.0471  1.1607 -0.6303
 3879SOL    HW214593   2.189   3.304   0.867  0.9817  0.1109 -0.0747
 3880SOL     OW14594   7.517  10.639   2.046  0.0969  0.2056  0.2551
 3880SOL    HW114595   7.600  10.686   2.045  0.5568 -0.5777 -0.2826
 3880SOL    HW214596   7.541  10.548   2.064 -0.7604  0.1514  1.2360
 3881SOL     OW14597   5.049   6.475  10.434 -0.0687 -0.2099  0.1495
 3881SOL    HW114598   4.972   6.526  10.459  0.8682 -0.0143  2.9772
 3881SOL    HW214599   5.118   6.540  10.421  0.6403 -0.5760  1.8484
 3882SOL     OW14600   5.991   7.016   3.104  0.3450  0.2078 -0.2218
 3882SOL    HW114601   6.035   6.931   3.106  1.2473  0.6612 -0.2784
 3882SOL    HW214602   5.911   7.004   3.156  0.8012 -0.4878  0.3198
 3883SOL     OW14603   8.121   3.719   6.331 -0.0148 -0.3658  0.3063
 3883SOL    HW114604   8.131   3.718   6.236  1.0565  0.8035  0.3884
 3883SOL    HW214605   8.139   3.809   6.357 -2.6217 -0.0659  1.4147
 3884SOL     OW14606   1.418   0.427   4.467 -0.6982  0.3282 -0.1165
 3884SOL    HW114607   1.483   0.495   4.484 -0.9687  0.9889 -1.5945
 3884SOL    HW214608   1.453   0.377   4.393 -2.2892  1.3212 -1.6041
 3885SOL     OW14609   5.275   6.673   5.779  0.0170 -0.3921 -0.0459
 3885SOL    HW114610   5.264   6.747   5.719 -0.6650 -0.2960  0.1828
 3885SOL    HW214611   5.364   6.682   5.812 -0.6641  1.4638  1.4524
 3886SOL     OW14612   7.630   4.785   2.656 -0.5184  0.2600 -0.1568
 3886SOL    HW114613   7.711   4.752   2.694  0.1413  0.9947 -0.9034
 3886SOL    HW214614   7.620   4.873   2.693 -0.5408  0.4854 -0.6966
 3887SOL     OW14615   0.894   9.517   1.743  0.2880  0.0619  0.3727
 3887SOL    HW114616   0.982   9.517   1.705  1.7784 -2.9210  3.2750
 3887SOL    HW214617   0.855   9.435   1.712  0.1048 -0.5433  2.0971
 3888SOL     OW14618   2.778   1.872   9.634 -0.7588 -0.3750 -0.3858
 3888SOL    HW114619   2.807   1.798   9.688  0.1618 -0.2554 -0.7042
 3888SOL    HW214620   2.685   1.853   9.616 -0.5975 -1.3349 -0.2820
 3889SOL     OW14621   6.215   1.240   3.416 -0.6202 -0.3680 -0.1940
 3889SOL    HW114622   6.258   1.324   3.429 -1.0169 -0.5103  2.8533
 3889SOL    HW214623   6.122   1.260   3.415 -0.6757 -0.5980 -1.5548
 3890SOL     OW14624   1.575   5.949   5.926  0.1734 -0.3143 -0.2774
 3890SOL    HW114625   1.648   5.925   5.869 -1.4122 -2.1115 -1.6785
 3890SOL    HW214626   1.532   6.022   5.880 -0.4664 -1.0483 -0.8745
 3891SOL     OW14627   7.633   2.417   7.368  0.5301  0.4187 -0.6805
 3891SOL    HW114628   7.716   2.427   7.415  1.1144  1.9539 -1.9259
 3891SOL    HW214629   7.579   2.489   7.400 -0.2481 -0.4069 -0.0867
 3892SOL     OW14630   0.038   2.549   5.304 -0.4498 -0.7058  0.1383
 3892SOL    HW114631  -0.050   2.515   5.322 -0.0432 -1.3747  0.9727
 3892SOL    HW214632   0.097   2.486   5.347  0.4707 -0.7121 -1.0874
 3893SOL     OW14633   0.717   2.741  10.416  0.3161 -0.4563 -0.1786
 3893SOL    HW114634   0.664   2.663  10.433  0.8355 -0.6567  0.5413
 3893SOL    HW214635   0.800   2.723  10.459 -0.0514  1.1074  1.2357
 3894SOL     OW14636   2.774   7.183   5.942 -0.2335 -0.2824 -0.4753
 3894SOL    HW114637   2.688   7.186   5.983 -1.1785  0.2523 -2.3899
 3894SOL    HW214638   2.810   7.098   5.968 -1.6793 -0.8709 -0.3193
 3895SOL     OW14639   7.290   8.965   2.622 -0.0554 -0.6264 -0.3023
 3895SOL    HW114640   7.352   9.038   2.621 -1.4280  0.6855  1.6566
 3895SOL    HW214641   7.300   8.925   2.709  1.2658 -3.4180 -1.6168
 3896SOL     OW14642   3.289   9.032   7.208  0.0660 -0.2365  0.1159
 3896SOL    HW114643   3.203   9.069   7.229 -0.0978 -1.4326  1.8448
 3896SOL    HW214644   3.332   9.022   7.293  1.2918 -1.1134 -0.5709
 3897SOL     OW14645   5.241   2.613   6.056 -0.4853 -0.5547  0.1739
 3897SOL    HW114646   5.279   2.545   6.112  1.8561  2.5807  2.8056
 3897SOL    HW214647   5.300   2.617   5.980  0.2532 -0.5260  0.7309
 3898SOL     OW14648   8.693   2.546   4.959  0.0126 -0.1817 -0.1862
 3898SOL    HW114649   8.766   2.536   5.021  0.6425  1.9084 -0.5214
 3898SOL    HW214650   8.731   2.591   4.884 -1.6428  1.1647 -0.2835
 3899SOL     OW14651   8.823   9.969   7.934  0.1536 -0.0801  0.4080
 3899SOL    HW114652   8.728   9.982   7.937  0.2292  0.3292  2.0768
 3899SOL    HW214653   8.834   9.875   7.947 -0.0064  0.0732  1.8604
 3900SOL     OW14654   3.837   5.570   3.441 -0.1567  0.3937  0.0152
 3900SOL    HW114655   3.870   5.660   3.444  0.9181  0.1525 -2.3967
 3900SOL    HW214656   3.905   5.521   3.394 -1.0438 -1.5577  0.6619
 3901SOL     OW14657   9.131   5.090   3.432  0.0136  0.2848 -0.1667
 3901SOL    HW114658   9.144   5.085   3.338 -1.7754 -1.8087 -0.3733
 3901SOL    HW214659   9.061   5.028   3.451 -0.5621  1.5425  2.3918
 3902SOL     OW14660   0.791   4.407   0.246 -0.3885  0.1865  0.4039
 3902SOL    HW114661   0.806   4.399   0.151 -1.1793  0.5039  0.2462
 3902SOL    HW214662   0.863   4.464   0.276  0.1005 -0.2434  0.0701
 3903SOL     OW14663   0.190   6.513   4.363  0.4950 -0.8499  0.0629
 3903SOL    HW114664   0.132   6.445   4.326  0.1858 -1.1035  0.9919
 3903SOL    HW214665   0.130   6.582   4.391  0.6651 -0.9576  0.7050
 3904SOL     OW14666   6.487   1.458  10.688  0.3290  0.0149 -0.6160
 3904SOL    HW114667   6.462   1.366  10.687 -1.5341  0.4303  0.8051
 3904SOL    HW214668   6.570   1.460  10.735 -0.9072 -0.7616  1.7932
 3905SOL     OW14669   5.056   0.151   6.465  0.4269 -0.8368  0.4261
 3905SOL    HW114670   5.050   0.100   6.384  0.3112 -0.5548  0.2534
 3905SOL    HW214671   5.028   0.091   6.533 -0.6695 -0.7159  0.1065
 3906SOL     OW14672   3.242   9.289   7.109  0.0334 -0.7134  0.1173
 3906SOL    HW114673   3.287   9.230   7.048 -0.4210 -0.7638 -0.1718
 3906SOL    HW214674   3.178   9.335   7.055 -2.3351 -2.7213  0.9966
 3907SOL     OW14675   9.333   4.071   8.000 -0.6770  0.2280  0.6209
 3907SOL    HW114676   9.305   3.980   7.990 -1.7697  0.6205 -0.1197
 3907SOL    HW214677   9.339   4.104   7.911  1.2796  0.4591  0.7983
 3908SOL     OW14678   2.276   7.487   2.705 -0.0038  0.5174 -0.1550
 3908SOL    HW114679   2.202   7.440   2.743 -0.5866  1.0415 -0.6236
 3908SOL    HW214680   2.241   7.573   2.682  0.5211  0.4693 -1.2013
 3909SOL     OW14681   7.652   3.434   3.439  0.1011  0.5904  0.9176
 3909SOL    HW114682   7.610   3.520   3.450 -0.9191  0.3855 -1.0348
 3909SOL    HW214683   7.583   3.371   3.457  0.0728  0.2317 -0.3700
 3910SOL     OW14684  10.303   6.132   8.239 -0.7460  0.1544  0.5407
 3910SOL    HW114685  10.374   6.184   8.201 -0.6436 -0.2424  0.1840
 3910SOL    HW214686  10.337   6.103   8.324 -0.5462  0.1172  0.4495
 3911SOL     OW14687   2.281   0.615   1.154 -0.6328  0.0446  0.6878
 3911SOL    HW114688   2.216   0.680   1.179 -1.4327  0.3952 -1.9945
 3911SOL    HW214689   2.256   0.589   1.066  1.9936 -0.9704  0.1587
 3912SOL     OW14690   3.008   8.019   6.607 -0.0158 -0.1093  0.4080
 3912SOL    HW114691   2.982   8.019   6.699 -1.0616  1.7624  0.1508
 3912SOL    HW214692   2.980   7.933   6.575  1.5861 -1.3578  2.1053
 3913SOL     OW14693   1.251   5.752   6.184 -0.2095  0.3847  0.5410
 3913SOL    HW114694   1.233   5.728   6.275 -0.3566 -0.4385  0.2996
 3913SOL    HW214695   1.267   5.846   6.188  1.3459  0.1289  1.6638
 3914SOL     OW14696   8.416   3.477   0.669  0.7056  0.3769  0.3194
 3914SOL    HW114697   8.503   3.447   0.641  0.4047  0.5951 -0.9196
 3914SOL    HW214698   8.355   3.418   0.625  0.1856  1.2662 -0.1895
 3915SOL     OW14699   5.752   1.778   2.196  0.3495 -0.4750  0.6982
 3915SOL    HW114700   5.743   1.822   2.111  4.1843  0.7882  0.7350
 3915SOL    HW214701   5.677   1.810   2.248 -1.6779 -0.7194 -1.8859
 3916SOL     OW14702   0.713   7.636  10.342 -0.2142  0.1451  0.1529
 3916SOL    HW114703   0.690   7.546  10.317 -1.5549  0.8569 -1.2847
 3916SOL    HW214704   0.687   7.642  10.434 -0.2441 -0.8833  0.2288
 3917SOL     OW14705   6.059   9.756   5.440  0.5848 -0.1598 -0.8682
 3917SOL    HW114706   6.082   9.797   5.524 -2.3558 -1.1873  0.5820
 3917SOL    HW214707   6.128   9.691   5.426 -0.0106 -1.6451  2.1031
 3918SOL     OW14708   1.773   2.711   8.307 -0.0490  0.1459  0.5455
 3918SOL    HW114709   1.824   2.718   8.388  0.8683  2.0461 -0.1270
 3918SOL    HW214710   1.807   2.782   8.251 -2.5464  0.6702 -0.4513
 3919SOL     OW14711   7.720   8.976   5.675 -0.5909  0.3329  0.2479
 3919SOL    HW114712   7.657   9.036   5.635  1.1313  1.1546 -1.3741
 3919SOL    HW214713   7.726   8.903   5.614  1.1566  1.0135 -0.4407
 3920SOL     OW14714   8.491   0.785  10.328 -0.3348 -0.1259  0.2574
 3920SOL    HW114715   8.412   0.826  10.364  0.0316 -1.4506  2.8273
 3920SOL    HW214716   8.481   0.692  10.347  1.5070 -0.4210  0.0036
 3921SOL     OW14717   3.003   3.992   3.768  0.3973  0.9434 -0.4629
 3921SOL    HW114718   2.979   3.970   3.678 -0.1766  1.3778 -0.4239
 3921SOL    HW214719   2.954   3.929   3.821 -3.4782  3.8094 -0.1904
 3922SOL     OW14720   8.610   6.150   5.395 -0.6210 -0.1285  0.1357
 3922SOL    HW114721   8.597   6.055   5.387 -0.1227 -0.1500 -0.5813
 3922SOL    HW214722   8.554   6.187   5.326  1.9084 -0.1508 -2.1187
 3923SOL     OW14723   4.401   1.208   6.564 -0.0961 -0.3144  0.2091
 3923SOL    HW114724   4.314   1.172   6.550  0.3819 -1.3451 -0.1861
 3923SOL    HW214725   4.442   1.207   6.477  1.5643 -3.2172  0.8925
 3924SOL     OW14726   1.852   6.687   4.809  0.2014  0.0069 -0.3183
 3924SOL    HW114727   1.858   6.777   4.776  1.7816 -0.0639 -0.2822
 3924SOL    HW214728   1.808   6.696   4.893 -1.2187  0.5305 -1.0810
 3925SOL     OW14729   6.895  10.140   4.694  0.1241  0.6141 -0.0725
 3925SOL    HW114730   6.987  10.167   4.690  0.1877  0.4468  0.1964
 3925SOL    HW214731   6.871  10.119   4.604  1.2472 -2.3346  0.2156
 3926SOL     OW14732   2.326   8.433   7.487 -0.6576 -0.0558  0.2881
 3926SOL    HW114733   2.284   8.473   7.563  0.1776  1.1048  0.1668
 3926SOL    HW214734   2.410   8.478   7.480 -0.6729 -0.2231 -1.2492
 3927SOL     OW14735   9.615   0.058   2.525 -0.0985  0.4388 -0.4253
 3927SOL    HW114736   9.597   0.150   2.508 -0.2088  0.7237  1.0915
 3927SOL    HW214737   9.562   0.011   2.460 -1.4514  1.4064 -0.0625
 3928SOL     OW14738  10.346   5.157   3.034 -0.0704 -0.2466 -0.2656
 3928SOL    HW114739  10.409   5.145   2.964  0.3991 -0.4060  0.1802
 3928SOL    HW214740  10.318   5.069   3.057 -0.5616 -0.1720 -0.5486
 3929SOL     OW14741   4.181   6.117   0.536 -0.1341  0.2606 -0.0600
 3929SOL    HW114742   4.136   6.196   0.566 -1.4212 -0.2596 -0.5212
 3929SOL    HW214743   4.231   6.145   0.460 -0.5912  0.6448 -0.2243
 3930SOL     OW14744   9.876   3.494   1.689 -0.2054  0.2503 -0.0296
 3930SOL    HW114745   9.820   3.428   1.648  0.8973 -0.5598 -0.2914
 3930SOL    HW214746   9.815   3.555   1.730 -1.2789 -1.0521  0.4179
 3931SOL     OW14747   2.675   2.099   3.837 -0.4873  0.6662 -0.3134
 3931SOL    HW114748   2.686   2.098   3.932 -0.1248  1.2484 -0.3522
 3931SOL    HW214749   2.680   2.191   3.812 -0.6782  0.5277 -0.8892
 3932SOL     OW14750   4.641   7.554   8.218 -0.6394 -0.0765  0.0023
 3932SOL    HW114751   4.575   7.499   8.175 -3.6329  2.2387  1.2203
 3932SOL    HW214752   4.616   7.552   8.311  1.0861  0.8747  0.5319
 3933SOL     OW14753   1.395   3.020   1.699 -0.5474  0.2667 -0.0735
 3933SOL    HW114754   1.475   3.068   1.721 -0.2414  0.1651 -0.9587
 3933SOL    HW214755   1.400   2.940   1.752 -0.4383  0.6032  0.4349
 3934SOL     OW14756   0.327   4.412   1.128 -0.5296  0.2777 -0.1651
 3934SOL    HW114757   0.278   4.461   1.062  1.3702 -0.6717 -2.4360
 3934SOL    HW214758   0.276   4.331   1.139  0.3459 -0.6823 -2.4621
 3935SOL     OW14759   1.478   9.752   1.229  0.2071  0.0261  0.2934
 3935SOL    HW114760   1.492   9.792   1.315 -2.1689 -1.0068  1.2518
 3935SOL    HW214761   1.486   9.658   1.246 -1.2931 -0.2414 -0.3622
 3936SOL     OW14762   1.563   0.038   4.136  0.2085 -0.1562  0.3395
 3936SOL    HW114763   1.505   0.081   4.198  0.0023  1.1152 -0.6864
 3936SOL    HW214764   1.631   0.103   4.118  1.0672 -1.0313  0.2960
 3937SOL     OW14765   2.110   6.282   5.226 -0.3328 -0.8878 -0.0574
 3937SOL    HW114766   2.089   6.328   5.145 -0.0998  0.6309  0.7062
 3937SOL    HW214767   2.163   6.207   5.199  0.2941 -0.0357 -1.2563
 3938SOL     OW14768   3.114   5.938   2.509 -0.2306 -0.1977 -0.3792
 3938SOL    HW114769   3.025   5.959   2.540 -0.4624 -1.7198  0.0834
 3938SOL    HW214770   3.104   5.853   2.466  0.8724 -0.0021 -1.0442
 3939SOL     OW14771   7.322   1.645   4.610  0.0820  0.4238  0.2523
 3939SOL    HW114772   7.345   1.605   4.694  0.3494 -1.4499 -0.6500
 3939SOL    HW214773   7.238   1.605   4.587 -1.0545  2.5064  0.5780
 3940SOL     OW14774   4.848   7.027   7.276 -0.3992 -0.5435 -0.4290
 3940SOL    HW114775   4.790   6.959   7.241 -1.0452 -0.7168  0.8943
 3940SOL    HW214776   4.916   6.979   7.323 -0.5060 -0.3033 -0.0185
 3941SOL     OW14777   1.414   8.553   9.680 -0.4116 -0.3665 -0.6916
 3941SOL    HW114778   1.352   8.589   9.618 -1.5774 -2.2174 -0.6753
 3941SOL    HW214779   1.487   8.521   9.626 -0.3107  0.1693 -0.8760
 3942SOL     OW14780   4.149   4.493   6.261 -0.4579  0.1729 -0.3130
 3942SOL    HW114781   4.207   4.553   6.215 -0.6710  0.0206 -0.7840
 3942SOL    HW214782   4.061   4.518   6.233 -0.5254 -0.6438 -0.8684
 3943SOL     OW14783   7.431   4.078   9.151  0.3034 -0.2099  0.5261
 3943SOL    HW114784   7.432   4.173   9.153 -0.7299 -0.1641 -0.1664
 3943SOL    HW214785   7.442   4.052   9.243  1.8999  0.5207  0.5829
 3944SOL     OW14786   1.088   1.352   7.050 -0.6279 -0.2605  0.4704
 3944SOL    HW114787   1.167   1.380   7.095 -1.1458 -1.4479  2.2175
 3944SOL    HW214788   1.120   1.293   6.981  0.0092 -1.7865  1.9812
 3945SOL     OW14789   1.374   5.824  10.327  0.6083  0.0462 -0.3685
 3945SOL    HW114790   1.280   5.810  10.328  0.6684 -0.8896 -2.4993
 3945SOL    HW214791   1.384   5.919  10.331 -0.4823  0.2046 -1.0296
 3946SOL     OW14792   4.531   2.089   2.680 -0.0185  0.0413  0.3349
 3946SOL    HW114793   4.615   2.128   2.659  0.6473 -1.4327  0.0949
 3946SOL    HW214794   4.470   2.162   2.683  0.9093  0.9432 -1.3519
 3947SOL     OW14795   2.072   6.208   4.834 -0.2833 -0.1587  0.3264
 3947SOL    HW114796   2.030   6.155   4.767  1.8670 -0.3202 -0.9882
 3947SOL    HW214797   2.006   6.217   4.903 -2.1872 -0.8976 -1.3123
 3948SOL     OW14798   2.399   4.702   9.833 -0.0164  0.1649  0.0459
 3948SOL    HW114799   2.379   4.795   9.827  0.3708  0.2348 -0.2886
 3948SOL    HW214800   2.453   4.684   9.755  1.2916  0.0235  0.9452
 3949SOL     OW14801   7.045   9.837   2.824 -0.2246 -0.0560 -0.0873
 3949SOL    HW114802   7.045   9.789   2.907 -0.8997 -1.8213 -1.0642
 3949SOL    HW214803   6.956   9.828   2.790  0.2841 -0.2263 -1.4671
 3950SOL     OW14804   3.953   5.984   2.055  0.1893 -0.6147 -0.3458
 3950SOL    HW114805   3.948   6.018   1.965  0.0703 -3.3490 -1.4688
 3950SOL    HW214806   4.046   5.980   2.075  0.2001  0.5455 -0.0717
 3951SOL     OW14807   1.043   7.273   8.994  0.5649  0.6508 -0.3220
 3951SOL    HW114808   1.014   7.335   9.061  1.5693  1.2227 -0.4006
 3951SOL    HW214809   0.963   7.228   8.967  0.1674  0.2591  1.3953
 3952SOL     OW14810   4.341   1.452  10.515  0.2280 -0.2678  0.0714
 3952SOL    HW114811   4.252   1.456  10.478  0.7216  2.0647 -1.0435
 3952SOL    HW214812   4.338   1.378  10.576 -1.9427 -1.4196 -1.2962
 3953SOL     OW14813   5.666   8.181   7.121 -0.1990 -0.0830  0.2696
 3953SOL    HW114814   5.729   8.109   7.120 -0.2146 -0.1739 -2.8164
 3953SOL    HW214815   5.720   8.260   7.124 -0.0747 -0.1867  0.8193
 3954SOL     OW14816   3.075  10.156   0.457 -0.1512  0.2617 -0.6037
 3954SOL    HW114817   3.086  10.125   0.547  1.8372 -0.5677 -1.0724
 3954SOL    HW214818   3.036  10.082   0.411  1.2926 -0.3020 -0.9617
 3955SOL     OW14819  10.302   5.072   7.113  0.6699  0.0237  0.3431
 3955SOL    HW114820  10.312   4.977   7.103 -1.0106 -0.1593  0.0676
 3955SOL    HW214821  10.241   5.081   7.187  0.3810  0.8661  0.0091
 3956SOL     OW14822   4.669   0.719   5.774  0.3320 -0.9653  0.1829
 3956SOL    HW114823   4.652   0.812   5.789 -1.3050 -1.3215  0.7936
 3956SOL    HW214824   4.730   0.717   5.700  0.1016  0.5796 -0.0854
 3957SOL     OW14825   4.481  10.038  10.513 -0.3527  0.2380  0.0989
 3957SOL    HW114826   4.497  10.111  10.452 -0.2013  1.9434  2.0828
 3957SOL    HW214827   4.557   9.981  10.502  0.6576  1.5399  0.0820
 3958SOL     OW14828   1.522  10.204  10.159 -0.4615  0.2599  0.2267
 3958SOL    HW114829   1.533  10.298  10.147 -1.2238  0.4206  0.7575
 3958SOL    HW214830   1.428  10.192  10.172 -0.1941 -0.3988  1.6965
 3959SOL     OW14831   3.975   6.185   1.823 -0.0733 -0.1453  0.3387
 3959SOL    HW114832   3.972   6.173   1.728  0.7843 -2.2232  0.5264
 3959SOL    HW214833   4.061   6.153   1.848 -0.5057 -0.1541  1.8825
 3960SOL     OW14834   3.878   3.584   5.320  0.3692 -0.1820 -0.5643
 3960SOL    HW114835   3.888   3.593   5.415  1.5068  0.2743 -0.7105
 3960SOL    HW214836   3.913   3.497   5.301 -1.9040 -1.2052 -0.3176
 3961SOL     OW14837   2.334   6.177   5.606  0.4363  0.3171  0.0171
 3961SOL    HW114838   2.255   6.174   5.552  1.2139 -0.4098 -1.1292
 3961SOL    HW214839   2.372   6.090   5.597  1.8341  0.9286 -0.1518
 3962SOL     OW14840   7.177   4.860   0.630  0.2970  0.3177 -0.3419
 3962SOL    HW114841   7.203   4.776   0.593 -1.2523 -0.5900  0.5151
 3962SOL    HW214842   7.139   4.908   0.556 -0.4751 -0.4813 -0.4854
 3963SOL     OW14843   6.795   3.660   8.697  0.2509  0.1789 -0.5615
 3963SOL    HW114844   6.852   3.693   8.628  0.5208  1.0852  0.0670
 3963SOL    HW214845   6.814   3.717   8.772 -1.0277  0.0997 -0.1574
 3964SOL     OW14846   9.543   6.305  10.188 -0.5868 -0.0565 -0.4616
 3964SOL    HW114847   9.614   6.248  10.159 -1.5582 -2.0736  0.8906
 3964SOL    HW214848   9.574   6.342  10.270 -0.8224 -0.3563 -0.2394
 3965SOL     OW14849   5.113   4.655   6.462  0.4627  0.5712 -0.3891
 3965SOL    HW114850   5.076   4.579   6.416  2.7878 -0.2790 -0.9802
 3965SOL    HW214851   5.046   4.678   6.527 -2.2526  0.8160 -3.0396
 3966SOL     OW14852   5.136   2.974   0.013 -0.4361  0.1355  0.0252
 3966SOL    HW114853   5.041   2.975   0.005 -0.6607 -2.1003  1.2978
 3966SOL    HW214854   5.152   2.966   0.108  1.0746  1.6110 -0.0567
 3967SOL     OW14855   4.996   2.857   1.248 -0.3398 -0.1744 -0.2657
 3967SOL    HW114856   5.032   2.802   1.317 -0.6674 -0.8495 -0.6315
 3967SOL    HW214857   4.937   2.917   1.294  1.4702  1.2211  0.4147
 3968SOL     OW14858   0.730   0.301   3.323 -0.0903  0.0621  0.0899
 3968SOL    HW114859   0.680   0.345   3.392 -0.9307  0.6758 -0.8930
 3968SOL    HW214860   0.739   0.211   3.355  0.9343  0.6933  1.7321
 3969SOL     OW14861   6.745   8.674   2.656  0.2598  0.0107 -0.0549
 3969SOL    HW114862   6.772   8.583   2.640 -1.5838 -0.4482 -0.8248
 3969SOL    HW214863   6.789   8.725   2.589 -0.9901 -0.7634 -1.5222
 3970SOL     OW14864   2.435   9.313   1.956 -0.7287 -0.2477 -0.4304
 3970SOL    HW114865   2.520   9.341   1.923 -1.1818  0.2009 -1.2456
 3970SOL    HW214866   2.438   9.332   2.050  0.8201 -2.1419 -0.0548
 3971SOL     OW14867   7.148   6.934   4.314  0.4172 -0.1338  0.0712
 3971SOL    HW114868   7.149   6.839   4.296 -0.8048 -0.4805  1.6192
 3971SOL    HW214869   7.123   6.973   4.230 -0.7083 -1.3344 -0.1890
 3972SOL     OW14870   4.171  10.247   7.276  0.8565 -0.2207 -0.3185
 3972SOL    HW114871   4.103  10.309   7.249 -2.5480 -3.2511  0.5143
 3972SOL    HW214872   4.179  10.260   7.370  0.2687 -0.8969 -0.1718
 3973SOL     OW14873   6.486   8.550   9.687 -0.7732 -0.2166  0.1434
 3973SOL    HW114874   6.504   8.533   9.594  0.7234 -0.3456  0.4431
 3973SOL    HW214875   6.570   8.577   9.724 -1.7143  1.6004  1.1000
 3974SOL     OW14876   5.981   1.422   3.685  0.0193  0.2180 -0.3301
 3974SOL    HW114877   5.928   1.390   3.613  1.1327 -0.4335 -0.8817
 3974SOL    HW214878   5.996   1.345   3.740 -0.1750  0.5436  0.1827
 3975SOL     OW14879   2.411   6.454   4.630 -0.2807 -0.7328 -0.3211
 3975SOL    HW114880   2.337   6.394   4.621 -2.2393  1.5835 -0.5304
 3975SOL    HW214881   2.393   6.503   4.710  1.3467 -0.4972 -0.0679
 3976SOL     OW14882   7.059   3.969   7.011  0.4645 -0.5385 -0.3180
 3976SOL    HW114883   6.981   4.017   6.983 -1.6553 -2.2731  2.1106
 3976SOL    HW214884   7.109   4.032   7.064  0.2218  0.3147 -1.0914
 3977SOL     OW14885   5.704   5.283   3.490  0.7881 -0.3601 -0.2168
 3977SOL    HW114886   5.795   5.309   3.508 -0.3077  3.3167  0.8184
 3977SOL    HW214887   5.712   5.197   3.449  4.7308 -0.1440 -0.3236
 3978SOL     OW14888   9.786   1.561  10.616  0.2504 -0.1480 -0.0246
 3978SOL    HW114889   9.844   1.621  10.569  1.8231 -0.7855  1.0201
 3978SOL    HW214890   9.767   1.606  10.699 -1.6667  0.5145 -0.7535
 3979SOL     OW14891   5.677   4.403   7.730  0.1279 -0.1239  0.1350
 3979SOL    HW114892   5.720   4.451   7.660  0.9999 -0.4715  0.4137
 3979SOL    HW214893   5.584   4.407   7.709  0.2356  1.1964 -0.1351
 3980SOL     OW14894   7.753   7.955   2.383 -0.2315 -0.6060 -0.1636
 3980SOL    HW114895   7.745   8.047   2.407  1.4828 -0.8460  1.6116
 3980SOL    HW214896   7.720   7.907   2.459  0.9589 -1.4300 -0.1350
 3981SOL     OW14897   0.206   8.486  10.213  0.0869  0.1451 -0.7391
 3981SOL    HW114898   0.204   8.507  10.119 -1.8834 -1.2576 -1.0672
 3981SOL    HW214899   0.180   8.394  10.218  2.2165 -0.4601  1.0835
 3982SOL     OW14900   8.472   1.251   7.326 -0.3190 -0.1796  0.2304
 3982SOL    HW114901   8.513   1.175   7.366 -1.0513 -0.5688  0.2595
 3982SOL    HW214902   8.442   1.220   7.241 -0.4239  0.1416  0.1496
 3983SOL     OW14903   7.940   4.703   4.790  0.2734 -0.1621 -0.4778
 3983SOL    HW114904   8.019   4.736   4.832 -0.4276  2.5183 -1.0792
 3983SOL    HW214905   7.868   4.748   4.834 -0.6407  0.4026 -2.4073
 3984SOL     OW14906   9.871   4.660  10.383  0.1508 -0.9298  0.7791
 3984SOL    HW114907   9.957   4.698  10.401  0.3208 -0.5712 -0.6650
 3984SOL    HW214908   9.869   4.648  10.288 -1.7316 -0.0722  0.6576
 3985SOL     OW14909   9.495   8.268   4.547 -0.3570 -0.2114 -0.1108
 3985SOL    HW114910   9.589   8.283   4.542 -0.4610  0.5228  0.0735
 3985SOL    HW214911   9.458   8.323   4.478 -0.8925  1.8206  1.6812
 3986SOL     OW14912  10.162   5.149  10.327 -0.4855 -0.8811  0.4521
 3986SOL    HW114913  10.232   5.212  10.310 -0.1950 -1.5315 -0.8752
 3986SOL    HW214914  10.195   5.066  10.292 -1.6312 -1.3552  0.4550
 3987SOL     OW14915   5.499   8.292  10.248  0.2976 -0.0827  0.0916
 3987SOL    HW114916   5.407   8.317  10.259  0.4400  1.9896 -2.5045
 3987SOL    HW214917   5.549   8.368  10.279  1.2545 -1.4360  2.1080
 3988SOL     OW14918   7.015   1.675   2.894 -0.2440  0.2412  0.3097
 3988SOL    HW114919   7.012   1.697   2.987 -0.6391  0.8683  0.1623
 3988SOL    HW214920   6.984   1.755   2.851  1.3633  0.4764 -0.4430
 3989SOL     OW14921   6.639   4.784   5.168 -1.0956  0.2544 -0.1826
 3989SOL    HW114922   6.612   4.837   5.093 -1.6940  0.2806  0.0461
 3989SOL    HW214923   6.604   4.697   5.151 -4.0542  0.9714  1.5214
 3990SOL     OW14924   3.566   4.552   0.137  0.2573 -0.2066  0.3510
 3990SOL    HW114925   3.550   4.518   0.225 -0.5958  1.0636  0.7179
 3990SOL    HW214926   3.594   4.642   0.151  0.3158 -0.0556 -0.6690
 3991SOL     OW14927   3.106   6.465   7.659 -0.1900 -0.1447 -0.4251
 3991SOL    HW114928   3.188   6.513   7.672  0.2986 -0.8388 -0.8031
 3991SOL    HW214929   3.125   6.376   7.691 -0.5605 -0.5005 -1.1620
 3992SOL     OW14930   5.112   0.731   8.576  0.0001 -0.2636 -0.8373
 3992SOL    HW114931   5.127   0.826   8.578  1.6159 -0.5037  0.2462
 3992SOL    HW214932   5.200   0.693   8.577 -0.6353 -1.7869  0.5601
 3993SOL     OW14933   3.749  10.004   9.460 -0.7569  0.4172  0.4823
 3993SOL    HW114934   3.728  10.013   9.553 -0.8134  1.0737  0.4060
 3993SOL    HW214935   3.725   9.913   9.440 -1.5305  0.5093  0.9134
 3994SOL     OW14936   8.076   5.098   1.642 -0.1465  0.6187 -0.3118
 3994SOL    HW114937   8.024   5.148   1.579 -0.2109  0.2929 -0.5187
 3994SOL    HW214938   8.164   5.135   1.635 -0.2868  0.9974 -0.1463
 3995SOL     OW14939   0.545   4.153   0.212  0.1083  0.1907 -0.0613
 3995SOL    HW114940   0.598   4.174   0.135 -0.4451 -2.4817 -1.2773
 3995SOL    HW214941   0.509   4.237   0.240  0.6857  1.3146 -2.4286
 3996SOL     OW14942   5.829   2.324   5.709 -0.4006 -0.8406  0.2871
 3996SOL    HW114943   5.790   2.239   5.691 -0.4638 -0.6325 -0.5969
 3996SOL    HW214944   5.880   2.344   5.631 -1.5173  0.5546 -0.1301
 3997SOL     OW14945   5.122   4.169   5.089  0.1078 -0.2943  0.3243
 3997SOL    HW114946   5.188   4.102   5.070  2.6524  1.9254  0.6440
 3997SOL    HW214947   5.159   4.249   5.052 -1.9997  1.2503  1.4019
 3998SOL     OW14948   7.360   6.628   7.693  0.3941 -0.0656 -0.2846
 3998SOL    HW114949   7.344   6.718   7.719  1.9810 -0.0074  0.6114
 3998SOL    HW214950   7.319   6.620   7.607 -1.9614  0.7478  0.6970
 3999SOL     OW14951   9.097  10.656   8.767  0.3430  0.5804 -0.0187
 3999SOL    HW114952   9.146  10.580   8.735 -0.2976  0.2501 -0.2355
 3999SOL    HW214953   9.007  10.640   8.739 -0.5457 -0.3914  3.0598
 4000SOL     OW14954   1.726   4.139   3.132 -0.4795  0.3070 -0.4444
 4000SOL    HW114955   1.799   4.142   3.071  0.4917  1.3934  0.6998
 4000SOL    HW214956   1.650   4.163   3.079  0.2565  0.7969 -1.3162
 4001SOL     OW14957   6.967  10.316   9.429  0.0133 -0.0646  0.7904
 4001SOL    HW114958   7.004  10.366   9.355 -0.2157  0.9975  1.3744
 4001SOL    HW214959   6.976  10.225   9.403  0.3997  0.2787 -0.3387
 4002SOL     OW14960   8.042   7.606   4.465  0.1273  0.1994  0.1044
 4002SOL    HW114961   8.080   7.686   4.428 -0.1861 -1.2575 -3.8790
 4002SOL    HW214962   8.117   7.554   4.493  0.3203  1.8967  3.1119
 4003SOL     OW14963   8.587   1.707   2.709 -0.3417 -0.2735 -0.2429
 4003SOL    HW114964   8.608   1.671   2.623  1.3135 -0.6151  0.2774
 4003SOL    HW214965   8.659   1.767   2.728 -0.5481 -0.4056  1.0124
 4004SOL     OW14966   8.479  10.372   3.362 -0.1840  0.2279 -0.3256
 4004SOL    HW114967   8.448  10.288   3.397 -1.0939  1.1220  1.1143
 4004SOL    HW214968   8.422  10.389   3.287  0.4079 -0.7135 -1.0075
 4005SOL     OW14969   1.569   2.470  10.083  0.4942  0.0638  0.1228
 4005SOL    HW114970   1.625   2.396  10.058  2.4147  1.8019 -1.1019
 4005SOL    HW214971   1.547   2.512  10.000 -3.5652 -1.0253  0.4364
 4006SOL     OW14972   8.652  10.340   6.940 -0.1309  0.3146  0.5994
 4006SOL    HW114973   8.603  10.382   7.011  0.8776 -1.6533  2.5610
 4006SOL    HW214974   8.726  10.398   6.925 -0.8498  1.2277  0.4462
 4007SOL     OW14975   1.228   8.400   4.584  0.3254 -0.3894 -0.6659
 4007SOL    HW114976   1.243   8.446   4.667 -0.8253 -2.5310  0.8348
 4007SOL    HW214977   1.315   8.385   4.549  0.7678  2.5097 -1.0598
 4008SOL     OW14978   7.177   8.937   6.055  0.0322  0.3389 -0.3846
 4008SOL    HW114979   7.204   9.016   6.102  0.4345  0.0286 -0.0891
 4008SOL    HW214980   7.184   8.961   5.962  1.4152  0.2487 -0.3262
 4009SOL     OW14981   4.081   3.665   0.767 -0.0645 -0.5218  0.5810
 4009SOL    HW114982   4.021   3.729   0.729  2.1072  0.5536 -1.2617
 4009SOL    HW214983   4.029   3.585   0.775 -2.7061  1.2382  2.4673
 4010SOL     OW14984   3.507   1.952   9.677  0.3633  0.7014 -0.2744
 4010SOL    HW114985   3.505   2.020   9.611 -1.8332  1.1258  0.1546
 4010SOL    HW214986   3.483   1.872   9.630  1.2224  0.5378 -0.4436
 4011SOL     OW14987   6.529   2.685   8.795 -0.3882 -0.1582  0.0493
 4011SOL    HW114988   6.538   2.614   8.859 -0.4120  0.1626  0.4145
 4011SOL    HW214989   6.448   2.730   8.821 -0.0085  0.4229  0.2404
 4012SOL     OW14990   2.338   4.204   1.186 -0.2000  0.5744  0.0071
 4012SOL    HW114991   2.365   4.291   1.157  1.1834  0.3248  0.4935
 4012SOL    HW214992   2.413   4.147   1.166 -2.0217 -1.1055 -2.8650
 4013SOL     OW14993   3.076   2.801  10.574  0.0846  0.2759  0.1496
 4013SOL    HW114994   3.137   2.869  10.602 -0.4335  0.7127  0.2450
 4013SOL    HW214995   2.996   2.849  10.552  0.1428 -0.1685 -1.0765
 4014SOL     OW14996   2.119   6.467   6.030 -0.4263 -0.0170  0.5398
 4014SOL    HW114997   2.113   6.436   5.940 -0.5424  0.6086  0.3300
 4014SOL    HW214998   2.064   6.406   6.080  0.6789 -1.1655  0.4073
 4015SOL     OW14999   5.494   9.479   2.548 -0.7233 -0.2974  0.0693
 4015SOL    HW115000   5.471   9.526   2.628 -1.5989 -0.8924  0.1776
 4015SOL    HW215001   5.449   9.527   2.479 -2.5157 -1.5658  0.3015
 4016SOL     OW15002   1.475   6.375   8.290  0.3361 -0.4433  0.1219
 4016SOL    HW115003   1.430   6.447   8.246  0.8152 -0.0853  0.2110
 4016SOL    HW215004   1.405   6.319   8.324 -0.0510  0.8776  1.5606
 4017SOL     OW15005   1.916   4.773   0.535 -0.1494 -0.4996 -0.0120
 4017SOL    HW115006   1.865   4.854   0.536 -0.5434 -0.7444  0.7127
 4017SOL    HW215007   1.967   4.777   0.454 -0.9152  0.0038 -0.4742
 4018SOL     OW15008  10.137   4.874  10.180  0.2203  0.1486 -0.2062
 4018SOL    HW115009  10.219   4.826  10.170  0.5796  0.7060  0.0128
 4018SOL    HW215010  10.105   4.849  10.266 -0.6284 -1.2495 -0.8981
 4019SOL     OW15011   8.480   5.021   3.892 -0.1710 -0.1708  0.2823
 4019SOL    HW115012   8.390   5.036   3.863  0.3136 -0.8931 -1.7552
 4019SOL    HW215013   8.497   4.930   3.869  1.2404  0.1069  0.1709
 4020SOL     OW15014   6.960   8.067   4.681 -0.5629  0.2050 -0.0256
 4020SOL    HW115015   6.905   8.099   4.753 -0.7741  0.1531 -0.1646
 4020SOL    HW215016   6.933   8.119   4.605 -0.2641  0.3365 -0.0461
 4021SOL     OW15017  10.405   1.309   1.879 -0.2383 -0.2403 -0.1277
 4021SOL    HW115018  10.348   1.262   1.818 -0.9673  0.0769  0.2996
 4021SOL    HW215019  10.492   1.271   1.864 -0.8495 -1.9439  0.3962
 4022SOL     OW15020   2.747   5.758   8.843 -0.6382 -0.0917  0.7919
 4022SOL    HW115021   2.802   5.764   8.921 -0.3038  0.2982  0.5324
 4022SOL    HW215022   2.807   5.728   8.774 -1.3066 -2.2490  1.0555
 4023SOL     OW15023   0.382   6.460   3.450  0.2823  0.3610 -0.0157
 4023SOL    HW115024   0.381   6.410   3.368 -0.6542  1.0288 -0.4260
 4023SOL    HW215025   0.412   6.397   3.516  1.7324 -0.0102 -0.9681
 4024SOL     OW15026  10.467   0.313   4.758 -0.3812  0.6749  0.5376
 4024SOL    HW115027  10.486   0.406   4.768 -0.3758  0.6682  0.5893
 4024SOL    HW215028  10.481   0.296   4.664 -2.7737  1.2599  0.0195
 4025SOL     OW15029   7.310   2.157  10.618 -0.2123  0.1946 -0.3588
 4025SOL    HW115030   7.368   2.176  10.545 -1.1378  0.5465 -1.0200
 4025SOL    HW215031   7.357   2.189  10.695  2.2478 -3.0601 -0.2959
 4026SOL     OW15032  10.114   1.495   7.387  0.0341  0.2334  0.0439
 4026SOL    HW115033  10.066   1.418   7.418  2.9384 -1.8479 -0.2356
 4026SOL    HW215034  10.203   1.464   7.371  1.4246  3.7249  0.0284
 4027SOL     OW15035   9.991   4.445   3.646  0.1087  0.3322  0.3254
 4027SOL    HW115036  10.045   4.435   3.724 -0.2135  0.0229  0.5128
 4027SOL    HW215037   9.994   4.539   3.626 -0.6722  0.5984  1.3407
 4028SOL     OW15038   9.733   6.182   4.951  0.6018 -0.5932 -0.3720
 4028SOL    HW115039   9.800   6.153   5.013 -0.0429 -0.9297  0.1794
 4028SOL    HW215040   9.768   6.158   4.865  1.7937  0.4438 -0.2132
 4029SOL     OW15041   7.596   8.835   6.150  0.2188  0.1519  0.2624
 4029SOL    HW115042   7.572   8.878   6.068  0.2000  1.0349  0.7153
 4029SOL    HW215043   7.680   8.875   6.174  1.0843 -1.3273 -0.1896
 4030SOL     OW15044   2.128  10.627  10.391 -0.1328  0.3290  0.8151
 4030SOL    HW115045   2.043  10.624  10.346  0.2645 -0.3073  0.0829
 4030SOL    HW215046   2.153  10.536  10.401  0.7001  0.5229  0.5717
 4031SOL     OW15047   4.508   3.464   2.541  0.1568 -0.1150  0.0482
 4031SOL    HW115048   4.575   3.526   2.570  1.0936 -1.2187  0.3199
 4031SOL    HW215049   4.427   3.499   2.578  0.4720  1.4831 -0.6509
 4032SOL     OW15050   3.106   0.996   1.157 -0.2373 -0.3675 -0.3232
 4032SOL    HW115051   3.136   0.953   1.077 -0.2288  2.2940 -1.8436
 4032SOL    HW215052   3.024   1.039   1.132  0.1200  1.0949  0.8992
 4033SOL     OW15053   2.764   1.437   5.020 -0.7855 -0.2161  0.6635
 4033SOL    HW115054   2.723   1.353   5.045 -0.7908 -0.2994  0.3803
 4033SOL    HW215055   2.833   1.450   5.084 -1.0151 -0.2627  0.9231
 4034SOL     OW15056   6.196   7.250  10.262 -0.6224  0.1430  0.8284
 4034SOL    HW115057   6.179   7.343  10.250 -2.9886 -0.3221 -0.0852
 4034SOL    HW215058   6.142   7.225  10.337 -0.8749 -0.6729  0.3916
 4035SOL     OW15059   1.701   6.363   4.545 -0.1310  0.2742  0.3919
 4035SOL    HW115060   1.710   6.269   4.564  1.2945 -0.0490 -1.6101
 4035SOL    HW215061   1.790   6.397   4.554 -0.2363  0.9740 -1.0658
 4036SOL     OW15062   8.693   0.103   7.067 -0.0348 -0.0579 -0.0830
 4036SOL    HW115063   8.692   0.010   7.045 -1.6691 -0.6787  2.2444
 4036SOL    HW215064   8.603   0.132   7.055  0.3943  1.1773 -0.4878
 4037SOL     OW15065   5.724   9.935   1.732 -0.1579  0.6897  0.2208
 4037SOL    HW115066   5.660   9.884   1.682 -0.5905  0.7382  0.7201
 4037SOL    HW215067   5.760   9.997   1.669 -0.0576  0.1686 -0.2449
 4038SOL     OW15068   3.579   4.693   7.052  0.0816 -0.0003  0.3013
 4038SOL    HW115069   3.584   4.650   7.137  0.2690  0.3072  0.4476
 4038SOL    HW215070   3.623   4.634   6.992 -1.0142 -0.7493  0.2024
 4039SOL     OW15071   4.890   0.913   0.147 -0.6696  0.5641  0.5510
 4039SOL    HW115072   4.817   0.970   0.170  1.0041  2.0778  2.5177
 4039SOL    HW215073   4.947   0.968   0.093 -1.0977 -0.7085 -1.2647
 4040SOL     OW15074   8.073   3.403  10.180 -0.4130 -0.4584  0.4767
 4040SOL    HW115075   8.010   3.468  10.210 -1.1441 -1.1468  0.4640
 4040SOL    HW215076   8.147   3.412  10.241 -0.6055  0.2054  0.6270
 4041SOL     OW15077   0.675   2.700   4.761  0.1995  0.2691  0.5638
 4041SOL    HW115078   0.650   2.756   4.688  0.9472  0.2202  0.2532
 4041SOL    HW215079   0.740   2.751   4.809  0.4385 -0.0886  0.6234
 4042SOL     OW15080   1.627   6.709   0.725 -0.4970  0.4162  0.2258
 4042SOL    HW115081   1.626   6.801   0.751  0.5843  0.1306  1.3453
 4042SOL    HW215082   1.632   6.711   0.630  1.6432  1.5559  0.3154
 4043SOL     OW15083   3.346  10.548   4.515  0.0595  0.2334 -0.1559
 4043SOL    HW115084   3.425  10.596   4.539  0.9454 -0.5639 -1.3598
 4043SOL    HW215085   3.378  10.475   4.462 -1.6601  1.4018 -3.0393
 4044SOL     OW15086   1.357   4.319   3.797  0.7646  0.5329  0.0013
 4044SOL    HW115087   1.295   4.362   3.738  1.0688  1.8503  0.6252
 4044SOL    HW215088   1.306   4.302   3.876  0.7885  0.1676 -0.0563
 4045SOL     OW15089   7.688   0.078   3.862  0.1118 -0.0718 -0.1706
 4045SOL    HW115090   7.643   0.112   3.785  1.4399  1.7489 -0.2051
 4045SOL    HW215091   7.734   0.153   3.899  0.7145 -1.2187  1.5536
 4046SOL     OW15092   7.189   0.151   7.316 -0.1690  0.1646 -0.3441
 4046SOL    HW115093   7.137   0.115   7.388 -0.8936  1.6943 -0.0783
 4046SOL    HW215094   7.130   0.212   7.271  0.0689 -1.1944 -2.6410
 4047SOL     OW15095   9.773   9.895   5.101  0.5205  0.2598 -0.7378
 4047SOL    HW115096   9.686   9.937   5.099  0.5998  0.5714  0.9379
 4047SOL    HW215097   9.832   9.962   5.068  0.6931  1.7368  2.2169
 4048SOL     OW15098  10.361   6.212   6.210 -0.2963 -0.3534 -0.1729
 4048SOL    HW115099  10.365   6.280   6.278 -0.0389 -0.4050 -0.1351
 4048SOL    HW215100  10.437   6.157   6.228 -0.8218 -0.9854  0.1437
 4049SOL     OW15101   4.981   1.001   4.890  0.1123  0.4433 -0.7204
 4049SOL    HW115102   4.950   0.928   4.837 -0.5476 -0.4877  0.9098
 4049SOL    HW215103   5.003   0.963   4.975 -0.9662  2.2389  0.4324
 4050SOL     OW15104   6.533   8.191   6.967  0.1797  0.6295 -0.1414
 4050SOL    HW115105   6.612   8.244   6.979  0.8412 -0.0499 -1.3110
 4050SOL    HW215106   6.475   8.219   7.038  1.4999  1.0731  0.8159
 4051SOL     OW15107   5.094   5.336   6.099  0.7801 -0.1406 -0.0868
 4051SOL    HW115108   5.020   5.307   6.045  1.2231  2.0927 -2.0433
 4051SOL    HW215109   5.167   5.343   6.038  2.1500 -0.4339  1.4381
 4052SOL     OW15110   0.739   9.116   2.756 -0.2065  0.1791 -0.1298
 4052SOL    HW115111   0.687   9.151   2.828 -1.9027 -0.0980 -1.1640
 4052SOL    HW215112   0.805   9.061   2.799 -0.5019  0.8409  1.2428
 4053SOL     OW15113   3.353   1.783   9.524  0.1335  0.0303  0.1758
 4053SOL    HW115114   3.422   1.717   9.520  0.6098  0.4507  1.0229
 4053SOL    HW215115   3.291   1.750   9.589 -0.8908 -0.7124 -1.1347
 4054SOL     OW15116   2.599   0.016   8.180 -0.1306 -0.2503 -0.6646
 4054SOL    HW115117   2.647   0.098   8.187 -0.3438 -0.1960  0.3015
 4054SOL    HW215118   2.649  -0.036   8.117  0.0396  0.5845 -1.2324
 4055SOL     OW15119   0.612   2.084   9.532 -0.0296 -0.1074 -0.2356
 4055SOL    HW115120   0.621   2.133   9.614 -1.6024 -2.3747  1.4413
 4055SOL    HW215121   0.555   2.138   9.478  1.0725  1.4634  0.0994
 4056SOL     OW15122   7.620  10.281   9.568  0.4112 -0.6673  0.2934
 4056SOL    HW115123   7.592  10.193   9.546  0.2427 -0.3444 -0.8233
 4056SOL    HW215124   7.539  10.326   9.594  0.5061 -0.8435  0.9233
 4057SOL     OW15125   3.316   8.580   1.786  0.2352 -0.7244 -0.3342
 4057SOL    HW115126   3.395   8.575   1.840 -0.5297  0.6036  0.9751
 4057SOL    HW215127   3.348   8.602   1.698  1.2828  0.3419  0.3007
 4058SOL     OW15128   9.385   6.158   3.302 -0.0842 -0.2463 -0.0865
 4058SOL    HW115129   9.471   6.137   3.340  0.8150 -2.0029 -2.7864
 4058SOL    HW215130   9.398   6.241   3.256  0.1747 -0.4588 -0.4058
 4059SOL     OW15131   6.767   9.560   0.008 -0.4926 -0.1757  0.3432
 4059SOL    HW115132   6.811   9.479  -0.018 -0.4163 -0.0479  0.0671
 4059SOL    HW215133   6.833   9.607   0.059 -1.1424 -1.1172  2.1193
 4060SOL     OW15134  10.492   8.413   6.113 -0.7177  0.0694 -0.7443
 4060SOL    HW115135  10.529   8.361   6.185  0.3777 -0.5209 -1.6882
 4060SOL    HW215136  10.439   8.479   6.156  0.3019  0.0366  0.6412
 4061SOL     OW15137   7.720   8.909   3.572 -0.3442  0.3436 -0.3537
 4061SOL    HW115138   7.644   8.850   3.565 -0.8838  0.6855  1.8240
 4061SOL    HW215139   7.703   8.977   3.507 -0.7390 -0.7782 -1.4811
 4062SOL     OW15140   1.187   4.260   5.897  0.3174  0.2459  0.0150
 4062SOL    HW115141   1.265   4.297   5.938  0.7957 -0.7259  0.0048
 4062SOL    HW215142   1.208   4.255   5.804 -0.4513  1.6598 -0.2658
 4063SOL     OW15143   2.567  10.552   7.550 -0.1852 -0.3532 -0.3623
 4063SOL    HW115144   2.561  10.646   7.536  0.8855 -0.0943  0.7328
 4063SOL    HW215145   2.637  10.523   7.492  0.1440 -0.2962 -0.0010
 4064SOL     OW15146   0.296  10.691   9.290 -0.1669  0.3432 -0.3011
 4064SOL    HW115147   0.302  10.599   9.316 -0.6627  0.3016 -0.3341
 4064SOL    HW215148   0.276  10.688   9.197  2.9527  0.4865 -1.0939
 4065SOL     OW15149   5.980   7.361   9.981 -0.4004  0.0852  0.2637
 4065SOL    HW115150   5.946   7.332  10.065 -0.2868  1.4663  0.8044
 4065SOL    HW215151   6.015   7.281   9.941  0.8650 -0.3788  2.1501
 4066SOL     OW15152  10.545   3.845   1.922  0.0886 -0.1602 -0.0189
 4066SOL    HW115153  10.466   3.897   1.907 -0.7272 -0.8187  1.7595
 4066SOL    HW215154  10.519   3.755   1.901 -0.0624 -0.5772  1.8430
 4067SOL     OW15155   7.508   0.725  10.640 -0.3555  0.0051 -0.1213
 4067SOL    HW115156   7.509   0.640  10.683 -0.5159  1.1336  2.2880
 4067SOL    HW215157   7.448   0.713  10.566 -1.3162 -1.6764  0.8480
 4068SOL     OW15158   7.416   4.666   7.642 -0.1472  0.3818  0.4394
 4068SOL    HW115159   7.445   4.575   7.636  1.0979  0.7426  0.8036
 4068SOL    HW215160   7.492   4.718   7.616 -0.5923  1.3471  0.9968
 4069SOL     OW15161   7.275   5.048   1.278 -0.2973 -0.0424  0.7306
 4069SOL    HW115162   7.370   5.052   1.265 -0.4245  2.1289 -0.0037
 4069SOL    HW215163   7.239   5.093   1.201 -1.7979  0.8908  1.9249
 4070SOL     OW15164   7.972   5.971   8.749 -0.0792 -0.4057 -0.6549
 4070SOL    HW115165   7.891   5.923   8.730 -0.8503  0.4039  0.4478
 4070SOL    HW215166   8.033   5.942   8.681 -1.8167  0.2823 -2.6408
 4071SOL     OW15167   3.696   7.197   9.409 -0.5394 -0.5051  0.1987
 4071SOL    HW115168   3.716   7.208   9.502 -0.5493  0.0300  0.1438
 4071SOL    HW215169   3.765   7.141   9.375 -1.8388 -2.7505  1.0262
 4072SOL     OW15170   3.601   1.148   2.909  0.2841  0.5290 -0.3084
 4072SOL    HW115171   3.649   1.114   2.985 -0.7815 -1.8763 -0.6343
 4072SOL    HW215172   3.651   1.226   2.883  2.4764 -0.3479  0.9355
 4073SOL     OW15173   9.175   4.543   9.782  0.6678 -0.0273 -0.1457
 4073SOL    HW115174   9.202   4.559   9.692 -1.0038 -1.0313 -0.8802
 4073SOL    HW215175   9.079   4.537   9.778  0.5924 -0.6723  1.5957
 4074SOL     OW15176   3.063   7.766   4.958  0.3754 -0.1156 -0.2201
 4074SOL    HW115177   3.045   7.785   4.865 -0.9406  3.2316  0.5860
 4074SOL    HW215178   3.145   7.812   4.976 -0.4808  1.0999  0.7216
 4075SOL     OW15179   2.495   9.151   4.634 -0.2521  0.4074  0.2903
 4075SOL    HW115180   2.514   9.231   4.683  0.0714  0.9492 -0.6961
 4075SOL    HW215181   2.400   9.154   4.619 -0.3720  0.1824  0.9557
 4076SOL     OW15182   1.243   4.238   5.638 -0.4746  0.5549  0.3990
 4076SOL    HW115183   1.180   4.211   5.571  0.5190 -0.1527 -0.2827
 4076SOL    HW215184   1.238   4.333   5.639 -1.5830  0.5103  0.3911
 4077SOL     OW15185   2.539   5.944   8.429  0.2261  0.0472  0.0628
 4077SOL    HW115186   2.450   5.952   8.463  0.0115  1.0685 -0.7019
 4077SOL    HW215187   2.595   5.965   8.504 -0.1322 -1.3939  0.7687
 4078SOL     OW15188   1.890   5.558   1.099  0.0883  0.1234  0.0511
 4078SOL    HW115189   1.814   5.615   1.115 -0.5143 -1.1093  1.9134
 4078SOL    HW215190   1.966   5.616   1.109 -0.3766  0.3587  4.0908
 4079SOL     OW15191   1.782   3.489   7.818  0.1259  0.3113  0.3215
 4079SOL    HW115192   1.801   3.519   7.907 -0.2822 -0.8101  0.8060
 4079SOL    HW215193   1.687   3.492   7.810  0.1758  0.7327 -0.2065
 4080SOL     OW15194   6.876   3.660   4.543 -0.1791 -0.1971 -0.1555
 4080SOL    HW115195   6.831   3.723   4.486 -0.2273 -0.1541 -0.0711
 4080SOL    HW215196   6.900   3.711   4.620 -3.8486 -1.0895  1.8407
 4081SOL     OW15197   5.206   5.536   3.210 -0.5221  0.4532 -0.1357
 4081SOL    HW115198   5.203   5.618   3.162 -2.1712 -1.0327 -2.8627
 4081SOL    HW215199   5.295   5.531   3.245  0.8813  1.6281 -3.2289
 4082SOL     OW15200   3.118   8.100  10.298 -0.2778  0.4100  0.2803
 4082SOL    HW115201   3.169   8.042  10.355 -0.1298  1.7787  1.6044
 4082SOL    HW215202   3.031   8.101  10.337 -0.1522  1.4320  0.5674
 4083SOL     OW15203   9.558   0.248   0.128 -0.1256  0.7993  0.2629
 4083SOL    HW115204   9.541   0.306   0.054  1.2230  2.2364  1.0186
 4083SOL    HW215205   9.590   0.167   0.088 -1.4458  0.7617 -0.7874
 4084SOL     OW15206   6.507   2.536   3.655  0.5672 -0.1290 -0.0451
 4084SOL    HW115207   6.422   2.551   3.613  0.4291 -0.0475  0.2588
 4084SOL    HW215208   6.509   2.599   3.727  1.2516  0.4635 -0.5721
 4085SOL     OW15209   0.549   5.589   2.943 -0.3548 -0.4618 -0.0732
 4085SOL    HW115210   0.603   5.519   2.979  0.3698  0.8596  1.5217
 4085SOL    HW215211   0.514   5.552   2.861  1.1167 -2.1561 -0.0031
 4086SOL     OW15212  10.455   0.964   3.620 -0.2180  0.1427 -0.2014
 4086SOL    HW115213  10.497   0.920   3.546 -0.3900  0.0247 -0.2292
 4086SOL    HW215214  10.472   0.906   3.694  0.2536  0.4311 -0.0784
 4087SOL     OW15215   0.779   9.270   1.695  0.2757  0.0113  0.0995
 4087SOL    HW115216   0.788   9.208   1.767  0.0513 -1.0289 -0.7435
 4087SOL    HW215217   0.852   9.250   1.636 -1.3779 -1.4057 -1.5823
 4088SOL     OW15218   4.622   1.148   0.877  0.1126 -0.9961  0.2826
 4088SOL    HW115219   4.692   1.208   0.851 -0.7301  0.4678  1.2277
 4088SOL    HW215220   4.666   1.067   0.901  1.5428  0.0541  1.3352
 4089SOL     OW15221   0.734   4.268   4.993 -0.0311 -0.6892  0.0501
 4089SOL    HW115222   0.755   4.354   5.028  1.9983 -1.7674  1.7148
 4089SOL    HW215223   0.734   4.280   4.898  1.1658  0.9506  0.2263
 4090SOL     OW15224   9.949   9.755   1.054 -0.3607 -0.3321  0.9887
 4090SOL    HW115225   9.967   9.662   1.065 -0.4410 -0.6242 -0.9630
 4090SOL    HW215226   9.867   9.758   1.004  0.6224  0.6989 -0.6674
 4091SOL     OW15227   6.243   5.978   8.603 -0.2423  0.4161  0.3232
 4091SOL    HW115228   6.214   5.947   8.688  1.2648 -0.3692  0.5972
 4091SOL    HW215229   6.285   5.902   8.563 -0.9283  0.7675 -1.1369
 4092SOL     OW15230   6.128   7.205   6.212 -0.2660 -0.1255  0.3906
 4092SOL    HW115231   6.072   7.128   6.203 -0.6019  0.2781 -1.2483
 4092SOL    HW215232   6.077   7.264   6.268 -0.8845 -0.2945  0.0149
 4093SOL     OW15233   4.536   5.538   2.128 -0.2297  0.2154  0.1850
 4093SOL    HW115234   4.455   5.542   2.077 -0.2880 -0.4256  0.2166
 4093SOL    HW215235   4.606   5.538   2.063 -0.3121 -0.8991  0.0747
 4094SOL     OW15236   3.424   5.857   8.085  0.3360  0.3217 -0.0439
 4094SOL    HW115237   3.402   5.795   8.155  1.1582 -0.2793 -0.3045
 4094SOL    HW215238   3.490   5.811   8.033 -0.2168  0.7967 -1.1715
 4095SOL     OW15239  10.111   0.804   3.553  0.0750  0.4555 -0.5008
 4095SOL    HW115240  10.190   0.768   3.592  0.6714  0.4717 -1.6311
 4095SOL    HW215241  10.132   0.896   3.536  0.8387 -0.1204 -3.2086
 4096SOL     OW15242   4.008   3.597   8.512 -0.5419  0.5314 -0.9014
 4096SOL    HW115243   4.044   3.683   8.535 -0.3994  0.6358 -1.5185
 4096SOL    HW215244   4.074   3.535   8.544 -0.5771  0.6521 -0.5846
 4097SOL     OW15245   3.454   6.224   4.754  0.0388 -0.1314  0.1228
 4097SOL    HW115246   3.517   6.154   4.770 -1.0475 -0.3501  4.6891
 4097SOL    HW215247   3.499   6.304   4.778 -0.2903  0.1900 -0.3029
 4098SOL     OW15248   1.051   6.888   5.594  0.3487 -0.1070  0.0903
 4098SOL    HW115249   1.004   6.813   5.629  1.0907 -1.1679 -1.0578
 4098SOL    HW215250   1.052   6.873   5.499  1.5748  0.7000 -0.0537
 4099SOL     OW15251   8.928   8.735   6.516  0.5504 -0.5491 -0.3052
 4099SOL    HW115252   8.931   8.785   6.435  1.4510 -0.2278 -0.0805
 4099SOL    HW215253   8.854   8.772   6.564  1.4418  0.8605  0.0326
 4100SOL     OW15254   8.219   7.659   5.508 -0.0423  0.2845  0.4250
 4100SOL    HW115255   8.282   7.673   5.438  0.2089 -0.4526  0.4991
 4100SOL    HW215256   8.149   7.608   5.467  0.9701 -1.7747  1.1316
 4101SOL     OW15257   9.743   7.061   0.285 -0.1871  0.0981  0.0155
 4101SOL    HW115258   9.741   7.155   0.267  2.8247 -0.3157 -3.8104
 4101SOL    HW215259   9.670   7.026   0.234 -0.3441  0.1852  0.1769
 4102SOL     OW15260   3.313   1.433   5.476  0.1163 -0.2462 -0.4500
 4102SOL    HW115261   3.271   1.487   5.410  1.3909  0.1825 -0.9368
 4102SOL    HW215262   3.276   1.462   5.559 -0.2893  0.3569 -0.8378
 4103SOL     OW15263   6.119   7.193   2.295 -0.2255 -0.1519 -0.1860
 4103SOL    HW115264   6.134   7.136   2.371  2.1059  1.0827  0.3681
 4103SOL    HW215265   6.038   7.239   2.315 -0.0796 -0.4477  1.1838
 4104SOL     OW15266   0.385   4.583   6.650 -0.2778 -0.1501 -0.5997
 4104SOL    HW115267   0.307   4.546   6.692 -1.0868  0.5853 -1.4242
 4104SOL    HW215268   0.453   4.579   6.718  0.0040 -3.9796 -0.8717
 4105SOL     OW15269   7.998   5.049   6.388  0.2781  0.2961  0.4947
 4105SOL    HW115270   8.047   4.973   6.419  2.1159  1.2826  0.1892
 4105SOL    HW215271   8.039   5.123   6.432 -0.7933  1.2053  0.0048
 4106SOL     OW15272   2.262   5.813   0.585  0.7172  0.4277 -0.0568
 4106SOL    HW115273   2.225   5.846   0.666  1.8139  2.0523 -0.1617
 4106SOL    HW215274   2.357   5.819   0.598  0.9549 -1.2106 -0.7281
 4107SOL     OW15275   9.044  10.525   7.377  0.8784 -0.3604 -0.3450
 4107SOL    HW115276   9.084  10.568   7.453 -1.1342 -1.6848  1.5792
 4107SOL    HW215277   9.035  10.434   7.404 -1.8411 -0.4522 -1.2708
 4108SOL     OW15278   9.097   6.705   7.745 -0.4995  0.5431  0.6142
 4108SOL    HW115279   9.033   6.744   7.804 -0.5819 -0.0768  0.9515
 4108SOL    HW215280   9.142   6.779   7.704 -0.1086  0.9983  1.8206
 4109SOL     OW15281   7.842   6.931   6.877  0.2851  0.2694  0.0841
 4109SOL    HW115282   7.815   6.857   6.933  0.4745 -0.5858 -0.9230
 4109SOL    HW215283   7.912   6.973   6.927  0.7209 -0.7190  0.3498
 4110SOL     OW15284   0.986   1.193   9.383  0.8569  0.1699  0.8781
 4110SOL    HW115285   0.896   1.201   9.354  1.0412 -1.6826 -0.3671
 4110SOL    HW215286   0.998   1.099   9.400  2.2767  0.5071  1.9357
 4111SOL     OW15287   0.069   4.375   4.346  0.0859  0.0240 -0.6107
 4111SOL    HW115288   0.088   4.433   4.272  0.8129  0.2707 -0.2314
 4111SOL    HW215289   0.092   4.288   4.313  1.7012  0.2813 -0.2503
 4112SOL     OW15290   0.205   7.591   1.117 -0.3236 -0.3208 -0.0570
 4112SOL    HW115291   0.233   7.589   1.025  1.3296  0.3987  0.3875
 4112SOL    HW215292   0.283   7.564   1.166 -1.2097 -0.7715  1.1367
 4113SOL     OW15293   1.669   2.089   5.860 -0.3516  0.0942 -0.0079
 4113SOL    HW115294   1.627   2.173   5.881 -1.0178 -0.6572  1.8752
 4113SOL    HW215295   1.622   2.057   5.784 -1.3144  0.5896  0.3588
 4114SOL     OW15296   7.583   8.749   9.860 -0.1033  0.7011  0.1258
 4114SOL    HW115297   7.499   8.703   9.859  0.1771  0.1122 -1.9892
 4114SOL    HW215298   7.561   8.840   9.841 -0.2406  0.3414 -1.6941
 4115SOL     OW15299   7.216   1.734   7.843  0.0217  0.4975  0.4501
 4115SOL    HW115300   7.135   1.685   7.861  0.1823 -0.0736 -0.3414
 4115SOL    HW215301   7.187   1.818   7.809 -0.2501  0.7827  1.3500
 4116SOL     OW15302   9.254   7.200   1.233  0.4522  0.8818  0.1118
 4116SOL    HW115303   9.225   7.255   1.306 -0.7455  0.2331  0.1516
 4116SOL    HW215304   9.245   7.110   1.266  1.8101  0.6264 -0.1588
 4117SOL     OW15305   6.268   2.424   0.178  0.5787  0.3587 -0.3960
 4117SOL    HW115306   6.315   2.385   0.105 -0.4671  0.9477 -1.4028
 4117SOL    HW215307   6.331   2.483   0.218  1.3263 -0.3668 -0.4729
 4118SOL     OW15308   8.177   0.524   1.838  0.3817  0.0427  0.0495
 4118SOL    HW115309   8.135   0.560   1.760 -1.1394  0.1675  0.8895
 4118SOL    HW215310   8.245   0.588   1.860  0.5836  0.1828 -0.9627
 4119SOL     OW15311   0.789   0.279  10.288  0.3771  0.8172  0.3399
 4119SOL    HW115312   0.703   0.287  10.329 -1.0008  0.2933 -2.2547
 4119SOL    HW215313   0.801   0.185  10.276  1.0674  0.9240  0.1621
 4120SOL     OW15314   3.278   7.097   9.877  0.0043 -0.1108 -0.7294
 4120SOL    HW115315   3.242   7.048   9.950  0.4499  1.8741  0.9135
 4120SOL    HW215316   3.204   7.111   9.818 -0.4337 -1.4348 -0.5192
 4121SOL     OW15317  10.439   0.069  10.677 -0.3498  0.3408 -0.0040
 4121SOL    HW115318  10.457  -0.023  10.696 -0.1238  0.4579  0.3481
 4121SOL    HW215319  10.525   0.109  10.668 -0.4469  0.4311 -0.5905
 4122SOL     OW15320   2.844   9.138   1.227 -0.1014  0.2932  0.1014
 4122SOL    HW115321   2.772   9.126   1.166  0.6483  0.7398 -0.9100
 4122SOL    HW215322   2.804   9.174   1.306 -1.0884 -0.2913 -0.1147
 4123SOL     OW15323   9.090   8.599   3.559 -0.3158 -0.2912 -0.3443
 4123SOL    HW115324   9.180   8.632   3.564  0.0438 -1.3432  0.3190
 4123SOL    HW215325   9.041   8.654   3.620  0.0077 -0.1339 -0.2270
 4124SOL     OW15326   0.980   7.683   4.930 -0.3009 -0.2343 -0.3203
 4124SOL    HW115327   0.924   7.694   5.007 -0.2117 -0.1196 -0.2714
 4124SOL    HW215328   1.065   7.658   4.965 -0.3910 -0.6760 -0.4106
 4125SOL     OW15329   3.602   2.222   3.067  0.1121  0.2714 -0.2649
 4125SOL    HW115330   3.600   2.303   3.015 -0.9061  0.5694  0.2100
 4125SOL    HW215331   3.674   2.172   3.030  1.2508  1.7098 -0.0829
 4126SOL     OW15332   1.703   3.855   1.338 -0.0932 -0.1870 -0.4540
 4126SOL    HW115333   1.670   3.838   1.250  2.1593  0.3756 -1.4802
 4126SOL    HW215334   1.747   3.940   1.331  3.5334 -1.8192  0.0905
 4127SOL     OW15335  10.386   0.166   2.532 -0.1327  0.1513 -0.4291
 4127SOL    HW115336  10.429   0.092   2.488  0.3928  0.6116 -0.7094
 4127SOL    HW215337  10.310   0.186   2.478 -2.1904 -2.2312  1.3518
 4128SOL     OW15338   1.300   9.725   2.395 -0.5687  0.1092 -0.2140
 4128SOL    HW115339   1.227   9.786   2.400 -0.7883  0.1551 -2.9362
 4128SOL    HW215340   1.280   9.659   2.462 -1.2309  1.9704  1.5351
 4129SOL     OW15341   8.780   9.887   2.979  0.2085  0.0709 -0.3609
 4129SOL    HW115342   8.732   9.970   2.985  0.2969  0.1122 -0.1926
 4129SOL    HW215343   8.829   9.883   3.062  0.7946  0.2183 -0.6940
 4130SOL     OW15344   2.743   0.707   6.737  0.5197  0.6135 -0.1235
 4130SOL    HW115345   2.649   0.710   6.721  0.6147  1.0915 -0.6393
 4130SOL    HW215346   2.773   0.796   6.721  0.8075  0.8946  1.7312
 4131SOL     OW15347   9.294   9.174   6.480  0.3055  0.2447 -0.3589
 4131SOL    HW115348   9.321   9.082   6.485 -0.9417 -0.2501 -1.7243
 4131SOL    HW215349   9.372   9.224   6.505  0.7881 -1.1754  1.1863
 4132SOL     OW15350   9.221   7.789   7.627  0.5894 -0.1368 -0.3016
 4132SOL    HW115351   9.314   7.793   7.605  0.7141 -0.6595  0.0998
 4132SOL    HW215352   9.176   7.789   7.543  1.0441 -1.9570 -0.5900
 4133SOL     OW15353   7.963   8.350   6.339  0.1037  0.0323 -0.1143
 4133SOL    HW115354   7.991   8.416   6.402 -0.5157  1.5567 -1.3803
 4133SOL    HW215355   7.901   8.296   6.387  0.9569  0.0689  1.0747
 4134SOL     OW15356   4.238   1.440   4.013 -0.1112  0.0007 -0.3504
 4134SOL    HW115357   4.323   1.399   4.031  0.4017  0.8245 -0.8167
 4134SOL    HW215358   4.214   1.483   4.096 -1.0294 -1.8465  0.3835
 4135SOL     OW15359   9.194   4.296   8.049 -0.3753 -0.5961 -0.8541
 4135SOL    HW115360   9.232   4.208   8.044 -1.1896 -1.0129 -0.0372
 4135SOL    HW215361   9.270   4.354   8.052  0.1781 -1.2750 -1.2089
 4136SOL     OW15362   8.082   7.583   4.066 -0.3324  0.5501  0.4385
 4136SOL    HW115363   8.034   7.518   4.118 -0.6584 -0.3858 -0.9732
 4136SOL    HW215364   8.161   7.600   4.117 -0.4408 -0.6452  1.0521
 4137SOL     OW15365   1.645   8.159   4.496 -0.0440  0.0202 -0.1663
 4137SOL    HW115366   1.681   8.109   4.423  2.6076 -0.2545  1.1869
 4137SOL    HW215367   1.658   8.103   4.573 -0.1622  1.3903  0.9039
 4138SOL     OW15368   8.184   5.962   7.503 -0.3017 -0.3273 -0.2911
 4138SOL    HW115369   8.100   5.982   7.543  0.9379  1.5036  1.6081
 4138SOL    HW215370   8.210   6.044   7.459 -0.0162 -1.2308 -1.9039
 4139SOL     OW15371   0.631   3.220   6.382  0.6693  0.1836 -0.0365
 4139SOL    HW115372   0.605   3.138   6.340 -0.1999 -0.5917  1.8944
 4139SOL    HW215373   0.727   3.220   6.377  0.6122 -0.0774 -1.5828
 4140SOL     OW15374   5.014   3.826   2.982 -0.5513  0.4563 -0.3316
 4140SOL    HW115375   5.051   3.912   2.963 -0.2101  0.1387 -1.1359
 4140SOL    HW215376   5.013   3.822   3.078 -0.3895  1.2743 -0.2863
 4141SOL     OW15377   6.621   8.582   3.857 -0.1496  0.0166 -0.4376
 4141SOL    HW115378   6.573   8.626   3.927 -1.7398 -0.4250 -1.2034
 4141SOL    HW215379   6.699   8.545   3.901 -1.3834 -0.7424  1.2411
 4142SOL     OW15380   9.719   7.693   9.720  0.0225 -0.2414  0.2209
 4142SOL    HW115381   9.628   7.720   9.732  0.4389  0.5933  1.8983
 4142SOL    HW215382   9.734   7.629   9.790 -0.0786 -2.6596 -1.8517
 4143SOL     OW15383   3.193   0.121  10.553  0.1571  0.0990 -0.0295
 4143SOL    HW115384   3.161   0.144  10.466  2.1404  0.9498 -0.5827
 4143SOL    HW215385   3.198   0.025  10.553 -2.7549 -0.1410  0.2914
 4144SOL     OW15386   8.063   8.839   7.598 -0.0306  0.4451 -0.5298
 4144SOL    HW115387   8.146   8.837   7.551  0.4400 -0.2560  0.2831
 4144SOL    HW215388   8.056   8.752   7.638 -0.5885  0.8777  0.3654
 4145SOL     OW15389   6.498   2.258   0.871 -0.5915 -0.7820 -0.0122
 4145SOL    HW115390   6.546   2.210   0.939 -2.3094  2.2614  3.7248
 4145SOL    HW215391   6.562   2.321   0.836 -0.6388  0.4127  1.9047
 4146SOL     OW15392   7.310   6.057   4.024 -0.3523  0.2511 -0.1999
 4146SOL    HW115393   7.245   6.112   4.068  0.1671  0.6421  0.0869
 4146SOL    HW215394   7.371   6.119   3.984  0.8799 -0.0869  1.0630
 4147SOL     OW15395   4.031   3.780   7.890  0.3967 -0.1922  0.0191
 4147SOL    HW115396   3.940   3.803   7.910  0.6816 -0.6485  2.0254
 4147SOL    HW215397   4.052   3.834   7.813 -1.6070 -0.2325 -0.6232
 4148SOL     OW15398   0.548   0.757   4.927 -0.3463 -0.0466 -0.1598
 4148SOL    HW115399   0.628   0.804   4.952 -0.6448 -0.6373  2.0990
 4148SOL    HW215400   0.486   0.826   4.904  0.3140  0.4856 -0.3770
 4149SOL     OW15401   5.750   5.185   3.895  0.3190  0.6279  0.4519
 4149SOL    HW115402   5.839   5.217   3.882  0.9075 -1.4127 -1.2489
 4149SOL    HW215403   5.758   5.121   3.966  0.7095 -1.0016 -0.9676
 4150SOL     OW15404   6.548   0.223   9.719 -0.4149  0.4670 -0.3739
 4150SOL    HW115405   6.491   0.171   9.664  1.0517 -1.0405 -0.5579
 4150SOL    HW215406   6.551   0.176   9.802  0.3704  0.6163 -0.3029
 4151SOL     OW15407   7.306   2.117   0.571 -0.0382 -0.0322  0.3583
 4151SOL    HW115408   7.341   2.189   0.623 -1.1305  0.2857  0.6706
 4151SOL    HW215409   7.252   2.159   0.505  0.3326 -0.5069 -0.2599
 4152SOL     OW15410   3.102   1.717   6.632  0.0362 -0.8893 -0.1229
 4152SOL    HW115411   3.086   1.759   6.716  0.4767 -0.6021 -0.1814
 4152SOL    HW215412   3.192   1.685   6.638 -0.1436 -1.4339 -0.2459
 4153SOL     OW15413   5.259   4.270   3.452  0.3018 -0.1915  0.1122
 4153SOL    HW115414   5.333   4.218   3.483 -0.0269 -1.0057 -0.4237
 4153SOL    HW215415   5.246   4.337   3.519  2.9192  1.3815 -0.8036
 4154SOL     OW15416   1.024   7.352   6.156  0.3439  0.6924  0.3884
 4154SOL    HW115417   1.099   7.297   6.135 -0.9018 -0.5264 -1.1507
 4154SOL    HW215418   0.951   7.313   6.108 -1.3349  1.7146  1.9514
 4155SOL     OW15419   2.695  10.231   1.946 -0.7880  0.0575  0.1992
 4155SOL    HW115420   2.673  10.276   2.027  1.7634 -0.4579  1.2753
 4155SOL    HW215421   2.740  10.150   1.974 -0.1030 -0.2825 -1.6917
 4156SOL     OW15422   7.824   3.229   4.855 -0.2961  0.4252  0.3880
 4156SOL    HW115423   7.807   3.318   4.886 -0.9610  0.7719 -0.9326
 4156SOL    HW215424   7.761   3.216   4.784  1.5649 -0.1315 -1.2361
 4157SOL     OW15425   5.647   1.761   9.105  0.0467  0.0186  0.5052
 4157SOL    HW115426   5.607   1.830   9.052 -1.2561 -0.4280  0.8864
 4157SOL    HW215427   5.675   1.805   9.185 -1.6404 -0.0395  1.1593
 4158SOL     OW15428   2.377   7.059  10.346  0.0103  1.3208 -0.6766
 4158SOL    HW115429   2.380   6.964  10.343  2.6497  1.3457 -1.1515
 4158SOL    HW215430   2.288   7.081  10.318 -0.8564 -0.9863  0.0405
 4159SOL     OW15431   3.014   8.729   8.742 -0.0250 -0.2346  0.0960
 4159SOL    HW115432   3.019   8.790   8.668  2.3076  1.2715  1.3610
 4159SOL    HW215433   2.947   8.766   8.800 -1.7576 -1.3438 -1.0913
 4160SOL     OW15434   7.235   5.662   7.625  0.4495  0.5023 -0.0475
 4160SOL    HW115435   7.224   5.704   7.711  0.8606  0.1956  0.1601
 4160SOL    HW215436   7.148   5.628   7.604  0.8303 -1.6279  1.4263
 4161SOL     OW15437   5.421   3.564   1.373 -0.1550  0.0832  0.6730
 4161SOL    HW115438   5.340   3.613   1.386 -0.1677  0.2286  0.0655
 4161SOL    HW215439   5.489   3.619   1.412 -0.3972 -0.2490  1.5987
 4162SOL     OW15440   6.825   3.098   8.615  0.1065  0.4947 -0.2281
 4162SOL    HW115441   6.774   3.017   8.616 -0.4180  0.8199  0.0255
 4162SOL    HW215442   6.780   3.155   8.678  0.4147  1.0112 -0.4718
 4163SOL     OW15443   2.695  10.056   7.751  0.5491 -0.2121 -0.0279
 4163SOL    HW115444   2.684   9.961   7.746 -1.2277 -0.0028 -0.7060
 4163SOL    HW215445   2.681  10.087   7.661 -0.7702  0.8386  0.5001
 4164SOL     OW15446   4.209   9.551   1.692  0.0315  0.4190  0.3483
 4164SOL    HW115447   4.227   9.471   1.644  1.3772 -0.3361  1.9831
 4164SOL    HW215448   4.184   9.521   1.780  1.2554  1.7675  1.1993
 4165SOL     OW15449   6.212   7.246  10.538  0.0785 -0.7663 -0.2647
 4165SOL    HW115450   6.151   7.190  10.586 -0.7382 -0.0302 -0.4302
 4165SOL    HW215451   6.298   7.207  10.554 -0.2694 -1.0091  1.1356
 4166SOL     OW15452   0.171   4.602  10.215 -0.6404  1.1799  0.3812
 4166SOL    HW115453   0.226   4.667  10.257  0.8084  0.8833 -0.9697
 4166SOL    HW215454   0.163   4.633  10.124 -0.8393  0.0476 -0.0006
 4167SOL     OW15455   7.613   1.168  10.358 -0.1770  0.5455  0.3407
 4167SOL    HW115456   7.655   1.082  10.353 -0.2784  0.4992  0.2910
 4167SOL    HW215457   7.522   1.149  10.379 -0.0461  0.6704  1.0631
 4168SOL     OW15458   1.934   0.114   4.384  0.5794 -0.2601 -0.6411
 4168SOL    HW115459   1.925   0.022   4.411 -0.1147 -0.4774 -1.5783
 4168SOL    HW215460   2.013   0.115   4.330  0.8329 -0.2125 -0.2761
 4169SOL     OW15461   7.375  10.437   8.781  0.2933 -0.2908 -0.3222
 4169SOL    HW115462   7.312  10.375   8.816 -0.2463 -0.0524 -0.8443
 4169SOL    HW215463   7.352  10.521   8.822 -0.8054  0.1433 -1.7380
 4170SOL     OW15464   8.497   3.571   9.432  0.4572 -0.5340  0.0858
 4170SOL    HW115465   8.522   3.501   9.372 -1.7055  0.3006 -1.9728
 4170SOL    HW215466   8.482   3.647   9.376 -1.2909  0.4301  1.7184
 4171SOL     OW15467  10.248   7.495   2.257  0.5113  0.1943  0.4581
 4171SOL    HW115468  10.156   7.469   2.262  0.0462  0.8507 -2.5231
 4171SOL    HW215469  10.246   7.590   2.250  1.0434  0.1081 -2.6007
 4172SOL     OW15470   5.630   9.484   6.388  0.3876 -0.2355 -0.3183
 4172SOL    HW115471   5.609   9.549   6.321  2.4990 -0.5994 -1.4475
 4172SOL    HW215472   5.701   9.433   6.349  0.2584 -1.8134  1.4065
 4173SOL     OW15473   8.826   7.006   8.289  0.0055 -0.9665  0.7796
 4173SOL    HW115474   8.868   7.037   8.369 -0.7187 -0.0982  0.8379
 4173SOL    HW215475   8.735   7.036   8.295 -0.3083 -1.7082  0.0684
 4174SOL     OW15476   5.516   9.613   9.469  0.1482  0.3616 -0.8313
 4174SOL    HW115477   5.447   9.563   9.427  0.7868 -1.5981  0.3119
 4174SOL    HW215478   5.499   9.605   9.563  2.0096 -0.3598 -0.5097
 4175SOL     OW15479   2.291   6.029   5.199  0.5657 -0.6699  0.0063
 4175SOL    HW115480   2.378   6.017   5.239 -0.4798  1.3617  3.2603
 4175SOL    HW215481   2.231   5.981   5.256 -0.6969 -0.3672 -1.0184
 4176SOL     OW15482   4.687   2.193   2.251 -0.1623 -0.3794 -0.0689
 4176SOL    HW115483   4.765   2.196   2.195 -0.2251  0.2271 -0.1375
 4176SOL    HW215484   4.676   2.101   2.272 -1.5656 -0.9953 -3.0271
 4177SOL     OW15485   3.733   6.109   7.970 -0.0077 -0.2883 -0.1335
 4177SOL    HW115486   3.773   6.137   7.888 -4.4454  1.9973 -1.8485
 4177SOL    HW215487   3.760   6.176   8.034 -0.1034  0.5293 -0.9253
 4178SOL     OW15488   7.369   2.547   9.179  0.7010 -0.4018  0.1187
 4178SOL    HW115489   7.403   2.633   9.155 -0.7746 -0.1927 -1.4562
 4178SOL    HW215490   7.332   2.559   9.267  0.5051  0.5862 -0.0885
 4179SOL     OW15491   1.860   0.443   2.754 -0.1447  0.2967 -0.2051
 4179SOL    HW115492   1.836   0.497   2.829 -0.3191 -0.6656  0.4510
 4179SOL    HW215493   1.855   0.353   2.786  0.4416 -0.1077 -1.1819
 4180SOL     OW15494   0.760   0.540  10.553 -0.6151 -0.0243  0.1019
 4180SOL    HW115495   0.742   0.509  10.642 -0.1709 -0.7547 -0.0532
 4180SOL    HW215496   0.824   0.477  10.518  0.8481  1.4352  0.0168
 4181SOL     OW15497   8.349   8.138   6.354  0.4173 -0.0252  0.3165
 4181SOL    HW115498   8.347   8.143   6.259  1.5377  2.3195  0.3489
 4181SOL    HW215499   8.274   8.082   6.377 -1.1251  1.0042 -1.8390
 4182SOL     OW15500   4.964   8.582   3.203 -0.3559  0.2806 -0.5620
 4182SOL    HW115501   4.993   8.660   3.157 -0.8564  0.2754 -0.8890
 4182SOL    HW215502   4.955   8.515   3.135 -1.5449  0.3973 -0.5421
 4183SOL     OW15503   7.322   5.837   7.149  0.4072  0.3352  0.1401
 4183SOL    HW115504   7.389   5.890   7.104 -0.5659  0.7032 -0.9250
 4183SOL    HW215505   7.248   5.897   7.159 -0.1888 -0.4067  0.2227
 4184SOL     OW15506   9.711   7.560   3.637  0.3977 -0.3892  0.2992
 4184SOL    HW115507   9.631   7.514   3.610 -0.5072  1.3146 -0.0645
 4184SOL    HW215508   9.683   7.650   3.650  2.8298  0.8987 -2.5220
 4185SOL     OW15509   4.851   5.234   3.599 -0.4510  0.0331 -0.9160
 4185SOL    HW115510   4.789   5.167   3.629 -1.9372  1.5659 -0.4077
 4185SOL    HW215511   4.889   5.269   3.680  0.2883 -0.1528 -1.1769
 4186SOL     OW15512   6.122   7.988  10.376  0.4998 -0.0517  0.1818
 4186SOL    HW115513   6.186   7.918  10.389  1.6463  1.2691  2.1225
 4186SOL    HW215514   6.169   8.068  10.398 -0.2608  1.6112 -3.5208
 4187SOL     OW15515   1.849   3.379   0.133  0.5159 -0.2915  0.4365
 4187SOL    HW115516   1.937   3.382   0.171  0.5825  2.3161  0.2729
 4187SOL    HW215517   1.852   3.442   0.061 -0.7406 -2.2166 -1.4009
 4188SOL     OW15518   7.722   1.189   0.518 -0.0018 -0.5266  0.5041
 4188SOL    HW115519   7.686   1.128   0.582 -0.0744  0.7330  1.7178
 4188SOL    HW215520   7.647   1.215   0.465 -0.1131 -0.8970  0.4757
 4189SOL     OW15521  10.638   7.958   2.670  0.4862  0.2276  0.6227
 4189SOL    HW115522  10.706   7.902   2.705  1.0671  0.4061 -0.1876
 4189SOL    HW215523  10.560   7.903   2.667  1.0429 -0.5303 -0.1432
 4190SOL     OW15524   1.397   6.405   8.739 -0.0841 -0.2079  0.2244
 4190SOL    HW115525   1.316   6.354   8.739 -0.5221  0.3923 -1.8238
 4190SOL    HW215526   1.459   6.353   8.689  0.2215  0.1862  0.1875
 4191SOL     OW15527   4.148   6.493   0.881 -0.1877  0.0490  0.5142
 4191SOL    HW115528   4.238   6.470   0.905  0.1031 -1.0466 -1.4184
 4191SOL    HW215529   4.155   6.582   0.846  0.0239  0.2203  0.9840
 4192SOL     OW15530   8.186   5.552   5.007 -0.3256 -0.4780  0.5199
 4192SOL    HW115531   8.237   5.473   5.027  0.2626  0.1222  1.4825
 4192SOL    HW215532   8.129   5.526   4.935  1.0944 -1.2736 -0.3529
 4193SOL     OW15533   0.308  10.061   8.493  0.3049  0.2292  0.2856
 4193SOL    HW115534   0.232  10.006   8.476  1.8307 -1.5079 -1.2638
 4193SOL    HW215535   0.334  10.039   8.583 -1.1631  1.1227  0.9770
 4194SOL     OW15536   9.533  10.400   5.432  0.6195 -0.0513 -0.3271
 4194SOL    HW115537   9.585  10.423   5.508 -0.3158  0.2826  0.2264
 4194SOL    HW215538   9.555  10.309   5.414  1.6601  0.1918 -0.3315
 4195SOL     OW15539   8.689   5.979   1.654 -0.2142 -0.5277 -0.9271
 4195SOL    HW115540   8.620   5.970   1.719 -1.0791 -0.1962 -1.7790
 4195SOL    HW215541   8.673   5.908   1.592  0.1046 -0.3399 -1.2276
 4196SOL     OW15542   2.598   4.070   1.118  0.1845 -0.5925 -0.2005
 4196SOL    HW115543   2.678   4.121   1.109 -0.5930  0.8666  0.8478
 4196SOL    HW215544   2.578   4.041   1.028  0.5709  1.0494 -0.8482
 4197SOL     OW15545   1.218   7.399   2.552 -0.7731 -0.1770 -0.0052
 4197SOL    HW115546   1.219   7.311   2.591 -2.5191 -0.4106 -0.4136
 4197SOL    HW215547   1.311   7.420   2.539 -0.2995 -1.7498  0.5629
 4198SOL     OW15548   7.745   7.953   1.416 -0.2708  0.3147  0.0371
 4198SOL    HW115549   7.709   7.988   1.334 -0.2015 -0.5968 -0.3896
 4198SOL    HW215550   7.677   7.894   1.449  0.3135 -0.4788 -0.1466
 4199SOL     OW15551   0.431   6.429   7.504 -0.3278 -0.1857 -0.1919
 4199SOL    HW115552   0.359   6.382   7.545 -1.1251 -0.0902 -1.4368
 4199SOL    HW215553   0.409   6.522   7.516 -1.5478 -0.1314 -2.3995
 4200SOL     OW15554   5.483   0.411   8.533  0.9967  0.0520 -0.0953
 4200SOL    HW115555   5.438   0.460   8.602  0.3228  1.4012 -1.4350
 4200SOL    HW215556   5.498   0.475   8.463 -1.0495 -1.8693 -2.4907
 4201SOL     OW15557   6.136   7.529   7.152  0.2750  0.0744  0.3418
 4201SOL    HW115558   6.060   7.515   7.096  0.9141 -0.5328 -0.4036
 4201SOL    HW215559   6.172   7.441   7.166  0.4450  0.2771  1.2601
 4202SOL     OW15560   2.764   2.065   2.898  0.0386  0.2480 -0.7802
 4202SOL    HW115561   2.733   2.000   2.835  1.3321 -0.3969 -0.7827
 4202SOL    HW215562   2.855   2.082   2.871  0.3272  0.6156  0.3882
 4203SOL     OW15563   9.429   9.815   0.975 -0.2004 -0.2956  0.7359
 4203SOL    HW115564   9.373   9.824   0.898  0.8631 -1.6144 -0.2301
 4203SOL    HW215565   9.391   9.875   1.039 -0.7458  1.3074 -1.0013
 4204SOL     OW15566  10.689   4.037   2.043 -0.3723  0.4055 -0.6082
 4204SOL    HW115567  10.751   4.012   1.975  0.5373  2.3909 -0.5895
 4204SOL    HW215568  10.614   3.978   2.031  1.4554 -2.0502 -0.6494
 4205SOL     OW15569   2.559   8.052   5.314  0.6658  0.6211 -0.0611
 4205SOL    HW115570   2.595   7.970   5.347  0.0190  0.8194  1.2139
 4205SOL    HW215571   2.467   8.051   5.342  0.4333  1.4161 -0.7466
 4206SOL     OW15572   4.237   8.283   1.978  0.0991  0.2961 -0.1348
 4206SOL    HW115573   4.298   8.219   2.015  1.6516  0.3808 -2.3740
 4206SOL    HW215574   4.277   8.310   1.896 -1.8839  2.0938 -0.5996
 4207SOL     OW15575   5.502   2.370   7.383 -0.4443  0.0246  0.1038
 4207SOL    HW115576   5.429   2.337   7.332 -0.4426 -1.3352  0.9314
 4207SOL    HW215577   5.546   2.292   7.417  0.0729  0.8479  1.4370
 4208SOL     OW15578   9.112  10.602   7.967 -0.3042 -0.0852  0.1896
 4208SOL    HW115579   9.155  10.520   7.945  0.7607 -0.1298  2.2749
 4208SOL    HW215580   9.041  10.577   8.026 -0.7068  0.3916 -0.0814
 4209SOL     OW15581   2.424   1.649   9.158 -0.4748  0.6926 -0.3999
 4209SOL    HW115582   2.445   1.561   9.187 -0.6988  0.5737 -0.5958
 4209SOL    HW215583   2.506   1.698   9.166 -0.6649  0.8290  1.0439
 4210SOL     OW15584   1.538   1.073   8.170 -0.0140 -0.1439  0.3369
 4210SOL    HW115585   1.520   1.002   8.108 -0.1370  1.1285 -1.1540
 4210SOL    HW215586   1.453   1.112   8.187  0.2072  0.4844  0.0567
 4211SOL     OW15587   2.579   3.186   5.095  0.0567  0.2307  0.4771
 4211SOL    HW115588   2.670   3.209   5.116  0.4181 -0.1639 -0.5663
 4211SOL    HW215589   2.580   3.091   5.088  0.4639  0.3586 -3.1395
 4212SOL     OW15590  10.512   4.876   9.452 -0.7051 -0.4506  0.5691
 4212SOL    HW115591  10.464   4.912   9.378 -1.9716  0.3465  1.7111
 4212SOL    HW215592  10.599   4.858   9.418 -1.4396 -0.7563 -1.2643
 4213SOL     OW15593   7.559   3.510   7.804 -0.0155  0.8128  0.5886
 4213SOL    HW115594   7.528   3.483   7.718 -0.8859 -0.6459  1.3205
 4213SOL    HW215595   7.651   3.483   7.806 -0.6861 -1.6335  1.0527
 4214SOL     OW15596   8.793   8.338   7.610 -0.2139 -0.2435 -0.2060
 4214SOL    HW115597   8.784   8.429   7.582 -0.5082 -0.5440 -1.0904
 4214SOL    HW215598   8.887   8.327   7.626 -0.1527  0.1536 -0.2865
 4215SOL     OW15599   1.030  10.047   6.237 -0.0348 -0.0145  0.3919
 4215SOL    HW115600   0.948  10.045   6.287 -1.2809 -3.0007 -1.5139
 4215SOL    HW215601   1.009  10.103   6.162 -0.5284 -1.1729 -0.3486
 4216SOL     OW15602   7.048   1.562  10.015  0.2931 -0.4793  0.2131
 4216SOL    HW115603   7.047   1.607  10.099 -3.2886  0.0445  0.0639
 4216SOL    HW215604   7.082   1.475  10.034  1.5721  0.2939  1.7152
 4217SOL     OW15605   8.397   5.310   0.213 -0.3098 -0.2074 -0.1492
 4217SOL    HW115606   8.489   5.335   0.214 -0.7395  1.5039 -0.3452
 4217SOL    HW215607   8.379   5.280   0.302  0.0635  0.9931  0.3544
 4218SOL     OW15608   4.641   0.908   4.032 -0.5048  0.4274 -0.1508
 4218SOL    HW115609   4.613   0.826   3.992 -0.3670 -0.2709  1.1182
 4218SOL    HW215610   4.623   0.975   3.966  0.0062 -0.6977 -1.4695
 4219SOL     OW15611   5.597   0.917   8.145  0.5989 -0.2147 -0.3515
 4219SOL    HW115612   5.672   0.873   8.184 -0.7510 -2.5108 -0.1348
 4219SOL    HW215613   5.556   0.849   8.090 -2.4774  0.2463  1.1850
 4220SOL     OW15614   4.021   9.092   5.863  0.5037 -0.0591 -0.2947
 4220SOL    HW115615   3.951   9.033   5.835  1.3299 -1.6244  0.7331
 4220SOL    HW215616   3.983   9.143   5.935  0.3244 -0.7439  0.1114
 4221SOL     OW15617   4.460   5.632   9.829  0.6560 -0.1856 -0.3550
 4221SOL    HW115618   4.452   5.661   9.920  0.1561  0.3581 -0.5664
 4221SOL    HW215619   4.442   5.710   9.778 -2.2783 -1.1471 -0.9811
 4222SOL     OW15620   0.165   0.709   0.077  0.0885 -0.1249  0.1488
 4222SOL    HW115621   0.176   0.767   0.152  1.0137  0.0706 -0.1234
 4222SOL    HW215622   0.110   0.760   0.016 -0.1506 -0.0397  0.4332
 4223SOL     OW15623   3.616   3.120   4.420  0.0409 -0.0014  0.8860
 4223SOL    HW115624   3.697   3.171   4.421 -0.5699  1.0381 -0.1662
 4223SOL    HW215625   3.617   3.073   4.503  0.2913  2.2822  2.2650
 4224SOL     OW15626   1.739   9.585   0.795 -0.3649 -0.2267  0.5065
 4224SOL    HW115627   1.711   9.519   0.732  0.3675  0.4326 -0.5511
 4224SOL    HW215628   1.666   9.593   0.856  0.1949 -3.2631  1.7475
 4225SOL     OW15629   2.230   1.333   9.202 -0.0664 -0.0459 -0.2693
 4225SOL    HW115630   2.229   1.412   9.258 -0.7466  0.0930 -0.4616
 4225SOL    HW215631   2.210   1.366   9.115  0.8328 -0.2866 -0.5699
 4226SOL     OW15632   4.477   8.515   2.830 -0.1872  0.1456  0.4095
 4226SOL    HW115633   4.563   8.543   2.799 -0.7941  0.2041 -1.3368
 4226SOL    HW215634   4.489   8.498   2.923  1.2272  2.0921  0.6364
 4227SOL     OW15635   0.594   5.933   4.169  0.3545  0.8060  0.3802
 4227SOL    HW115636   0.545   6.011   4.195 -0.1528  1.3193 -1.8243
 4227SOL    HW215637   0.538   5.890   4.104  1.6881 -0.0399 -0.2734
 4228SOL     OW15638   7.185   8.885   9.862 -0.0625  0.4796 -0.5883
 4228SOL    HW115639   7.147   8.951   9.919  1.1680  0.6934  0.0047
 4228SOL    HW215640   7.222   8.820   9.922  0.7233  0.4042 -1.1422
 4229SOL     OW15641   5.554   1.518   4.890 -0.8864  0.0306 -0.0749
 4229SOL    HW115642   5.532   1.505   4.797 -0.2254  0.2669 -0.2735
 4229SOL    HW215643   5.599   1.437   4.915 -0.8404  0.0692 -0.0331
 4230SOL     OW15644   0.188   2.009   5.909 -0.0561  0.6027 -0.0206
 4230SOL    HW115645   0.192   1.927   5.959 -1.1046  0.8017  0.4151
 4230SOL    HW215646   0.193   2.078   5.975  1.9254  0.9469 -0.4565
 4231SOL     OW15647   1.716   9.773   4.365  0.0791 -0.2419 -0.3576
 4231SOL    HW115648   1.645   9.827   4.329  0.9424  2.0397  1.0965
 4231SOL    HW215649   1.672   9.719   4.431 -0.6365 -0.4575 -0.9919
 4232SOL     OW15650   7.100   2.671   4.436  0.4488 -0.1442  0.4262
 4232SOL    HW115651   7.055   2.669   4.521  1.6597 -1.9356  1.0846
 4232SOL    HW215652   7.105   2.764   4.414  0.1789  0.3793  2.3646
 4233SOL     OW15653  10.175   0.285   8.779 -0.2677 -0.6315  0.0256
 4233SOL    HW115654  10.232   0.337   8.723 -0.4087 -0.7488 -0.2252
 4233SOL    HW215655  10.234   0.245   8.843 -0.2090  0.2406  0.5465
 4234SOL     OW15656   3.768  10.261  10.585  0.0465 -0.4296  0.1596
 4234SOL    HW115657   3.771  10.356  10.600 -2.5235 -0.6025  2.5108
 4234SOL    HW215658   3.852  10.229  10.618  0.9977  0.9640 -0.7396
 4235SOL     OW15659   3.887   8.801   7.807 -0.1808  0.0756  0.6597
 4235SOL    HW115660   3.856   8.713   7.784  0.9543  0.2859 -1.9580
 4235SOL    HW215661   3.853   8.858   7.739  0.1910  1.4875  1.6013
 4236SOL     OW15662   6.461   6.124   4.367  0.1621 -0.6887 -0.0345
 4236SOL    HW115663   6.542   6.173   4.353  0.6335 -1.8710 -1.6232
 4236SOL    HW215664   6.399   6.161   4.304 -0.5919  0.2094  1.1675
 4237SOL     OW15665   3.861   2.152   9.331 -0.1110 -0.2199 -0.3675
 4237SOL    HW115666   3.902   2.135   9.246 -2.2160  0.3557 -1.5727
 4237SOL    HW215667   3.860   2.248   9.338 -0.2153 -0.2577  0.1828
 4238SOL     OW15668   4.724   3.892   0.976 -0.9301  0.0668  0.2563
 4238SOL    HW115669   4.679   3.828   0.921 -2.1844  0.7420  0.4674
 4238SOL    HW215670   4.793   3.928   0.919  0.5317 -2.1802  0.4535
 4239SOL     OW15671   4.547   1.464   3.228 -0.0177  0.2395  0.2177
 4239SOL    HW115672   4.552   1.392   3.166 -0.4190 -2.7976  3.3839
 4239SOL    HW215673   4.473   1.516   3.199 -1.3998 -2.1363 -0.7992
 4240SOL     OW15674   1.005  10.473   6.146  0.0051  0.0902 -0.5931
 4240SOL    HW115675   0.975  10.495   6.058 -1.7335 -1.3769 -0.4214
 4240SOL    HW215676   0.952  10.528   6.204  0.0372 -0.0638 -0.4142
 4241SOL     OW15677   7.636   6.346   3.433 -0.5845  0.9643  0.3411
 4241SOL    HW115678   7.554   6.296   3.427  0.1052 -0.1602  0.0966
 4241SOL    HW215679   7.677   6.316   3.514 -0.5919  1.8305  0.6787
 4242SOL     OW15680   2.420   4.577   0.259 -0.3514  0.0827  0.0158
 4242SOL    HW115681   2.381   4.577   0.346  1.3116 -0.9509  0.8128
 4242SOL    HW215682   2.384   4.499   0.217 -0.7901  0.3203 -0.0540
 4243SOL     OW15683   5.897   0.164   9.107 -0.1383  0.6611 -0.4086
 4243SOL    HW115684   5.899   0.241   9.050  2.3145  0.3156 -0.8905
 4243SOL    HW215685   5.834   0.105   9.066 -0.0419  1.3090 -1.5337
 4244SOL     OW15686   9.177   1.187   2.845 -0.3307  0.1011  0.4181
 4244SOL    HW115687   9.108   1.253   2.839  0.4438  0.8263 -0.8127
 4244SOL    HW215688   9.201   1.168   2.755 -0.3560 -1.7229  0.7448
 4245SOL     OW15689  10.555   0.075   8.443  0.5584 -0.2684  0.1101
 4245SOL    HW115690  10.587   0.156   8.482 -0.0710  0.2861 -0.5052
 4245SOL    HW215691  10.594   0.073   8.356  0.9594 -0.8779  0.2979
 4246SOL     OW15692   5.513   7.168   7.845 -0.1142 -0.2123  0.8354
 4246SOL    HW115693   5.564   7.223   7.904  0.4203  0.9801 -0.6811
 4246SOL    HW215694   5.499   7.222   7.767 -0.1064 -1.9860 -0.4656
 4247SOL     OW15695   3.097   0.679   7.356 -0.3159 -0.1024  0.0836
 4247SOL    HW115696   3.183   0.693   7.318 -0.6069 -1.7007 -1.2420
 4247SOL    HW215697   3.114   0.629   7.437  0.0007 -0.5221 -0.2389
 4248SOL     OW15698   7.976   9.014   3.606  0.2874 -0.1679 -0.1092
 4248SOL    HW115699   8.029   8.938   3.581  0.2991  0.1952 -1.2916
 4248SOL    HW215700   7.895   9.004   3.557  0.7610  1.1644 -1.2706
 4249SOL     OW15701   1.571   1.865   5.229 -0.4196 -0.0242 -0.2547
 4249SOL    HW115702   1.593   1.850   5.138  0.8149  1.0308 -0.1568
 4249SOL    HW215703   1.480   1.895   5.227  0.0342  1.3815 -1.3108
 4250SOL     OW15704   8.968   5.861   9.128 -0.3799  0.2942  0.0833
 4250SOL    HW115705   8.953   5.809   9.049  0.0908 -0.1780  0.3016
 4250SOL    HW215706   8.882   5.864   9.171 -0.5884  0.3704 -0.3332
 4251SOL     OW15707   6.177   1.466   4.177  0.4055 -0.5533  0.3025
 4251SOL    HW115708   6.084   1.476   4.156  1.0445 -0.6529 -3.1988
 4251SOL    HW215709   6.178   1.408   4.253 -2.3583 -1.4309 -0.1986
 4252SOL     OW15710  10.016   1.767   0.233  0.2198 -0.2283 -0.4450
 4252SOL    HW115711   9.994   1.693   0.289 -0.2502  0.1817 -0.0782
 4252SOL    HW215712   9.987   1.844   0.282  0.6334  0.1971 -0.8501
 4253SOL     OW15713   6.521   4.066   4.475 -0.0246 -0.5593 -0.0242
 4253SOL    HW115714   6.462   4.138   4.453  2.0062  0.5227 -2.4265
 4253SOL    HW215715   6.465   3.989   4.475 -1.4263  0.3246 -2.7098
 4254SOL     OW15716   5.148  10.039   7.745 -0.3974  0.3970 -0.5298
 4254SOL    HW115717   5.065  10.081   7.765 -0.8799 -1.2591  1.2633
 4254SOL    HW215718   5.125   9.965   7.689 -0.2913 -0.5686  0.6610
 4255SOL     OW15719   7.166   8.590   1.661 -0.3521 -0.0628  0.2044
 4255SOL    HW115720   7.198   8.501   1.676 -2.1265 -0.8358 -0.3457
 4255SOL    HW215721   7.174   8.603   1.567  0.2427  0.5293  0.3245
 4256SOL     OW15722   4.550   4.524   3.752  0.1404 -0.1361  0.1787
 4256SOL    HW115723   4.526   4.431   3.743  0.7904 -0.1582 -1.9811
 4256SOL    HW215724   4.468   4.566   3.778 -0.9590 -0.9606 -1.6697
 4257SOL     OW15725   0.872   2.649   2.960  0.3894 -0.6837  0.5120
 4257SOL    HW115726   0.790   2.677   2.919  0.8268 -0.3793 -0.1816
 4257SOL    HW215727   0.875   2.698   3.042  0.5870  0.4681 -0.1529
 4258SOL     OW15728   0.509   0.592   2.891  0.4071  0.1009  0.2895
 4258SOL    HW115729   0.566   0.535   2.840 -0.5201  0.6563 -1.4531
 4258SOL    HW215730   0.472   0.535   2.958  1.5485 -0.6969  0.2622
 4259SOL     OW15731   3.781   2.642   8.451  0.1094  0.0592  0.5876
 4259SOL    HW115732   3.784   2.550   8.424  2.1285  0.5323 -1.0213
 4259SOL    HW215733   3.814   2.640   8.542  0.2385 -0.8006  0.5373
 4260SOL     OW15734  10.180   3.828   6.251 -0.3091 -0.2512 -0.2473
 4260SOL    HW115735  10.124   3.875   6.313  0.2052 -0.1099  0.1123
 4260SOL    HW215736  10.263   3.876   6.251 -0.1502 -0.5161 -0.7044
 4261SOL     OW15737   7.764   2.438   9.758  0.1765 -0.2201  0.3175
 4261SOL    HW115738   7.858   2.450   9.769  0.2243 -1.3228  1.2561
 4261SOL    HW215739   7.725   2.487   9.830  0.0891 -0.6745  0.5821
 4262SOL     OW15740   5.563   9.284   1.402  0.4033  0.0042  0.6410
 4262SOL    HW115741   5.585   9.304   1.311 -1.6261  0.0762  0.1101
 4262SOL    HW215742   5.569   9.368   1.447 -1.8184  0.6942 -0.2024
 4263SOL     OW15743   3.649   1.266   2.480  0.7610  0.1043  0.1708
 4263SOL    HW115744   3.674   1.353   2.448  1.7477  0.2158  1.1921
 4263SOL    HW215745   3.732   1.217   2.482  0.0559 -1.2577 -1.5190
 4264SOL     OW15746   6.976   0.317   7.218  0.3393 -0.0463 -0.0282
 4264SOL    HW115747   6.995   0.368   7.297  1.8451 -0.6591  0.0195
 4264SOL    HW215748   6.992   0.379   7.146  2.8126 -0.5580 -0.0031
 4265SOL     OW15749   7.701   8.225   4.497  0.0846 -0.0445 -0.4730
 4265SOL    HW115750   7.729   8.164   4.429 -2.1074 -0.8469 -0.7321
 4265SOL    HW215751   7.733   8.187   4.579  1.9033  0.4262 -0.9216
 4266SOL     OW15752   7.009  10.040   7.045 -0.5450  0.3664 -0.5697
 4266SOL    HW115753   7.079  10.084   6.996  0.1405 -2.0777 -1.9412
 4266SOL    HW215754   6.976  10.107   7.104  2.2332  1.9398 -0.6155
 4267SOL     OW15755   9.616   0.170   6.266 -0.0672  0.2196  0.1731
 4267SOL    HW115756   9.538   0.202   6.220  1.1472  1.3231 -1.1754
 4267SOL    HW215757   9.646   0.096   6.214 -1.7589 -2.0956  2.2408
 4268SOL     OW15758   4.574   3.702   2.324  0.5219  0.2886 -0.0814
 4268SOL    HW115759   4.543   3.736   2.241 -0.7988  0.2546  0.3764
 4268SOL    HW215760   4.614   3.778   2.367 -1.2416  1.0186  0.3797
 4269SOL     OW15761   7.038   7.950   8.058 -0.3102 -0.3348 -0.5691
 4269SOL    HW115762   6.967   7.935   8.121  0.6998 -0.2429  0.6143
 4269SOL    HW215763   7.025   8.041   8.030 -0.5764 -0.2661 -0.2373
 4270SOL     OW15764  10.646   0.834   8.235 -0.6650  0.1567  0.2496
 4270SOL    HW115765  10.739   0.812   8.240 -0.7654 -0.4612 -0.4184
 4270SOL    HW215766  10.606   0.786   8.309 -0.3677  0.9760  0.9628
 4271SOL     OW15767   8.750   8.628   1.406 -0.2825  0.0082 -0.2103
 4271SOL    HW115768   8.737   8.553   1.464  1.6135 -1.6560 -1.7633
 4271SOL    HW215769   8.754   8.590   1.318  0.9576  1.9002 -1.0425
 4272SOL     OW15770   6.800   1.252   4.481  0.4272 -0.1079  0.0857
 4272SOL    HW115771   6.801   1.305   4.561  3.3058 -1.6934  1.2577
 4272SOL    HW215772   6.872   1.287   4.428  0.6232 -1.1059 -0.3289
 4273SOL     OW15773   0.306   3.160   0.004  0.4152  0.1733  0.1858
 4273SOL    HW115774   0.216   3.189  -0.013  0.3608  0.4060  0.8465
 4273SOL    HW215775   0.304   3.126   0.094  1.2855  1.4281  0.7038
 4274SOL     OW15776   0.284  10.446   2.815  0.0251  0.3705  0.0353
 4274SOL    HW115777   0.230  10.385   2.866  0.7200 -1.1157 -0.9174
 4274SOL    HW215778   0.304  10.397   2.735  0.9938  1.7132 -0.5660
 4275SOL     OW15779   6.481   8.759   1.464  0.6196  0.0774  0.0673
 4275SOL    HW115780   6.521   8.843   1.442 -0.3226  0.1434 -1.6265
 4275SOL    HW215781   6.509   8.741   1.553  1.6744  1.6955  0.1033
 4276SOL     OW15782   1.922   5.606   5.266  0.3721  0.3800 -0.1878
 4276SOL    HW115783   1.841   5.636   5.307  0.6061 -0.0246  0.5778
 4276SOL    HW215784   1.975   5.572   5.338 -0.2009 -2.6375 -1.0367
 4277SOL     OW15785   3.397   2.941   9.524  0.6564 -0.5721  0.2016
 4277SOL    HW115786   3.314   2.894   9.539  0.7317 -1.3799 -1.6287
 4277SOL    HW215787   3.416   2.926   9.432  1.5146  1.7972 -0.0723
 4278SOL     OW15788   4.698  10.260  10.603 -0.1131 -0.6436 -0.4114
 4278SOL    HW115789   4.665  10.334  10.553 -0.8539 -0.6176  0.0993
 4278SOL    HW215790   4.707  10.189  10.539 -0.4169 -0.4214 -0.7011
 4279SOL     OW15791  10.539   1.458   8.133  0.4841 -0.1763  0.8341
 4279SOL    HW115792  10.478   1.385   8.149 -1.7974  1.1568 -1.0499
 4279SOL    HW215793  10.539   1.507   8.215  0.5160 -1.2199  1.4815
 4280SOL     OW15794   0.202   0.692   7.160 -0.0454  0.0152 -0.1879
 4280SOL    HW115795   0.257   0.700   7.082  0.6007 -0.8379  0.1626
 4280SOL    HW215796   0.217   0.773   7.208  0.4024  0.0750 -0.4215
 4281SOL     OW15797   0.797   4.915   5.131  0.1527 -0.3964  0.1408
 4281SOL    HW115798   0.842   4.875   5.057 -0.6710 -2.4335  0.6885
 4281SOL    HW215799   0.736   4.977   5.090 -0.9834 -2.1831 -0.9779
 4282SOL     OW15800   6.281   1.506   1.372  0.1387  0.1945 -0.0731
 4282SOL    HW115801   6.365   1.461   1.358 -0.1287 -0.0677 -0.8837
 4282SOL    HW215802   6.235   1.498   1.288 -0.7567  0.2272  0.4046
 4283SOL     OW15803   5.097   8.432  10.372 -0.2639  0.1274  0.1775
 4283SOL    HW115804   5.057   8.373  10.308 -0.6398  0.6896 -0.1237
 4283SOL    HW215805   5.034   8.438  10.443 -0.0332 -0.1710  0.4073
 4284SOL     OW15806  10.333   2.455  10.065  0.0658  0.6940 -0.0230
 4284SOL    HW115807  10.355   2.434   9.974  0.9689 -0.1877  0.3787
 4284SOL    HW215808  10.271   2.528  10.058  0.3403  0.8372 -1.3343
 4285SOL     OW15809   4.897  10.535  10.059  0.2966 -0.2274 -0.7285
 4285SOL    HW115810   4.939  10.589   9.992  2.4097 -1.0723 -0.1823
 4285SOL    HW215811   4.934  10.565  10.142 -1.2490 -0.1049 -0.0608
 4286SOL     OW15812   9.490   8.821  10.045 -0.3484 -0.1362 -0.2617
 4286SOL    HW115813   9.431   8.749  10.069 -1.4676  0.7136 -0.4020
 4286SOL    HW215814   9.486   8.881  10.119 -1.0842  0.7962 -1.0398
 4287SOL     OW15815   2.128   7.281   8.809 -0.2763  0.5205 -0.3648
 4287SOL    HW115816   2.186   7.210   8.837 -0.3423  0.8340  0.5867
 4287SOL    HW215817   2.184   7.335   8.752  0.4066  0.8351  0.5639
 4288SOL     OW15818   4.228   1.322   8.583  0.2413 -0.5624  0.1479
 4288SOL    HW115819   4.310   1.351   8.544  0.0505  0.3840  0.4360
 4288SOL    HW215820   4.185   1.270   8.514 -0.0987  1.0888 -0.9272
 4289SOL     OW15821   0.070   2.835   1.567  0.8403 -0.4656  0.0478
 4289SOL    HW115822   0.131   2.909   1.561  0.9067 -0.4853  0.4600
 4289SOL    HW215823  -0.017   2.875   1.561  0.8881 -0.4269 -0.4430
 4290SOL     OW15824   4.645   6.738   6.434 -0.3216  0.0796  0.6003
 4290SOL    HW115825   4.692   6.662   6.401 -0.7960  0.1713 -0.3190
 4290SOL    HW215826   4.645   6.726   6.529 -0.1524 -0.9204  0.4907
 4291SOL     OW15827   5.003   0.420   4.739 -0.1494  0.1520  0.0763
 4291SOL    HW115828   4.922   0.371   4.725  1.2468 -1.5361 -3.4200
 4291SOL    HW215829   5.061   0.360   4.786 -0.0173  0.2503  0.0415
 4292SOL     OW15830   5.734   9.836   4.324  0.3306 -0.2785  0.5059
 4292SOL    HW115831   5.685   9.884   4.257  3.7223  0.4828 -1.6575
 4292SOL    HW215832   5.693   9.750   4.326 -1.4367  0.4670 -0.7245
 4293SOL     OW15833   3.049  10.493   7.652  0.4174 -0.2541 -0.1793
 4293SOL    HW115834   3.021  10.582   7.632  0.7299 -0.0146  0.4439
 4293SOL    HW215835   2.972  10.439   7.635  0.0814  0.1937 -0.0891
 4294SOL     OW15836   1.292   6.039   1.287 -0.9509 -0.3209 -0.3179
 4294SOL    HW115837   1.311   6.000   1.372  1.9421  2.8201  0.7037
 4294SOL    HW215838   1.230   6.110   1.307  0.3920  0.9746 -0.6217
 4295SOL     OW15839   7.371   8.310   0.925  0.1411  0.0793  0.3702
 4295SOL    HW115840   7.458   8.269   0.928  0.2078  0.1455 -0.4865
 4295SOL    HW215841   7.370   8.359   0.843  0.3204  2.3991  1.6621
 4296SOL     OW15842   2.670  10.172   2.471  0.1357  0.1536  0.1713
 4296SOL    HW115843   2.635  10.251   2.513  0.0900 -0.0476  0.5172
 4296SOL    HW215844   2.635  10.176   2.382  2.0367  1.7395 -0.5739
 4297SOL     OW15845   3.595   3.669   8.024  0.2551  0.2457 -0.1287
 4297SOL    HW115846   3.535   3.601   8.058 -0.2340 -0.2184 -1.8380
 4297SOL    HW215847   3.639   3.627   7.950  0.3116  1.6366 -0.9109
 4298SOL     OW15848   6.071   8.225   7.211  0.0265  0.1336 -0.5426
 4298SOL    HW115849   5.987   8.231   7.256  1.2202 -0.1287  1.8462
 4298SOL    HW215850   6.075   8.135   7.180 -0.8425  0.3385 -1.2957
 4299SOL     OW15851   1.354   9.538   3.790 -0.4295  0.0041  0.4651
 4299SOL    HW115852   1.309   9.456   3.769 -0.6833  0.2287  0.1267
 4299SOL    HW215853   1.444   9.524   3.762 -1.1889  1.0710 -2.9909
 4300SOL     OW15854   1.231   5.356   6.074 -0.7124  0.3568  0.5508
 4300SOL    HW115855   1.149   5.309   6.089  0.4759 -1.6185  1.1410
 4300SOL    HW215856   1.285   5.294   6.024  0.1692  1.9063 -0.4970
 4301SOL     OW15857   5.038   1.306   0.974  0.6664 -0.3106  0.5808
 4301SOL    HW115858   5.114   1.307   1.031  1.2349  0.2273 -0.1665
 4301SOL    HW215859   5.061   1.244   0.904  0.5517  0.0756  0.1932
 4302SOL     OW15860   3.371   6.710   9.280  0.4041  0.1804  0.5834
 4302SOL    HW115861   3.386   6.776   9.213  0.5766  0.7623  1.1848
 4302SOL    HW215862   3.328   6.758   9.352 -1.7958 -0.8482  0.0564
 4303SOL     OW15863   2.635   8.697   9.173 -0.3944 -0.6968  0.1211
 4303SOL    HW115864   2.627   8.674   9.265 -1.5172 -1.6472 -0.1813
 4303SOL    HW215865   2.599   8.621   9.126  0.5939 -0.4394 -1.1193
 4304SOL     OW15866   6.312   5.526   5.944 -0.2969 -0.3207 -0.5274
 4304SOL    HW115867   6.388   5.535   5.886 -0.1968 -0.7901 -0.4771
 4304SOL    HW215868   6.345   5.553   6.030 -0.0019 -1.1365 -0.3755
 4305SOL     OW15869   2.813   2.739   9.816  0.1495  0.7710 -0.1210
 4305SOL    HW115870   2.834   2.653   9.852 -0.1380  1.4281  1.7143
 4305SOL    HW215871   2.796   2.722   9.723  0.0832 -1.1495  0.1890
 4306SOL     OW15872   9.306   4.137   3.621 -0.3438 -0.6015 -0.2671
 4306SOL    HW115873   9.287   4.157   3.712  0.2177  2.1999 -0.6605
 4306SOL    HW215874   9.381   4.193   3.599 -0.7665 -0.8214 -2.5468
 4307SOL     OW15875   6.938   6.501   8.333 -0.1733 -0.0958  0.0221
 4307SOL    HW115876   6.952   6.523   8.425 -0.2469 -0.9380  0.2459
 4307SOL    HW215877   6.911   6.409   8.334 -1.1162  0.1455 -0.7612
 4308SOL     OW15878   8.715   1.396   0.938 -0.0248  0.1305  0.6566
 4308SOL    HW115879   8.625   1.409   0.908 -0.0044 -1.0677  0.0392
 4308SOL    HW215880   8.765   1.462   0.891 -0.5173  0.5579  0.7176
 4309SOL     OW15881   1.897   0.549   9.167 -0.1467 -0.0914  0.1640
 4309SOL    HW115882   1.945   0.565   9.248  0.1325 -2.2424  0.4891
 4309SOL    HW215883   1.807   0.531   9.195  0.0561 -1.3333  0.0860
 4310SOL     OW15884   5.508   4.500   9.924  0.3617 -0.2544 -0.4652
 4310SOL    HW115885   5.442   4.517   9.856  1.0595 -0.1985 -1.1471
 4310SOL    HW215886   5.565   4.432   9.886  0.8932 -0.0654 -0.0269
 4311SOL     OW15887   1.471   7.856   4.034 -0.3039 -0.7420 -0.1253
 4311SOL    HW115888   1.425   7.873   3.951 -1.8357 -0.2769  0.7913
 4311SOL    HW215889   1.405   7.868   4.101  0.3178 -3.3571  1.0709
 4312SOL     OW15890   4.069   0.733   4.326  0.0555 -0.1845 -0.5591
 4312SOL    HW115891   4.043   0.656   4.274 -1.9827  1.7645 -2.6309
 4312SOL    HW215892   3.991   0.757   4.375  0.7904  0.3873  0.3859
 4313SOL     OW15893   6.241   4.270   2.449 -0.1739  0.5783 -0.0062
 4313SOL    HW115894   6.156   4.230   2.429  1.1982 -1.3969 -2.7198
 4313SOL    HW215895   6.234   4.359   2.415 -1.2542  0.5459  0.0913
 4314SOL     OW15896   7.043   5.589   7.961 -0.4725 -0.0443 -0.1552
 4314SOL    HW115897   7.117   5.590   8.021 -1.0224  0.2627  0.5432
 4314SOL    HW215898   7.053   5.669   7.909 -1.4365  1.1484  1.3974
 4315SOL     OW15899   4.498   6.518   9.962 -0.0701  0.3838  0.1944
 4315SOL    HW115900   4.576   6.463   9.959  0.1460  0.5979  1.3460
 4315SOL    HW215901   4.431   6.467   9.916  0.2798 -0.5807  0.7340
 4316SOL     OW15902   7.659   7.998   9.585 -0.0947  0.2258  0.2673
 4316SOL    HW115903   7.636   8.070   9.526 -1.3673 -1.5322 -1.5275
 4316SOL    HW215904   7.578   7.979   9.632  0.5105  0.5932  1.4955
 4317SOL     OW15905   5.878  10.287   8.759  0.1503 -0.4067  0.2875
 4317SOL    HW115906   5.881  10.223   8.689  0.4160 -0.6905  0.5514
 4317SOL    HW215907   5.966  10.325   8.761 -0.3669  0.9116 -0.7223
 4318SOL     OW15908   9.750   4.324   1.461  0.2189 -0.2593 -0.1229
 4318SOL    HW115909   9.819   4.336   1.526  0.8887 -2.0960 -0.4390
 4318SOL    HW215910   9.719   4.413   1.442  1.5736  0.4899  1.0020
 4319SOL     OW15911   1.112   4.143   9.676 -0.2191  0.2027 -0.3682
 4319SOL    HW115912   1.100   4.078   9.746 -0.8152 -0.1095 -0.7498
 4319SOL    HW215913   1.185   4.197   9.706 -0.5317  0.1391  0.5433
 4320SOL     OW15914   2.465   6.498  10.626 -0.0023  0.3827  0.1563
 4320SOL    HW115915   2.539   6.556  10.611  1.4830 -1.1652  1.1446
 4320SOL    HW215916   2.431   6.524  10.712  1.6701 -1.1295  1.3582
 4321SOL     OW15917   1.154   9.111   0.729  0.1083  0.0090  0.4245
 4321SOL    HW115918   1.085   9.097   0.794  0.3311  1.1746  0.9426
 4321SOL    HW215919   1.111   9.158   0.658  0.3980  0.9565  0.8570
 4322SOL     OW15920   1.447   1.010  10.114 -0.6159  0.4939  0.0839
 4322SOL    HW115921   1.473   0.965  10.194  1.1515  1.2763 -0.0090
 4322SOL    HW215922   1.423   1.098  10.143 -1.7111  0.2637 -0.0538
 4323SOL     OW15923   0.701   1.330   8.023 -0.3209 -0.4227 -0.2300
 4323SOL    HW115924   0.710   1.329   8.118 -0.0981  0.8430 -0.2219
 4323SOL    HW215925   0.786   1.302   7.990 -0.8060 -2.2002 -0.0730
 4324SOL     OW15926   1.675   4.152   5.805  0.3190 -0.0384 -0.5048
 4324SOL    HW115927   1.720   4.184   5.727 -1.0301  0.9526 -0.9155
 4324SOL    HW215928   1.586   4.133   5.775 -0.1071 -0.0405  0.7061
 4325SOL     OW15929   2.242   9.448   6.332 -0.0730  0.0602 -0.3332
 4325SOL    HW115930   2.252   9.512   6.262 -0.6000  0.1149 -0.3667
 4325SOL    HW215931   2.163   9.399   6.308 -1.1362  1.0534  0.9710
 4326SOL     OW15932   1.438   4.889   9.140  0.0361 -0.2061  0.6182
 4326SOL    HW115933   1.532   4.875   9.149  0.3500  1.3163 -0.0504
 4326SOL    HW215934   1.401   4.800   9.137  1.1964 -0.8501  2.8963
 4327SOL     OW15935   1.634   7.007   3.284 -0.1895  0.3871 -0.3127
 4327SOL    HW115936   1.643   7.038   3.194 -1.1496 -0.4989 -0.7361
 4327SOL    HW215937   1.662   6.916   3.282 -2.8628 -0.5261 -0.3706
 4328SOL     OW15938   7.741   2.822   6.580  0.9694 -0.2336 -0.6043
 4328SOL    HW115939   7.801   2.872   6.525  1.0525  0.4202  0.0658
 4328SOL    HW215940   7.658   2.869   6.575  1.6534  1.4116  1.9187
 4329SOL     OW15941   8.544   5.224   7.597 -0.0609 -0.3313  0.4182
 4329SOL    HW115942   8.605   5.153   7.612 -0.6068 -1.2532 -1.3927
 4329SOL    HW215943   8.585   5.277   7.528  0.7405  1.6819  2.2963
 4330SOL     OW15944   3.615   5.008   0.945  0.2624  0.3443 -0.0392
 4330SOL    HW115945   3.524   4.980   0.954  0.4096 -0.2438 -0.3255
 4330SOL    HW215946   3.631   5.007   0.851  0.9127 -0.7452  0.0608
 4331SOL     OW15947   7.645   7.427   5.983  0.1318 -0.1939  0.1752
 4331SOL    HW115948   7.621   7.335   5.972  1.2488 -0.4998  0.1834
 4331SOL    HW215949   7.691   7.430   6.066  1.6569  0.0337 -0.6553
 4332SOL     OW15950  10.491   2.308   3.616 -0.4107 -0.2872 -0.2909
 4332SOL    HW115951  10.401   2.288   3.589 -0.5214 -1.3100  0.7465
 4332SOL    HW215952  10.481   2.348   3.703  0.1379 -0.4534 -0.1466
 4333SOL     OW15953   5.764   9.121   5.522  0.1139  0.2352 -0.1931
 4333SOL    HW115954   5.777   9.032   5.487 -2.2741 -0.8752  1.4876
 4333SOL    HW215955   5.839   9.134   5.581 -0.5586 -1.6084  1.1874
 4334SOL     OW15956   8.559  10.028   7.999  0.5760 -0.3592  0.6003
 4334SOL    HW115957   8.516  10.069   8.075  0.4223 -0.1344  0.3931
 4334SOL    HW215958   8.490  10.023   7.933  0.6729 -0.6889  0.5247
 4335SOL     OW15959   5.899   7.845   4.733 -0.4080 -0.1720  0.7501
 4335SOL    HW115960   5.908   7.909   4.804 -1.8813  0.3172  0.5298
 4335SOL    HW215961   5.878   7.763   4.777  0.4883 -0.2982  0.9691
 4336SOL     OW15962   8.442   0.536   3.978 -0.0339 -0.0937  0.2234
 4336SOL    HW115963   8.472   0.574   3.895  0.2430  0.0016  0.3641
 4336SOL    HW215964   8.523   0.524   4.029 -0.3190  1.1442  1.0284
 4337SOL     OW15965   0.962   2.474   7.321 -0.0651 -0.2333  0.0803
 4337SOL    HW115966   1.032   2.439   7.267 -0.4125 -0.4269 -0.2489
 4337SOL    HW215967   1.001   2.483   7.408  0.1832 -0.9295  0.0420
 4338SOL     OW15968   3.979  10.413   4.270  0.3712  0.2918 -0.1982
 4338SOL    HW115969   3.914  10.467   4.314  0.2100  0.4498 -0.6187
 4338SOL    HW215970   3.956  10.420   4.177 -1.1809 -2.4937 -0.1229
 4339SOL     OW15971   1.523   8.018   9.912  0.0733  0.5174 -0.2364
 4339SOL    HW115972   1.489   8.051   9.829 -0.2984 -0.3134 -0.4176
 4339SOL    HW215973   1.611   8.056   9.918 -0.2791  1.4019 -0.5155
 4340SOL     OW15974   5.930   4.260   5.305 -0.2791  0.5642  0.0068
 4340SOL    HW115975   5.996   4.314   5.348  1.4034 -2.0547  0.9150
 4340SOL    HW215976   5.862   4.247   5.372 -1.5663  2.8025 -0.7537
 4341SOL     OW15977   1.020   5.373   3.865  0.6655  0.2346  0.2935
 4341SOL    HW115978   1.019   5.425   3.785  0.3249  1.0267  0.8052
 4341SOL    HW215979   1.108   5.386   3.901  1.3404 -1.2977 -0.6851
 4342SOL     OW15980   9.382   5.833   0.122 -0.1740  0.2394 -0.8588
 4342SOL    HW115981   9.369   5.766   0.190  0.2709  0.8691 -0.1342
 4342SOL    HW215982   9.295   5.844   0.083 -0.5345  0.1483 -0.1152
 4343SOL     OW15983   4.363   5.624   7.248 -0.2801  0.1388 -0.6690
 4343SOL    HW115984   4.356   5.544   7.196 -0.0777  1.0225 -2.1105
 4343SOL    HW215985   4.301   5.611   7.320 -3.1774  0.1905 -2.9392
 4344SOL     OW15986   9.694   6.220   2.460  0.3469  0.2995 -0.4640
 4344SOL    HW115987   9.704   6.204   2.554  0.7103  0.3087 -0.4965
 4344SOL    HW215988   9.784   6.220   2.427  0.3762  2.1427 -0.5044
 4345SOL     OW15989   9.262  10.654   6.211 -0.7425 -0.6181 -0.1135
 4345SOL    HW115990   9.218  10.572   6.189  0.6473 -1.4281  0.0442
 4345SOL    HW215991   9.351  10.629   6.232 -0.3961  0.8962  0.3519
 4346SOL     OW15992   7.618   3.978   5.159 -0.4656 -0.1938 -0.1574
 4346SOL    HW115993   7.672   3.924   5.216  0.0695  0.2802 -0.2068
 4346SOL    HW215994   7.578   4.043   5.217 -1.0894 -0.6222 -0.1017
 4347SOL     OW15995   1.650   1.882   9.980  0.1717  0.2108  0.0467
 4347SOL    HW115996   1.608   1.954   9.933 -0.4123 -0.1222  0.0398
 4347SOL    HW215997   1.609   1.883  10.066  1.1770  0.7658  0.5287
 4348SOL     OW15998   2.822   3.980   4.757  0.5155  0.4657  0.3585
 4348SOL    HW115999   2.871   4.062   4.745  0.0793  0.5768 -0.7607
 4348SOL    HW216000   2.731   4.004   4.741  0.4920 -0.4198 -0.9835
 4349SOL     OW16001   0.111   1.673   7.804  0.2056  0.5042  0.3275
 4349SOL    HW116002   0.070   1.588   7.789  4.5047 -1.4408 -2.3142
 4349SOL    HW216003   0.127   1.675   7.899  0.0245 -1.6638  0.4545
 4350SOL     OW16004   0.446   5.122   6.594  0.1651 -0.1199  0.7684
 4350SOL    HW116005   0.424   5.178   6.519 -0.2929  2.2149  2.5527
 4350SOL    HW216006   0.522   5.072   6.564  1.1444  2.0599 -0.6821
 4351SOL     OW16007   5.363   9.790   2.832  0.9981  0.1589  0.6696
 4351SOL    HW116008   5.418   9.712   2.824  1.2716  0.0107  3.1843
 4351SOL    HW216009   5.273   9.756   2.837  1.0822  0.0334  1.3457
 4352SOL     OW16010   8.339   1.822   1.425 -0.1312  0.1055  0.0650
 4352SOL    HW116011   8.378   1.735   1.437 -1.9639 -0.6626  0.7102
 4352SOL    HW216012   8.250   1.805   1.395  0.0278  1.8207 -1.6239
 4353SOL     OW16013   3.916   3.438  10.227 -0.4863 -0.1065 -0.1030
 4353SOL    HW116014   3.978   3.495  10.181  0.5266  1.2332  2.6901
 4353SOL    HW216015   3.846   3.497  10.255 -1.5428 -1.0635 -0.6145
 4354SOL     OW16016   0.757   3.160   2.673  0.4478  0.1274 -0.5121
 4354SOL    HW116017   0.744   3.117   2.589 -0.6333  1.1144 -0.8711
 4354SOL    HW216018   0.673   3.201   2.693  0.6989 -0.0416  1.0312
 4355SOL     OW16019   0.366   8.188   4.682  0.3113 -0.3314  0.1723
 4355SOL    HW116020   0.431   8.208   4.749  0.8737 -1.7563  0.0816
 4355SOL    HW216021   0.282   8.194   4.728  0.6142 -0.2244  0.7277
 4356SOL     OW16022   8.690   2.123   1.887 -0.4169 -0.5784  0.3869
 4356SOL    HW116023   8.698   2.029   1.875  0.0654 -0.2624 -2.2400
 4356SOL    HW216024   8.595   2.139   1.889 -0.5061 -1.0539  0.1228
 4357SOL     OW16025   7.168   9.127   1.332  0.2927  0.0642  0.4432
 4357SOL    HW116026   7.138   9.219   1.335  0.3916  0.0731  1.3594
 4357SOL    HW216027   7.148   9.099   1.242  0.0475  0.9097  0.2182
 4358SOL     OW16028   3.836   9.309   0.341 -0.2995 -0.5406 -0.0471
 4358SOL    HW116029   3.780   9.254   0.286 -0.2492 -0.8194  0.1825
 4358SOL    HW216030   3.908   9.334   0.283 -1.4605  1.1379 -0.8446
 4359SOL     OW16031   1.969   3.053   7.879  0.0458 -0.3743  0.1268
 4359SOL    HW116032   1.993   2.964   7.906  1.4824  0.3675  1.4745
 4359SOL    HW216033   2.051   3.091   7.847 -0.7910  0.1280 -1.5204
 4360SOL     OW16034   2.398  10.691   5.863 -0.0880 -0.2205 -0.5147
 4360SOL    HW116035   2.384  10.643   5.945 -1.4449 -1.5597 -1.4723
 4360SOL    HW216036   2.362  10.778   5.879  0.3804 -0.1998  0.5362
 4361SOL     OW16037   2.453   0.917   7.388 -0.4192  0.8196 -0.0469
 4361SOL    HW116038   2.499   0.925   7.471 -1.6225  1.3283  0.5999
 4361SOL    HW216039   2.497   0.845   7.343  0.5848  0.8839  0.8013
 4362SOL     OW16040   2.624   9.353   4.906 -0.3773 -0.1111 -0.6404
 4362SOL    HW116041   2.655   9.419   4.969  0.9105 -0.8058 -0.5036
 4362SOL    HW216042   2.598   9.279   4.961 -2.0710  0.3538 -0.7775
 4363SOL     OW16043   1.239   2.901   1.328 -0.1039 -0.4381 -0.4330
 4363SOL    HW116044   1.210   2.837   1.392 -0.3028  1.1685  1.1565
 4363SOL    HW216045   1.180   2.975   1.339 -0.1909 -0.1308 -2.5616
 4364SOL     OW16046   8.885   7.390   2.832  0.1160  0.2616  0.7274
 4364SOL    HW116047   8.832   7.325   2.787  1.0495  1.0481 -1.6755
 4364SOL    HW216048   8.968   7.347   2.849 -0.1884  0.0087  1.6542
 4365SOL     OW16049   8.553   5.979   6.274  0.3186  0.1991  0.3861
 4365SOL    HW116050   8.512   6.038   6.211 -1.5590 -0.3934  0.9867
 4365SOL    HW216051   8.515   5.894   6.256  0.4238 -0.1559  1.7276
 4366SOL     OW16052   8.849   9.866   4.033  0.0254 -0.5333  0.0688
 4366SOL    HW116053   8.887   9.824   4.110  0.7159 -0.6201 -0.3157
 4366SOL    HW216054   8.762   9.893   4.062  0.3560 -0.3625  0.9485
 4367SOL     OW16055   4.234   1.920   3.501 -0.2640  0.1301  0.6467
 4367SOL    HW116056   4.214   1.945   3.591 -1.9624 -0.9428  0.6317
 4367SOL    HW216057   4.216   1.998   3.450 -1.1444  0.2162  1.0592
 4368SOL     OW16058   0.113   2.184   0.269 -0.2985 -0.1214 -0.0781
 4368SOL    HW116059   0.108   2.199   0.175 -0.9773 -0.4483 -0.1013
 4368SOL    HW216060   0.131   2.090   0.278  3.2044  0.4193  0.0796
 4369SOL     OW16061   6.076   2.217   4.565 -0.4622  0.0191 -0.0427
 4369SOL    HW116062   6.170   2.211   4.548 -0.2653 -0.5824  1.1052
 4369SOL    HW216063   6.058   2.311   4.574  0.2123  0.0870  0.6396
 4370SOL     OW16064   9.723   2.507   7.078  0.0631 -0.3208  0.1486
 4370SOL    HW116065   9.781   2.552   7.139 -0.9388  1.1533  0.0809
 4370SOL    HW216066   9.762   2.421   7.066  0.3619 -0.6306  2.7768
 4371SOL     OW16067   1.931   4.358   6.239 -0.0472  0.4826  0.0387
 4371SOL    HW116068   1.997   4.292   6.219 -1.2074 -0.8102  0.3389
 4371SOL    HW216069   1.976   4.442   6.225  0.8284 -0.3303 -2.4423
 4372SOL     OW16070   7.628   3.598   9.884 -0.0867  0.0809  0.0336
 4372SOL    HW116071   7.556   3.596   9.821  0.8450 -0.7245 -1.0406
 4372SOL    HW216072   7.586   3.610   9.969 -1.5152 -0.7932 -0.5261
 4373SOL     OW16073   0.056   9.685   4.853  0.2298 -0.5781 -0.4500
 4373SOL    HW116074   0.006   9.732   4.787  1.8469  2.0076  0.0074
 4373SOL    HW216075  -0.010   9.638   4.904 -2.0091  3.4216  0.7829
 4374SOL     OW16076   2.840   8.291   0.282 -0.0433 -0.2730  0.3328
 4374SOL    HW116077   2.753   8.258   0.260 -1.0595  1.9517  0.7231
 4374SOL    HW216078   2.900   8.221   0.256 -1.8175 -1.2454 -1.3817
 4375SOL     OW16079   7.105   7.226   3.768 -0.0595  0.4882  0.4147
 4375SOL    HW116080   7.162   7.298   3.795  1.3223 -0.6567  0.7027
 4375SOL    HW216081   7.165   7.159   3.735 -1.3074 -0.4906  0.0364
 4376SOL     OW16082   8.473   5.751   6.044 -0.1256  0.4941  0.1395
 4376SOL    HW116083   8.530   5.808   5.992 -1.4574  2.2796  0.5356
 4376SOL    HW216084   8.456   5.676   5.987  0.6076  1.1257 -0.9514
 4377SOL     OW16085   6.874   3.786   3.906 -0.3972 -0.4698  0.6596
 4377SOL    HW116086   6.884   3.693   3.887 -1.4957 -0.9699  2.3307
 4377SOL    HW216087   6.890   3.794   4.000 -0.0659  1.0837  0.5014
 4378SOL     OW16088   2.049   0.431   1.733 -0.0769  0.4022  0.1824
 4378SOL    HW116089   1.976   0.380   1.698  0.4325  0.4784 -1.0519
 4378SOL    HW216090   2.117   0.367   1.752 -0.1857  0.4115  0.6120
 4379SOL     OW16091   3.393   4.242   4.539  0.0801  0.6439  0.3073
 4379SOL    HW116092   3.304   4.275   4.550 -0.8884 -1.2044 -1.3125
 4379SOL    HW216093   3.424   4.226   4.629 -1.3260  1.0265  0.8813
 4380SOL     OW16094   0.346   4.348   9.037 -0.3557  0.1410 -0.0206
 4380SOL    HW116095   0.251   4.344   9.039 -0.4132 -1.8898 -2.4332
 4380SOL    HW216096   0.374   4.281   9.100 -0.5791 -0.3807 -0.4648
 4381SOL     OW16097  10.117   1.292   3.306 -0.0933  0.2011 -0.4760
 4381SOL    HW116098  10.118   1.206   3.348 -1.3384 -0.5167 -1.8440
 4381SOL    HW216099  10.176   1.346   3.360  2.0971 -1.9389 -0.5875
 4382SOL     OW16100   1.722   1.523   5.461 -0.2269 -0.4437  0.1638
 4382SOL    HW116101   1.682   1.559   5.381  0.3999  1.6233  0.7234
 4382SOL    HW216102   1.678   1.569   5.532 -0.5177 -2.0026  1.0149
 4383SOL     OW16103   8.742   2.982   9.851  0.2098  0.0855  0.4348
 4383SOL    HW116104   8.813   3.003   9.791 -1.5491  1.1766 -1.3467
 4383SOL    HW216105   8.675   2.940   9.797 -1.9686  2.2166  1.3060
 4384SOL     OW16106   4.750   7.979   3.565  0.5182 -0.0071  0.2433
 4384SOL    HW116107   4.807   7.919   3.613  0.1419  1.2814  2.4232
 4384SOL    HW216108   4.809   8.048   3.532  0.5989 -0.2079 -0.0370
 4385SOL     OW16109   8.123   3.288   3.151  0.0092  0.2130 -0.0644
 4385SOL    HW116110   8.140   3.382   3.164 -0.1028  0.2504 -0.1865
 4385SOL    HW216111   8.142   3.249   3.236  1.8938  0.0852 -0.4953
 4386SOL     OW16112   6.105   8.121   3.391  0.5280  0.2132  0.2916
 4386SOL    HW116113   6.091   8.026   3.390 -0.8277  0.3405  2.2019
 4386SOL    HW216114   6.200   8.131   3.386  0.6759 -1.2139 -0.3600
 4387SOL     OW16115   0.618   7.248   7.203  0.0963 -0.4218  0.0871
 4387SOL    HW116116   0.690   7.303   7.175 -0.9191  0.2903 -1.2052
 4387SOL    HW216117   0.556   7.249   7.130 -0.4071 -2.4849  0.4095
 4388SOL     OW16118   5.435   9.333   3.025  0.0546  0.2258 -0.3208
 4388SOL    HW116119   5.410   9.270   2.956 -0.9253  1.7444 -1.4346
 4388SOL    HW216120   5.519   9.368   2.996  1.3154 -1.5017  1.0237
 4389SOL     OW16121   3.792   2.640   7.876 -0.8205 -0.4767  0.1766
 4389SOL    HW116122   3.867   2.693   7.850 -1.7729  1.1074  0.5650
 4389SOL    HW216123   3.796   2.563   7.819  0.4370  0.1145 -0.5726
 4390SOL     OW16124   5.338   7.440   1.839 -0.5667  0.1263  0.0515
 4390SOL    HW116125   5.341   7.509   1.906  0.0048 -0.8077  1.0074
 4390SOL    HW216126   5.246   7.414   1.836 -0.4545 -0.4161  1.0942
 4391SOL     OW16127   6.396   0.316   9.132  0.5326  0.2419  0.1529
 4391SOL    HW116128   6.394   0.240   9.190  0.7473  0.1518  0.0412
 4391SOL    HW216129   6.426   0.281   9.048  0.6089  0.4462  0.0951
 4392SOL     OW16130   8.830   5.880   0.060  0.3187  0.4122 -0.0052
 4392SOL    HW116131   8.844   5.796   0.103 -3.2969 -0.9286 -1.0641
 4392SOL    HW216132   8.878   5.874  -0.023 -0.9381 -1.2192 -0.6607
 4393SOL     OW16133   4.855   0.681   8.674 -0.1915  0.3084  0.2347
 4393SOL    HW116134   4.840   0.751   8.737  0.7242  0.2799  0.4864
 4393SOL    HW216135   4.944   0.695   8.643 -0.6734  0.4240 -1.1889
 4394SOL     OW16136   6.401   0.062   1.876  0.3616  0.2660 -0.1789
 4394SOL    HW116137   6.413   0.085   1.784  1.9399  0.2848  0.0140
 4394SOL    HW216138   6.454   0.126   1.924 -1.4383  1.0615  0.8482
 4395SOL     OW16139   3.106   3.148   5.211 -0.2400  0.7533  0.5330
 4395SOL    HW116140   3.135   3.128   5.300  0.2827 -0.1560  0.1775
 4395SOL    HW216141   3.172   3.209   5.177 -0.7325  1.5287  0.9374
 4396SOL     OW16142   3.822   0.793   2.707  0.6043 -0.3969  0.2352
 4396SOL    HW116143   3.736   0.834   2.707  0.6828 -0.2335 -0.2302
 4396SOL    HW216144   3.873   0.845   2.770  0.5140 -0.1814  0.1312
 4397SOL     OW16145   1.135   4.331   7.489  0.7134 -0.0368 -0.0943
 4397SOL    HW116146   1.066   4.352   7.427 -0.7596  1.4807  1.9600
 4397SOL    HW216147   1.103   4.254   7.536  0.6519  0.3587  0.5143
 4398SOL     OW16148   0.038   5.134   6.066  0.1731  0.2170  0.2258
 4398SOL    HW116149  -0.004   5.191   6.130  1.7328 -0.7401  2.2315
 4398SOL    HW216150   0.020   5.045   6.097  2.4205 -0.2390  0.4093
 4399SOL     OW16151   5.779   4.849   8.044 -0.0137  0.4132 -0.2139
 4399SOL    HW116152   5.730   4.775   8.079 -0.1727  0.9196  0.6711
 4399SOL    HW216153   5.867   4.838   8.080 -0.2113  1.0050  0.4875
 4400SOL     OW16154   6.613   0.466   9.946  0.0910 -0.3561  0.0163
 4400SOL    HW116155   6.575   0.495   9.863 -0.1121  1.3419  0.6558
 4400SOL    HW216156   6.608   0.370   9.942  0.6965 -0.3665 -2.1930
 4401SOL     OW16157   8.022   3.416   1.247  0.1648 -0.1800  0.0181
 4401SOL    HW116158   8.096   3.442   1.301 -0.5320 -0.0460  0.9437
 4401SOL    HW216159   8.042   3.449   1.160  2.0581 -1.7795 -0.2188
 4402SOL     OW16160   5.671   2.803   0.905  0.5657  0.1157 -0.0889
 4402SOL    HW116161   5.749   2.748   0.915  0.4288 -0.3940 -1.6484
 4402SOL    HW216162   5.627   2.768   0.828 -1.4096  0.1800  0.9577
 4403SOL     OW16163   9.426   2.055   8.806 -0.0994 -0.2147  0.1582
 4403SOL    HW116164   9.469   1.974   8.830 -1.8303 -0.7831  1.5708
 4403SOL    HW216165   9.334   2.042   8.829 -1.0117  1.0898 -2.2824
 4404SOL     OW16166   3.591   4.543   3.329  0.2466 -0.0332 -0.2311
 4404SOL    HW116167   3.647   4.557   3.405 -1.1161  1.4558  0.5760
 4404SOL    HW216168   3.525   4.480   3.359 -1.0719  1.5354  0.3240
 4405SOL     OW16169   5.832   8.689   6.443  0.1252  0.2094  0.1408
 4405SOL    HW116170   5.781   8.617   6.481  0.1151  0.1439  0.0033
 4405SOL    HW216171   5.769   8.739   6.392  0.2669 -0.0836 -0.3319
 4406SOL     OW16172   6.757   5.648   2.984 -0.5741  0.2338 -0.4592
 4406SOL    HW116173   6.843   5.607   2.997  0.0598  1.7080  0.2126
 4406SOL    HW216174   6.763   5.692   2.900 -0.3565  1.0629 -0.0184
 4407SOL     OW16175   3.892   6.548   4.987 -0.8014 -0.0186  0.1788
 4407SOL    HW116176   3.981   6.517   5.001  0.1790  2.3843 -0.3390
 4407SOL    HW216177   3.847   6.527   5.069 -0.2434 -2.5774 -0.0805
 4408SOL     OW16178   6.915   5.196   7.140 -0.2000 -0.1211 -0.1472
 4408SOL    HW116179   6.888   5.262   7.203  0.5993  0.2202 -0.1608
 4408SOL    HW216180   6.926   5.116   7.192 -1.4320 -0.3232 -0.1759
 4409SOL     OW16181   4.535   4.260   0.492 -0.9168  0.5372  0.3129
 4409SOL    HW116182   4.481   4.269   0.413 -0.1059 -1.0470 -0.4846
 4409SOL    HW216183   4.603   4.197   0.467  1.7687  2.9476  1.0343
 4410SOL     OW16184   6.224   9.898   2.513  0.3075  0.0921 -0.1450
 4410SOL    HW116185   6.301   9.898   2.456  0.0125  0.1577 -0.5472
 4410SOL    HW216186   6.247   9.836   2.583  1.1090  0.8378  0.2765
 4411SOL     OW16187   3.026   3.309   7.566 -0.3810  0.1091 -0.2061
 4411SOL    HW116188   2.987   3.378   7.619  1.7012  1.6799 -0.6285
 4411SOL    HW216189   3.075   3.354   7.498  1.7767 -1.7348  0.0020
 4412SOL     OW16190   7.003   0.572   2.389 -0.1789 -0.1654 -0.6895
 4412SOL    HW116191   6.924   0.626   2.383  0.5927  0.8841 -1.9423
 4412SOL    HW216192   7.015   0.558   2.483 -0.7030  1.4519 -0.3445
 4413SOL     OW16193   2.730   4.504  10.221  0.2774 -0.4159  0.9865
 4413SOL    HW116194   2.807   4.558  10.238 -0.9377  0.6949  3.4558
 4413SOL    HW216195   2.713   4.515  10.128  1.9385  0.8777  0.7945
 4414SOL     OW16196   7.610   0.910   3.442  0.3714  0.1113  0.2072
 4414SOL    HW116197   7.694   0.869   3.462  0.4980  0.7470  1.0144
 4414SOL    HW216198   7.555   0.890   3.518 -0.4293 -0.8510 -0.5964
 4415SOL     OW16199   2.339   8.301   5.646  0.5151  0.0240 -0.3476
 4415SOL    HW116200   2.430   8.273   5.653  0.9688  1.0710 -1.6317
 4415SOL    HW216201   2.334   8.347   5.562 -1.2891 -0.3235 -0.4732
 4416SOL     OW16202   1.470   4.051   3.782 -0.0777  0.3093  0.5588
 4416SOL    HW116203   1.557   4.086   3.801  0.3091  0.8482 -1.8017
 4416SOL    HW216204   1.409   4.122   3.803  0.0155 -0.0701  2.2208
 4417SOL     OW16205   1.413   4.851   8.410  0.6517  0.0932 -0.4687
 4417SOL    HW116206   1.408   4.767   8.455  0.2336  0.4256  0.1125
 4417SOL    HW216207   1.489   4.894   8.449  1.5365 -0.4430 -1.5333
 4418SOL     OW16208   2.641   3.413  10.676 -0.0807 -0.3097  0.1036
 4418SOL    HW116209   2.671   3.461  10.754 -1.1787 -0.4528  0.6332
 4418SOL    HW216210   2.666   3.322  10.694  1.4877 -0.0618 -0.6441
 4419SOL     OW16211   0.393   3.283  10.049  0.1012  0.6910 -0.2314
 4419SOL    HW116212   0.475   3.329  10.067  0.2695  0.2336  0.2001
 4419SOL    HW216213   0.338   3.347  10.003  1.1105  0.6509 -1.5557
 4420SOL     OW16214   6.550   4.802   8.343 -0.3313  0.4595  0.1380
 4420SOL    HW116215   6.525   4.771   8.430 -0.9615 -0.1496 -0.2569
 4420SOL    HW216216   6.622   4.863   8.360 -0.0847 -0.0619  1.0406
 4421SOL     OW16217   1.047   8.003   8.931 -0.0703  0.4181 -0.3847
 4421SOL    HW116218   0.964   8.050   8.934 -0.6672 -0.5697 -0.9768
 4421SOL    HW216219   1.096   8.036   9.007 -0.6946  1.5453 -0.4496
 4422SOL     OW16220   5.539   1.699   4.440  0.0096 -0.2078  0.3326
 4422SOL    HW116221   5.554   1.617   4.486 -0.6938  0.6830  2.2255
 4422SOL    HW216222   5.565   1.681   4.349  0.3977 -2.3280  0.8298
 4423SOL     OW16223   2.615   9.623   7.513 -0.2021  0.1778  0.4259
 4423SOL    HW116224   2.684   9.576   7.464 -0.9336 -0.7017  0.2067
 4423SOL    HW216225   2.598   9.701   7.462 -0.6997 -0.5534 -0.5525
 4424SOL     OW16226   1.416   8.281   8.305  0.1632 -0.6009  0.5176
 4424SOL    HW116227   1.339   8.230   8.326 -0.2066 -0.0287  0.5651
 4424SOL    HW216228   1.384   8.370   8.292  1.0357  0.0257  2.2674
 4425SOL     OW16229   0.055   4.720   9.282  0.1044 -0.2785  0.5218
 4425SOL    HW116230   0.070   4.807   9.317 -0.9763 -0.7191  2.1732
 4425SOL    HW216231   0.055   4.663   9.359 -3.8146 -1.1114  0.0877
 4426SOL     OW16232   2.249   0.978   3.733 -0.3553  0.0172 -0.3863
 4426SOL    HW116233   2.334   1.022   3.729 -1.0708  1.6502  0.8928
 4426SOL    HW216234   2.258   0.917   3.806  0.0954 -0.6977 -1.0357
 4427SOL     OW16235  10.409   7.281   1.958 -0.3068 -0.2882  0.4103
 4427SOL    HW116236  10.429   7.300   1.867  1.4013 -0.8735  0.6259
 4427SOL    HW216237  10.495   7.279   2.001 -1.0996  0.2578  2.0856
 4428SOL     OW16238   4.284   6.097   2.672  0.3159 -0.4361 -0.0004
 4428SOL    HW116239   4.231   6.019   2.689 -0.1962 -0.1168 -0.0965
 4428SOL    HW216240   4.223   6.170   2.681  0.9826  0.0258  1.0050
 4429SOL     OW16241   2.784   6.259  10.506 -0.0022 -0.6691  0.3102
 4429SOL    HW116242   2.712   6.303  10.550  1.4214  2.3673 -0.1142
 4429SOL    HW216243   2.836   6.221  10.577  0.4715  1.2581  1.0538
 4430SOL     OW16244   7.088  10.183   2.234 -0.4083  0.4494 -0.5511
 4430SOL    HW116245   7.092  10.269   2.276 -2.7663 -0.8414  2.8429
 4430SOL    HW216246   7.179  10.153   2.232  0.2171  2.1329  0.2936
 4431SOL     OW16247   5.540   2.968   7.259 -0.4748  0.2674 -0.3509
 4431SOL    HW116248   5.625   3.004   7.286 -0.1749 -1.5794  1.3439
 4431SOL    HW216249   5.482   2.987   7.333 -0.2986 -2.5840  0.6165
 4432SOL     OW16250   1.669   0.141   4.427  0.1808  0.2537  0.2565
 4432SOL    HW116251   1.763   0.158   4.428  0.3649 -0.7352  0.9894
 4432SOL    HW216252   1.642   0.146   4.518 -0.1955 -0.9111  0.2206
 4433SOL     OW16253   5.852   3.792   9.505 -0.4469  0.2772  0.0301
 4433SOL    HW116254   5.855   3.759   9.595  0.9689  1.9034  0.6438
 4433SOL    HW216255   5.943   3.789   9.476 -0.6834  1.0439 -0.8446
 4434SOL     OW16256   8.777   7.704   1.120 -0.0675  0.4370  0.3013
 4434SOL    HW116257   8.821   7.641   1.063  1.6153 -1.1242  3.0895
 4434SOL    HW216258   8.848   7.750   1.164 -1.0709 -1.0276  3.7865
 4435SOL     OW16259   5.495  10.550   6.221 -0.1084  0.6867  0.3679
 4435SOL    HW116260   5.573  10.515   6.178  0.8838  2.7116  0.3822
 4435SOL    HW216261   5.492  10.642   6.195 -2.7330  0.6020  0.0879
 4436SOL     OW16262   4.157   6.000   6.017  0.1477 -0.3445 -0.2003
 4436SOL    HW116263   4.240   6.010   6.064  0.0859 -1.9303  0.3273
 4436SOL    HW216264   4.120   6.088   6.014  1.5072  0.2689  0.1873
 4437SOL     OW16265   7.395   8.046   5.844 -0.4416  0.3514 -0.0261
 4437SOL    HW116266   7.340   7.973   5.815 -0.1825 -0.3120  1.1179
 4437SOL    HW216267   7.473   8.040   5.789 -1.6853  1.6393 -2.0692
 4438SOL     OW16268   4.902   2.088   5.827  0.0471  0.7629  0.0133
 4438SOL    HW116269   4.852   2.133   5.895 -0.8884 -1.8571  1.2177
 4438SOL    HW216270   4.840   2.073   5.756 -0.0088  0.3856  0.1334
 4439SOL     OW16271   4.240   8.389   5.439  0.2132  0.1186 -0.3188
 4439SOL    HW116272   4.321   8.338   5.434 -0.0772 -0.3627 -0.1659
 4439SOL    HW216273   4.189   8.361   5.363 -0.5576 -0.8927  0.5402
 4440SOL     OW16274   2.431   2.538   2.111  0.4626 -0.0522  0.0300
 4440SOL    HW116275   2.503   2.513   2.053  0.7983 -0.0152  0.4267
 4440SOL    HW216276   2.380   2.457   2.122 -0.0745  0.1360 -0.9683
 4441SOL     OW16277   6.722   7.362   6.447 -0.4891 -0.6898  0.2091
 4441SOL    HW116278   6.767   7.447   6.453 -0.8027 -0.5580  0.7745
 4441SOL    HW216279   6.792   7.301   6.422 -0.5165 -0.0672 -1.5100
 4442SOL     OW16280   8.594   1.632   1.235 -0.4668  0.6900 -0.6268
 4442SOL    HW116281   8.550   1.574   1.173  1.9165  0.4934 -2.2405
 4442SOL    HW216282   8.606   1.578   1.314 -1.8237  0.3256 -0.6438
 4443SOL     OW16283   6.356   8.270   7.173 -0.5294  0.5967  0.2338
 4443SOL    HW116284   6.370   8.358   7.139 -0.3467  0.3802 -0.2534
 4443SOL    HW216285   6.261   8.259   7.171 -0.5467  0.7445  0.2064
 4444SOL     OW16286   8.695   7.132   5.032 -0.1712 -0.1825  0.1953
 4444SOL    HW116287   8.783   7.095   5.028 -0.8915 -1.9741 -0.0738
 4444SOL    HW216288   8.667   7.120   5.122 -0.8169 -1.3865 -0.1351
 4445SOL     OW16289   7.984   1.438   9.760  0.3051  1.3610 -0.1952
 4445SOL    HW116290   7.924   1.513   9.753  0.4924  1.4574 -0.7982
 4445SOL    HW216291   8.050   1.454   9.693 -0.0163  0.3271 -0.7794
 4446SOL     OW16292   2.828   7.663   1.210  1.1614  0.0082  0.4867
 4446SOL    HW116293   2.780   7.741   1.183  1.5123  0.0658  0.0138
 4446SOL    HW216294   2.810   7.599   1.142 -0.8889 -1.0719  1.9598
 4447SOL     OW16295   2.982   7.351   5.697  0.4813  0.2970 -0.2326
 4447SOL    HW116296   2.971   7.381   5.787 -0.9140 -0.5229 -0.1073
 4447SOL    HW216297   3.045   7.279   5.703 -0.9980 -0.9957  0.3845
 4448SOL     OW16298   3.044   1.326   7.545 -0.0643  0.5316  0.1147
 4448SOL    HW116299   2.971   1.264   7.537 -0.4102  1.0066 -0.4580
 4448SOL    HW216300   3.069   1.320   7.637 -1.4062  0.9770  0.5474
 4449SOL     OW16301   6.871  10.457   1.721 -0.6178 -0.3532  0.0233
 4449SOL    HW116302   6.863  10.374   1.769 -1.4242 -0.5267 -0.4021
 4449SOL    HW216303   6.782  10.481   1.698 -0.5352  1.3206  1.2458
 4450SOL     OW16304   9.593   1.152   9.941  0.0484 -0.3172  0.2484
 4450SOL    HW116305   9.552   1.150   9.854 -0.0286 -2.1231  0.2956
 4450SOL    HW216306   9.683   1.181   9.924 -0.4015  0.8889 -0.2104
 4451SOL     OW16307  10.406   9.288   0.764 -0.6171 -0.1690 -0.4336
 4451SOL    HW116308  10.347   9.324   0.697 -1.0258  0.1032  0.0645
 4451SOL    HW216309  10.424   9.199   0.735  1.2639  0.7352 -2.2650
 4452SOL     OW16310   1.936   3.052   0.474  0.7092 -0.3198  0.0305
 4452SOL    HW116311   1.924   2.965   0.512 -0.5864 -0.0215  0.3707
 4452SOL    HW216312   1.901   3.044   0.385  3.4072 -0.9239 -1.0581
 4453SOL     OW16313   5.656   2.923   7.948 -0.0537  0.1213  0.1398
 4453SOL    HW116314   5.691   3.007   7.918 -0.6158  0.7206  1.1226
 4453SOL    HW216315   5.713   2.897   8.020  0.7463 -0.8715 -0.8171
 4454SOL     OW16316   2.960   0.436   1.391  0.1308  1.1107  0.1917
 4454SOL    HW116317   2.923   0.364   1.442  0.0093  1.5941  0.7919
 4454SOL    HW216318   2.914   0.432   1.307 -0.0619  0.6564  0.3167
 4455SOL     OW16319   7.459  10.394   8.041  0.0792  0.2089 -0.2635
 4455SOL    HW116320   7.409  10.349   8.109  0.5922  0.7779  0.4980
 4455SOL    HW216321   7.398  10.400   7.967 -1.2203  1.4330  0.8548
 4456SOL     OW16322   6.577   5.316   6.061  0.1931  0.4279  0.5281
 4456SOL    HW116323   6.560   5.410   6.066  1.2921  0.6691  0.1420
 4456SOL    HW216324   6.536   5.288   5.980  1.2261  0.9127 -0.1885
 4457SOL     OW16325  10.660   6.696   3.167 -0.2916 -0.5658  0.3442
 4457SOL    HW116326  10.738   6.751   3.177 -1.1546  0.3299  2.7762
 4457SOL    HW216327  10.594   6.754   3.131 -0.0359 -1.1920 -1.2121
 4458SOL     OW16328   0.501   5.913   5.676  0.8221  0.2956  0.1527
 4458SOL    HW116329   0.471   5.822   5.670  0.1898  0.5187 -0.2425
 4458SOL    HW216330   0.510   5.941   5.585  0.2716  0.8533  0.2627
 4459SOL     OW16331  10.256   6.058  10.630 -0.1639  0.2230  0.2011
 4459SOL    HW116332  10.177   6.042  10.578 -0.7964  0.2015  1.1378
 4459SOL    HW216333  10.325   6.071  10.565 -0.9261  0.2049 -0.6409
 4460SOL     OW16334  10.025   0.776   4.494  0.0266 -0.4457 -0.0306
 4460SOL    HW116335   9.947   0.753   4.543 -1.2134  1.0742 -1.2014
 4460SOL    HW216336  10.084   0.815   4.559 -0.5529 -0.7621  0.6996
 4461SOL     OW16337   7.717   5.544   2.234 -0.2210  0.0350  0.0970
 4461SOL    HW116338   7.638   5.497   2.259  0.5482 -1.9035 -0.9178
 4461SOL    HW216339   7.743   5.506   2.151  2.0016  0.3079  0.5930
 4462SOL     OW16340   9.199   7.145   8.414 -0.1334  0.5156  0.1079
 4462SOL    HW116341   9.114   7.140   8.459  0.2531 -0.8538  0.7311
 4462SOL    HW216342   9.183   7.205   8.341 -1.8509 -0.3110 -0.2581
 4463SOL     OW16343   7.664   7.829   2.597 -0.2135  0.4401 -0.3900
 4463SOL    HW116344   7.691   7.810   2.687  0.8280  0.0383 -0.7822
 4463SOL    HW216345   7.602   7.759   2.575  1.5791 -1.0649 -0.8993
 4464SOL     OW16346   6.583   2.727   8.405 -0.4944 -0.0431  0.0629
 4464SOL    HW116347   6.651   2.767   8.352 -0.7954  1.2129  0.5888
 4464SOL    HW216348   6.614   2.638   8.421  0.4814  0.1621 -0.6338
 4465SOL     OW16349   9.060   3.433   6.189 -0.2963 -0.1024 -0.0252
 4465SOL    HW116350   9.012   3.479   6.119 -2.2064  1.0483  1.9055
 4465SOL    HW216351   9.136   3.488   6.206  0.4622 -0.6443 -1.4580
 4466SOL     OW16352  10.266   5.953   6.885 -0.2852 -0.3655  0.0241
 4466SOL    HW116353  10.257   5.893   6.959 -0.4280  0.7814  0.9604
 4466SOL    HW216354  10.196   5.929   6.825 -1.3007 -0.1498  1.0976
 4467SOL     OW16355   5.002   5.943   1.069 -0.4988 -0.5038  0.0524
 4467SOL    HW116356   5.018   6.034   1.046 -1.2189 -0.7113 -1.3703
 4467SOL    HW216357   4.979   5.946   1.162 -1.4205  0.8919 -0.1798
 4468SOL     OW16358   1.925   0.515   1.440  0.1099  0.1900  0.4667
 4468SOL    HW116359   1.838   0.520   1.479  0.0872  0.3010  0.4035
 4468SOL    HW216360   1.933   0.425   1.410  0.1627  0.0805  0.8058
 4469SOL     OW16361  10.649   3.461   3.343 -0.1492  0.9208  0.3652
 4469SOL    HW116362  10.643   3.505   3.258 -2.0392  1.1696  0.5911
 4469SOL    HW216363  10.603   3.520   3.403 -0.3628 -0.0869  1.2089
 4470SOL     OW16364   9.843   6.794   1.928 -0.1363  0.0976 -0.1033
 4470SOL    HW116365   9.931   6.769   1.957  0.1155  1.6365  0.5826
 4470SOL    HW216366   9.854   6.883   1.893 -1.4133  0.3038 -0.0265
 4471SOL     OW16367   6.731   1.873   4.597  0.2958 -0.4714  0.3746
 4471SOL    HW116368   6.750   1.898   4.506 -0.0518  0.1573  0.4683
 4471SOL    HW216369   6.695   1.784   4.590  0.7642 -0.6347 -0.0491
 4472SOL     OW16370   2.340   9.906   6.012 -0.5814 -0.3427 -0.4446
 4472SOL    HW116371   2.307   9.898   6.102  0.3861  0.0423 -0.0510
 4472SOL    HW216372   2.401   9.833   6.003  1.9115  1.5265  0.3717
 4473SOL     OW16373   9.448   0.760   1.541  0.2909  0.4051  0.2259
 4473SOL    HW116374   9.457   0.715   1.457 -0.1000  0.9012 -0.0976
 4473SOL    HW216375   9.492   0.844   1.527  1.2803  0.0107  0.9169
 4474SOL     OW16376   8.410   8.667   2.822 -0.1459 -0.0226  0.0670
 4474SOL    HW116377   8.392   8.745   2.769 -0.4668 -0.4550 -0.4801
 4474SOL    HW216378   8.463   8.699   2.894 -1.8823  1.0523  0.9375
 4475SOL     OW16379   3.481   5.820   9.532 -0.7999 -0.0724 -0.3689
 4475SOL    HW116380   3.460   5.780   9.617 -0.7224  1.5488  0.4385
 4475SOL    HW216381   3.415   5.888   9.521 -0.0873  0.5224 -1.0515
 4476SOL     OW16382   6.987   3.201   4.302  0.1801  0.2653 -0.3051
 4476SOL    HW116383   7.073   3.213   4.261  0.6523 -0.1352  0.5409
 4476SOL    HW216384   6.970   3.285   4.346  1.5297 -0.5805  2.0190
 4477SOL     OW16385   4.359   2.768   1.042 -0.3218 -0.1759  0.3959
 4477SOL    HW116386   4.431   2.760   0.979 -1.6153  0.9584 -1.3006
 4477SOL    HW216387   4.344   2.678   1.072 -0.5584 -1.0297 -2.0109
 4478SOL     OW16388   6.748   5.099   6.893 -0.2101  0.4604  0.1567
 4478SOL    HW116389   6.675   5.142   6.849 -0.2598 -0.1217 -0.3488
 4478SOL    HW216390   6.754   5.142   6.978 -1.2454  0.4114  0.2700
 4479SOL     OW16391   2.419   1.314   9.967  0.2517 -0.4083  0.2739
 4479SOL    HW116392   2.397   1.266   9.887  1.4083 -4.3058  2.0195
 4479SOL    HW216393   2.497   1.364   9.944 -1.0381  0.8114 -1.6935
 4480SOL     OW16394   5.981   7.232   7.401 -0.1382  0.0485 -0.5125
 4480SOL    HW116395   5.999   7.280   7.482  0.1009 -2.1297  0.8070
 4480SOL    HW216396   5.885   7.228   7.397 -0.1558 -0.5010  0.1278
 4481SOL     OW16397   6.515  10.145   0.529  0.1100  0.1529 -0.2211
 4481SOL    HW116398   6.537  10.132   0.436  2.5015  1.5041  0.0885
 4481SOL    HW216399   6.420  10.156   0.529 -0.1572 -1.3820 -2.3048
 4482SOL     OW16400   4.408   1.544   9.320  0.3792  0.6258  0.2197
 4482SOL    HW116401   4.402   1.640   9.324  1.5169  0.8225 -1.4792
 4482SOL    HW216402   4.345   1.519   9.252  0.0009  0.1499  0.7409
 4483SOL     OW16403   8.631   6.035   4.254  0.1576  0.0856 -0.9659
 4483SOL    HW116404   8.693   6.030   4.327 -1.6806  0.3136  0.6927
 4483SOL    HW216405   8.625   5.945   4.221  1.3777  0.0732 -1.2179
 4484SOL     OW16406   6.781   0.264   7.678 -0.4141 -0.2194 -0.6263
 4484SOL    HW116407   6.776   0.284   7.585  0.0790  2.3134 -0.1655
 4484SOL    HW216408   6.690   0.269   7.708 -0.2830  2.0825 -0.4440
 4485SOL     OW16409  10.004   6.444   4.077  0.0771 -0.3875  0.3675
 4485SOL    HW116410   9.998   6.536   4.105 -1.3412 -0.4816  0.4414
 4485SOL    HW216411  10.045   6.400   4.151  1.0721  0.2261  0.2061
 4486SOL     OW16412   7.643   7.521   2.945  0.2780 -0.3539 -0.3380
 4486SOL    HW116413   7.650   7.470   3.025 -2.5734 -1.8158 -0.8794
 4486SOL    HW216414   7.661   7.458   2.875 -1.8749 -0.3608 -0.9569
 4487SOL     OW16415   9.126   6.256   9.961  0.1608 -0.0770  0.3501
 4487SOL    HW116416   9.059   6.307  10.005  0.0606 -0.2122  0.3553
 4487SOL    HW216417   9.201   6.315   9.953  0.7339 -0.5220  2.0859
 4488SOL     OW16418   1.880   1.804   4.784  0.1108  0.2138 -0.3709
 4488SOL    HW116419   1.964   1.831   4.822  0.3478 -0.3081 -0.5201
 4488SOL    HW216420   1.902   1.732   4.725 -0.5846 -0.7406  0.4987
 4489SOL     OW16421   1.976   5.373   0.403  0.0204 -0.1684 -0.4525
 4489SOL    HW116422   1.990   5.304   0.339  1.0450  0.8643 -1.3825
 4489SOL    HW216423   2.040   5.356   0.472 -0.8526 -1.0795  0.1707
 4490SOL     OW16424   3.279   7.591   9.901 -0.5175 -0.0680 -0.1813
 4490SOL    HW116425   3.199   7.634   9.871 -0.0813  0.3086 -0.8228
 4490SOL    HW216426   3.289   7.516   9.843  0.1904  0.5162 -0.8295
 4491SOL     OW16427   5.182   7.148   2.693  0.3712 -0.2034  0.2799
 4491SOL    HW116428   5.119   7.159   2.765  1.0443  1.4209  0.6827
 4491SOL    HW216429   5.257   7.201   2.720  1.2944 -0.8662 -0.9012
 4492SOL     OW16430   4.705   9.024   7.834 -0.6919  0.0472 -0.2670
 4492SOL    HW116431   4.619   9.068   7.842 -1.5707 -0.9565 -3.0805
 4492SOL    HW216432   4.693   8.941   7.880 -1.5372 -0.4394 -1.3232
 4493SOL     OW16433   5.613   4.636   1.603 -0.4436 -0.4492 -0.2797
 4493SOL    HW116434   5.668   4.577   1.551 -0.9552 -0.9034 -0.3127
 4493SOL    HW216435   5.585   4.704   1.541  1.3979  0.7324  0.1007
 4494SOL     OW16436   6.509   5.488   7.632  0.0890 -0.1340  0.6178
 4494SOL    HW116437   6.453   5.475   7.709  0.5526 -0.5290  0.8964
 4494SOL    HW216438   6.518   5.401   7.593  0.1038  0.0134  0.2913
 4495SOL     OW16439   2.680   3.615   4.642 -0.2283 -0.1657  0.1660
 4495SOL    HW116440   2.735   3.579   4.573 -1.5157 -2.0787  0.0516
 4495SOL    HW216441   2.730   3.688   4.678  1.8935 -1.1814 -0.6062
 4496SOL     OW16442   4.032  10.125   5.646  0.0237  0.2493 -0.1459
 4496SOL    HW116443   4.001  10.197   5.591  0.6718  0.3574 -0.3808
 4496SOL    HW216444   4.011  10.046   5.597  0.4563  0.3392 -0.4818
 4497SOL     OW16445   6.109  10.018   5.931 -0.2781 -0.3600  0.0263
 4497SOL    HW116446   6.045  10.089   5.930  0.6767  0.5371  0.6180
 4497SOL    HW216447   6.127  10.000   5.839 -0.3833  0.3074 -0.1262
 4498SOL     OW16448   2.348   7.427   3.813 -0.2891  0.2412 -0.2155
 4498SOL    HW116449   2.254   7.430   3.793  0.0149  1.5254 -1.6403
 4498SOL    HW216450   2.358   7.485   3.889 -0.9905 -2.1064  1.8011
 4499SOL     OW16451   9.892   3.967   6.346  0.3719 -0.4130  0.2368
 4499SOL    HW116452   9.867   3.875   6.342 -0.8298 -0.1390  0.8623
 4499SOL    HW216453   9.965   3.970   6.408  0.4726 -0.9608  0.1451
 4500SOL     OW16454   4.947   3.587   4.936 -0.0701 -0.6157  0.1969
 4500SOL    HW116455   4.934   3.569   4.843 -0.3300  0.6590 -0.0378
 4500SOL    HW216456   4.883   3.656   4.956  0.7250 -0.0917  1.0393
 4501SOL     OW16457   9.605   8.136   8.309 -0.2283 -0.2210 -0.0743
 4501SOL    HW116458   9.585   8.229   8.316  0.0915  0.0104 -1.8223
 4501SOL    HW216459   9.694   8.133   8.274 -0.5422 -1.1541 -0.8448
 4502SOL     OW16460   8.864   8.872  10.404 -0.1926  0.6449  0.1690
 4502SOL    HW116461   8.886   8.867  10.497  0.5138  1.3593  0.0612
 4502SOL    HW216462   8.868   8.966  10.384  0.5441  0.4257 -0.7745
 4503SOL     OW16463   3.660   1.637   3.522 -0.6320 -0.1220  0.0240
 4503SOL    HW116464   3.646   1.718   3.474  0.7292  0.8984  1.2563
 4503SOL    HW216465   3.623   1.653   3.609 -1.0044 -1.0987  0.0661
 4504SOL     OW16466   1.233  10.283   6.055 -0.0671  0.6067 -0.1766
 4504SOL    HW116467   1.150  10.324   6.081 -0.5279  0.2658 -1.0465
 4504SOL    HW216468   1.300  10.334   6.099 -0.7537  0.7489  0.7345
 4505SOL     OW16469   0.203   7.781   5.098  0.2691  0.0728 -0.3852
 4505SOL    HW116470   0.110   7.762   5.088  0.0000  0.8268  0.5248
 4505SOL    HW216471   0.238   7.706   5.145  0.2329 -0.4417 -1.1550
 4506SOL     OW16472   7.984   2.776   3.644  0.8467  0.7593  0.1066
 4506SOL    HW116473   7.938   2.755   3.726  0.5939  0.3974 -0.1251
 4506SOL    HW216474   8.059   2.717   3.644 -0.1996 -0.6321 -0.8429
 4507SOL     OW16475   3.948   9.419   7.332  0.4545 -0.3166 -0.1973
 4507SOL    HW116476   3.909   9.392   7.249  1.0106  1.2027 -0.9785
 4507SOL    HW216477   3.917   9.353   7.395 -0.4915 -1.1344 -1.4651
 4508SOL     OW16478   5.368   0.619   1.031  0.3334  0.0020 -0.1852
 4508SOL    HW116479   5.357   0.528   1.005 -1.0035  0.1486 -0.2026
 4508SOL    HW216480   5.300   0.666   0.982  0.9219  0.9885 -0.0842
 4509SOL     OW16481   3.080   2.595   0.089 -0.1383  0.1068 -0.4577
 4509SOL    HW116482   3.043   2.512   0.058 -1.2721  0.8497 -1.1788
 4509SOL    HW216483   3.059   2.658   0.020  0.6561  1.0145  0.1001
 4510SOL     OW16484   4.841   0.669   0.303 -0.1264  0.3451  0.6339
 4510SOL    HW116485   4.800   0.752   0.280 -1.0633 -0.6315 -1.3580
 4510SOL    HW216486   4.788   0.635   0.375 -0.2712  1.0429  0.8642
 4511SOL     OW16487  10.177   8.461   3.714  0.5226  0.2283  0.1669
 4511SOL    HW116488  10.118   8.385   3.710  1.0949 -0.2583  0.7320
 4511SOL    HW216489  10.125   8.534   3.679 -0.9442  0.1528  2.0547
 4512SOL     OW16490   3.266   9.177  10.144  0.2131  0.3080  0.1112
 4512SOL    HW116491   3.210   9.210  10.074  1.6718  1.2928 -0.6286
 4512SOL    HW216492   3.247   9.083  10.148  0.2145  0.2014 -1.7340
 4513SOL     OW16493   8.612   4.234   5.953 -0.4030  0.0076 -0.0733
 4513SOL    HW116494   8.529   4.251   5.998 -0.2952  1.7501 -0.4743
 4513SOL    HW216495   8.664   4.313   5.968  1.3087 -1.1420  0.3853
 4514SOL     OW16496   6.628   5.574   9.170  0.2858  0.1563  0.2200
 4514SOL    HW116497   6.550   5.521   9.152 -1.2290  2.0618  0.8987
 4514SOL    HW216498   6.625   5.591   9.264  1.2932  0.6211  0.1857
 4515SOL     OW16499   2.144   9.397   4.803 -0.1853  0.1679  0.3628
 4515SOL    HW116500   2.090   9.475   4.791 -0.7743 -0.2802  0.0717
 4515SOL    HW216501   2.081   9.325   4.812  0.3589 -0.3471  0.1186
 4516SOL     OW16502   6.159   4.645   7.529  1.1064 -0.4353  0.1140
 4516SOL    HW116503   6.104   4.716   7.561  1.2888  0.0824 -0.7017
 4516SOL    HW216504   6.143   4.573   7.591  0.7443  0.2270  0.8138
 4517SOL     OW16505   5.650   0.102   0.391  0.1940 -0.3608 -0.2517
 4517SOL    HW116506   5.588   0.153   0.444 -0.8526 -1.0293 -0.7968
 4517SOL    HW216507   5.611   0.014   0.387  1.4481 -0.9303 -0.1813
 4518SOL     OW16508   7.588   2.075   1.887  0.0224  0.0434  0.0033
 4518SOL    HW116509   7.557   2.052   1.975  0.1559 -0.7758 -0.1548
 4518SOL    HW216510   7.618   1.992   1.850  0.7045  0.5191 -0.5288
 4519SOL     OW16511   9.310   4.729   0.339  0.3425  0.5694  0.3133
 4519SOL    HW116512   9.361   4.778   0.405 -0.2504 -0.6717  1.7515
 4519SOL    HW216513   9.370   4.660   0.310  0.2286  0.4310  0.4039
 4520SOL     OW16514   7.027   7.091   2.478  0.6212 -0.3225 -0.0413
 4520SOL    HW116515   7.090   7.084   2.549  1.4798  0.8895 -0.6422
 4520SOL    HW216516   7.044   7.015   2.422  1.4375 -0.0933 -0.1087
 4521SOL     OW16517   1.720   0.189   0.150  0.1025  1.1586 -0.5110
 4521SOL    HW116518   1.677   0.145   0.222 -0.5487  1.2741 -0.8223
 4521SOL    HW216519   1.652   0.198   0.083  1.2236 -0.9263 -2.0385
 4522SOL     OW16520   6.103   3.942   2.764 -0.2014  0.3215  0.3382
 4522SOL    HW116521   6.090   4.035   2.746  3.9284  1.0083 -0.1887
 4522SOL    HW216522   6.104   3.936   2.860 -0.8412  0.7319  0.3759
 4523SOL     OW16523   0.940   1.194   7.294  0.0226 -0.2824 -0.2808
 4523SOL    HW116524   0.918   1.126   7.230 -1.5884  0.3850 -0.4883
 4523SOL    HW216525   1.019   1.235   7.259  0.0910 -0.9846 -0.9975
 4524SOL     OW16526   4.116   3.941   1.224  0.0354 -0.3793  0.1222
 4524SOL    HW116527   4.117   4.030   1.188 -0.7621  0.3542  1.7980
 4524SOL    HW216528   4.029   3.907   1.204 -0.9864  0.6069  2.5310
 4525SOL     OW16529   3.425   9.751   0.428  0.0990  0.4605  0.3741
 4525SOL    HW116530   3.474   9.736   0.509  1.4551  1.3133 -0.2594
 4525SOL    HW216531   3.420   9.846   0.420 -2.8126  0.4627  1.0594
 4526SOL     OW16532   4.271   6.582   8.639  0.0868  0.3846  0.1217
 4526SOL    HW116533   4.190   6.586   8.588  0.2487 -0.5453 -0.2202
 4526SOL    HW216534   4.252   6.522   8.711  0.2927  0.6299  0.3890
 4527SOL     OW16535   3.505   2.038   8.167 -0.5383  0.2507 -0.1362
 4527SOL    HW116536   3.423   2.016   8.122  0.5323 -0.3208 -1.9164
 4527SOL    HW216537   3.493   2.128   8.196 -1.6076  0.3618 -0.8559
 4528SOL     OW16538   8.887   6.513  10.007  0.0592 -0.8001  0.1267
 4528SOL    HW116539   8.817   6.576  10.022  0.3185 -0.5742  0.4239
 4528SOL    HW216540   8.944   6.522  10.084  0.0412 -1.4781  0.2281
 4529SOL     OW16541   5.414   7.695   8.612 -0.2176  0.1994 -0.3484
 4529SOL    HW116542   5.397   7.742   8.530  0.5555 -0.5759 -0.9762
 4529SOL    HW216543   5.491   7.738   8.649 -0.0716  0.0417 -0.4601
 4530SOL     OW16544   6.704   2.178   9.924  0.0203 -0.3105 -0.1455
 4530SOL    HW116545   6.786   2.195   9.970  0.5808  0.8829 -1.4898
 4530SOL    HW216546   6.642   2.154   9.993  1.0132  0.6354  1.1372
 4531SOL     OW16547   0.621   5.524   4.016 -0.6260  0.1361 -0.0307
 4531SOL    HW116548   0.626   5.558   3.927 -1.7628 -0.0890 -0.1949
 4531SOL    HW216549   0.553   5.576   4.058 -0.0031  0.3398  0.7700
 4532SOL     OW16550   0.009   3.089   8.237  0.0245  0.0444 -0.1897
 4532SOL    HW116551   0.030   3.014   8.292 -0.5450 -0.5636 -0.7727
 4532SOL    HW216552   0.092   3.135   8.225  0.2409 -0.0987  0.7517
 4533SOL     OW16553   7.749   4.103  10.391  0.4488  0.0456 -0.3252
 4533SOL    HW116554   7.819   4.127  10.452 -0.6738 -0.4806  1.2170
 4533SOL    HW216555   7.783   4.128  10.305  0.6760  4.1495  0.7502
 4534SOL     OW16556   4.855   2.656   7.416 -0.0131  0.1906  0.8059
 4534SOL    HW116557   4.829   2.702   7.336  0.0169  0.9915  1.2438
 4534SOL    HW216558   4.816   2.569   7.408  1.6254 -0.4656 -1.0150
 4535SOL     OW16559   3.803   4.592   5.627 -0.0662 -0.4939 -0.1582
 4535SOL    HW116560   3.835   4.573   5.716  0.5156 -0.2688 -0.3159
 4535SOL    HW216561   3.719   4.635   5.641  0.6640  0.8434  0.3516
 4536SOL     OW16562   1.214   1.801   1.601  0.0683 -0.3155 -0.7459
 4536SOL    HW116563   1.120   1.816   1.586  0.1194  2.9430  1.2523
 4536SOL    HW216564   1.257   1.867   1.546  0.9956  0.3105  0.6932
 4537SOL     OW16565   2.230   8.543   3.924 -0.0172  0.4280  0.0378
 4537SOL    HW116566   2.228   8.448   3.910 -0.2700  0.6406 -1.5443
 4537SOL    HW216567   2.293   8.575   3.859 -0.2889  1.3836  0.2429
 4538SOL     OW16568   9.110   3.048   9.635 -0.0601  0.3345 -0.2164
 4538SOL    HW116569   9.191   2.998   9.637 -0.8096 -0.9881 -1.2856
 4538SOL    HW216570   9.041   2.983   9.649 -0.9660  1.4065  0.5060
 4539SOL     OW16571   6.565   7.470   2.620  0.0056  0.3935  0.5814
 4539SOL    HW116572   6.556   7.447   2.528 -2.0704  2.3709  0.2074
 4539SOL    HW216573   6.479   7.504   2.646  0.8137  0.8609  2.9574
 4540SOL     OW16574   2.538   2.809   8.490 -0.1351 -0.0411 -0.0782
 4540SOL    HW116575   2.515   2.739   8.551  1.1718 -0.5273 -0.1066
 4540SOL    HW216576   2.494   2.786   8.409 -0.3600 -0.4032  0.1455
 4541SOL     OW16577   3.761   6.040   5.453 -0.1089  0.3180  0.0178
 4541SOL    HW116578   3.716   6.097   5.515 -0.5574  0.8922 -0.8246
 4541SOL    HW216579   3.716   5.956   5.461  0.1548  0.2407  0.8128
 4542SOL     OW16580  10.141   4.543   9.928 -0.2427  0.2285  0.1416
 4542SOL    HW116581  10.112   4.517  10.015 -2.6117 -0.9097 -0.8684
 4542SOL    HW216582  10.200   4.617   9.942  0.4991 -0.7727  2.7450
 4543SOL     OW16583   7.466   6.798   6.469  0.0492 -0.1643 -0.8426
 4543SOL    HW116584   7.477   6.835   6.557  1.5111  1.3104 -1.5900
 4543SOL    HW216585   7.372   6.803   6.452 -0.1978 -0.0590  0.4580
 4544SOL     OW16586   7.517   7.522   7.538  0.2292 -0.2655 -0.5270
 4544SOL    HW116587   7.552   7.548   7.623  0.2775  1.3515 -1.0096
 4544SOL    HW216588   7.546   7.432   7.527 -0.2310 -0.7057  1.3962
 4545SOL     OW16589   0.243   8.381   9.600  0.2126  0.0968  0.0220
 4545SOL    HW116590   0.207   8.322   9.534 -0.4686  0.3100  0.1917
 4545SOL    HW216591   0.262   8.462   9.552  3.2139 -0.9148 -0.6838
 4546SOL     OW16592   5.117   0.549   4.316  0.0356 -0.1612  0.3818
 4546SOL    HW116593   5.104   0.573   4.224  2.3609 -1.1132 -0.2783
 4546SOL    HW216594   5.212   0.541   4.325 -0.1350 -0.0486  2.9061
 4547SOL     OW16595   9.188   6.217   8.623  0.6537  0.3199  0.1229
 4547SOL    HW116596   9.178   6.160   8.700 -0.4489 -0.4934 -0.5978
 4547SOL    HW216597   9.275   6.255   8.634  0.9865 -0.6662  1.1914
 4548SOL     OW16598   5.942   0.836   8.024  0.4165  0.3076 -0.1640
 4548SOL    HW116599   5.986   0.783   8.090 -0.5092 -0.2045  0.0564
 4548SOL    HW216600   5.873   0.779   7.989  0.0033  1.0440 -0.5835
 4549SOL     OW16601   6.004   1.909   1.920  0.4281  0.4380 -0.6978
 4549SOL    HW116602   6.083   1.855   1.921 -0.5884 -1.2143 -2.4766
 4549SOL    HW216603   5.972   1.906   2.010  1.1470 -0.8288 -0.4610
 4550SOL     OW16604   3.331   1.693   7.904  0.2739  0.2935  0.4233
 4550SOL    HW116605   3.404   1.646   7.865 -0.7550 -1.2367  0.2550
 4550SOL    HW216606   3.255   1.668   7.851 -0.3715  1.9730  0.4754
 4551SOL     OW16607   9.715   7.429   3.960 -0.1854 -0.6479  0.2390
 4551SOL    HW116608   9.644   7.391   4.012 -0.3684  0.5488  0.9020
 4551SOL    HW216609   9.768   7.476   4.024  0.1311  0.0497 -0.5277
 4552SOL     OW16610   4.746   2.257   8.861 -0.1272  0.4028 -0.0864
 4552SOL    HW116611   4.767   2.305   8.781 -0.3986  0.6053 -0.0387
 4552SOL    HW216612   4.726   2.324   8.925 -1.2636  0.2321 -0.2272
 4553SOL     OW16613   3.249  10.243   7.045  0.1090  0.0214  0.1270
 4553SOL    HW116614   3.264  10.269   6.954 -0.8230 -0.7667 -0.2619
 4553SOL    HW216615   3.268  10.323   7.095  2.8593 -0.1263 -0.5108
 4554SOL     OW16616  10.210   1.059   3.473 -0.0792  0.2921 -0.3323
 4554SOL    HW116617  10.271   1.063   3.547 -0.6784 -0.5999  0.2304
 4554SOL    HW216618  10.250   0.997   3.412 -1.5673 -2.3141  1.1803
 4555SOL     OW16619  10.250   9.807   4.010 -0.3953 -0.8661  0.4230
 4555SOL    HW116620  10.215   9.881   3.960 -1.0442 -1.6819 -0.3489
 4555SOL    HW216621  10.179   9.743   4.011  0.3221 -1.6767  0.6974
 4556SOL     OW16622   5.163   6.748   8.740  0.0508  0.0627  0.2832
 4556SOL    HW116623   5.222   6.710   8.675 -0.6888 -0.4672 -0.1034
 4556SOL    HW216624   5.194   6.713   8.824  0.8960  0.6039  0.2060
 4557SOL     OW16625   6.251   6.612   0.037 -0.2480  0.0785  0.0253
 4557SOL    HW116626   6.285   6.667  -0.033  0.3576  0.9285  0.9556
 4557SOL    HW216627   6.158   6.635   0.043  0.0143  1.0852  0.4530
 4558SOL     OW16628   7.773   9.948   0.238  0.6070  0.3679  0.4113
 4558SOL    HW116629   7.685   9.911   0.233  0.0645  1.7495 -1.2025
 4558SOL    HW216630   7.775   9.993   0.323 -0.1931  0.2215  0.5155
 4559SOL     OW16631   8.067   5.230  10.567 -0.0167 -0.1488 -0.1277
 4559SOL    HW116632   8.024   5.144  10.575 -0.3263 -0.2197 -2.0464
 4559SOL    HW216633   7.997   5.289  10.542  0.3632  0.5176  0.3504
 4560SOL     OW16634   2.294   8.093   5.443 -0.0751 -0.0029 -0.1780
 4560SOL    HW116635   2.234   8.101   5.517  1.5204 -0.7563  1.2713
 4560SOL    HW216636   2.331   8.180   5.432  0.5334 -0.1439  0.6903
 4561SOL     OW16637   2.657   8.586   4.530 -0.3510  0.0348 -0.1446
 4561SOL    HW116638   2.626   8.610   4.617  0.3788 -0.3460  0.2239
 4561SOL    HW216639   2.717   8.513   4.545 -1.6528 -1.3170 -1.1304
 4562SOL     OW16640   0.276   5.546   6.243 -0.0554  0.2272 -0.4123
 4562SOL    HW116641   0.304   5.499   6.322 -2.0267 -0.4828 -0.0900
 4562SOL    HW216642   0.306   5.490   6.171  0.1969 -0.0110 -0.1276
 4563SOL     OW16643   7.909   0.313   3.496  0.3546  0.0639 -0.1691
 4563SOL    HW116644   7.862   0.365   3.561  0.7878 -0.3084  0.4543
 4563SOL    HW216645   7.984   0.276   3.544 -0.3362 -1.7190 -0.3760
 4564SOL     OW16646   6.810   4.466  10.070 -0.2207  0.6267 -0.7369
 4564SOL    HW116647   6.855   4.509   9.998 -1.3038  0.8149 -1.3236
 4564SOL    HW216648   6.801   4.533  10.138  1.3235  0.2859 -0.1639
 4565SOL     OW16649   0.315   5.147   4.482  0.3338  0.1608  0.2492
 4565SOL    HW116650   0.373   5.184   4.549 -0.0688  0.7085  0.3000
 4565SOL    HW216651   0.306   5.216   4.417  0.9364 -0.4662 -0.5177
 4566SOL     OW16652   8.505   0.101   0.696  0.2222 -0.1512 -0.2071
 4566SOL    HW116653   8.567   0.082   0.766  0.3939  0.1809 -0.2656
 4566SOL    HW216654   8.419   0.085   0.734  0.3717 -1.5729 -0.4137
 4567SOL     OW16655   2.725   7.552  10.647 -0.0515 -0.4380  0.0933
 4567SOL    HW116656   2.633   7.553  10.674 -0.1831  0.1284 -0.3565
 4567SOL    HW216657   2.735   7.470  10.597 -0.3501 -0.4286  0.0180
 4568SOL     OW16658   8.381   2.853   6.987 -0.5959  0.2016  0.0395
 4568SOL    HW116659   8.396   2.889   6.900  0.4507  0.6371  0.3723
 4568SOL    HW216660   8.312   2.908   7.025  0.7882  1.7452  0.4391
 4569SOL     OW16661   5.464   1.085   0.685  0.1463  0.2115  0.2684
 4569SOL    HW116662   5.539   1.145   0.690  0.3310 -0.0886  2.7362
 4569SOL    HW216663   5.505   0.998   0.678 -0.0658  0.1873 -0.8532
 4570SOL     OW16664   1.079   8.615   5.838  0.0661  0.2124 -0.7213
 4570SOL    HW116665   1.124   8.531   5.832  1.4447  0.9587 -1.2165
 4570SOL    HW216666   1.092   8.643   5.928 -1.5735 -0.6918 -0.1476
 4571SOL     OW16667   6.884   8.114   1.350  0.5206  0.4457  0.3931
 4571SOL    HW116668   6.897   8.192   1.404 -2.0902  2.1160 -1.1307
 4571SOL    HW216669   6.964   8.107   1.298  0.5103  2.7242 -0.0566
 4572SOL     OW16670   3.906   3.541   7.086  0.3660  0.3578  0.4181
 4572SOL    HW116671   3.941   3.614   7.035 -0.4617  0.0195 -0.6702
 4572SOL    HW216672   3.963   3.467   7.062 -0.1247  0.1607 -0.1662
 4573SOL     OW16673   2.610   5.845   1.531  0.0819 -0.8370  0.9499
 4573SOL    HW116674   2.586   5.776   1.469 -0.4343 -0.9997  1.3213
 4573SOL    HW216675   2.705   5.853   1.522  0.0834 -1.2338  0.5333
 4574SOL     OW16676   8.259   5.713   5.610 -0.1388 -0.3051 -0.4982
 4574SOL    HW116677   8.289   5.803   5.593 -0.6699  0.0214  0.2395
 4574SOL    HW216678   8.321   5.679   5.674 -0.6246 -0.0382  0.1300
 4575SOL     OW16679   3.503   3.583   7.545 -0.3524  0.1619  0.0039
 4575SOL    HW116680   3.500   3.670   7.504  0.9797 -0.6387 -1.9404
 4575SOL    HW216681   3.455   3.594   7.627 -1.1671  2.4541 -0.6882
 4576SOL     OW16682   1.158   0.566   9.714  0.2824  0.1470  0.4191
 4576SOL    HW116683   1.237   0.556   9.661  0.3881  0.0978  0.5843
 4576SOL    HW216684   1.125   0.653   9.691 -0.2044 -0.2527 -0.4311
 4577SOL     OW16685   7.548   6.600   2.509 -0.0602  0.1692 -0.5628
 4577SOL    HW116686   7.536   6.693   2.487 -1.2358 -0.3934 -2.5604
 4577SOL    HW216687   7.621   6.600   2.571  0.4940  2.3614 -1.0971
 4578SOL     OW16688   1.161   5.929   3.728  0.1957  0.4112 -0.8871
 4578SOL    HW116689   1.109   6.007   3.750 -0.6241 -0.3667  0.0079
 4578SOL    HW216690   1.153   5.920   3.633 -1.4990  0.1850 -0.7452
 4579SOL     OW16691   3.970   8.672   3.892  0.6663  0.0545 -0.0713
 4579SOL    HW116692   4.026   8.637   3.961  2.0937  1.2045 -0.6131
 4579SOL    HW216693   4.030   8.709   3.828 -0.7104  1.6323 -0.5157
 4580SOL     OW16694   4.012   9.400   3.998 -0.8821  0.2993 -0.3117
 4580SOL    HW116695   4.079   9.372   3.936 -0.0612  1.0570  0.2097
 4580SOL    HW216696   3.959   9.321   4.013 -0.3209 -0.2229 -0.9923
 4581SOL     OW16697   3.941   7.565   5.452  0.4704 -0.1857 -0.1078
 4581SOL    HW116698   3.990   7.487   5.428 -1.2419 -0.8571 -1.6923
 4581SOL    HW216699   3.894   7.540   5.531  2.1608  0.2812  1.0984
 4582SOL     OW16700   2.840   2.480   7.402 -0.5332  0.2467  0.4284
 4582SOL    HW116701   2.875   2.532   7.330 -4.2036  0.6935 -1.2436
 4582SOL    HW216702   2.789   2.411   7.360 -1.5548 -0.3943  2.5637
 4583SOL     OW16703   1.860   2.893   0.701 -0.2696  0.4905 -0.6240
 4583SOL    HW116704   1.816   2.869   0.620  1.7642  0.5422 -1.8075
 4583SOL    HW216705   1.841   2.820   0.761 -0.5560 -0.2804 -1.6224
 4584SOL     OW16706   8.714   4.481   5.944  0.0618 -0.1606 -0.0722
 4584SOL    HW116707   8.668   4.540   5.885 -1.2545 -1.7195 -0.7073
 4584SOL    HW216708   8.695   4.514   6.031  0.1627  0.8849 -0.4321
 4585SOL     OW16709   5.355   7.225   9.972 -0.2807 -0.3463 -0.7597
 4585SOL    HW116710   5.399   7.217   9.888  1.3252  0.6967 -0.0519
 4585SOL    HW216711   5.408   7.173  10.032 -1.3085 -0.9186 -0.3161
 4586SOL     OW16712   4.374   7.723   6.263  0.1377  0.0714  0.0683
 4586SOL    HW116713   4.416   7.706   6.178 -1.6364  0.1579 -0.8703
 4586SOL    HW216714   4.380   7.639   6.309  0.8689 -0.0579 -0.2339
 4587SOL     OW16715   9.438   5.523   4.269  0.0050 -0.3366 -0.3617
 4587SOL    HW116716   9.367   5.588   4.269  0.3166  0.0579  1.4716
 4587SOL    HW216717   9.464   5.516   4.177 -1.5929  0.4109 -0.9096
 4588SOL     OW16718   4.108   5.660   7.982  0.3452 -0.2367  0.2876
 4588SOL    HW116719   4.174   5.603   8.021  1.1671 -0.6010 -1.5105
 4588SOL    HW216720   4.027   5.638   8.027  1.1264 -0.9979  1.3724
 4589SOL     OW16721   6.811   6.429   3.689  0.1881 -0.5462 -0.6258
 4589SOL    HW116722   6.887   6.474   3.654  0.3988  0.3726  0.9033
 4589SOL    HW216723   6.841   6.395   3.774 -1.1949  0.1998  0.1969
 4590SOL     OW16724   6.304   4.807   2.214 -0.3897  0.2731 -0.2745
 4590SOL    HW116725   6.260   4.848   2.288  1.2023  2.1391 -0.3027
 4590SOL    HW216726   6.237   4.802   2.146 -2.0588 -2.0295  1.3768
 4591SOL     OW16727   1.491   6.058   8.581 -0.3314 -0.5667 -0.0925
 4591SOL    HW116728   1.469   6.039   8.673  0.0706 -0.0320  0.1145
 4591SOL    HW216729   1.581   6.090   8.584 -0.4505 -0.1763 -0.6329
 4592SOL     OW16730   7.336   1.049   3.959 -0.1130  0.4517 -0.1355
 4592SOL    HW116731   7.360   1.012   3.874  0.3965 -0.9463  0.5878
 4592SOL    HW216732   7.264   0.994   3.989 -0.1279  0.7883  0.4520
 4593SOL     OW16733   4.085   0.328   1.238  0.1734  0.1907 -0.3489
 4593SOL    HW116734   4.170   0.309   1.198  0.1527  1.0039 -0.8008
 4593SOL    HW216735   4.106   0.369   1.322  0.2147 -0.9789  0.2385
 4594SOL     OW16736   2.005   7.204   5.617 -0.1687  0.2120 -0.5366
 4594SOL    HW116737   1.983   7.164   5.701  0.4544  0.3356 -0.3067
 4594SOL    HW216738   1.942   7.275   5.606 -0.4683 -0.0243 -0.3356
 4595SOL     OW16739   2.280   7.572   9.728 -0.6308  0.4283 -0.9387
 4595SOL    HW116740   2.214   7.562   9.659 -1.3581 -0.3072 -0.1606
 4595SOL    HW216741   2.324   7.654   9.707 -0.9904  0.3289 -2.1505
 4596SOL     OW16742   6.510   7.513   8.138 -0.7752  0.1919  0.2808
 4596SOL    HW116743   6.548   7.427   8.154  1.6049  1.0083 -0.6324
 4596SOL    HW216744   6.558   7.548   8.063 -2.6245  1.7835 -0.2572
 4597SOL     OW16745   6.696   2.453   8.443 -0.4741  0.0612 -0.6502
 4597SOL    HW116746   6.665   2.469   8.354 -1.7768 -0.8479 -0.3804
 4597SOL    HW216747   6.790   2.439   8.433 -0.6235 -0.1846 -1.9118
 4598SOL     OW16748   9.539   0.229   5.631 -0.3147  0.1789 -0.2080
 4598SOL    HW116749   9.501   0.163   5.573 -0.1360 -0.9413  0.9024
 4598SOL    HW216750   9.592   0.284   5.573 -2.1986  0.7335 -1.5156
 4599SOL     OW16751  10.211   2.069   1.200 -0.0714 -0.5218  0.7396
 4599SOL    HW116752  10.300   2.072   1.165  0.3414 -0.9021  1.7023
 4599SOL    HW216753  10.161   2.130   1.146  0.9187  0.1516  0.5607
 4600SOL     OW16754   1.322   1.032   6.406 -0.5786  0.4116  0.7476
 4600SOL    HW116755   1.279   0.951   6.378  0.7336  0.3314 -1.2277
 4600SOL    HW216756   1.365   1.009   6.489 -0.6209 -0.7737  0.4623
 4601SOL     OW16757   9.719   5.937   8.638  0.1240 -0.6414 -0.3977
 4601SOL    HW116758   9.796   5.944   8.694 -0.3374  0.4732  0.1482
 4601SOL    HW216759   9.645   5.946   8.698 -0.3852  2.0773 -1.2742
 4602SOL     OW16760   4.108   0.969   9.565  0.1859 -0.6391  0.1336
 4602SOL    HW116761   4.146   0.914   9.634 -0.6874  0.6850  1.7225
 4602SOL    HW216762   4.093   0.908   9.493  0.8108 -2.1500  1.2086
 4603SOL     OW16763   1.433   0.528   3.189  0.6614 -0.2906 -0.4045
 4603SOL    HW116764   1.356   0.583   3.206 -0.5221 -0.9902 -3.0993
 4603SOL    HW216765   1.485   0.535   3.270 -1.2135  1.8121  0.7380
 4604SOL     OW16766   5.049   3.429   1.140 -0.1021  0.0881  0.1291
 4604SOL    HW116767   5.144   3.422   1.136 -0.0817  0.4873 -0.2566
 4604SOL    HW216768   5.022   3.368   1.209  0.4869  0.4715  0.7088
 4605SOL     OW16769   0.920  10.387   9.570 -0.3359  0.4267 -0.6831
 4605SOL    HW116770   0.878  10.325   9.630 -1.3968  1.7721  0.0085
 4605SOL    HW216771   0.848  10.429   9.524  0.2318  2.3495  0.0751
 4606SOL     OW16772   7.086   3.976   9.318 -0.0997 -0.1917  0.2413
 4606SOL    HW116773   7.036   4.013   9.245 -0.2982 -2.8337 -1.1148
 4606SOL    HW216774   7.171   4.019   9.314 -0.7681  1.1203 -0.2949
 4607SOL     OW16775   7.207   2.560   3.395  0.3000  0.1841 -0.2741
 4607SOL    HW116776   7.114   2.567   3.378 -0.3034  0.1414  2.5244
 4607SOL    HW216777   7.213   2.517   3.480  2.8837  0.0853 -0.4130
 4608SOL     OW16778   3.113   1.247   4.945 -0.2142 -0.3392  0.3852
 4608SOL    HW116779   3.144   1.338   4.941 -1.5650  0.1136 -0.8881
 4608SOL    HW216780   3.124   1.222   5.037  0.6884  0.9186  0.6479
 4609SOL     OW16781   5.774   9.701  10.125  0.3525 -0.6120 -0.4754
 4609SOL    HW116782   5.725   9.735  10.050  0.0708 -1.4440 -0.6823
 4609SOL    HW216783   5.826   9.629  10.088  1.2859 -0.1149 -0.1406
 4610SOL     OW16784   8.115   7.862   3.923 -0.2687  0.7718 -0.4441
 4610SOL    HW116785   8.127   7.791   3.986 -0.4048 -0.8347 -2.1496
 4610SOL    HW216786   8.166   7.934   3.959  3.0247 -1.3473 -0.4648
 4611SOL     OW16787   5.627   2.805  10.378  0.1741  0.1149  0.5921
 4611SOL    HW116788   5.717   2.776  10.360  0.3811  2.1474 -2.3133
 4611SOL    HW216789   5.638   2.878  10.439  0.3690 -0.2547  1.0123
 4612SOL     OW16790   4.615   1.395   3.935  0.0208  0.2267  0.2806
 4612SOL    HW116791   4.577   1.455   3.871 -2.6935 -0.7703  0.8271
 4612SOL    HW216792   4.543   1.375   3.995  1.4771 -1.7408  1.5008
 4613SOL     OW16793   2.553   1.087   7.603 -0.3169 -0.1648  0.6155
 4613SOL    HW116794   2.499   1.095   7.525  0.5092 -0.8633 -0.0523
 4613SOL    HW216795   2.511   1.018   7.654 -1.0489  0.5222  0.9745
 4614SOL     OW16796   4.438   5.529   8.666 -0.0005 -0.5256  0.0265
 4614SOL    HW116797   4.350   5.509   8.635 -0.2157  0.3198  0.0738
 4614SOL    HW216798   4.441   5.624   8.672  1.1531 -0.4978 -0.6399
 4615SOL     OW16799   5.913   5.516   7.929  0.2395  0.0183  0.0162
 4615SOL    HW116800   5.975   5.476   7.989 -0.2860 -0.4329  0.2601
 4615SOL    HW216801   5.861   5.443   7.895 -1.4008  0.5656  1.2313
 4616SOL     OW16802   6.083   6.031   1.342 -0.4102  0.0986 -0.4651
 4616SOL    HW116803   6.011   6.004   1.399  0.2772  1.6967  1.2800
 4616SOL    HW216804   6.138   5.953   1.335 -0.9281 -0.3648  0.4260
 4617SOL     OW16805   1.798   4.923  10.198  0.4003 -0.3587  0.0082
 4617SOL    HW116806   1.809   4.971  10.116 -0.1446 -0.4463 -0.1185
 4617SOL    HW216807   1.706   4.897  10.199  0.3706 -0.2524  0.7066
 4618SOL     OW16808   9.786   6.966   3.851 -0.2147  0.1616  0.6827
 4618SOL    HW116809   9.741   7.050   3.848  3.4583  2.3625  1.3010
 4618SOL    HW216810   9.808   6.954   3.943 -1.7008 -2.2072  0.8117
 4619SOL     OW16811   1.084   4.857   1.951  0.1033 -0.6093  0.5550
 4619SOL    HW116812   1.039   4.862   1.867  0.8506 -1.5398  0.0936
 4619SOL    HW216813   1.053   4.935   1.999  0.6016  0.6020 -1.0167
 4620SOL     OW16814   5.131   2.690   7.468 -0.1806  0.5146  0.3842
 4620SOL    HW116815   5.043   2.688   7.431  0.1946  2.8263 -0.8299
 4620SOL    HW216816   5.190   2.681   7.393  0.7083 -2.0437  1.2742
 4621SOL     OW16817   1.546   6.851   8.351 -0.2825 -0.3815  0.5049
 4621SOL    HW116818   1.615   6.903   8.310  0.5950 -0.5292  1.7257
 4621SOL    HW216819   1.510   6.908   8.419  0.2994 -1.1295  1.4727
 4622SOL     OW16820   3.125  10.572   6.801  0.1055 -0.1794 -0.0731
 4622SOL    HW116821   3.148  10.663   6.816 -0.6393  0.1752 -1.0077
 4622SOL    HW216822   3.031  10.573   6.783 -0.3263 -1.3624  1.7816
 4623SOL     OW16823   8.734   1.554   2.085 -0.0838 -0.0059  0.2161
 4623SOL    HW116824   8.812   1.607   2.106  0.5542 -1.1156  0.7431
 4623SOL    HW216825   8.744   1.531   1.993 -0.2476  0.5879  0.0464
 4624SOL     OW16826   2.185   9.739   2.381  0.1945 -0.3060 -0.0415
 4624SOL    HW116827   2.278   9.723   2.367  0.5053 -0.0243  1.4583
 4624SOL    HW216828   2.163   9.685   2.457 -1.2162 -1.4505 -1.2124
 4625SOL     OW16829   2.442   2.804  10.330 -0.5154 -0.0958 -0.5036
 4625SOL    HW116830   2.445   2.877  10.267 -1.4873  0.5756  0.1966
 4625SOL    HW216831   2.505   2.741  10.296  0.5382  1.1722 -1.0092
 4626SOL     OW16832   7.050   2.352   0.598  0.2439  0.3951 -0.0293
 4626SOL    HW116833   7.061   2.289   0.670 -0.6796  0.8817  0.5522
 4626SOL    HW216834   7.028   2.434   0.642  0.1435  0.8175 -0.8567
 4627SOL     OW16835   5.307   7.613   6.716  0.9189  0.0165  0.1509
 4627SOL    HW116836   5.384   7.585   6.665 -0.3856 -0.9838 -1.3725
 4627SOL    HW216837   5.233   7.576   6.669 -0.4880  0.5141  1.8786
 4628SOL     OW16838   4.875   7.608   5.333 -0.3199  0.1149  0.7391
 4628SOL    HW116839   4.816   7.550   5.286 -0.6315  2.4075 -1.9987
 4628SOL    HW216840   4.905   7.557   5.408 -2.7799 -2.4620  0.1329
 4629SOL     OW16841   7.685   6.072   3.888  0.5858 -0.1954 -0.2523
 4629SOL    HW116842   7.669   5.979   3.901  1.8930 -0.3073  0.8303
 4629SOL    HW216843   7.739   6.098   3.963  0.3891  1.3961 -0.6160
 4630SOL     OW16844   7.751   8.198   2.569  0.3159 -0.1687 -0.0371
 4630SOL    HW116845   7.778   8.289   2.579 -0.8478  0.0632  1.2612
 4630SOL    HW216846   7.782   8.155   2.649  0.2797 -0.7756 -0.3427
 4631SOL     OW16847   4.239  10.410   2.292  0.2702  0.4593  0.0529
 4631SOL    HW116848   4.260  10.500   2.265  0.3613  0.7087  0.9160
 4631SOL    HW216849   4.314  10.358   2.261 -0.2705  0.4821 -1.3808
 4632SOL     OW16850  10.133   9.106   7.256 -0.0982  0.7234  0.1325
 4632SOL    HW116851  10.116   9.175   7.319 -0.9403  1.5489 -0.9738
 4632SOL    HW216852  10.084   9.131   7.178  2.2351  0.6394 -1.4827
 4633SOL     OW16853   9.134   3.183   1.522  0.0938 -0.3954 -0.4571
 4633SOL    HW116854   9.070   3.167   1.453  0.0624  0.4419 -0.6362
 4633SOL    HW216855   9.086   3.232   1.589 -0.3460 -2.6732  0.9968
 4634SOL     OW16856   3.720   2.773   3.189 -0.1696  0.1455  0.2525
 4634SOL    HW116857   3.802   2.813   3.160 -0.5684  0.7980  0.0114
 4634SOL    HW216858   3.682   2.735   3.110  0.7726 -1.7794  0.6768
 4635SOL     OW16859   4.333   0.733   4.070  0.1323  0.6003  0.3718
 4635SOL    HW116860   4.348   0.730   3.976  0.9591 -0.9704  0.5184
 4635SOL    HW216861   4.253   0.785   4.081 -0.6058 -0.1248 -1.2805
 4636SOL     OW16862   6.718   1.327   2.951  0.3919  0.3331  0.1329
 4636SOL    HW116863   6.792   1.272   2.926  0.4317  0.1616  0.6214
 4636SOL    HW216864   6.749   1.416   2.937  0.3089  0.2380 -0.7089
 4637SOL     OW16865   9.176   2.263   0.915  0.3310  0.0510  0.3709
 4637SOL    HW116866   9.096   2.211   0.916 -0.3857  1.1313  0.3782
 4637SOL    HW216867   9.206   2.265   1.006 -1.0212  1.7080  0.8197
 4638SOL     OW16868   7.777   1.622   9.698 -0.5286 -0.0403  0.3255
 4638SOL    HW116869   7.687   1.604   9.669 -1.0352 -0.0248  1.8071
 4638SOL    HW216870   7.780   1.717   9.710  0.0856  0.1163 -0.9261
 4639SOL     OW16871   6.493   1.681   9.698 -0.0937 -0.0974  0.0431
 4639SOL    HW116872   6.412   1.633   9.712  0.4946 -0.8202  1.1511
 4639SOL    HW216873   6.493   1.750   9.765  0.4378 -0.4372  0.4056
 4640SOL     OW16874   5.304   7.003   4.087  0.0179  0.1520 -0.1616
 4640SOL    HW116875   5.221   6.995   4.041 -0.3960 -0.6127  0.6931
 4640SOL    HW216876   5.285   7.063   4.160 -0.0324 -0.6928  0.5428
 4641SOL     OW16877   2.835   7.770   7.353 -0.2454 -0.3408  0.0288
 4641SOL    HW116878   2.873   7.856   7.333 -2.1715  0.7684  0.8900
 4641SOL    HW216879   2.898   7.729   7.412  1.0683  0.1288 -0.9835
 4642SOL     OW16880   3.157   7.130   5.692  0.4140  0.0034 -0.2005
 4642SOL    HW116881   3.122   7.042   5.676  2.8418 -1.0281 -0.3048
 4642SOL    HW216882   3.206   7.150   5.612  5.4561 -1.5031  2.1208
 4643SOL     OW16883  10.267   0.936   6.468 -0.2499 -0.3929  0.0900
 4643SOL    HW116884  10.229   0.946   6.380 -0.2544  0.9323  0.2105
 4643SOL    HW216885  10.360   0.954   6.456 -0.5331  1.7410  0.6121
 4644SOL     OW16886   0.528   2.485   0.451 -0.2223 -0.4903  0.0483
 4644SOL    HW116887   0.505   2.549   0.384 -0.9991  0.6640  1.3650
 4644SOL    HW216888   0.461   2.417   0.443 -0.6183 -0.0976 -0.0232
 4645SOL     OW16889   4.850   1.157   8.552 -0.5436 -0.2875 -0.2955
 4645SOL    HW116890   4.896   1.097   8.494  1.7210  0.5285  0.5345
 4645SOL    HW216891   4.810   1.222   8.494 -1.1920 -1.3401 -1.0660
 4646SOL     OW16892   5.105   6.561   8.324  0.3853 -0.3851 -0.1789
 4646SOL    HW116893   5.060   6.645   8.328  2.5977  0.8606  0.1580
 4646SOL    HW216894   5.084   6.518   8.407  1.6871  1.2173  1.0405
 4647SOL     OW16895   4.473   1.289   5.186 -0.1831  0.3164  0.1023
 4647SOL    HW116896   4.535   1.362   5.197  0.0086  0.3634 -1.2009
 4647SOL    HW216897   4.527   1.216   5.155 -0.2053 -0.7121  2.2578
 4648SOL     OW16898   7.787   2.921   7.871  0.2719  0.6836  0.3222
 4648SOL    HW116899   7.844   2.998   7.862  0.5175  0.4538 -0.1017
 4648SOL    HW216900   7.800   2.872   7.790 -0.7016  0.7433  0.1207
 4649SOL     OW16901   8.863   0.650   4.563 -0.2534  0.2200 -0.6461
 4649SOL    HW116902   8.791   0.664   4.625 -0.4399 -0.5557 -0.6837
 4649SOL    HW216903   8.834   0.690   4.482 -2.1594 -2.9890 -1.7210
 4650SOL     OW16904   8.084   0.977   5.069 -0.2113  0.4713 -0.5661
 4650SOL    HW116905   8.054   0.912   5.131 -2.4317  1.4090 -0.5439
 4650SOL    HW216906   8.118   1.049   5.123  1.8187 -0.4325 -0.5819
 4651SOL     OW16907   1.135   2.751   1.592  0.2582 -0.4545  0.2560
 4651SOL    HW116908   1.136   2.741   1.687  0.7976  0.3345  0.3491
 4651SOL    HW216909   1.179   2.673   1.559  0.3574 -0.5805  0.6717
 4652SOL     OW16910   1.231   8.412   6.894 -0.0103  0.0739 -0.0334
 4652SOL    HW116911   1.267   8.492   6.857 -1.4193  0.5304 -0.4482
 4652SOL    HW216912   1.259   8.343   6.833  0.0601  0.4274 -0.4051
 4653SOL     OW16913   1.584   6.293   5.445 -0.3797  0.7289 -0.2866
 4653SOL    HW116914   1.545   6.337   5.521  0.4051  1.9629 -0.5507
 4653SOL    HW216915   1.593   6.363   5.380 -1.9496 -0.5137 -1.9157
 4654SOL     OW16916   8.342   2.518   7.997  0.2491  0.1158 -0.1409
 4654SOL    HW116917   8.289   2.463   7.940  0.8034  0.1104 -0.6696
 4654SOL    HW216918   8.375   2.458   8.065  1.3644 -0.3741 -1.0701
 4655SOL     OW16919   9.826   1.938  10.607 -0.1637  0.1459  0.5237
 4655SOL    HW116920   9.776   1.967  10.531  0.9173 -1.8436 -1.0427
 4655SOL    HW216921   9.761   1.903  10.668 -0.8288 -0.7984 -0.7109
 4656SOL     OW16922   1.226   5.852   4.631  0.6631 -0.6727  0.0875
 4656SOL    HW116923   1.267   5.786   4.576  0.4438  0.4891 -1.5544
 4656SOL    HW216924   1.264   5.935   4.602 -0.7908  0.1557  0.4213
 4657SOL     OW16925  10.358   7.894   5.740  0.2730  0.2871  0.2559
 4657SOL    HW116926  10.407   7.928   5.815  1.2108 -0.8820  0.1976
 4657SOL    HW216927  10.415   7.827   5.703 -0.5611  0.2346 -0.9826
 4658SOL     OW16928   0.030   2.202   4.329 -0.3716  0.1444  0.1079
 4658SOL    HW116929   0.087   2.170   4.399  0.3541  0.7628 -0.1876
 4658SOL    HW216930   0.054   2.294   4.318  0.1623 -0.1468 -1.5479
 4659SOL     OW16931   6.306   6.128   7.522 -0.1772  0.1178  0.2501
 4659SOL    HW116932   6.345   6.204   7.565  2.4596 -0.8202 -0.3053
 4659SOL    HW216933   6.359   6.054   7.551 -0.5396 -1.0350 -1.8473
 4660SOL     OW16934   2.496   9.327   5.423  0.3542  0.0912  0.7930
 4660SOL    HW116935   2.436   9.356   5.492  0.4523  0.4531  0.7234
 4660SOL    HW216936   2.543   9.405   5.397  1.3880 -0.3298  1.3583
 4661SOL     OW16937   4.062   6.496   3.495 -0.4467 -0.0299 -0.3154
 4661SOL    HW116938   3.969   6.502   3.476 -0.0459 -0.5858 -2.8781
 4661SOL    HW216939   4.105   6.529   3.415  1.5416 -1.4992  0.0620
 4662SOL     OW16940   7.478   7.812   5.368 -0.3051  0.1343 -0.4426
 4662SOL    HW116941   7.433   7.886   5.327  0.2054  0.5056 -0.3282
 4662SOL    HW216942   7.452   7.817   5.461  0.2995  0.5911 -0.2970
 4663SOL     OW16943  10.455  10.510   1.744  0.1365 -0.8789 -0.2606
 4663SOL    HW116944  10.388  10.446   1.721  1.2970 -1.5448 -1.9540
 4663SOL    HW216945  10.411  10.569   1.806 -2.1170 -1.0712 -1.5740
 4664SOL     OW16946   6.855   0.293   4.704 -0.0155 -0.0129  0.2990
 4664SOL    HW116947   6.787   0.254   4.650 -0.8226  0.3831  1.0084
 4664SOL    HW216948   6.811   0.362   4.754  1.2705  1.5351 -0.5850
 4665SOL     OW16949   1.739   5.959  10.175  0.4119 -0.4985  0.3597
 4665SOL    HW116950   1.654   6.001  10.189  0.1443 -1.3294  1.4049
 4665SOL    HW216951   1.803   6.028  10.188 -0.0805  0.0929 -0.2408
 4666SOL     OW16952   4.513   1.223   4.835  0.0087 -0.1115  0.1446
 4666SOL    HW116953   4.606   1.225   4.859  0.0393 -0.2617  0.0353
 4666SOL    HW216954   4.485   1.133   4.853 -0.1708 -0.0090  0.3862
 4667SOL     OW16955   5.562   0.226   4.069  0.0582  0.3311 -0.2303
 4667SOL    HW116956   5.475   0.193   4.046  0.1384 -0.8191  1.0062
 4667SOL    HW216957   5.622   0.159   4.036  0.2674 -0.4615  1.6575
 4668SOL     OW16958   8.081   7.454   0.829  0.0449 -0.3768 -0.1242
 4668SOL    HW116959   8.125   7.441   0.914 -2.8196 -0.8071  1.4115
 4668SOL    HW216960   8.095   7.372   0.782 -0.1062 -0.9598  0.8162
 4669SOL     OW16961   3.142   9.639   2.131 -0.5311 -0.4018 -0.1628
 4669SOL    HW116962   3.080   9.600   2.193 -0.9384 -0.1704 -0.4189
 4669SOL    HW216963   3.224   9.593   2.147 -0.5990 -0.2677  0.6263
 4670SOL     OW16964   5.105  10.487   4.295  0.5583 -0.5470 -0.5192
 4670SOL    HW116965   5.142  10.404   4.324  0.2795 -1.5069 -2.7613
 4670SOL    HW216966   5.022  10.494   4.341  1.1532 -0.8554  0.6520
 4671SOL     OW16967   8.032  10.021  10.618  0.0730  0.1780  0.0353
 4671SOL    HW116968   7.980  10.013  10.538  0.2153 -0.3838 -0.0092
 4671SOL    HW216969   8.097  10.087  10.597  1.9815 -1.9799 -1.3940
 4672SOL     OW16970   0.924   6.507   4.722 -0.5494  0.5086 -0.2079
 4672SOL    HW116971   0.919   6.416   4.752 -2.1804  0.2361 -1.2301
 4672SOL    HW216972   0.971   6.503   4.639  0.6338  0.8004  0.4267
 4673SOL     OW16973   8.903   8.668  10.223 -0.4780  0.1435 -0.4999
 4673SOL    HW116974   8.867   8.589  10.263 -1.2808  1.5869  1.8235
 4673SOL    HW216975   8.883   8.738  10.286  3.0944  1.6766 -0.8302
 4674SOL     OW16976   1.703   2.521   5.065  0.1883  0.1753 -0.3558
 4674SOL    HW116977   1.727   2.468   4.989 -0.4379  0.5263 -0.8099
 4674SOL    HW216978   1.709   2.612   5.034 -0.2190  0.3184 -0.0350
 4675SOL     OW16979   6.249  10.022   7.219 -0.8705  0.7236 -0.5148
 4675SOL    HW116980   6.256  10.103   7.168  2.4178  1.2155  0.5069
 4675SOL    HW216981   6.253  10.050   7.310  2.4162 -0.5918 -0.1375
 4676SOL     OW16982   5.871   2.760   9.303 -0.1161 -0.2685 -0.0846
 4676SOL    HW116983   5.928   2.762   9.226  0.3048 -1.0019  0.1987
 4676SOL    HW216984   5.818   2.681   9.291  2.3040 -2.3585  2.0029
 4677SOL     OW16985   2.478   1.004   0.950 -0.3236  0.5773 -0.0326
 4677SOL    HW116986   2.527   0.985   0.871  1.4910 -3.0004  1.7428
 4677SOL    HW216987   2.386   0.992   0.925  0.2078 -0.5693 -1.5887
 4678SOL     OW16988   7.169   8.135   1.345  0.0550  0.3243 -0.6321
 4678SOL    HW116989   7.233   8.205   1.359 -0.0106  0.5072 -1.2232
 4678SOL    HW216990   7.164   8.125   1.250 -0.1344 -0.3038 -0.5642
 4679SOL     OW16991   4.320   7.027   9.286  0.3105 -0.4048  0.0749
 4679SOL    HW116992   4.416   7.033   9.285  0.3190 -0.0333 -2.1339
 4679SOL    HW216993   4.291   7.118   9.290 -0.0109 -0.5559  2.1337
 4680SOL     OW16994   0.061   4.390   9.348  0.1330 -0.4028  0.4290
 4680SOL    HW116995   0.057   4.361   9.257  1.6474 -0.5879  0.3857
 4680SOL    HW216996   0.131   4.456   9.349 -1.0444  0.8976  1.1509
 4681SOL     OW16997   4.922   2.436   6.405 -0.6704  0.4881 -0.1397
 4681SOL    HW116998   4.855   2.471   6.347 -1.0983  1.0416  0.6661
 4681SOL    HW216999   4.957   2.512   6.451  0.3588  0.1801 -0.3769
 4682SOL     OW17000   8.094   6.371   8.407  0.3672  0.0634 -0.6371
 4682SOL    HW117001   8.027   6.302   8.407  1.2017 -0.7664 -0.4683
 4682SOL    HW217002   8.057   6.440   8.463 -0.3963 -0.3266 -0.6482
 4683SOL     OW17003   5.339   3.154   3.533 -0.1842 -0.5068  0.0624
 4683SOL    HW117004   5.338   3.176   3.440  1.2963 -1.0914 -0.1224
 4683SOL    HW217005   5.355   3.237   3.577  1.3094 -0.5257 -0.3762
 4684SOL     OW17006   5.191   1.283   3.667 -0.3089 -0.5441 -0.1795
 4684SOL    HW117007   5.191   1.344   3.741 -0.7243 -0.3162 -0.3569
 4684SOL    HW217008   5.147   1.332   3.597  2.1176  0.1318 -1.3243
 4685SOL     OW17009   1.649   3.853   8.608  0.0628  0.0104 -0.0826
 4685SOL    HW117010   1.594   3.882   8.681  1.7200 -0.2642  1.3459
 4685SOL    HW217011   1.684   3.769   8.638  0.6259 -0.1993 -1.2965
 4686SOL     OW17012   0.325   6.488   5.631  1.0194 -0.1747  0.3372
 4686SOL    HW117013   0.283   6.560   5.679  2.0786  0.1428  0.8075
 4686SOL    HW217014   0.416   6.515   5.622  1.1494 -0.8846 -0.6173
 4687SOL     OW17015   5.141   5.970  10.692 -0.3706  0.1443  0.0303
 4687SOL    HW117016   5.057   5.987  10.650 -0.3270  2.6532  0.7820
 4687SOL    HW217017   5.142   5.876  10.707 -2.4127 -0.1490 -1.2708
 4688SOL     OW17018   9.384   2.510   8.746 -0.1604 -0.0495 -0.2057
 4688SOL    HW117019   9.410   2.437   8.691  0.5704  0.5030 -0.6019
 4688SOL    HW217020   9.304   2.544   8.705 -1.3896 -1.5325  0.8273
 4689SOL     OW17021   7.208   9.403   3.700 -0.2561 -0.4259 -0.0680
 4689SOL    HW117022   7.223   9.382   3.792  0.0482 -2.7250 -0.5842
 4689SOL    HW217023   7.125   9.452   3.700  1.3134  2.5559  1.6801
 4690SOL     OW17024   6.251   2.248   7.007  0.3315 -0.5764 -0.4461
 4690SOL    HW117025   6.282   2.285   6.925  0.1270 -2.1856 -1.2838
 4690SOL    HW217026   6.156   2.251   7.002  0.2998  0.8024  0.4576
 4691SOL     OW17027   2.267   1.489   2.347 -0.7424  0.0809  0.2411
 4691SOL    HW117028   2.213   1.438   2.286 -0.9667  0.9680 -0.3137
 4691SOL    HW217029   2.209   1.558   2.378 -0.0391  0.8137 -0.0560
 4692SOL     OW17030   4.220   6.158   2.007 -0.1493 -0.3940  0.2533
 4692SOL    HW117031   4.285   6.229   2.005  1.4282 -1.7968 -0.1887
 4692SOL    HW217032   4.270   6.079   2.026 -1.6976 -1.5900 -0.3503
 4693SOL     OW17033   5.468   7.370   6.911 -0.2622  0.4034 -0.0986
 4693SOL    HW117034   5.407   7.342   6.842  0.8384 -1.8563 -0.2449
 4693SOL    HW217035   5.534   7.421   6.865  1.3109 -2.3532 -1.1273
 4694SOL     OW17036   8.423   6.968  10.576  0.1699 -0.0028 -0.2351
 4694SOL    HW117037   8.400   7.037  10.514 -0.9744 -0.1085  0.0423
 4694SOL    HW217038   8.423   7.012  10.662  1.0735 -0.0011 -0.2311
 4695SOL     OW17039   0.399   4.477   6.372  0.3504 -0.0556  0.4746
 4695SOL    HW117040   0.411   4.529   6.452 -1.6940  0.4164  0.5347
 4695SOL    HW217041   0.413   4.540   6.301 -2.8699  0.9374  0.5448
 4696SOL     OW17042   9.658   6.709   7.096 -0.0723 -0.1341 -0.7130
 4696SOL    HW117043   9.624   6.736   7.181  0.5044  1.8245 -1.0550
 4696SOL    HW217044   9.580   6.684   7.046 -0.5090 -0.3486  0.0656
 4697SOL     OW17045   4.198  10.450   5.142  0.0263 -0.0697 -0.6692
 4697SOL    HW117046   4.111  10.489   5.134 -0.7622 -1.3142  1.2277
 4697SOL    HW217047   4.202  10.419   5.232  2.5648  0.2067 -0.6124
 4698SOL     OW17048   8.045   2.081   3.565  0.0323 -0.0001 -0.3608
 4698SOL    HW117049   8.050   2.015   3.634  1.2140  1.4443  1.0143
 4698SOL    HW217050   8.098   2.046   3.494 -0.6918 -1.2353 -0.3168
 4699SOL     OW17051   1.576   5.725   7.716  0.0568  0.2182 -0.2202
 4699SOL    HW117052   1.607   5.802   7.763  0.2350 -0.0407  0.0865
 4699SOL    HW217053   1.565   5.755   7.625  0.3022  0.5554 -0.1390
 4700SOL     OW17054   8.638   3.973   4.790 -0.0348  0.3422 -0.0536
 4700SOL    HW117055   8.625   3.880   4.809 -1.0220  0.4767  0.0089
 4700SOL    HW217056   8.733   3.985   4.789  0.0942 -0.5361  0.5846
 4701SOL     OW17057   5.587   3.063   3.066 -0.2154 -0.2658  0.5962
 4701SOL    HW117058   5.616   3.018   3.145  1.5512  0.6577  0.5190
 4701SOL    HW217059   5.632   3.018   2.994  1.8525  1.7056  0.5481
 4702SOL     OW17060   1.190   6.347   5.473 -0.1172  0.3736 -0.1665
 4702SOL    HW117061   1.208   6.430   5.518  1.7507  0.2652 -0.6088
 4702SOL    HW217062   1.219   6.362   5.383  0.7370 -0.8813 -0.1274
 4703SOL     OW17063   6.553   1.865   1.043 -0.0513  0.8129 -0.2122
 4703SOL    HW117064   6.501   1.848   0.965  0.2730  0.4983 -0.3636
 4703SOL    HW217065   6.557   1.960   1.049 -0.8760  0.8447 -0.0379
 4704SOL     OW17066   7.804   2.294   6.069 -0.0196 -0.1448  0.6033
 4704SOL    HW117067   7.740   2.223   6.065  0.3969 -0.4578 -1.4180
 4704SOL    HW217068   7.876   2.259   6.120  0.4383 -1.4535 -0.8692
 4705SOL     OW17069   1.212   2.398   6.453 -0.0559  0.4692 -0.1652
 4705SOL    HW117070   1.222   2.434   6.365 -0.8933 -0.9817 -0.8997
 4705SOL    HW217071   1.300   2.401   6.491  0.7463 -0.7250 -1.8221
 4706SOL     OW17072   1.202   0.763   7.853 -0.0067  0.0626  0.7456
 4706SOL    HW117073   1.260   0.690   7.829 -0.3877 -0.4243  1.2903
 4706SOL    HW217074   1.143   0.771   7.778  1.3093  1.1622 -0.2365
 4707SOL     OW17075   9.722   3.166   4.012  0.2659 -0.1017  0.7158
 4707SOL    HW117076   9.640   3.171   3.964  0.9245 -2.5322 -0.8186
 4707SOL    HW217077   9.717   3.238   4.075 -1.8660  1.4491 -1.0749
 4708SOL     OW17078   0.914   4.317   5.216 -0.4713 -0.4317  0.2101
 4708SOL    HW117079   0.915   4.405   5.178 -1.6576 -0.8582 -0.8552
 4708SOL    HW217080   0.925   4.258   5.141 -2.3321 -1.2800  0.5568
 4709SOL     OW17081   6.988  10.200   0.631  0.1287 -0.0923 -0.3179
 4709SOL    HW117082   7.043  10.270   0.596  2.2883 -1.7337 -0.4000
 4709SOL    HW217083   6.928  10.244   0.691  1.8359  1.7692  0.1201
 4710SOL     OW17084   5.306   8.024   7.011  0.6845 -0.0089 -0.7978
 4710SOL    HW117085   5.284   7.951   6.953  0.0060 -1.0881  0.7662
 4710SOL    HW217086   5.336   7.983   7.092  0.3452  1.4470  0.1046
 4711SOL     OW17087   6.704   3.826   5.868 -0.3784 -0.0050 -0.2524
 4711SOL    HW117088   6.737   3.866   5.948 -1.1035 -1.6696  0.9472
 4711SOL    HW217089   6.631   3.882   5.841 -2.8461 -1.5400  2.6487
 4712SOL     OW17090   3.732   9.911   4.872 -0.4755  0.1265 -0.1969
 4712SOL    HW117091   3.800   9.971   4.901 -1.6663  1.1480  0.5730
 4712SOL    HW217092   3.763   9.877   4.789  1.2615  0.0786  0.4416
 4713SOL     OW17093   7.024   8.361   8.761  0.2328  0.4889 -0.4648
 4713SOL    HW117094   7.064   8.367   8.847 -1.8556  0.8446  0.5452
 4713SOL    HW217095   6.942   8.314   8.775 -1.0219  2.0643 -1.8995
 4714SOL     OW17096   3.039   3.298   6.788  0.0659  0.2044  0.1818
 4714SOL    HW117097   3.053   3.242   6.711 -0.3968 -1.5188  1.2882
 4714SOL    HW217098   3.067   3.243   6.862 -1.4162  1.0497  1.4194
 4715SOL     OW17099   3.486   9.011   5.437 -0.0138  0.4418  0.4460
 4715SOL    HW117100   3.563   9.019   5.380  1.2462 -1.8993  1.6759
 4715SOL    HW217101   3.484   9.093   5.486  1.0634  0.9786 -0.3463
 4716SOL     OW17102   1.360   3.312   8.650  0.4865 -0.1726  0.5207
 4716SOL    HW117103   1.314   3.368   8.588  1.1043 -1.2502 -0.9610
 4716SOL    HW217104   1.317   3.226   8.641  0.9240 -0.4754  1.2139
 4717SOL     OW17105   1.741   7.354  10.062 -0.5323 -0.0770 -0.2128
 4717SOL    HW117106   1.692   7.436  10.068  0.0997  0.2009  3.5358
 4717SOL    HW217107   1.833   7.381  10.060 -0.3086 -0.7075 -3.1266
 4718SOL     OW17108  10.064   3.682   7.851  0.5210 -0.1446 -0.1316
 4718SOL    HW117109  10.036   3.704   7.939  1.6979 -0.6674  0.4056
 4718SOL    HW217110   9.983   3.661   7.804 -0.0485 -0.7891  1.0910
 4719SOL     OW17111   9.587   3.610   6.830  0.0752  0.2565 -0.0002
 4719SOL    HW117112   9.665   3.615   6.885 -1.3613  0.4449  2.1327
 4719SOL    HW217113   9.603   3.673   6.760  1.7751  0.3790  0.4626
 4720SOL     OW17114   6.116  10.319   4.138  0.1503  0.0637  0.0414
 4720SOL    HW117115   6.210  10.312   4.157 -0.2521  0.1141  2.3730
 4720SOL    HW217116   6.075  10.327   4.224 -2.2179 -2.4994 -0.7135
 4721SOL     OW17117   8.118   2.341  10.040  0.5525  0.5447  0.0985
 4721SOL    HW117118   8.199   2.353  10.089  0.2505  0.2667  0.6809
 4721SOL    HW217119   8.123   2.406   9.970  1.6380 -0.0256 -0.3667
 4722SOL     OW17120   2.307   2.759   5.175 -0.1105 -0.5363 -0.0116
 4722SOL    HW117121   2.277   2.849   5.168 -2.6646 -1.0975  2.0938
 4722SOL    HW217122   2.299   2.723   5.087 -0.9375  0.7705 -0.4862
 4723SOL     OW17123   1.977  10.046   9.954  0.2671 -0.1215 -0.7195
 4723SOL    HW117124   1.910  10.001   9.904 -1.1451  0.1273  0.8732
 4723SOL    HW217125   1.984   9.995  10.036  0.2238  1.2566  0.1683
 4724SOL     OW17126   6.242   7.338   6.792  0.1744  0.2588  0.0302
 4724SOL    HW117127   6.302   7.383   6.852  0.0530  2.0655 -1.1102
 4724SOL    HW217128   6.156   7.376   6.812 -0.3385 -1.0836  0.5026
 4725SOL     OW17129   7.941   8.054   6.579  0.0054 -0.1474 -0.9570
 4725SOL    HW117130   8.013   8.065   6.517 -0.8939  0.1820 -1.9735
 4725SOL    HW217131   7.864   8.084   6.531 -1.0656 -2.0113 -0.4823
 4726SOL     OW17132   8.218   1.436   8.070  0.4846 -0.1660 -0.3313
 4726SOL    HW117133   8.173   1.369   8.121 -0.0684 -1.2810 -2.1689
 4726SOL    HW217134   8.230   1.509   8.130 -1.5367 -0.8022  0.9248
 4727SOL     OW17135   4.255   7.587   4.317 -0.6951 -0.2489 -0.0965
 4727SOL    HW117136   4.209   7.658   4.272  0.5317  1.8689  1.7892
 4727SOL    HW217137   4.346   7.615   4.321 -0.3404 -1.4565  1.5576
 4728SOL     OW17138   9.962   1.600   8.534  0.0886  0.3537 -0.2189
 4728SOL    HW117139  10.008   1.684   8.543  0.3785  0.2268 -0.5192
 4728SOL    HW217140  10.023   1.535   8.568 -0.9641  0.4823  2.0747
 4729SOL     OW17141   6.394   9.215   1.895 -0.2136  0.5100 -0.2052
 4729SOL    HW117142   6.383   9.156   1.970 -0.2619  2.0711  1.0641
 4729SOL    HW217143   6.337   9.289   1.915  1.3276  1.9017 -0.7866
 4730SOL     OW17144   7.318   7.325   4.164  0.0332  0.2816  0.4498
 4730SOL    HW117145   7.344   7.255   4.225 -0.6867 -0.5518 -0.1687
 4730SOL    HW217146   7.341   7.406   4.209 -0.6280 -0.3043  1.9003
 4731SOL     OW17147   5.770   2.085   5.581 -0.5556  0.2670  0.0764
 4731SOL    HW117148   5.864   2.071   5.574 -0.3925  1.8299 -2.2234
 4731SOL    HW217149   5.738   2.073   5.491 -2.2666  1.4210  0.4837
 4732SOL     OW17150   1.493   5.406   0.162  0.1008 -0.2818  0.1118
 4732SOL    HW117151   1.533   5.437   0.243 -1.0532 -0.7087  0.8832
 4732SOL    HW217152   1.498   5.480   0.102  1.6180 -0.1870  0.3152
 4733SOL     OW17153   0.371   0.183   9.888 -0.0042  0.7149 -0.6171
 4733SOL    HW117154   0.411   0.187   9.801  1.4165 -1.1817 -0.1274
 4733SOL    HW217155   0.409   0.104   9.928  0.1013  2.0298  2.0821
 4734SOL     OW17156   8.946   6.088   4.367  0.4665 -0.3830  0.1066
 4734SOL    HW117157   8.961   5.996   4.390  1.2880 -0.2315  0.2104
 4734SOL    HW217158   9.007   6.105   4.295 -0.1074 -0.0821 -0.3089
 4735SOL     OW17159   7.240   9.195   3.553 -0.7738  0.0322  0.2836
 4735SOL    HW117160   7.264   9.129   3.618 -0.7126 -0.4345 -0.1977
 4735SOL    HW217161   7.215   9.271   3.604 -0.9861 -0.4133  0.8579
 4736SOL     OW17162   7.947   8.409   7.589  0.0212 -0.2223 -0.0217
 4736SOL    HW117163   8.008   8.436   7.521  1.6707 -1.0010  1.0506
 4736SOL    HW217164   7.960   8.472   7.660 -1.7645  0.6591 -0.4278
 4737SOL     OW17165   9.092   5.727   7.130 -0.0029 -0.0212  0.5368
 4737SOL    HW117166   9.080   5.633   7.146 -0.0262  0.0699  1.0535
 4737SOL    HW217167   9.173   5.732   7.080  0.7931 -0.1987  1.7889
 4738SOL     OW17168   4.677   1.687   1.451  0.1029 -0.0059 -0.3030
 4738SOL    HW117169   4.737   1.709   1.380 -0.0375 -1.3049 -0.8618
 4738SOL    HW217170   4.642   1.601   1.426 -0.1863 -0.3443  1.1849
 4739SOL     OW17171   5.423   7.080   1.474 -0.1144 -0.2840 -0.3501
 4739SOL    HW117172   5.379   7.123   1.401  0.4977 -0.0085 -0.5641
 4739SOL    HW217173   5.420   7.145   1.545 -0.9232 -0.6422 -0.0419
 4740SOL     OW17174   8.146   0.443   4.280 -0.7234 -0.5105  0.3762
 4740SOL    HW117175   8.077   0.508   4.288  0.2499  0.3406  2.8318
 4740SOL    HW217176   8.124   0.377   4.346  0.2826 -0.7130  0.5230
 4741SOL     OW17177  10.196   3.099   3.493 -0.1955 -0.7420 -0.5749
 4741SOL    HW117178  10.244   3.087   3.575  0.9567 -1.9494 -1.3931
 4741SOL    HW217179  10.178   3.193   3.490 -2.3979 -0.9508  2.1887
 4742SOL     OW17180   7.550   4.839   3.871 -0.0000  0.3680 -0.0518
 4742SOL    HW117181   7.614   4.855   3.941 -0.4061 -1.0405  0.6633
 4742SOL    HW217182   7.467   4.828   3.916 -0.4820  0.5996 -0.8645
 4743SOL     OW17183   1.931  10.351   5.677 -0.4162  0.6307  0.4169
 4743SOL    HW117184   2.012  10.368   5.628  0.1608  4.1813  2.2447
 4743SOL    HW217185   1.874  10.425   5.655 -1.4461  0.5168  2.4465
 4744SOL     OW17186   1.077   9.850   1.694  0.0087  0.2329  0.6457
 4744SOL    HW117187   1.035   9.824   1.611  0.2524 -0.2037  0.6578
 4744SOL    HW217188   1.004   9.879   1.749 -0.1208  0.8296  0.1674
 4745SOL     OW17189   2.028   5.104   3.280 -0.2710 -0.5411 -0.0715
 4745SOL    HW117190   2.105   5.158   3.268 -2.1243  2.1078 -0.9251
 4745SOL    HW217191   2.009   5.067   3.194 -0.4769 -0.4172 -0.0813
 4746SOL     OW17192   3.943   9.428   9.420 -0.2254  0.2080 -0.3726
 4746SOL    HW117193   4.015   9.487   9.441  1.0252 -1.9432  2.1197
 4746SOL    HW217194   3.874   9.451   9.483  0.8091 -1.6998  1.6157
 4747SOL     OW17195   6.867   4.850   6.244  0.2332 -0.0175  0.1237
 4747SOL    HW117196   6.880   4.758   6.266 -0.9138 -0.4345 -0.8167
 4747SOL    HW217197   6.802   4.881   6.307  1.2058  0.3981  0.9569
 4748SOL     OW17198   4.828   3.902  10.105  0.2068  0.6409 -0.7179
 4748SOL    HW117199   4.892   3.831  10.109  0.0827  0.5719  1.7747
 4748SOL    HW217200   4.805   3.909  10.013  1.3560 -1.5293 -1.2259
 4749SOL     OW17201   4.520   0.116   3.961 -0.0200 -0.2256 -0.4528
 4749SOL    HW117202   4.431   0.084   3.949 -0.3718 -0.1545  1.5200
 4749SOL    HW217203   4.556   0.123   3.873 -1.6443 -1.1524 -1.2280
 4750SOL     OW17204   1.797   9.126   7.409  0.5602 -0.2467 -0.5469
 4750SOL    HW117205   1.806   9.036   7.377  2.2611 -0.1302 -0.4849
 4750SOL    HW217206   1.861   9.175   7.359 -0.3843  0.9619 -0.6071
 4751SOL     OW17207   5.902   8.513   8.235 -0.4896  0.4904  0.3875
 4751SOL    HW117208   5.991   8.545   8.225 -0.4653  0.8035  1.4798
 4751SOL    HW217209   5.896   8.439   8.174  0.2566  0.9698 -0.2800
 4752SOL     OW17210   4.538   8.747   8.414 -0.2830 -0.6997  0.5098
 4752SOL    HW117211   4.512   8.818   8.356  1.4796 -0.9224 -0.6410
 4752SOL    HW217212   4.599   8.788   8.476 -0.0986 -0.9836  0.5184
 4753SOL     OW17213   2.859  10.623  10.491 -0.0526 -0.1763 -0.4943
 4753SOL    HW117214   2.824  10.711  10.498 -0.7106 -0.3622 -1.2348
 4753SOL    HW217215   2.917  10.613  10.567  0.3310  1.0130 -0.6129
 4754SOL     OW17216   2.617   6.160   0.373  0.2497  0.5730  0.3684
 4754SOL    HW117217   2.524   6.141   0.370  0.6948 -1.9397  0.5657
 4754SOL    HW217218   2.637   6.176   0.465  0.5789 -2.5082  0.9167
 4755SOL     OW17219   0.225   2.846   6.093  0.8609  0.5229  0.3666
 4755SOL    HW117220   0.169   2.769   6.087 -0.3290  1.4234 -0.7224
 4755SOL    HW217221   0.294   2.831   6.028 -0.6397  1.3041 -1.5233
 4756SOL     OW17222   8.560   0.304   3.715 -0.2444 -0.1477  0.6836
 4756SOL    HW117223   8.506   0.243   3.767  0.0961 -1.7214 -0.7228
 4756SOL    HW217224   8.504   0.381   3.704 -0.4223  0.1716  3.1357
 4757SOL     OW17225   8.886   4.292   5.729  0.0896  0.4657  0.6121
 4757SOL    HW117226   8.850   4.243   5.655  1.6387  2.8351 -1.8892
 4757SOL    HW217227   8.809   4.320   5.779 -1.0075 -1.1958 -0.0339
 4758SOL     OW17228   4.527   1.356   4.606  0.1011  0.3008 -0.2823
 4758SOL    HW117229   4.508   1.321   4.693  0.0468  0.4743 -0.2231
 4758SOL    HW217230   4.532   1.451   4.619  1.3119  0.2477 -0.2428
 4759SOL     OW17231   6.163   9.023   8.039 -0.3343  0.1577 -0.0621
 4759SOL    HW117232   6.108   8.981   8.105 -0.3822  0.8252  0.3310
 4759SOL    HW217233   6.114   9.101   8.014  0.1224  0.3961 -0.2128
 4760SOL     OW17234   7.380   4.284   1.523  0.4547 -0.5014 -0.3706
 4760SOL    HW117235   7.466   4.284   1.481  0.5483 -1.3993 -0.1869
 4760SOL    HW217236   7.385   4.215   1.589 -0.4318 -0.6097 -0.4079
 4761SOL     OW17237   7.188   1.858   3.059  0.2474  0.4288 -0.4014
 4761SOL    HW117238   7.247   1.808   3.114  1.0065  2.2884  0.5641
 4761SOL    HW217239   7.241   1.884   2.984 -0.4763 -1.1459 -1.5277
 4762SOL     OW17240   3.744   2.902   3.952  0.1318  0.3265 -0.1002
 4762SOL    HW117241   3.665   2.898   3.898  0.0958  1.6136 -0.1931
 4762SOL    HW217242   3.809   2.945   3.896  0.9532 -0.8356 -0.0723
 4763SOL     OW17243   0.466   9.961   4.375 -0.2096 -0.6931 -0.0120
 4763SOL    HW117244   0.456   9.874   4.415  0.8166 -1.8056 -2.0267
 4763SOL    HW217245   0.501   9.944   4.288 -1.9304  1.6496 -1.2703
 4764SOL     OW17246   1.413   9.792  10.623 -0.0951 -0.4494  0.1322
 4764SOL    HW117247   1.424   9.766  10.531  0.9162  0.9963 -0.1755
 4764SOL    HW217248   1.388   9.711  10.667 -0.1951 -1.2597 -1.3449
 4765SOL     OW17249   8.553   3.062   9.088  0.3597  0.1163  0.3576
 4765SOL    HW117250   8.511   2.980   9.064 -0.1208  0.1431  1.0647
 4765SOL    HW217251   8.571   3.053   9.182  2.4293 -0.1086 -0.0210
 4766SOL     OW17252   5.718   1.168   2.217 -0.7049 -0.5308 -0.3038
 4766SOL    HW117253   5.702   1.262   2.209  1.4824 -0.2675 -3.9748
 4766SOL    HW217254   5.801   1.162   2.264  0.1990 -0.3824 -1.7853
 4767SOL     OW17255   4.226   0.355   7.951  0.0033 -0.4951  0.5427
 4767SOL    HW117256   4.235   0.365   8.046 -1.4873 -2.5526  0.9685
 4767SOL    HW217257   4.315   0.339   7.920  0.5148  0.2448  1.5878
 4768SOL     OW17258   5.159   9.377   3.553  0.0037 -0.6131  0.1717
 4768SOL    HW117259   5.148   9.393   3.646 -0.1859 -0.0375  0.0536
 4768SOL    HW217260   5.225   9.440   3.525  1.1442 -1.7522  0.1990
 4769SOL     OW17261  10.015   5.495   6.611  0.2434  0.1422 -0.1857
 4769SOL    HW117262   9.996   5.538   6.528  0.3653 -0.1704 -0.3775
 4769SOL    HW217263  10.069   5.557   6.659 -0.3952  0.6097 -0.0590
 4770SOL     OW17264   4.887   2.442   7.106  0.2275  0.1587  0.2027
 4770SOL    HW117265   4.804   2.432   7.154  0.8177  0.1821  1.2465
 4770SOL    HW217266   4.879   2.381   7.032  0.1158 -1.3878  1.4372
 4771SOL     OW17267   8.825  10.193   1.492  0.6500  0.1741  0.3581
 4771SOL    HW117268   8.798  10.121   1.550  0.4205  0.0442  0.0899
 4771SOL    HW217269   8.872  10.253   1.550 -0.9386  0.8415  1.0187
 4772SOL     OW17270   7.637   9.073   6.623  0.0432 -0.4699 -0.2993
 4772SOL    HW117271   7.557   9.031   6.656  0.4826 -0.3160  1.0463
 4772SOL    HW217272   7.606   9.134   6.557 -1.0126 -0.1304  0.4649
 4773SOL     OW17273   7.603   6.778   1.882  0.1451 -0.0721 -0.5238
 4773SOL    HW117274   7.527   6.789   1.826  0.3557  1.4265 -0.5556
 4773SOL    HW217275   7.656   6.711   1.839 -0.1523  0.3776 -1.6047
 4774SOL     OW17276   0.866   4.120   1.310 -0.5513 -0.1800 -0.6611
 4774SOL    HW117277   0.804   4.123   1.237 -1.4539 -1.0905  0.0264
 4774SOL    HW217278   0.915   4.039   1.297  0.8168  0.7307 -1.4168
 4775SOL     OW17279   5.707  10.186   9.162  0.1311  0.2226  0.2577
 4775SOL    HW117280   5.620  10.155   9.188 -0.8943  2.3693 -0.4272
 4775SOL    HW217281   5.750  10.109   9.125 -0.7385 -1.3456  2.3195
 4776SOL     OW17282   6.264   5.850  10.591  0.1231  0.3557  0.5552
 4776SOL    HW117283   6.255   5.758  10.563 -1.1597  0.4433  0.6338
 4776SOL    HW217284   6.322   5.889  10.526 -1.9033  0.2809 -1.4149
 4777SOL     OW17285   1.741   7.135  10.283 -0.2585 -0.2328 -0.2924
 4777SOL    HW117286   1.690   7.125  10.202  2.2080 -0.1972 -1.9864
 4777SOL    HW217287   1.815   7.074  10.272  0.0747 -0.3355  2.0332
 4778SOL     OW17288   9.978   6.718   4.878 -0.4742  0.1608  0.1181
 4778SOL    HW117289   9.981   6.764   4.962 -1.2520  1.3836 -0.4959
 4778SOL    HW217290   9.885   6.719   4.854 -0.3953 -1.0586 -0.2965
 4779SOL     OW17291   7.579   1.609  10.438 -0.2951 -0.7719  0.2874
 4779SOL    HW117292   7.596   1.648  10.524  0.8425 -0.0652 -0.2165
 4779SOL    HW217293   7.581   1.515  10.453 -2.5112 -0.6844  1.4378
 4780SOL     OW17294   9.409   3.175   1.517 -0.0568 -0.5215 -0.7007
 4780SOL    HW117295   9.314   3.182   1.508  0.0324 -0.8157 -2.1420
 4780SOL    HW217296   9.422   3.093   1.565 -0.4985 -1.5335 -2.2420
 4781SOL     OW17297   7.397   5.266   9.437  0.0844  0.0799  0.3182
 4781SOL    HW117298   7.424   5.354   9.462 -0.9798  0.5173 -0.0252
 4781SOL    HW217299   7.462   5.238   9.373  1.2006  0.0685  1.4158
 4782SOL     OW17300  10.411   9.992   9.432 -0.4477  0.2311 -0.2024
 4782SOL    HW117301  10.320   9.986   9.403 -0.1096  1.8254 -1.8010
 4782SOL    HW217302  10.455   9.919   9.388 -1.1544 -1.4205  1.6947
 4783SOL     OW17303   3.854   4.865   6.769  0.1079 -0.6905  0.1350
 4783SOL    HW117304   3.915   4.807   6.816  1.9235  0.6222 -0.4680
 4783SOL    HW217305   3.899   4.884   6.686 -1.0294  0.5471 -0.2334
 4784SOL     OW17306   5.003   6.114   9.194 -0.2352  0.1584  0.3982
 4784SOL    HW117307   5.028   6.179   9.259 -0.7320  1.5664 -0.7441
 4784SOL    HW217308   4.908   6.125   9.186 -0.0912  0.5669 -1.0694
 4785SOL     OW17309   7.878   3.640   9.237  0.0248  0.6463 -0.5207
 4785SOL    HW117310   7.835   3.698   9.173  3.0060  2.2199 -1.3270
 4785SOL    HW217311   7.856   3.678   9.322 -0.2071  1.3714 -0.8907
 4786SOL     OW17312   6.930  10.306   1.951 -0.1041  0.2909 -0.5260
 4786SOL    HW117313   7.023  10.296   1.934 -0.0146 -0.5319  0.3278
 4786SOL    HW217314   6.922  10.304   2.047 -1.0046  0.1993 -0.5884
 4787SOL     OW17315   5.503   9.149   5.413  0.1546  0.6718  0.0374
 4787SOL    HW117316   5.587   9.127   5.455 -0.6464  0.5987  1.6798
 4787SOL    HW217317   5.527   9.209   5.342  1.6297  0.3358  0.2147
 4788SOL     OW17318   6.093   4.937   5.669 -0.3891 -0.0434 -0.6277
 4788SOL    HW117319   6.067   4.846   5.687 -2.1536  0.3972 -0.8384
 4788SOL    HW217320   6.086   4.981   5.754  0.3731 -0.0563 -0.5467
 4789SOL     OW17321   1.860   4.261   5.308 -0.0829  0.5794 -0.0247
 4789SOL    HW117322   1.776   4.216   5.292  1.5056 -2.4290 -0.6281
 4789SOL    HW217323   1.922   4.190   5.326  2.5377  2.6205 -0.4299
 4790SOL     OW17324  10.498   7.278  10.607  0.5591 -0.1238  0.3703
 4790SOL    HW117325  10.475   7.214  10.675 -0.1224  0.0863  0.3459
 4790SOL    HW217326  10.541   7.226  10.539  3.0060 -0.0527  1.7722
 4791SOL     OW17327   2.419   8.876   4.271  0.1237  0.3349 -0.2942
 4791SOL    HW117328   2.472   8.956   4.273 -0.7791  0.9573 -0.7377
 4791SOL    HW217329   2.470   8.816   4.216 -0.6490  1.7059 -2.6330
 4792SOL     OW17330   9.636   7.604   7.091  0.2431 -0.6201  0.0500
 4792SOL    HW117331   9.553   7.612   7.139  0.7011  1.4781  0.6061
 4792SOL    HW217332   9.610   7.600   6.999 -0.5048 -0.5653  0.2486
 4793SOL     OW17333   4.383   1.825   9.291  0.2331  0.6695  0.8441
 4793SOL    HW117334   4.437   1.904   9.294  2.3683 -0.7429  1.9159
 4793SOL    HW217335   4.351   1.815   9.381  1.6555 -0.7119  1.2489
 4794SOL     OW17336  10.356   2.484   7.762 -0.0621 -0.1699  0.8312
 4794SOL    HW117337  10.396   2.398   7.762  2.1976  0.7919 -0.2272
 4794SOL    HW217338  10.384   2.524   7.680 -1.4589  1.3985  1.0585
 4795SOL     OW17339   8.719   4.392   9.112  0.0638  0.2922  0.6617
 4795SOL    HW117340   8.649   4.457   9.107 -0.5209 -0.4249 -0.8485
 4795SOL    HW217341   8.799   4.444   9.122 -0.4657  1.2016  0.2810
 4796SOL     OW17342   9.898   4.436   5.792 -0.0521  0.2611  0.3314
 4796SOL    HW117343   9.863   4.412   5.706 -1.9764  2.2257  0.4639
 4796SOL    HW217344   9.888   4.357   5.845  1.5326 -1.1186 -1.2804
 4797SOL     OW17345   3.593   4.819   6.813 -0.1693 -0.1577  0.8300
 4797SOL    HW117346   3.683   4.852   6.806  0.0764 -1.1307 -1.3463
 4797SOL    HW217347   3.594   4.766   6.894  0.9592  0.5329  1.2980
 4798SOL     OW17348  10.516   7.794   9.088  0.1234  0.0522 -0.4145
 4798SOL    HW117349  10.421   7.786   9.097 -0.0735  0.4610 -1.8752
 4798SOL    HW217350  10.548   7.796   9.178 -1.5521  3.4137  0.3035
 4799SOL     OW17351  10.327   5.183   9.148  0.1105  0.6421  0.0245
 4799SOL    HW117352  10.418   5.195   9.119 -0.2692 -0.1294 -1.6025
 4799SOL    HW217353  10.309   5.259   9.203  1.6609  0.9441  0.1570
 4800SOL     OW17354   9.962  10.107   2.296  0.5317  0.0983  0.3431
 4800SOL    HW117355  10.050  10.080   2.321  1.6101  2.4064 -0.6533
 4800SOL    HW217356   9.924  10.142   2.376  0.3152 -1.2624  0.8704
 4801SOL     OW17357   5.165   3.789   6.478 -0.2577  0.3322  0.7864
 4801SOL    HW117358   5.223   3.757   6.548 -0.4491 -0.5329  0.5531
 4801SOL    HW217359   5.088   3.821   6.525 -0.3267 -0.1162  0.9793
 4802SOL     OW17360   1.582   7.537  10.212 -0.2180  0.1051 -0.8715
 4802SOL    HW117361   1.570   7.604  10.279 -0.2848  0.8049 -1.5708
 4802SOL    HW217362   1.663   7.492  10.237 -0.1146  0.5173 -0.4516
 4803SOL     OW17363   4.145   3.795   7.461  0.4749 -0.3095  0.1882
 4803SOL    HW117364   4.051   3.776   7.459  0.7464 -1.7608 -0.1410
 4803SOL    HW217365   4.186   3.712   7.486  1.6091  0.6259  1.6008
 4804SOL     OW17366   3.677   4.593   8.603  0.4651  0.2566 -0.1545
 4804SOL    HW117367   3.609   4.649   8.641  1.2580  2.1604 -1.3760
 4804SOL    HW217368   3.692   4.526   8.669 -1.5807  0.6159  0.7508
 4805SOL     OW17369   2.145   4.190   6.196 -0.3173 -0.4874  0.0381
 4805SOL    HW117370   2.231   4.161   6.165  0.4177  2.3510 -0.8855
 4805SOL    HW217371   2.146   4.171   6.290  0.8628 -1.4872 -0.1435
 4806SOL     OW17372   2.410   2.643   2.675  0.0773  0.0084 -0.2403
 4806SOL    HW117373   2.363   2.564   2.649 -0.5425  0.5540 -0.8313
 4806SOL    HW217374   2.453   2.673   2.595  0.2949  0.2760 -0.0245
 4807SOL     OW17375   9.707   4.165   6.542 -0.0143 -0.1170  0.1341
 4807SOL    HW117376   9.725   4.218   6.620  1.0571 -1.5547  0.9079
 4807SOL    HW217377   9.791   4.125   6.521 -0.9143 -2.0594  0.0098
 4808SOL     OW17378   8.229   2.076   3.038 -0.4316 -0.1749 -0.5711
 4808SOL    HW117379   8.314   2.060   3.081  0.2448 -1.6551 -2.3534
 4808SOL    HW217380   8.164   2.046   3.102  0.4609 -0.8042  0.0732
 4809SOL     OW17381   4.097   0.119   4.064 -0.0375 -0.2162 -0.3604
 4809SOL    HW117382   4.170   0.076   4.018 -0.6802  0.7077 -2.3476
 4809SOL    HW217383   4.114   0.212   4.054 -0.1958  0.0419  1.3865
 4810SOL     OW17384   0.650   9.000   5.500 -0.3624  0.0444 -0.3518
 4810SOL    HW117385   0.638   8.992   5.405 -0.5015 -0.6304 -0.2821
 4810SOL    HW217386   0.591   9.071   5.526 -1.5101 -0.8173 -0.5442
 4811SOL     OW17387   0.889   2.225   1.160 -0.0811 -0.3814 -0.3805
 4811SOL    HW117388   0.849   2.202   1.244 -3.8025  3.0530 -0.8794
 4811SOL    HW217389   0.857   2.158   1.099 -0.6931 -0.6750  0.2517
 4812SOL     OW17390   8.827   6.208   2.318  0.6180 -0.4772 -0.4015
 4812SOL    HW117391   8.864   6.291   2.348 -1.1761 -0.0652  0.8032
 4812SOL    HW217392   8.790   6.228   2.232  1.2128 -0.3298 -0.6247
 4813SOL     OW17393   5.589   6.601   4.961 -0.1639  0.1445 -0.0939
 4813SOL    HW117394   5.547   6.686   4.948  1.0219  1.3215  2.7746
 4813SOL    HW217395   5.529   6.554   5.019  0.0892 -0.1807 -0.0921
 4814SOL     OW17396   4.193   2.998   6.905  0.1029  0.1229 -0.4052
 4814SOL    HW117397   4.229   2.979   6.819  1.0637 -0.3529  0.0955
 4814SOL    HW217398   4.099   2.983   6.895  0.3817 -1.4546 -0.9753
 4815SOL     OW17399   6.962   4.210   1.509 -0.3554 -0.2787 -0.0776
 4815SOL    HW117400   6.947   4.290   1.459  0.9960 -0.1114 -0.2575
 4815SOL    HW217401   6.884   4.156   1.493 -0.8698  0.6271 -0.6795
 4816SOL     OW17402  10.122   0.478   0.524  0.3173  0.5985 -0.1210
 4816SOL    HW117403  10.200   0.435   0.561 -0.9618 -2.3489 -0.5926
 4816SOL    HW217404  10.071   0.407   0.487 -2.0862  2.5921 -0.8759
 4817SOL     OW17405   1.429   2.653   1.162 -0.4561  0.4598  0.2668
 4817SOL    HW117406   1.393   2.598   1.232 -0.6220 -0.9633 -0.8892
 4817SOL    HW217407   1.355   2.665   1.101  0.1470  0.1662 -0.5409
 4818SOL     OW17408   1.908   2.946   9.902 -0.4078  0.0678  0.4513
 4818SOL    HW117409   1.894   2.918   9.993 -1.4013  1.2610  0.6920
 4818SOL    HW217410   1.998   2.920   9.883 -0.7370 -1.7691  1.1856
 4819SOL     OW17411   3.611   5.815   8.294 -0.2282  0.3239  0.0657
 4819SOL    HW117412   3.645   5.797   8.207  0.2379  0.7000  0.1703
 4819SOL    HW217413   3.525   5.772   8.295  0.2915 -0.7529 -0.1394
 4820SOL     OW17414   1.852   0.617   0.273  0.1380 -0.1830 -0.1708
 4820SOL    HW117415   1.921   0.552   0.261 -0.7291 -0.9810 -0.9766
 4820SOL    HW217416   1.789   0.576   0.331  0.5609  0.7530  1.0096
 4821SOL     OW17417   6.555  10.016   5.332  0.2187  0.1993  0.1403
 4821SOL    HW117418   6.545  10.046   5.423 -0.7548 -0.3600  0.2343
 4821SOL    HW217419   6.550   9.920   5.338  0.2316  0.1587 -0.4884
 4822SOL     OW17420  10.510   3.602  10.404  0.0877 -0.2190  0.0955
 4822SOL    HW117421  10.520   3.675  10.343 -0.4427 -0.2078  0.0158
 4822SOL    HW217422  10.448   3.543  10.361 -1.6768  0.6074  1.3481
 4823SOL     OW17423   3.970   4.134   7.560 -0.1058 -0.6165  0.4397
 4823SOL    HW117424   3.905   4.199   7.589  1.7076  1.7076 -0.4468
 4823SOL    HW217425   3.993   4.161   7.471  2.1633 -1.2636  0.7770
 4824SOL     OW17426   0.889   4.038   0.719 -0.1391 -0.3490  0.3022
 4824SOL    HW117427   0.819   4.033   0.784 -0.2845 -0.7767  0.1182
 4824SOL    HW217428   0.936   3.955   0.729  1.3805  0.6060  1.5799
 4825SOL     OW17429   2.047   2.072   0.009  0.4597 -0.3318 -0.1250
 4825SOL    HW117430   2.114   2.025   0.060 -0.3771 -0.4023  0.9450
 4825SOL    HW217431   1.968   2.020   0.020  0.3351 -0.5860 -1.8836
 4826SOL     OW17432   1.848   7.807   2.998 -0.6599 -0.0964 -0.1534
 4826SOL    HW117433   1.847   7.797   3.093 -1.0697 -1.7322 -0.2965
 4826SOL    HW217434   1.908   7.880   2.982 -0.3534  0.0063  1.3414
 4827SOL     OW17435   2.851   1.673   1.436  0.5804  0.0083 -0.5751
 4827SOL    HW117436   2.815   1.735   1.372  0.0129 -1.8229 -2.1480
 4827SOL    HW217437   2.919   1.722   1.481  1.1570  1.3638 -2.7455
 4828SOL     OW17438   3.660   1.251   9.215  0.3455  0.1808 -0.7544
 4828SOL    HW117439   3.695   1.166   9.239  0.3820 -0.0924 -1.7539
 4828SOL    HW217440   3.723   1.314   9.250  0.4326 -0.2020 -0.2098
 4829SOL     OW17441   1.404   3.432   1.656  0.2756  0.0282  0.4167
 4829SOL    HW117442   1.404   3.460   1.748 -0.1722 -1.5129  0.9208
 4829SOL    HW217443   1.377   3.509   1.607  0.7733  0.9551  1.5475
 4830SOL     OW17444   9.826   4.976   3.828  0.2062 -0.0407 -0.0104
 4830SOL    HW117445   9.874   4.955   3.909 -0.1723  1.6521  0.6878
 4830SOL    HW217446   9.804   5.068   3.836 -1.0473 -0.1720 -1.4485
 4831SOL     OW17447   6.754   7.311   1.858  0.0577 -0.5649 -0.3124
 4831SOL    HW117448   6.787   7.397   1.884 -0.2671 -0.0835 -1.4451
 4831SOL    HW217449   6.831   7.253   1.862  0.3313 -0.1744  0.1977
 4832SOL     OW17450   6.221   4.497   1.768  0.4554 -0.1654  0.1330
 4832SOL    HW117451   6.197   4.488   1.676 -0.6580 -0.0349  0.4045
 4832SOL    HW217452   6.247   4.409   1.795  0.8861 -0.1842 -0.3228
 4833SOL     OW17453   8.780   4.854   9.769 -0.3720  0.3061  0.2204
 4833SOL    HW117454   8.738   4.825   9.850 -0.7707  1.6820  0.5455
 4833SOL    HW217455   8.707   4.871   9.710 -0.2887  2.0638  0.5611
 4834SOL     OW17456   1.826   5.416   5.664 -0.0425  0.1438 -0.3770
 4834SOL    HW117457   1.761   5.457   5.722  0.8698 -0.1714  0.9032
 4834SOL    HW217458   1.826   5.324   5.690  2.5356  0.5187  1.2878
 4835SOL     OW17459   4.393   5.230   0.758 -0.2001  0.1340 -0.9446
 4835SOL    HW117460   4.422   5.187   0.839 -2.5085  2.5553  1.3370
 4835SOL    HW217461   4.415   5.322   0.770 -0.9661  0.6320 -2.9314
 4836SOL     OW17462   8.366   2.445  10.674 -0.9052  0.2166 -0.6457
 4836SOL    HW117463   8.271   2.455  10.676 -1.4050 -3.2919  1.0690
 4836SOL    HW217464   8.398   2.490  10.752 -1.6535 -1.3083  0.6108
 4837SOL     OW17465   6.628   4.290   1.665 -0.5454 -0.0029 -0.1215
 4837SOL    HW117466   6.640   4.208   1.712 -0.7311 -0.2886 -0.5708
 4837SOL    HW217467   6.583   4.347   1.727  0.5912  0.1463  0.6012
 4838SOL     OW17468   9.919   3.484   8.615 -0.1305 -0.3449  0.4741
 4838SOL    HW117469   9.893   3.395   8.636  0.7722 -1.1065 -1.3886
 4838SOL    HW217470  10.013   3.479   8.598  0.0176  1.0420  0.7037
 4839SOL     OW17471   7.567  10.228   2.097  0.5169 -0.1232 -0.5713
 4839SOL    HW117472   7.625  10.217   2.173  0.1353  1.8581  0.0814
 4839SOL    HW217473   7.610  10.295   2.044 -0.3331  0.1423 -0.9413
 4840SOL     OW17474   8.025   8.191   1.349 -0.1882 -0.3905 -0.1432
 4840SOL    HW117475   7.946   8.245   1.348 -1.1731 -1.7527  0.7727
 4840SOL    HW217476   7.997   8.108   1.310  1.0384 -0.5968 -0.6277
 4841SOL     OW17477   7.595  10.542   0.956  0.4628  0.2999  0.3004
 4841SOL    HW117478   7.663  10.523   0.891  0.7146  1.5173  0.1900
 4841SOL    HW217479   7.531  10.472   0.944  0.3811  0.6127 -1.4408
 4842SOL     OW17480   6.269   5.155   2.678 -0.1887  0.1560 -0.1963
 4842SOL    HW117481   6.293   5.191   2.593 -0.0207  0.2584 -0.1057
 4842SOL    HW217482   6.177   5.132   2.669  0.1114 -0.9160 -0.7913
 4843SOL     OW17483  10.560   2.593   2.836  0.4903  0.3306  0.2791
 4843SOL    HW117484  10.484   2.651   2.839  1.1868  1.2507  1.9813
 4843SOL    HW217485  10.629   2.646   2.795  0.5558 -0.0239 -0.0617
 4844SOL     OW17486   2.082   1.542   6.810  0.4145 -0.2190 -0.6562
 4844SOL    HW117487   2.176   1.542   6.795  0.4925 -0.7357 -0.1843
 4844SOL    HW217488   2.061   1.451   6.831  0.2147  0.3234  1.7499
 4845SOL     OW17489   7.795   5.060   1.968 -0.1093 -0.6120  0.4087
 4845SOL    HW117490   7.890   5.066   1.980  0.0513 -1.4497 -0.3432
 4845SOL    HW217491   7.766   5.151   1.962  1.1446 -0.2828 -2.7464
 4846SOL     OW17492   4.753   6.145  10.193  0.3523 -0.0495 -0.3402
 4846SOL    HW117493   4.693   6.200  10.245  1.6741 -0.6267  1.9717
 4846SOL    HW217494   4.840   6.165  10.229  0.9842 -2.9078 -0.0326
 4847SOL     OW17495   2.145  10.118   4.349 -0.0662  0.3787  0.3440
 4847SOL    HW117496   2.079  10.049   4.337  0.6789 -0.5830  1.5524
 4847SOL    HW217497   2.126  10.181   4.280 -0.5547 -1.2176 -1.0669
 4848SOL     OW17498   3.531   4.165   4.284 -0.2999 -0.0646 -0.3142
 4848SOL    HW117499   3.573   4.083   4.312  0.4330 -0.5788 -2.6883
 4848SOL    HW217500   3.487   4.197   4.362  2.7511 -0.5814  1.8063
 4849SOL     OW17501   7.427   6.636   5.026 -0.1764  0.2365  0.1135
 4849SOL    HW117502   7.503   6.597   5.070  0.6530  0.2913 -1.2168
 4849SOL    HW217503   7.450   6.728   5.015 -0.0863  0.0951 -0.9812
 4850SOL     OW17504   1.122   6.726   9.556 -0.7218 -0.5026  0.6587
 4850SOL    HW117505   1.116   6.637   9.521  0.2005 -0.5038  0.4800
 4850SOL    HW217506   1.046   6.735   9.613  0.3247 -2.1573  2.4138
 4851SOL     OW17507   9.330   4.551   0.057  0.2647  0.3816 -0.3256
 4851SOL    HW117508   9.328   4.513  -0.031 -1.5699 -0.3008 -0.0214
 4851SOL    HW217509   9.336   4.646   0.041 -1.2246  0.3500 -1.2321
 4852SOL     OW17510   5.800   6.512   4.289 -0.0304  0.2184  0.5433
 4852SOL    HW117511   5.852   6.535   4.366 -1.7205 -1.1650  2.1567
 4852SOL    HW217512   5.731   6.579   4.286 -0.6498 -0.3930  0.9412
 4853SOL     OW17513   2.018   8.784   1.915  0.6666  0.0367 -0.0327
 4853SOL    HW117514   2.108   8.810   1.898  0.0778  2.2991  0.0604
 4853SOL    HW217515   1.969   8.813   1.838 -0.4873  1.8772  1.3234
 4854SOL     OW17516   1.367   7.881   6.724 -0.2678  0.2688 -0.3402
 4854SOL    HW117517   1.313   7.888   6.645  2.4872 -0.0455 -2.3950
 4854SOL    HW217518   1.421   7.803   6.709 -0.2796 -0.3568  2.3328
 4855SOL     OW17519   7.988   6.549   4.707  0.0701 -0.2213  0.0533
 4855SOL    HW117520   8.034   6.484   4.655 -0.8004 -1.0910  0.3401
 4855SOL    HW217521   7.942   6.603   4.642 -1.5709 -1.7256 -0.1001
 4856SOL     OW17522   8.904  10.555   4.836 -0.0821 -0.5239 -0.1043
 4856SOL    HW117523   8.899  10.463   4.860  1.4393 -1.0324 -1.5835
 4856SOL    HW217524   8.987  10.585   4.872  0.1288 -0.1439 -0.8805
 4857SOL     OW17525   6.067   2.402   3.436 -0.0685 -0.1126  0.1730
 4857SOL    HW117526   6.001   2.466   3.461  2.5601  3.2699 -0.7125
 4857SOL    HW217527   6.024   2.345   3.372 -2.5534  0.7076  1.0278
 4858SOL     OW17528   4.293   3.119   2.856 -0.1106 -0.2279 -0.0296
 4858SOL    HW117529   4.271   3.036   2.815 -1.3277 -1.0409  2.0789
 4858SOL    HW217530   4.385   3.111   2.879 -0.1049 -0.8165 -0.2437
 4859SOL     OW17531   9.296   0.965   3.440 -0.5633 -0.1616 -0.0258
 4859SOL    HW117532   9.355   0.895   3.466 -0.2607  0.2595  0.4338
 4859SOL    HW217533   9.326   0.990   3.352  1.0609  1.2001  0.8537
 4860SOL     OW17534   5.849   8.241   5.396  0.1716  0.5174  0.0714
 4860SOL    HW117535   5.805   8.173   5.345  1.4060 -0.0661 -0.2606
 4860SOL    HW217536   5.825   8.323   5.353 -0.2533  0.1820 -0.3398
 4861SOL     OW17537  10.670   3.394   5.837  0.0105  0.4324  0.9512
 4861SOL    HW117538  10.627   3.320   5.795 -1.6072  0.4635  2.4343
 4861SOL    HW217539  10.760   3.392   5.804 -0.5602 -0.9264 -0.6221
 4862SOL     OW17540   4.181   1.341   5.552 -0.1587  0.8830 -0.4162
 4862SOL    HW117541   4.170   1.247   5.537  0.8486  0.5920  0.5297
 4862SOL    HW217542   4.274   1.352   5.568 -0.3930  1.9051  0.3905
 4863SOL     OW17543  10.133   2.476   7.889  0.1392 -0.1670 -0.0261
 4863SOL    HW117544  10.210   2.493   7.834  0.1446 -1.7104 -0.5529
 4863SOL    HW217545  10.061   2.518   7.844  0.6471  1.3206  0.4829
 4864SOL     OW17546   3.155   9.549  10.283  0.0766 -0.8063 -0.0600
 4864SOL    HW117547   3.174   9.605  10.359  0.9727 -1.5700  0.2874
 4864SOL    HW217548   3.151   9.461  10.318  0.4352 -1.1639 -0.8990
 4865SOL     OW17549   4.826   4.179   3.971 -0.5869 -0.0336 -0.9601
 4865SOL    HW117550   4.885   4.154   4.042  0.7315  0.4379 -1.8351
 4865SOL    HW217551   4.853   4.268   3.948 -0.4706 -0.4317 -2.5061
 4866SOL     OW17552   4.684   5.050   7.626  0.0021 -0.4085 -0.3975
 4866SOL    HW117553   4.769   5.042   7.583 -0.6986  0.5201 -2.0402
 4866SOL    HW217554   4.669   5.144   7.633 -0.7154 -0.5629  0.2645
 4867SOL     OW17555   3.538   1.130   5.637  0.0803 -0.0308  0.0198
 4867SOL    HW117556   3.503   1.178   5.562  1.1364  0.0078 -0.4635
 4867SOL    HW217557   3.527   1.038   5.615 -0.8156 -0.0275  0.4080
 4868SOL     OW17558   1.893   3.651   4.403 -0.1776  0.0621 -0.3169
 4868SOL    HW117559   1.886   3.590   4.330 -0.1651 -1.5844  0.9839
 4868SOL    HW217560   1.972   3.701   4.385  0.0621 -0.6126 -1.2200
 4869SOL     OW17561   5.627   0.645   6.914 -0.4159 -0.4324 -0.0744
 4869SOL    HW117562   5.603   0.555   6.893  0.5843 -0.3861 -1.6318
 4869SOL    HW217563   5.582   0.699   6.848 -0.2873  0.1156  0.2746
 4870SOL     OW17564   1.080   1.912   8.412 -0.1899  0.0796  0.2079
 4870SOL    HW117565   1.125   1.884   8.333 -0.9286  0.5170 -0.3831
 4870SOL    HW217566   1.104   2.004   8.423 -0.9949  0.3432 -0.1649
 4871SOL     OW17567   2.687   2.972   8.236  0.2194  0.3516  0.1398
 4871SOL    HW117568   2.601   2.930   8.248  0.0311  0.6209 -0.2664
 4871SOL    HW217569   2.747   2.899   8.223  0.1647  0.1245  1.0579
 4872SOL     OW17570   0.556   1.393   1.464  0.0006 -0.4629  0.2419
 4872SOL    HW117571   0.567   1.423   1.373  1.0607  0.2705  0.5810
 4872SOL    HW217572   0.545   1.299   1.457  1.7455 -0.6479 -0.5641
 4873SOL     OW17573   8.913   6.633   1.121  0.0106  0.0312  0.0284
 4873SOL    HW117574   8.911   6.621   1.026 -1.3097  2.6285 -0.3778
 4873SOL    HW217575   8.890   6.548   1.157 -1.5054 -0.5330 -2.0579
 4874SOL     OW17576   4.661   0.243   5.321  0.2078  1.0683 -0.1948
 4874SOL    HW117577   4.571   0.276   5.325  0.5540  1.9323  1.4838
 4874SOL    HW217578   4.714   0.316   5.353  1.1619 -0.5183  2.0965
 4875SOL     OW17579   2.369   5.593   2.784 -0.1203  0.6185 -0.2418
 4875SOL    HW117580   2.440   5.628   2.837  0.9134  1.2457 -1.9595
 4875SOL    HW217581   2.304   5.564   2.848  1.6621 -0.0106  1.4022
 4876SOL     OW17582   3.070   3.919   1.697  0.7845  0.1271 -0.0078
 4876SOL    HW117583   3.136   3.936   1.630  0.5625 -1.1084 -0.5628
 4876SOL    HW217584   3.097   3.837   1.738  1.5586  1.4208  2.2677
 4877SOL     OW17585   8.595   6.221  10.452 -0.5779  0.3929  0.0354
 4877SOL    HW117586   8.521   6.172  10.488  0.7339  0.0922  2.4800
 4877SOL    HW217587   8.651   6.155  10.413 -1.0870  0.5296 -0.9837
 4878SOL     OW17588   2.782   1.075   1.364 -0.1127  1.0524  0.6327
 4878SOL    HW117589   2.763   0.981   1.357 -1.4219  1.2623  1.0191
 4878SOL    HW217590   2.868   1.079   1.406 -0.0299  0.0229  0.5991
 4879SOL     OW17591   8.021   5.144   6.062  0.3356 -0.0538 -0.0894
 4879SOL    HW117592   7.951   5.173   6.119  0.6839 -0.7076  0.6912
 4879SOL    HW217593   7.997   5.054   6.039 -0.2001  0.4414 -1.6270
 4880SOL     OW17594   2.141  10.002   8.650 -0.1114  0.2863  0.1058
 4880SOL    HW117595   2.213  10.025   8.709  1.4996 -0.1414 -1.5779
 4880SOL    HW217596   2.153   9.908   8.633 -1.1572  0.1810 -0.1056
 4881SOL     OW17597   4.425   0.575   4.334 -0.1084 -0.3265  0.3091
 4881SOL    HW117598   4.362   0.622   4.280 -0.1825 -0.8551 -0.0659
 4881SOL    HW217599   4.479   0.644   4.373  1.3217  0.0074 -2.0900
 4882SOL     OW17600   0.789   6.253   9.394  0.4587  0.1997  0.1095
 4882SOL    HW117601   0.736   6.180   9.361  0.1658 -0.1944  1.4032
 4882SOL    HW217602   0.823   6.296   9.315  2.3083 -2.5199 -0.7298
 4883SOL     OW17603   0.009   2.627   4.538 -0.1371  0.5016 -0.6127
 4883SOL    HW117604   0.065   2.636   4.615 -0.0336 -0.1734 -0.5984
 4883SOL    HW217605   0.035   2.699   4.481  0.5251  0.3900 -0.4688
 4884SOL     OW17606   6.417   1.914   2.532  0.0476 -0.2993 -0.4953
 4884SOL    HW117607   6.411   1.982   2.464  0.3809  0.9521  0.6768
 4884SOL    HW217608   6.360   1.945   2.602  1.9139 -0.0297  1.0128
 4885SOL     OW17609  10.528   3.697   3.344 -0.3127  0.0402 -0.1557
 4885SOL    HW117610  10.493   3.775   3.386  0.2174  0.6556 -0.8340
 4885SOL    HW217611  10.459   3.667   3.285 -1.3510 -1.2453  1.6138
 4886SOL     OW17612   1.549   8.234   2.957 -0.1309  0.1243 -0.1899
 4886SOL    HW117613   1.543   8.141   2.936 -0.3362  0.0150  0.3410
 4886SOL    HW217614   1.461   8.267   2.941 -0.4278 -0.0627  0.9407
 4887SOL     OW17615   8.014   9.191   1.974  0.6635  0.2205  0.4832
 4887SOL    HW117616   7.969   9.253   2.031  1.3700  3.8031 -2.4076
 4887SOL    HW217617   8.103   9.187   2.008  0.6766  1.0829  0.5872
 4888SOL     OW17618   6.238   3.554   3.630  0.1466 -0.1469 -0.1194
 4888SOL    HW117619   6.232   3.470   3.585 -1.4387  1.1995 -2.6633
 4888SOL    HW217620   6.327   3.555   3.667 -0.4013 -3.6381  1.6703
 4889SOL     OW17621   5.523  10.277   6.500  0.1731 -0.0492 -0.7368
 4889SOL    HW117622   5.507  10.370   6.516  0.3042  0.1682 -1.7927
 4889SOL    HW217623   5.585  10.276   6.427  1.1321 -0.9526  0.0650
 4890SOL     OW17624   7.916   1.324   6.354  0.8310  0.2382 -0.0673
 4890SOL    HW117625   7.900   1.331   6.449  1.4454  0.6041  0.0159
 4890SOL    HW217626   7.840   1.277   6.321  1.5422 -1.7160  0.9032
 4891SOL     OW17627   1.694   4.337   7.096  0.3620 -0.8501 -0.4247
 4891SOL    HW117628   1.643   4.380   7.165 -0.5516  0.6164 -1.9492
 4891SOL    HW217629   1.751   4.276   7.143 -2.0286 -1.7857  1.4352
 4892SOL     OW17630   9.517   9.624   1.714  0.0981 -0.4399  0.0955
 4892SOL    HW117631   9.427   9.626   1.745  0.0014 -0.3326 -0.1953
 4892SOL    HW217632   9.528   9.535   1.680  0.2193 -0.5726  0.4785
 4893SOL     OW17633   0.548   3.356   1.610  0.4194  0.1375  0.1573
 4893SOL    HW117634   0.573   3.448   1.601 -0.7566  0.3964 -0.6759
 4893SOL    HW217635   0.527   3.328   1.521 -3.1016  0.2374  0.8422
 4894SOL     OW17636   7.260   9.350   3.982  0.0048  0.5228  0.6086
 4894SOL    HW117637   7.309   9.273   4.010  2.6374  2.0652  0.5413
 4894SOL    HW217638   7.171   9.334   4.012  0.3085 -2.7699  0.1050
 4895SOL     OW17639   5.969   3.472   5.904 -0.2300  0.3115  0.2802
 4895SOL    HW117640   5.925   3.412   5.964  0.1310  0.3620  0.6006
 4895SOL    HW217641   5.973   3.425   5.821  3.0217 -1.5536  1.3066
 4896SOL     OW17642   8.830   3.784   3.744  0.5012  0.2455 -0.1530
 4896SOL    HW117643   8.923   3.764   3.728  0.4048 -0.5798  0.2949
 4896SOL    HW217644   8.783   3.706   3.715 -0.0101  0.4305  0.1585
 4897SOL     OW17645  10.336   3.855   9.265  0.2247  0.2926  0.3689
 4897SOL    HW117646  10.274   3.831   9.196  0.9152  0.8443 -0.4580
 4897SOL    HW217647  10.293   3.925   9.314 -0.0908  0.1935  0.2322
 4898SOL     OW17648   7.445   8.592   0.493  0.2668  0.0076  0.0610
 4898SOL    HW117649   7.367   8.581   0.437  0.5978 -0.5124 -0.3135
 4898SOL    HW217650   7.518   8.583   0.432  0.6213  0.3777  0.4347
 4899SOL     OW17651   0.832   8.025  10.352 -0.8447 -0.0756  0.2338
 4899SOL    HW117652   0.811   8.064  10.267  1.1332  1.4624  0.3629
 4899SOL    HW217653   0.752   8.035  10.403 -1.5267  0.5810 -0.9005
 4900SOL     OW17654   6.385   8.717   9.971  0.2381 -0.1103  0.5473
 4900SOL    HW117655   6.335   8.773   9.912 -1.7488 -2.9519 -0.6737
 4900SOL    HW217656   6.469   8.705   9.926 -1.0863 -1.8896 -1.6596
 4901SOL     OW17657   6.690   9.271   6.983  0.1156 -0.1032 -0.1108
 4901SOL    HW117658   6.645   9.251   7.066  0.9076  0.4652  0.4657
 4901SOL    HW217659   6.731   9.356   6.997  0.1897  0.0408 -1.1251
 4902SOL     OW17660  10.389   8.338   0.711  0.2402 -0.6453 -0.2188
 4902SOL    HW117661  10.294   8.334   0.721  0.2161  0.9656  0.5614
 4902SOL    HW217662  10.423   8.342   0.801  1.0480 -1.0980 -0.4862
 4903SOL     OW17663   2.348   7.338   9.214 -0.2536 -0.4434  0.0410
 4903SOL    HW117664   2.304   7.253   9.215 -2.2990  0.4279 -2.8240
 4903SOL    HW217665   2.282   7.399   9.246  0.2336  0.4116 -0.5568
 4904SOL     OW17666   4.388   9.963   0.253 -0.1197  0.1916 -0.1138
 4904SOL    HW117667   4.462   9.935   0.307 -1.5764 -1.7666  0.9822
 4904SOL    HW217668   4.384   9.898   0.182  0.8822  1.9172 -1.8792
 4905SOL     OW17669   9.898  10.369   5.040  0.6809 -0.3221 -0.0279
 4905SOL    HW117670   9.857  10.422   5.109  0.1249 -2.1691  1.1318
 4905SOL    HW217671   9.988  10.356   5.070  0.9359  0.2521 -0.5120
 4906SOL     OW17672   2.227   7.315   4.076  0.2352 -0.0770  0.2367
 4906SOL    HW117673   2.280   7.391   4.100 -1.1037  1.9285 -2.6920
 4906SOL    HW217674   2.146   7.351   4.041  0.0897 -2.7551 -2.6492
 4907SOL     OW17675   3.162   9.510   3.612 -0.3509  0.7199  0.1436
 4907SOL    HW117676   3.072   9.485   3.594  0.2437 -0.8144 -0.9052
 4907SOL    HW217677   3.174   9.491   3.705 -0.8935  0.2034  0.1162
 4908SOL     OW17678   4.907   3.660   7.233  0.5755  0.0393  0.7167
 4908SOL    HW117679   4.961   3.582   7.227  0.2425 -0.3937  2.7632
 4908SOL    HW217680   4.924   3.707   7.151  1.1944 -1.8773 -0.3223
 4909SOL     OW17681   9.484   3.765   5.863  0.8314  0.3571 -0.3900
 4909SOL    HW117682   9.420   3.831   5.887  0.8800  0.0503  0.6175
 4909SOL    HW217683   9.536   3.805   5.793 -0.5638  0.5421 -1.3537
 4910SOL     OW17684   0.409   7.410   5.483 -0.2720  0.0196 -0.0836
 4910SOL    HW117685   0.378   7.492   5.522  0.2898  0.2795 -0.1690
 4910SOL    HW217686   0.399   7.345   5.552 -0.4042  0.2308  0.0986
 4911SOL     OW17687   3.045   1.440   2.403 -0.1759  0.0549  0.0654
 4911SOL    HW117688   2.991   1.517   2.388  1.2296  1.7176  2.7602
 4911SOL    HW217689   3.001   1.393   2.475 -0.0718 -0.6952 -0.3511
 4912SOL     OW17690   3.022   9.903   8.912 -0.2283  0.3935 -0.0986
 4912SOL    HW117691   2.988   9.975   8.965  2.2359  1.8339 -0.3508
 4912SOL    HW217692   3.071   9.849   8.974  1.5275  1.3503 -0.5774
 4913SOL     OW17693   7.834   4.187   8.591 -0.0466 -0.2604 -0.3156
 4913SOL    HW117694   7.905   4.165   8.651 -0.2899  0.0291  0.0842
 4913SOL    HW217695   7.783   4.254   8.637 -0.7912 -0.7244 -0.4420
 4914SOL     OW17696   6.862  10.210   4.130  0.4000  0.2476 -0.3713
 4914SOL    HW117697   6.939  10.157   4.148 -0.0338  0.1939  1.5352
 4914SOL    HW217698   6.869  10.285   4.189 -1.3011 -0.0927  0.3196
 4915SOL     OW17699  10.151   6.512   7.073  0.2854  0.8157 -0.0203
 4915SOL    HW117700  10.056   6.523   7.071  0.4445  2.7680  1.1171
 4915SOL    HW217701  10.170   6.477   7.160  0.5836 -0.3831 -0.5341
 4916SOL     OW17702   0.531  10.558   3.255 -0.1884  0.5503 -0.1833
 4916SOL    HW117703   0.473  10.491   3.219  1.4275  0.2376 -2.4327
 4916SOL    HW217704   0.473  10.633   3.272 -1.9161 -1.1265  1.8165
 4917SOL     OW17705   3.936   2.263   4.847 -0.1047  0.5368  0.4051
 4917SOL    HW117706   3.888   2.264   4.764 -0.2050  1.6283  0.4589
 4917SOL    HW217707   4.028   2.269   4.820  0.1265 -2.3542  0.2683
 4918SOL     OW17708   5.418  10.501  10.102  0.0287 -0.4992  0.2127
 4918SOL    HW117709   5.365  10.577  10.078  2.1742  0.8965 -0.4375
 4918SOL    HW217710   5.453  10.522  10.188 -1.9345 -2.2923  1.5300
 4919SOL     OW17711   7.341  10.049   0.923 -0.5542  0.0825  0.6383
 4919SOL    HW117712   7.345  10.000   0.841  3.4320 -0.0107  0.6871
 4919SOL    HW217713   7.374   9.988   0.989  3.1877  2.1566  0.9456
 4920SOL     OW17714   6.970   5.286   1.784 -0.1481 -0.2070  0.0952
 4920SOL    HW117715   7.051   5.264   1.738  0.1787 -1.1289  1.0775
 4920SOL    HW217716   6.999   5.336   1.860 -0.6342  0.7657 -0.3432
 4921SOL     OW17717  10.045   4.053   9.789  0.3621 -0.1991  0.2477
 4921SOL    HW117718  10.070   4.061   9.881  2.4075  0.8776 -0.3439
 4921SOL    HW217719  10.063   4.139   9.752 -3.2753  0.3564 -0.5886
 4922SOL     OW17720   2.583   5.664   1.994 -0.4128 -0.1048 -0.0082
 4922SOL    HW117721   2.545   5.577   2.012 -1.7127  0.6825  1.2880
 4922SOL    HW217722   2.671   5.659   2.031 -0.4581 -0.8847  0.0242
 4923SOL     OW17723   2.825   2.712   9.558 -0.1480  0.7051  0.0313
 4923SOL    HW117724   2.761   2.752   9.500 -0.4906  0.6186  0.3504
 4923SOL    HW217725   2.891   2.675   9.499  0.2910  1.9240 -0.2556
 4924SOL     OW17726   3.557   4.771   2.007  0.3896 -0.2868 -0.0650
 4924SOL    HW117727   3.625   4.825   2.046  2.2495 -2.2232 -0.3870
 4924SOL    HW217728   3.590   4.751   1.919 -1.7364  0.5816 -1.1377
 4925SOL     OW17729   7.561   0.919   1.210  0.2615  0.6155 -0.1543
 4925SOL    HW117730   7.630   0.932   1.144 -0.3331  0.4415 -0.8251
 4925SOL    HW217731   7.600   0.950   1.291  1.7838 -1.0991 -0.1577
 4926SOL     OW17732   7.831   4.462   7.894 -0.1806 -0.1643  0.1196
 4926SOL    HW117733   7.808   4.515   7.817 -0.9642  0.6879  0.9018
 4926SOL    HW217734   7.804   4.516   7.968  0.0798 -1.1892  0.9833
 4927SOL     OW17735   0.992   5.029   5.261 -0.6101  0.1182  0.3305
 4927SOL    HW117736   1.067   5.011   5.204  0.4990 -0.0803  1.7921
 4927SOL    HW217737   0.917   4.990   5.215  0.3374 -0.5828 -0.6831
 4928SOL     OW17738   6.207   9.564   9.436  0.1854 -0.5381  0.2332
 4928SOL    HW117739   6.153   9.619   9.380 -0.9895 -0.2493  1.5876
 4928SOL    HW217740   6.149   9.493   9.463  0.7297 -0.6826  1.0619
 4929SOL     OW17741   6.978   0.230   7.884  0.4948  0.8164 -0.2825
 4929SOL    HW117742   6.967   0.319   7.917 -0.4356  0.7320 -0.3560
 4929SOL    HW217743   6.922   0.225   7.807 -0.0449 -0.0567  0.1507
 4930SOL     OW17744   2.583   0.175   1.558  0.2163 -0.1562 -0.4184
 4930SOL    HW117745   2.506   0.207   1.510  0.5114  2.5999  0.7711
 4930SOL    HW217746   2.548   0.151   1.644  0.5435  0.1829 -0.1924
 4931SOL     OW17747   5.948   1.232   5.455 -0.3280  0.8349 -0.5362
 4931SOL    HW117748   5.861   1.271   5.444 -0.7773  0.7700  2.0500
 4931SOL    HW217749   5.971   1.251   5.546  1.2224 -1.4307 -0.3759
 4932SOL     OW17750   2.444   0.892   5.882  0.1878  0.3474 -0.3516
 4932SOL    HW117751   2.539   0.898   5.871  0.3546  1.0366  1.1601
 4932SOL    HW217752   2.411   0.864   5.797  1.7961 -0.4687 -0.7353
 4933SOL     OW17753   0.406   7.329   7.660  0.1321 -0.2860  0.1350
 4933SOL    HW117754   0.325   7.339   7.610 -0.1750 -0.6750  0.5461
 4933SOL    HW217755   0.467   7.286   7.600  0.8163  2.0679 -0.9778
 4934SOL     OW17756   1.319   1.970   5.493  0.4039  0.1136  0.0784
 4934SOL    HW117757   1.332   1.875   5.493 -0.0322  0.0386 -0.7846
 4934SOL    HW217758   1.291   1.990   5.403 -2.0131  0.7281  0.9057
 4935SOL     OW17759   5.570   2.916   8.543 -0.6601  0.3322 -0.6350
 4935SOL    HW117760   5.515   2.989   8.572 -0.7800 -0.1711  0.4670
 4935SOL    HW217761   5.515   2.838   8.555  0.3270 -0.2090  0.7074
 4936SOL     OW17762   9.974   1.819   0.598 -0.7310  0.3067  0.1773
 4936SOL    HW117763   9.880   1.807   0.589 -0.6189  0.2114 -0.9781
 4936SOL    HW217764   9.992   1.904   0.558 -0.1105 -0.4376 -1.1728
 4937SOL     OW17765   9.007   9.426   9.826  0.6651  0.2816 -0.8082
 4937SOL    HW117766   9.032   9.336   9.848  2.1867  0.5336 -1.3464
 4937SOL    HW217767   8.917   9.419   9.795  0.4644 -0.9253 -0.0397
 4938SOL     OW17768   5.122   7.414   2.581  0.2704 -0.0524  0.0267
 4938SOL    HW117769   5.151   7.340   2.635 -0.9352 -0.9362 -0.4849
 4938SOL    HW217770   5.168   7.402   2.498 -0.7652 -0.9120 -0.4530
 4939SOL     OW17771   2.136   2.320   5.835  0.3745  0.2572  0.3851
 4939SOL    HW117772   2.183   2.403   5.838  1.2624 -0.2419  0.5988
 4939SOL    HW217773   2.204   2.255   5.818 -0.5514 -0.2194 -1.8434
 4940SOL     OW17774   4.396   9.217   0.924 -0.1519  0.0987 -0.2111
 4940SOL    HW117775   4.319   9.273   0.916 -1.0417 -1.0809 -0.2684
 4940SOL    HW217776   4.376   9.142   0.868  0.8157 -0.4800  0.1991
 4941SOL     OW17777   4.030   5.014   5.931 -0.0421  0.2245  0.5381
 4941SOL    HW117778   4.061   4.974   5.849 -0.1759  2.3697 -0.6388
 4941SOL    HW217779   4.072   5.100   5.932  0.0974  0.1721  2.8701
 4942SOL     OW17780   6.044   0.948   9.762 -0.5148  0.5910  0.3085
 4942SOL    HW117781   6.123   0.991   9.732  0.7761 -1.0014  1.2264
 4942SOL    HW217782   6.022   0.886   9.693 -0.7793  0.8124  0.1936
 4943SOL     OW17783   3.806   9.764   5.658 -0.5067  0.2211  0.4420
 4943SOL    HW117784   3.819   9.679   5.699 -0.6039  0.7277  1.5455
 4943SOL    HW217785   3.881   9.775   5.600 -0.3098 -0.4480  0.5632
 4944SOL     OW17786   6.962   9.411   1.960  0.5989 -0.0307 -0.0377
 4944SOL    HW117787   6.873   9.417   1.996  0.1209  0.2736 -1.2277
 4944SOL    HW217788   6.949   9.394   1.867  1.7887  0.1300 -0.2424
 4945SOL     OW17789   8.301   3.523   7.429  0.0573 -0.2879 -0.6238
 4945SOL    HW117790   8.249   3.457   7.383 -1.0153  0.1395 -0.0462
 4945SOL    HW217791   8.299   3.497   7.521  1.5835 -0.7267 -0.6731
 4946SOL     OW17792   7.340   5.341   3.884  0.0072 -0.1521  0.1974
 4946SOL    HW117793   7.252   5.303   3.877 -1.3087  2.6157  0.2452
 4946SOL    HW217794   7.347   5.400   3.809  1.9897 -0.5455  0.0220
 4947SOL     OW17795   2.191   7.271   1.008  0.2272 -0.1706 -0.4399
 4947SOL    HW117796   2.213   7.186   1.047  1.3136 -0.2929 -1.2707
 4947SOL    HW217797   2.258   7.284   0.941 -0.1670  1.1672 -0.5900
 4948SOL     OW17798   3.906   6.812  10.577  0.0928  0.4789  0.1008
 4948SOL    HW117799   3.889   6.857  10.660  0.3811  0.7782  0.0002
 4948SOL    HW217800   4.000   6.824  10.563  0.1067  0.1340 -0.0969
 4949SOL     OW17801  10.261   0.337   3.031  0.0108 -0.7366 -1.2403
 4949SOL    HW117802  10.218   0.368   2.951  2.1794 -1.3618 -2.7693
 4949SOL    HW217803  10.224   0.250   3.046 -0.2761 -0.6961 -1.6829
 4950SOL     OW17804  10.165   7.069   9.205  0.0063 -0.4645 -0.3182
 4950SOL    HW117805  10.089   7.036   9.158 -0.8101  1.1956 -0.2410
 4950SOL    HW217806  10.192   7.147   9.156  0.2479  0.2621  0.9314
 4951SOL     OW17807   2.392   9.974   4.379  0.0713 -0.4283 -0.3041
 4951SOL    HW117808   2.310  10.015   4.409 -0.7065 -2.7574  0.9719
 4951SOL    HW217809   2.412  10.019   4.296 -2.2833  0.4704 -0.4608
 4952SOL     OW17810   3.215   1.406   1.701  0.0614  0.3271 -0.2605
 4952SOL    HW117811   3.188   1.365   1.619 -0.4263  0.6366 -0.2611
 4952SOL    HW217812   3.142   1.462   1.725 -0.1524 -0.3949  0.8339
 4953SOL     OW17813   6.714   5.433   1.543 -0.4045  0.0407 -0.3136
 4953SOL    HW117814   6.742   5.343   1.562 -1.6894 -0.6214 -1.3957
 4953SOL    HW217815   6.710   5.436   1.448 -1.6317  0.8459 -0.2468
 4954SOL     OW17816   6.328  10.090   8.094 -0.2081 -0.4543 -0.1390
 4954SOL    HW117817   6.313   9.996   8.102  1.0232 -0.7345 -0.8331
 4954SOL    HW217818   6.368  10.100   8.008  0.8112  0.5393  0.4240
 4955SOL     OW17819   3.606   6.563   8.904 -0.2273  0.3044 -0.7596
 4955SOL    HW117820   3.614   6.573   8.999 -3.0617  0.8583 -0.5109
 4955SOL    HW217821   3.555   6.638   8.875 -3.0005 -1.8823 -2.0604
 4956SOL     OW17822   5.327   3.893   4.721  0.0321 -0.2623 -0.0583
 4956SOL    HW117823   5.410   3.939   4.709 -0.7932  1.2536 -0.1894
 4956SOL    HW217824   5.338   3.810   4.673  1.2636  0.1485 -0.5193
 4957SOL     OW17825   7.917   9.042   7.669  0.2749 -0.0545 -0.2817
 4957SOL    HW117826   7.844   8.985   7.692 -0.0895  0.3628 -0.3857
 4957SOL    HW217827   7.984   8.983   7.635  0.5630 -0.6109  1.1893
 4958SOL     OW17828   5.370   5.868   8.241 -0.2541 -0.3435 -0.0185
 4958SOL    HW117829   5.453   5.823   8.226  0.3013  0.1791  1.2924
 4958SOL    HW217830   5.372   5.943   8.182 -0.2384 -0.8712 -0.6926
 4959SOL     OW17831   4.861   6.025   4.901  0.0604  0.9226  0.0936
 4959SOL    HW117832   4.808   5.985   4.832  0.8639 -0.8577  0.4584
 4959SOL    HW217833   4.946   6.041   4.861  0.2481  0.7302  0.4055
 4960SOL     OW17834   8.922   0.166   9.780  0.0816 -0.4414 -0.7387
 4960SOL    HW117835   8.903   0.260   9.774  0.8978 -0.2107  0.0620
 4960SOL    HW217836   8.995   0.152   9.720 -1.0188 -0.8722 -2.0123
 4961SOL     OW17837   4.654   8.041   0.730  0.0919  0.0615  0.0280
 4961SOL    HW117838   4.682   7.950   0.715  1.5665  0.5361 -0.1996
 4961SOL    HW217839   4.591   8.034   0.803 -0.8380 -1.2796 -0.8506
 4962SOL     OW17840   5.670   2.801   7.475 -0.2845 -0.3552  0.4467
 4962SOL    HW117841   5.660   2.825   7.383  1.7602  0.0639  0.2720
 4962SOL    HW217842   5.632   2.874   7.524  2.3843  1.5721 -0.1049
 4963SOL     OW17843   4.553   4.774   2.410  0.4994  0.2314  0.0092
 4963SOL    HW117844   4.481   4.717   2.436 -0.9951  0.2868 -3.4695
 4963SOL    HW217845   4.525   4.861   2.437  0.1726  0.0267  0.3557
 4964SOL     OW17846   9.244   6.919  10.404  0.4152  0.1699 -0.7964
 4964SOL    HW117847   9.246   6.899  10.497  1.5304 -0.5680 -0.9571
 4964SOL    HW217848   9.294   7.000  10.395 -0.4938  0.7613 -0.6557
 4965SOL     OW17849   9.684   9.160   3.963 -0.0771 -0.2839  0.5847
 4965SOL    HW117850   9.778   9.144   3.964 -0.1389 -0.6650  0.2952
 4965SOL    HW217851   9.661   9.164   3.870 -0.6578 -2.0347  0.6214
 4966SOL     OW17852   9.098   0.771   0.245  0.2931 -0.3914 -0.3042
 4966SOL    HW117853   9.128   0.682   0.261 -1.3649 -0.7627  0.9802
 4966SOL    HW217854   9.043   0.764   0.166  0.5111 -0.4155 -0.4556
 4967SOL     OW17855   0.857   1.243   3.899  0.0612 -0.5479  0.3284
 4967SOL    HW117856   0.950   1.258   3.916  0.2453 -2.2043  0.9599
 4967SOL    HW217857   0.848   1.249   3.804  0.8932 -0.7123  0.2341
 4968SOL     OW17858   0.242   1.140   0.727  0.1571 -0.1485 -0.0606
 4968SOL    HW117859   0.194   1.134   0.644 -1.2146 -0.3623  0.7213
 4968SOL    HW217860   0.305   1.068   0.723  0.7386  0.3854 -1.2819
 4969SOL     OW17861   1.930   2.830   8.684 -0.3008  0.4423 -0.1457
 4969SOL    HW117862   1.975   2.768   8.626 -2.2158 -1.1052 -0.1000
 4969SOL    HW217863   1.892   2.775   8.752 -0.3664  1.9407  1.0748
 4970SOL     OW17864   7.364   7.299  10.183 -0.3553 -0.1599 -0.7565
 4970SOL    HW117865   7.442   7.276  10.234  0.0286  0.1712 -1.1872
 4970SOL    HW217866   7.393   7.296  10.092 -1.0184 -0.6701 -0.9535
 4971SOL     OW17867   9.254   4.041   6.277 -0.2637  0.3675 -0.2900
 4971SOL    HW117868   9.348   4.057   6.287 -0.4703  2.2573 -1.0493
 4971SOL    HW217869   9.212   4.124   6.301 -1.8139 -0.6435  0.7253
 4972SOL     OW17870   1.295   9.286   0.319 -0.1937  0.2374  0.3820
 4972SOL    HW117871   1.225   9.256   0.377 -0.6554  0.2173 -0.1799
 4972SOL    HW217872   1.311   9.376   0.347  0.4236 -0.1530  1.3302
 4973SOL     OW17873   8.142   4.226   5.429  0.5854 -0.1179 -0.5297
 4973SOL    HW117874   8.225   4.264   5.403  0.1544  1.9428  0.8063
 4973SOL    HW217875   8.086   4.234   5.352  0.4563  2.3323 -0.2801
 4974SOL     OW17876   5.495   7.878   3.108 -0.3789 -0.0022 -0.0675
 4974SOL    HW117877   5.586   7.870   3.137 -0.2041 -0.5920 -0.7321
 4974SOL    HW217878   5.496   7.954   3.049 -0.6040  0.8091  0.9581
 4975SOL     OW17879   3.332   9.538   7.897  0.0695  1.0129 -0.8325
 4975SOL    HW117880   3.352   9.476   7.967  0.1672 -0.0766 -1.7886
 4975SOL    HW217881   3.379   9.618   7.921 -4.0816  2.7096  3.1889
 4976SOL     OW17882   5.070  10.478   4.829  0.6205 -0.3000 -0.0928
 4976SOL    HW117883   5.058  10.561   4.781  2.4065 -0.3951 -0.7888
 4976SOL    HW217884   4.994  10.426   4.804  0.3070  0.5299 -0.9799
 4977SOL     OW17885  10.002   8.029   6.098 -0.0046 -0.3356  0.0076
 4977SOL    HW117886   9.991   8.117   6.063  0.6004  0.0953  0.8670
 4977SOL    HW217887   9.940   7.975   6.049  1.4062  0.0680 -2.3762
 4978SOL     OW17888   4.736   4.856   9.442  0.6102  0.0247  0.0698
 4978SOL    HW117889   4.704   4.799   9.512 -0.9257  0.1946 -0.4607
 4978SOL    HW217890   4.711   4.812   9.361 -0.8920  1.5697 -0.3570
 4979SOL     OW17891   7.638   9.145   0.138  0.5012  0.4392 -0.3367
 4979SOL    HW117892   7.670   9.224   0.094 -0.9584  1.4462  0.3152
 4979SOL    HW217893   7.688   9.140   0.219  2.6257 -0.9701 -1.6266
 4980SOL     OW17894   7.505   3.806   6.096  0.0819  0.7218  0.2523
 4980SOL    HW117895   7.506   3.715   6.066  1.6951  0.2944  1.4284
 4980SOL    HW217896   7.421   3.816   6.141 -1.0977  0.5323 -1.8063
 4981SOL     OW17897   6.546   5.193   3.074  0.1293  0.1507  0.2816
 4981SOL    HW117898   6.481   5.242   3.125  0.0022  1.0314 -0.7011
 4981SOL    HW217899   6.505   5.181   2.988  1.6302  1.6216 -0.6991
 4982SOL     OW17900   9.583   0.421   5.816  0.1912  0.1920 -0.1847
 4982SOL    HW117901   9.622   0.470   5.744  2.3504  0.1490  0.8686
 4982SOL    HW217902   9.542   0.346   5.775  0.9978  0.3953 -1.4237
 4983SOL     OW17903   6.256   0.871   1.745 -0.0022 -0.0749  0.0390
 4983SOL    HW117904   6.261   0.776   1.736 -1.1034 -0.1734  0.3175
 4983SOL    HW217905   6.334   0.903   1.699  0.8911 -1.1419  0.7317
 4984SOL     OW17906   4.007   5.273   9.772  0.0195 -0.8344 -0.5623
 4984SOL    HW117907   4.080   5.334   9.764 -0.3282 -0.5040 -1.3495
 4984SOL    HW217908   4.049   5.187   9.779  0.4926 -0.7391 -1.8566
 4985SOL     OW17909   2.920   2.431   4.992 -0.1757  0.7810  0.7458
 4985SOL    HW117910   2.978   2.455   5.064  0.6201  2.2231 -0.3372
 4985SOL    HW217911   2.889   2.514   4.956 -0.7926  0.0887 -0.3986
 4986SOL     OW17912   2.218   0.847   6.797  0.8731 -0.2749 -0.2881
 4986SOL    HW117913   2.134   0.885   6.774  0.8881  0.0750  0.2319
 4986SOL    HW217914   2.244   0.891   6.878  0.1061 -2.5434  1.2795
 4987SOL     OW17915   2.122   7.044  10.669  0.3427 -0.0171 -0.1723
 4987SOL    HW117916   2.117   6.968  10.612 -1.2104  0.6754 -1.0308
 4987SOL    HW217917   2.032   7.077  10.674  0.8719  1.4406  0.6102
 4988SOL     OW17918   5.230   5.375   0.887 -0.2191 -0.0513 -0.2297
 4988SOL    HW117919   5.161   5.390   0.952 -0.2071 -1.0388  0.0222
 4988SOL    HW217920   5.204   5.429   0.813 -1.5252 -0.7439 -0.3212
 4989SOL     OW17921   7.046   1.023   5.849 -0.3852  0.3498 -0.1715
 4989SOL    HW117922   7.098   1.016   5.929  1.1283 -1.4128 -1.2417
 4989SOL    HW217923   7.102   1.069   5.787 -0.1163 -1.3903 -1.2753
 4990SOL     OW17924   8.199   9.034   4.951  0.0577  1.1370  0.1422
 4990SOL    HW117925   8.112   9.034   4.991 -0.4186  0.9394 -0.8619
 4990SOL    HW217926   8.189   9.088   4.872  1.2535  2.4810  0.8614
 4991SOL     OW17927   0.437   5.230   4.883  0.4437 -0.2161 -0.9065
 4991SOL    HW117928   0.371   5.213   4.950  1.2533 -1.1199 -0.3232
 4991SOL    HW217929   0.520   5.205   4.924  1.3477  2.1494 -1.1362
 4992SOL     OW17930   5.545   5.146   0.752 -0.1950 -0.3940  0.6208
 4992SOL    HW117931   5.557   5.235   0.784 -2.0598 -0.1092  0.6404
 4992SOL    HW217932   5.578   5.148   0.662 -2.2930  0.9748 -0.1817
 4993SOL     OW17933   6.933   1.584   3.168 -0.0180 -0.0765 -0.4621
 4993SOL    HW117934   6.871   1.550   3.232  1.9070  0.0657  1.6285
 4993SOL    HW217935   6.956   1.509   3.114  0.2923 -0.8726  0.7412
 4994SOL     OW17936   2.955   4.588   3.523 -0.5176  0.2456 -0.0979
 4994SOL    HW117937   2.910   4.534   3.458 -1.0672  0.5043  0.0652
 4994SOL    HW217938   3.046   4.557   3.520 -0.4856  0.3990 -1.1340
 4995SOL     OW17939  10.246   5.942   4.238 -0.0424 -0.3119  0.1287
 4995SOL    HW117940  10.179   5.955   4.305 -0.0635 -1.0576  0.2539
 4995SOL    HW217941  10.285   6.029   4.227 -0.2894 -0.1020  0.8374
 4996SOL     OW17942   3.167   1.069   6.007  0.1706 -0.0154 -0.1506
 4996SOL    HW117943   3.235   1.002   5.996 -0.4112 -0.6264 -0.1278
 4996SOL    HW217944   3.149   1.099   5.917  0.2421 -0.0924 -0.1910
 4997SOL     OW17945   8.765   5.571   3.014  0.1067  0.1442  0.6841
 4997SOL    HW117946   8.846   5.581   2.964 -0.1081  0.2654  0.3558
 4997SOL    HW217947   8.770   5.637   3.083 -0.2708  1.0016 -0.0921
 4998SOL     OW17948   1.648   8.177   0.911 -0.3091 -0.1723 -0.1310
 4998SOL    HW117949   1.688   8.218   0.988  1.1493 -1.4795 -0.1308
 4998SOL    HW217950   1.610   8.096   0.944  0.2615 -0.7092 -0.7443
 4999SOL     OW17951   3.747   6.090   8.880 -0.7984 -0.1296  0.0632
 4999SOL    HW117952   3.828   6.081   8.930 -0.6910 -0.4477 -0.1650
 4999SOL    HW217953   3.759   6.170   8.828 -0.5764 -0.2508 -0.0722
 5000SOL     OW17954   9.732   4.494   7.195 -0.1889  0.1326  0.4926
 5000SOL    HW117955   9.778   4.463   7.117 -1.6246 -1.5296  0.2500
 5000SOL    HW217956   9.757   4.433   7.264  0.9909  1.5331  1.3719
 5001SOL     OW17957   9.543   8.722  10.420  0.2473  0.2092  0.0228
 5001SOL    HW117958   9.603   8.768  10.362  2.5575 -1.6477  0.8124
 5001SOL    HW217959   9.471   8.695  10.363  0.5461  1.7264 -1.1328
 5002SOL     OW17960   4.073  10.653   8.000 -0.4576 -0.4542  0.3534
 5002SOL    HW117961   4.150  10.704   8.026  1.7525 -2.9114 -0.9047
 5002SOL    HW217962   4.003  10.717   7.993  2.1757  2.5250 -1.4358
 5003SOL     OW17963   9.098   4.717   3.738 -0.0767 -0.3311 -0.8533
 5003SOL    HW117964   9.166   4.762   3.687  0.1922 -0.6224 -0.7581
 5003SOL    HW217965   9.055   4.786   3.787  0.4808 -0.2051 -0.5365
 5004SOL     OW17966   7.623   6.535   4.714 -0.2607 -0.1882 -0.4470
 5004SOL    HW117967   7.682   6.551   4.788  0.3758 -0.3616 -0.9057
 5004SOL    HW217968   7.674   6.560   4.637 -0.7219 -0.5098 -0.8660
 5005SOL     OW17969   6.946   6.449   6.938  0.2689  0.0440  0.1328
 5005SOL    HW117970   6.919   6.449   6.846 -0.6541  0.2073  0.4011
 5005SOL    HW217971   6.878   6.499   6.983  1.7583  1.7625  0.6115
 5006SOL     OW17972   4.354   4.084   9.865 -0.0581  0.0483  0.5379
 5006SOL    HW117973   4.419   4.115   9.927  0.5627 -3.2238  1.7428
 5006SOL    HW217974   4.330   3.997   9.897 -1.2123 -0.9903 -2.7173
 5007SOL     OW17975   2.335   8.859   3.424 -0.7851  0.1861 -0.1920
 5007SOL    HW117976   2.299   8.899   3.504 -1.7802 -0.9210 -0.0555
 5007SOL    HW217977   2.280   8.782   3.410 -0.3195  0.1125 -1.6935
 5008SOL     OW17978   8.386   5.926   7.753 -0.3063 -0.0947 -0.1470
 5008SOL    HW117979   8.367   5.900   7.663  1.7357  1.8123 -1.2107
 5008SOL    HW217980   8.459   5.869   7.779 -0.4145 -0.1447  0.0480
 5009SOL     OW17981  10.528   5.049   0.578  0.3463 -0.2092 -0.3333
 5009SOL    HW117982  10.564   5.133   0.550 -1.5705  0.3935 -1.1513
 5009SOL    HW217983  10.491   5.011   0.498  0.7652 -1.6340  0.1212
 5010SOL     OW17984   9.181   1.930   7.214  0.2987 -0.0262  0.4101
 5010SOL    HW117985   9.207   1.881   7.137 -2.5666 -1.1233  0.0334
 5010SOL    HW217986   9.155   1.864   7.278  1.1748  0.9114  1.8200
 5011SOL     OW17987   8.591  10.127   8.633  0.2218  0.5003 -0.3798
 5011SOL    HW117988   8.496  10.139   8.627  0.0365 -0.3929  0.5069
 5011SOL    HW217989   8.604  10.033   8.615  0.7995  0.3469  0.7542
 5012SOL     OW17990   4.434   4.749   2.148  0.5897 -0.5094  0.3108
 5012SOL    HW117991   4.434   4.756   2.243  1.0110 -1.0887  0.3600
 5012SOL    HW217992   4.525   4.733   2.124  0.4837 -0.3997 -0.1872
 5013SOL     OW17993   0.396   7.465   4.819  0.3378 -0.3255  0.2673
 5013SOL    HW117994   0.435   7.409   4.751  0.3453  0.6663 -0.5809
 5013SOL    HW217995   0.318   7.501   4.778 -0.4408 -0.8075  1.2970
 5014SOL     OW17996   9.799   6.757  10.350  0.0037  0.0447 -0.7616
 5014SOL    HW117997   9.794   6.696  10.276  1.0639  0.5228 -1.2477
 5014SOL    HW217998   9.800   6.700  10.427  1.5484 -0.6117 -1.2299
 5015SOL     OW17999   1.843   7.438   8.189  0.0843 -0.7413 -0.4875
 5015SOL    HW118000   1.887   7.522   8.207 -1.6208  0.2653 -0.8191
 5015SOL    HW218001   1.846   7.392   8.273 -1.4590  0.8889  0.5430
 5016SOL     OW18002   3.161   2.464  10.034 -0.0895 -0.7104  0.0248
 5016SOL    HW118003   3.147   2.378   9.994 -1.2091  0.1803 -1.6162
 5016SOL    HW218004   3.145   2.527   9.963  1.7529  0.8448  0.8894
 5017SOL     OW18005   8.754   7.571   2.644  0.7942 -0.3833 -0.0790
 5017SOL    HW118006   8.789   7.495   2.690  0.9790 -0.5031 -0.4164
 5017SOL    HW218007   8.813   7.643   2.669  0.0063 -0.1084  1.0874
 5018SOL     OW18008   6.139   8.520   8.442  0.2704  0.1858 -0.5401
 5018SOL    HW118009   6.160   8.428   8.453  0.9730  0.2402 -1.2828
 5018SOL    HW218010   6.145   8.557   8.530  2.4835  0.0000 -0.5533
 5019SOL     OW18011   2.001   2.298   1.678 -0.5060  0.2935 -0.0126
 5019SOL    HW118012   2.048   2.214   1.680  0.8418  1.0215  1.5937
 5019SOL    HW218013   1.911   2.276   1.702 -0.0263 -0.6388  1.0490
 5020SOL     OW18014  10.571   8.873   7.054 -0.1388 -0.3673 -0.2737
 5020SOL    HW118015  10.637   8.853   7.121  0.0303 -1.3301 -0.7079
 5020SOL    HW218016  10.621   8.911   6.982 -0.0462 -1.0615 -0.5876
 5021SOL     OW18017  10.466   1.753   2.702  0.2811 -0.3032  0.2596
 5021SOL    HW118018  10.495   1.779   2.790 -0.7442  0.6940  0.3235
 5021SOL    HW218019  10.454   1.836   2.655 -2.5957 -0.5953  0.3064
 5022SOL     OW18020   4.441   6.705   2.792  0.0565 -0.1927  0.1679
 5022SOL    HW118021   4.524   6.678   2.754 -0.5859 -0.4895 -1.1045
 5022SOL    HW218022   4.421   6.638   2.857  0.5546 -0.4015  0.1070
 5023SOL     OW18023   5.661   0.249   0.139  0.1611 -0.6391 -0.3236
 5023SOL    HW118024   5.644   0.187   0.069 -3.3407 -0.7442  0.4514
 5023SOL    HW218025   5.642   0.201   0.220  0.1829  0.6278  0.4740
 5024SOL     OW18026   4.433   4.463  10.244 -0.3063 -0.0089  0.0373
 5024SOL    HW118027   4.421   4.396  10.177  1.1704  0.7664 -1.0700
 5024SOL    HW218028   4.381   4.537  10.214 -0.1790  0.1028  0.0910
 5025SOL     OW18029   0.679   9.904   6.336  0.1263  0.7550  0.4676
 5025SOL    HW118030   0.644   9.881   6.422 -0.8504  0.8001  0.0943
 5025SOL    HW218031   0.735   9.831   6.312  1.2714  1.2118  1.5933
 5026SOL     OW18032   3.525   7.840   2.405 -0.4345  0.2116 -0.1291
 5026SOL    HW118033   3.461   7.862   2.337 -0.1577  1.8999  0.1072
 5026SOL    HW218034   3.609   7.868   2.368 -0.3753  1.9295  1.1761
 5027SOL     OW18035   7.344  10.173   9.917 -0.2146 -0.4144 -0.0958
 5027SOL    HW118036   7.260  10.219   9.914 -0.0614 -0.1228 -0.0364
 5027SOL    HW218037   7.343  10.126  10.000 -0.1489 -0.0772  0.0966
 5028SOL     OW18038   5.203   6.112   8.378 -0.6653 -0.0192  0.1555
 5028SOL    HW118039   5.237   6.201   8.372  0.9264 -0.6704 -1.4429
 5028SOL    HW218040   5.204   6.080   8.287 -0.3759 -1.9589  0.7992
 5029SOL     OW18041   0.802   7.223   0.673 -0.1971 -0.6508  0.2655
 5029SOL    HW118042   0.777   7.312   0.697  1.9901  0.2986 -0.7447
 5029SOL    HW218043   0.849   7.233   0.590 -0.8874 -2.8988 -0.4664
 5030SOL     OW18044  10.651   3.394   4.424 -0.2841  0.1000 -0.2904
 5030SOL    HW118045  10.653   3.490   4.419 -0.4080  0.1169 -0.0110
 5030SOL    HW218046  10.724   3.372   4.482 -1.0578  0.0986  0.7074
 5031SOL     OW18047   8.651   3.884   2.362 -0.2756  0.4064 -0.1142
 5031SOL    HW118048   8.578   3.856   2.308 -1.3345  0.1872  1.3876
 5031SOL    HW218049   8.611   3.922   2.440  1.2032  0.4629  0.6620
 5032SOL     OW18050   9.263   8.932   9.506 -0.3130 -0.3468 -0.1392
 5032SOL    HW118051   9.168   8.928   9.518 -0.0907 -0.8855  1.7783
 5032SOL    HW218052   9.280   9.022   9.481 -1.0712  0.7076  2.7507
 5033SOL     OW18053   5.109   8.253   2.673  0.3756  0.2711 -0.2068
 5033SOL    HW118054   5.017   8.258   2.649  0.6080  1.1051 -0.9739
 5033SOL    HW218055   5.153   8.315   2.615  1.5226 -0.6388 -0.3529
 5034SOL     OW18056   2.470   6.945   3.865  0.6348 -0.4631  0.0557
 5034SOL    HW118057   2.384   6.986   3.867  1.3771  1.1916  0.1211
 5034SOL    HW218058   2.494   6.934   3.957  0.5605 -0.7840  0.0379
 5035SOL     OW18059   0.035   3.509   1.769  0.6781  0.2651  0.0052
 5035SOL    HW118060   0.104   3.559   1.813  0.1869 -0.2195  1.4064
 5035SOL    HW218061   0.078   3.428   1.742  0.5346 -0.3544  1.5271
 5036SOL     OW18062   1.419   8.839   6.605 -0.1262 -0.2291  0.6425
 5036SOL    HW118063   1.396   8.747   6.619 -2.2424  0.0960 -0.2749
 5036SOL    HW218064   1.442   8.872   6.691  0.2735 -1.5204  1.0489
 5037SOL     OW18065   4.581   8.822   7.974  0.7082  0.1887 -0.5222
 5037SOL    HW118066   4.487   8.808   7.961  0.7866 -1.5505  0.5193
 5037SOL    HW218067   4.586   8.878   8.052  0.5293 -0.4293 -0.0540
 5038SOL     OW18068  10.006   7.156   7.081  0.4665 -0.3705 -0.3588
 5038SOL    HW118069  10.090   7.189   7.111  0.2426  1.0164 -1.1683
 5038SOL    HW218070   9.975   7.222   7.019 -0.9372 -1.1517 -0.5328
 5039SOL     OW18071   5.729   2.050   4.234  0.6282 -0.2099 -0.1352
 5039SOL    HW118072   5.773   2.099   4.165  1.3956  1.0772  1.2269
 5039SOL    HW218073   5.727   2.109   4.309 -2.4414 -0.6063  0.2373
 5040SOL     OW18074   7.435   3.072  10.385 -0.1303  0.2932  0.3578
 5040SOL    HW118075   7.378   3.138  10.346  0.4142 -0.0660 -1.1028
 5040SOL    HW218076   7.516   3.079  10.335 -0.0326 -1.4291  0.2387
 5041SOL     OW18077   8.644   7.607   4.426 -0.0209  0.1985 -0.3317
 5041SOL    HW118078   8.682   7.561   4.351 -0.0556 -2.0881  0.9618
 5041SOL    HW218079   8.701   7.584   4.500 -2.1850 -0.8983  1.0974
 5042SOL     OW18080   3.879   3.244   7.314 -0.0309  0.7035 -0.1747
 5042SOL    HW118081   3.893   3.149   7.317  0.5576  0.7173 -1.6160
 5042SOL    HW218082   3.847   3.260   7.226  0.7540  1.9502 -0.2514
 5043SOL     OW18083   1.063   3.854   1.955  0.0479  0.3786  0.3943
 5043SOL    HW118084   1.057   3.948   1.939  0.5161  0.0236 -2.4184
 5043SOL    HW218085   1.154   3.840   1.981 -0.0429  0.6932  0.8936
 5044SOL     OW18086  10.461   1.581   7.704  0.2953 -0.4706 -0.2517
 5044SOL    HW118087  10.510   1.609   7.781  1.2544 -0.1987 -0.9378
 5044SOL    HW218088  10.525   1.584   7.633 -0.2091 -2.0143 -0.8212
 5045SOL     OW18089  10.184   6.034   8.563 -0.0989  0.1671 -0.0855
 5045SOL    HW118090  10.278   6.045   8.544  1.0909 -2.5812  3.1090
 5045SOL    HW218091  10.155   6.120   8.591  2.0466  0.6834  0.7623
 5046SOL     OW18092   7.554   1.837   3.652  0.1145  0.3191  0.0280
 5046SOL    HW118093   7.479   1.816   3.597 -1.0650 -0.3970  1.8270
 5046SOL    HW218094   7.624   1.781   3.618  0.1403  1.5471 -2.1619
 5047SOL     OW18095   6.951   3.664   2.042  0.2960 -0.0025  0.3249
 5047SOL    HW118096   6.862   3.675   2.076 -0.5521  1.2470 -2.0496
 5047SOL    HW218097   7.004   3.726   2.092 -0.2838 -0.2859  1.3205
 5048SOL     OW18098   8.656   8.980   0.714  0.0189  0.2893 -0.2662
 5048SOL    HW118099   8.593   8.925   0.762  1.7583 -2.3000 -0.7288
 5048SOL    HW218100   8.682   8.926   0.639  1.8993  1.7736 -0.7453
 5049SOL     OW18101   6.126   3.966   2.140  0.2720  0.2615  0.2512
 5049SOL    HW118102   6.118   4.008   2.225  1.0306 -2.0775  1.5603
 5049SOL    HW218103   6.221   3.961   2.124  0.1572  2.4124 -1.7367
 5050SOL     OW18104  10.450   3.200   3.598 -0.2958 -0.2946  0.6597
 5050SOL    HW118105  10.486   3.241   3.520  1.4435  0.8012  1.9592
 5050SOL    HW218106  10.399   3.269   3.640 -0.6462 -0.6681  0.8628
 5051SOL     OW18107   1.127   8.861   7.499 -0.4731 -0.0583 -0.6227
 5051SOL    HW118108   1.194   8.924   7.475 -0.4504  0.7422  1.3780
 5051SOL    HW218109   1.046   8.894   7.460 -0.2848  0.7149 -0.3575
 5052SOL     OW18110   0.484   7.230   5.256 -0.4332  0.2654  0.4184
 5052SOL    HW118111   0.430   7.275   5.191  0.9699 -0.3054 -1.2110
 5052SOL    HW218112   0.521   7.300   5.309 -0.2418  0.8666 -0.4961
 5053SOL     OW18113   1.927  10.052  10.588  0.2371  1.0889  0.9594
 5053SOL    HW118114   2.022  10.046  10.578  0.3082  1.1396  1.5297
 5053SOL    HW218115   1.909  10.009  10.672 -0.3132  0.5653  0.5888
 5054SOL     OW18116   4.741   4.583   2.725 -0.0763 -0.1361 -0.4952
 5054SOL    HW118117   4.745   4.604   2.632 -2.1093  0.2450 -0.5562
 5054SOL    HW218118   4.739   4.668   2.769  0.1049 -0.3014 -0.1655
 5055SOL     OW18119   9.980   0.611   2.937 -0.1783 -1.2755  0.2679
 5055SOL    HW118120  10.031   0.638   3.013  0.3854 -0.0885 -0.4842
 5055SOL    HW218121  10.038   0.553   2.888  0.4939  0.0353 -0.5619
 5056SOL     OW18122   5.179   9.276   7.120  0.2356  0.1123  0.0862
 5056SOL    HW118123   5.252   9.338   7.124 -0.2325  0.6229  1.8062
 5056SOL    HW218124   5.110   9.323   7.074  0.8582 -0.2560 -1.2619
 5057SOL     OW18125   9.462   2.971   3.988  0.3773 -0.4751  0.0999
 5057SOL    HW118126   9.530   2.926   3.938 -1.1188 -1.4321 -1.1506
 5057SOL    HW218127   9.445   3.051   3.939  1.8651  0.7361  1.4349
 5058SOL     OW18128   8.868   0.513   1.080 -0.2358 -0.7475  0.3562
 5058SOL    HW118129   8.828   0.538   0.997  0.8618 -0.9486 -0.2533
 5058SOL    HW218130   8.904   0.426   1.064 -0.5348 -1.0447  1.2352
 5059SOL     OW18131   3.563   7.665   5.373  0.3533 -0.4572  0.4359
 5059SOL    HW118132   3.483   7.661   5.320  0.6965  1.6495 -0.3358
 5059SOL    HW218133   3.635   7.660   5.310  0.7975  0.0226  0.8970
 5060SOL     OW18134   7.304  10.563   0.028 -0.3990 -0.6023 -0.1983
 5060SOL    HW118135   7.231  10.526   0.077 -1.9107 -0.6094 -2.3071
 5060SOL    HW218136   7.277  10.654   0.010  0.9045 -0.0627  0.4630
 5061SOL     OW18137   8.286   9.717   2.678  0.1486 -0.4117 -0.2338
 5061SOL    HW118138   8.284   9.708   2.773 -0.3193  0.1444 -0.1860
 5061SOL    HW218139   8.379   9.708   2.655  0.7029  2.3494  0.5892
 5062SOL     OW18140   0.624   4.309  10.363 -0.0671  0.3753 -0.2719
 5062SOL    HW118141   0.671   4.382  10.323 -1.7303  1.3805 -0.5121
 5062SOL    HW218142   0.543   4.349  10.397 -1.1472 -1.4017 -0.6383
 5063SOL     OW18143   9.481   2.714   1.123  0.5762 -0.2093 -0.4034
 5063SOL    HW118144   9.507   2.630   1.085 -0.5719 -0.9051  0.2799
 5063SOL    HW218145   9.387   2.720   1.106  0.6098  0.8414 -0.2637
 5064SOL     OW18146   7.575   6.273   1.175 -0.6409 -0.2494 -0.0655
 5064SOL    HW118147   7.534   6.325   1.106 -0.3299  2.0294  1.3864
 5064SOL    HW218148   7.562   6.323   1.255  2.4620 -0.8153  0.9373
 5065SOL     OW18149   5.394   4.122  10.627 -0.1478  0.7912 -0.3164
 5065SOL    HW118150   5.383   4.155  10.538 -0.2169  2.1961  0.1758
 5065SOL    HW218151   5.485   4.093  10.631 -0.3073  0.1689 -1.0033
 5066SOL     OW18152   9.396   6.495   5.798  0.1622  0.2563  0.3012
 5066SOL    HW118153   9.384   6.456   5.884  0.3618  0.1899  0.3003
 5066SOL    HW218154   9.490   6.518   5.795  0.0468  0.7501  0.3104
 5067SOL     OW18155   7.242   9.303   2.307  0.8397 -0.6461 -0.2230
 5067SOL    HW118156   7.197   9.358   2.371  0.1989  0.3493 -1.4850
 5067SOL    HW218157   7.281   9.364   2.245 -0.3423 -1.5851 -1.9778
 5068SOL     OW18158  10.319   1.305   8.222  0.3163 -0.6242  0.4387
 5068SOL    HW118159  10.251   1.363   8.255  1.2440  0.2825  0.8158
 5068SOL    HW218160  10.341   1.247   8.295 -0.0378 -0.9150  0.3175
 5069SOL     OW18161   0.115   3.118   6.660  0.3265 -0.5900  0.4074
 5069SOL    HW118162   0.029   3.159   6.663  1.0955  1.1806 -0.3735
 5069SOL    HW218163   0.136   3.112   6.567  0.7084 -1.8289  0.5486
 5070SOL     OW18164   4.549   9.487   4.298 -0.3915  0.0107 -0.2442
 5070SOL    HW118165   4.481   9.554   4.293  1.6137  2.1331 -0.6833
 5070SOL    HW218166   4.534   9.432   4.220 -1.0767  0.9734 -0.8176
 5071SOL     OW18167   4.522   6.949   8.585 -0.4555  0.1922  0.1160
 5071SOL    HW118168   4.594   6.956   8.522  0.1366  0.0258  0.7637
 5071SOL    HW218169   4.512   7.038   8.619 -1.3386  0.4626 -0.8112
 5072SOL     OW18170   3.865   6.595   2.856  0.2122 -0.1409  0.1454
 5072SOL    HW118171   3.899   6.641   2.780  0.1140 -0.4132 -0.0682
 5072SOL    HW218172   3.809   6.526   2.819 -0.6262  0.3398  0.4883
 5073SOL     OW18173   3.541   4.801   5.346 -0.0949 -0.1890 -0.1043
 5073SOL    HW118174   3.534   4.747   5.425 -2.1509  0.7544  0.4291
 5073SOL    HW218175   3.465   4.859   5.350 -0.0724  0.1083 -2.6249
 5074SOL     OW18176  10.367   7.476   5.097  0.0202  0.0405  0.3281
 5074SOL    HW118177  10.340   7.405   5.038  2.1928 -1.0854  0.5950
 5074SOL    HW218178  10.331   7.555   5.056 -0.1300 -0.9074 -1.5011
 5075SOL     OW18179  10.233   0.569   5.629  0.2304 -0.4806 -0.3535
 5075SOL    HW118180  10.326   0.546   5.630  0.3678  0.0812  0.3360
 5075SOL    HW218181  10.231   0.661   5.657 -0.3565  0.1660 -2.3671
 5076SOL     OW18182   4.900   1.251   8.815 -0.8963  0.0450 -0.4583
 5076SOL    HW118183   4.906   1.215   8.727 -0.3344 -0.2837 -0.2908
 5076SOL    HW218184   4.832   1.200   8.858 -0.8760 -0.0779 -0.5709
 5077SOL     OW18185   3.040   7.878   0.952  0.3818  0.0612  0.1639
 5077SOL    HW118186   3.072   7.814   1.016 -0.5157  0.1536  0.7243
 5077SOL    HW218187   3.098   7.868   0.877  1.5297  0.0161  1.0260
 5078SOL     OW18188   8.770   9.293   5.913 -0.0678  0.1096 -0.3054
 5078SOL    HW118189   8.794   9.248   5.993 -0.2360  0.8566  0.1767
 5078SOL    HW218190   8.836   9.362   5.904 -0.6625  0.6956 -0.2348
 5079SOL     OW18191   0.363   0.097   2.560  0.2285 -0.2944  0.5088
 5079SOL    HW118192   0.399   0.157   2.495 -0.4168  1.6223  1.8153
 5079SOL    HW218193   0.357   0.013   2.515  1.1630  0.6062 -1.4144
 5080SOL     OW18194   6.879   1.377   9.003 -0.6313  0.1466  0.0587
 5080SOL    HW118195   6.853   1.458   8.960  1.5469  0.3953 -0.9073
 5080SOL    HW218196   6.951   1.402   9.060  2.5184 -1.5313 -2.8455
 5081SOL     OW18197   8.725   7.732  10.440 -0.7520  0.1483  0.4471
 5081SOL    HW118198   8.787   7.802  10.457 -0.1379 -0.4621  0.7795
 5081SOL    HW218199   8.695   7.706  10.528  0.9644 -1.7118  0.5530
 5082SOL     OW18200   6.384   1.189   5.927 -0.1823  0.0397  0.2372
 5082SOL    HW118201   6.440   1.129   5.879  1.0188  1.1153  0.2443
 5082SOL    HW218202   6.307   1.200   5.871  0.3877 -0.1287 -0.5877
 5083SOL     OW18203   3.949   2.119   5.532  0.1413  0.4527  0.1309
 5083SOL    HW118204   3.982   2.050   5.590 -2.0892  0.0487  1.0138
 5083SOL    HW218205   3.961   2.200   5.582  0.5537  0.4168  0.0937
 5084SOL     OW18206   8.458   7.514   2.239 -0.0668  0.4933  0.1977
 5084SOL    HW118207   8.446   7.520   2.144 -0.6706 -2.0229  0.0543
 5084SOL    HW218208   8.369   7.521   2.274  0.0146  0.1638  0.4714
 5085SOL     OW18209   6.427   3.334  10.014 -0.5391  0.0195  0.8171
 5085SOL    HW118210   6.355   3.340  10.077 -0.5109 -1.7953  1.0782
 5085SOL    HW218211   6.477   3.257  10.042  0.1098 -0.1806 -0.7798
 5086SOL     OW18212   2.708   1.417   3.014 -0.5921 -0.4746 -0.2905
 5086SOL    HW118213   2.692   1.326   2.987  1.2699 -1.4338  1.5524
 5086SOL    HW218214   2.647   1.432   3.086  0.1835 -0.8425  0.4571
 5087SOL     OW18215  10.369   1.569   3.738 -0.4955 -0.7300 -0.0514
 5087SOL    HW118216  10.463   1.573   3.755 -0.6216 -2.0815  1.1198
 5087SOL    HW218217  10.329   1.588   3.822 -1.3069  0.2814 -0.6411
 5088SOL     OW18218   9.467   8.609   1.225  0.1672  0.5562  0.2019
 5088SOL    HW118219   9.462   8.679   1.290  0.2052  0.0977  0.7024
 5088SOL    HW218220   9.428   8.648   1.146 -1.0527  0.7125  0.8517
 5089SOL     OW18221   6.412   5.898   1.955 -0.3908  0.2128  0.1991
 5089SOL    HW118222   6.361   5.979   1.947 -1.1261 -0.2373  0.2602
 5089SOL    HW218223   6.502   5.924   1.933 -0.5596  1.1077  0.5143
 5090SOL     OW18224   9.300   2.290   6.343  0.5550  0.3980 -0.4702
 5090SOL    HW118225   9.283   2.195   6.343 -1.4225  0.6248  2.0752
 5090SOL    HW218226   9.392   2.298   6.317  0.4972 -2.1168 -1.7506
 5091SOL     OW18227   9.094   1.202   0.374 -0.1080 -0.0795  0.5778
 5091SOL    HW118228   9.031   1.195   0.302  2.3168 -1.2300 -1.6002
 5091SOL    HW218229   9.066   1.135   0.436 -1.2091 -0.3534 -0.1676
 5092SOL     OW18230   4.135   2.488   0.020  0.3135  0.2869  0.3569
 5092SOL    HW118231   4.063   2.524  -0.032  0.5899  0.1442 -0.1329
 5092SOL    HW218232   4.092   2.448   0.096 -0.1119  0.3672  0.1635
 5093SOL     OW18233  10.418   3.946   2.207 -0.5336 -0.6612 -0.0041
 5093SOL    HW118234  10.473   3.869   2.198 -0.2604 -0.6364  1.2522
 5093SOL    HW218235  10.361   3.945   2.130  0.8283 -0.9928 -1.0418
 5094SOL     OW18236   2.574   7.230  10.010 -0.2061 -0.2090 -0.3405
 5094SOL    HW118237   2.502   7.238  10.072 -0.1218 -3.1136  0.2628
 5094SOL    HW218238   2.536   7.256   9.926 -1.4565 -0.0382  0.2520
 5095SOL     OW18239   8.212   4.300   4.890  0.0039  0.0659 -0.3805
 5095SOL    HW118240   8.146   4.367   4.908 -0.8989 -0.5651 -1.2546
 5095SOL    HW218241   8.251   4.325   4.806 -0.5096 -0.6136 -0.8346
 5096SOL     OW18242   6.553   7.264   6.652 -0.0336  0.4808  0.3692
 5096SOL    HW118243   6.568   7.169   6.655  0.0111  0.4822  0.1806
 5096SOL    HW218244   6.613   7.296   6.584  2.6505  1.1447  2.8018
 5097SOL     OW18245   6.741   6.955   3.719  0.3079 -0.3396 -0.6159
 5097SOL    HW118246   6.710   6.871   3.753  0.0654  0.2158  0.6249
 5097SOL    HW218247   6.819   6.974   3.771  0.5248  0.0628 -1.0864
 5098SOL     OW18248   9.393  10.587   0.495  0.2339  0.3072 -0.3118
 5098SOL    HW118249   9.323  10.586   0.429  0.6612  0.8347 -0.7859
 5098SOL    HW218250   9.470  10.617   0.447  0.9885 -1.0463  0.0101
 5099SOL     OW18251  10.461   1.802   0.716  0.4087 -0.8400 -0.2120
 5099SOL    HW118252  10.389   1.795   0.653  0.5042 -0.9434 -0.3090
 5099SOL    HW218253  10.510   1.721   0.706 -0.4028 -1.5131  1.0163
 5100SOL     OW18254   4.053   7.798   3.191 -0.6210 -0.0344 -0.0580
 5100SOL    HW118255   4.125   7.779   3.131  0.6222  0.6996  1.1406
 5100SOL    HW218256   4.032   7.890   3.174 -1.5215 -0.3215 -0.6095
 5101SOL     OW18257   5.094   4.454   6.756 -0.6380  0.1214 -0.1232
 5101SOL    HW118258   5.156   4.456   6.828 -0.4950 -1.3191 -0.1662
 5101SOL    HW218259   5.073   4.546   6.739  0.7402  0.5770  0.5166
 5102SOL     OW18260   4.308   5.337   4.737  0.2770  0.2581  0.5440
 5102SOL    HW118261   4.288   5.252   4.698 -0.0990  0.0959  1.0768
 5102SOL    HW218262   4.223   5.370   4.767  0.1145  1.6837 -1.3261
 5103SOL     OW18263   3.026   9.812   8.653  0.3227  0.7473  0.6846
 5103SOL    HW118264   3.049   9.847   8.740  0.8561  1.2907  0.3348
 5103SOL    HW218265   2.972   9.880   8.614 -0.0580  0.4272  0.6513
 5104SOL     OW18266   4.216   5.303   3.886  0.5702  0.9206 -0.5071
 5104SOL    HW118267   4.265   5.262   3.957 -1.7426 -0.3964  0.4116
 5104SOL    HW218268   4.168   5.374   3.928  2.6209  3.1335 -1.6528
 5105SOL     OW18269   5.326   3.772   2.484  0.1964  0.5247 -0.5517
 5105SOL    HW118270   5.259   3.764   2.552 -0.7112  1.1294 -1.3325
 5105SOL    HW218271   5.396   3.823   2.524  0.5171 -0.6884  0.4986
 5106SOL     OW18272   8.657   1.726   4.987  0.0508 -1.3002  0.5717
 5106SOL    HW118273   8.609   1.795   4.943 -0.4944 -1.6097  0.6631
 5106SOL    HW218274   8.749   1.745   4.971 -0.0082  0.3523  1.9254
 5107SOL     OW18275   1.135   5.238   9.143 -0.0512 -0.2444 -0.1804
 5107SOL    HW118276   1.182   5.257   9.224 -1.1362  0.6374  0.2613
 5107SOL    HW218277   1.133   5.321   9.095 -0.6235 -0.4173 -0.4723
 5108SOL     OW18278   1.922   3.063   0.912 -0.2529 -0.2416 -0.4896
 5108SOL    HW118279   1.921   3.016   0.829 -0.4688  2.4009 -2.0839
 5108SOL    HW218280   1.979   3.138   0.897  4.1522 -2.2286  3.4121
 5109SOL     OW18281   0.389   8.907   7.071  0.0578  0.1193  0.5360
 5109SOL    HW118282   0.399   8.889   7.165 -2.6798  1.5910  1.2149
 5109SOL    HW218283   0.435   8.990   7.058  0.7790 -0.2848  0.4701
 5110SOL     OW18284   6.138   0.068   7.688  0.0192  0.1867 -0.0297
 5110SOL    HW118285   6.109   0.156   7.665  0.3457  0.8283  1.8467
 5110SOL    HW218286   6.233   0.077   7.700  0.2861 -0.7658 -1.2051
 5111SOL     OW18287  10.651   8.068   0.768 -0.2835 -0.0934 -0.6108
 5111SOL    HW118288  10.613   8.107   0.847  1.9020  3.7756 -1.2039
 5111SOL    HW218289  10.591   8.091   0.698 -0.8602 -1.1660 -0.4894
 5112SOL     OW18290   9.298   0.965   3.767  0.5194 -0.1936  0.4480
 5112SOL    HW118291   9.319   0.875   3.742  1.1455  0.4976 -1.7984
 5112SOL    HW218292   9.203   0.969   3.762  0.5895 -0.0257 -2.5332
 5113SOL     OW18293   5.627   1.787   4.131 -0.2621 -0.2274  0.5170
 5113SOL    HW118294   5.659   1.872   4.158 -1.2508  0.5954 -0.7859
 5113SOL    HW218295   5.532   1.798   4.124 -0.2260 -0.7340 -1.8528
 5114SOL     OW18296   1.219   0.908   2.561  0.1435 -0.3385 -0.2442
 5114SOL    HW118297   1.290   0.860   2.521  2.6917  2.4269  0.5920
 5114SOL    HW218298   1.260   0.956   2.633 -2.7787  0.6725  0.9140
 5115SOL     OW18299   8.906  10.361   2.134 -0.0835 -0.1012 -0.3340
 5115SOL    HW118300   8.901  10.437   2.076 -0.6680  0.4753  0.4509
 5115SOL    HW218301   8.820  10.357   2.176 -0.1769 -1.4152 -0.6220
 5116SOL     OW18302   3.870   2.494   7.324  0.0461  0.3960  0.0876
 5116SOL    HW118303   3.936   2.563   7.331 -0.1133  0.6602 -0.8275
 5116SOL    HW218304   3.892   2.432   7.393 -0.5326  1.9632  1.7860
 5117SOL     OW18305   8.620   5.803   1.433 -0.6456 -0.4373 -0.0358
 5117SOL    HW118306   8.584   5.825   1.347 -1.5057 -1.3135  0.0875
 5117SOL    HW218307   8.543   5.787   1.488 -0.1187  0.3895  0.9834
 5118SOL     OW18308   4.256   7.388   7.080 -0.0831 -0.3660 -0.0355
 5118SOL    HW118309   4.251   7.416   7.172  0.4015 -0.5939  0.0633
 5118SOL    HW218310   4.316   7.313   7.081  0.1413 -0.1981 -0.5749
 5119SOL     OW18311   7.164   4.843   7.059 -0.0046 -0.1750  0.2996
 5119SOL    HW118312   7.190   4.911   7.122  1.3686 -0.8174  0.4477
 5119SOL    HW218313   7.246   4.802   7.033 -0.5086  0.2196 -2.1101
 5120SOL     OW18314   2.876   1.442   1.115 -0.0534  0.9826 -0.7738
 5120SOL    HW118315   2.961   1.398   1.122 -1.1225 -1.2118 -0.6510
 5120SOL    HW218316   2.812   1.371   1.120 -1.9226  2.5909 -0.5996
 5121SOL     OW18317   2.420   3.401   5.018  0.4478  0.6006 -0.6431
 5121SOL    HW118318   2.460   3.475   5.062  0.1959 -0.4018  1.3677
 5121SOL    HW218319   2.471   3.325   5.045  0.0471 -0.1193 -1.8054
 5122SOL     OW18320   2.345  10.385   9.009 -0.0642 -0.1280  0.4326
 5122SOL    HW118321   2.321  10.320   9.075  0.2725  0.3223  1.0117
 5122SOL    HW218322   2.262  10.424   8.982 -0.3386 -1.2371 -0.4046
 5123SOL     OW18323   5.973   1.916   7.075  0.3338  0.4496 -0.0844
 5123SOL    HW118324   5.963   1.822   7.065 -0.7005  0.5281  0.0430
 5123SOL    HW218325   5.910   1.953   7.012  0.6413  1.0496 -0.0485
 5124SOL     OW18326   4.192   8.774   0.945  0.0229 -0.1324 -0.4371
 5124SOL    HW118327   4.160   8.685   0.936 -4.2850  0.7782  2.8993
 5124SOL    HW218328   4.252   8.771   1.020  0.5336 -0.2983 -0.8434
 5125SOL     OW18329   0.611   8.396   1.254  0.2169 -0.2070  0.1186
 5125SOL    HW118330   0.563   8.383   1.336 -0.2808  0.1172 -0.1147
 5125SOL    HW218331   0.671   8.468   1.273  0.1268 -0.1547  0.2098
 5126SOL     OW18332   7.334   2.156   3.882  0.6241 -0.0625  0.6263
 5126SOL    HW118333   7.382   2.150   3.800  1.7267  1.4196  1.1310
 5126SOL    HW218334   7.351   2.072   3.926 -1.1753 -1.5085 -1.2108
 5127SOL     OW18335  10.658   3.046   9.605  0.1132  0.1574  0.1686
 5127SOL    HW118336  10.704   3.112   9.554  1.2252  0.1202  1.0864
 5127SOL    HW218337  10.565   3.068   9.596  0.1833 -0.3241 -2.5065
 5128SOL     OW18338   2.915   7.232   4.404 -0.4006  0.9047 -0.6721
 5128SOL    HW118339   3.000   7.274   4.405 -0.1014  0.4513 -2.6758
 5128SOL    HW218340   2.928   7.152   4.354 -1.7506  0.2246 -0.0008
 5129SOL     OW18341   1.126   0.196   7.323  0.0920 -0.0537 -0.7190
 5129SOL    HW118342   1.157   0.117   7.369  1.8044  1.2883  0.5466
 5129SOL    HW218343   1.034   0.203   7.347 -0.1473 -1.7268 -0.9897
 5130SOL     OW18344   1.519   0.874   9.302 -0.2398  0.0986 -0.2765
 5130SOL    HW118345   1.535   0.784   9.329 -1.1417 -0.6372 -2.0899
 5130SOL    HW218346   1.475   0.914   9.378  1.3003 -0.5764  1.0313
 5131SOL     OW18347   8.191   4.423   8.547  0.5421  0.3464 -0.4249
 5131SOL    HW118348   8.182   4.328   8.555 -2.6024  0.5617 -0.3194
 5131SOL    HW218349   8.209   4.453   8.636 -0.8776  0.0082 -0.0005
 5132SOL     OW18350   8.810   3.871   1.499  0.5672 -0.1679 -0.1101
 5132SOL    HW118351   8.857   3.788   1.495  3.2795  1.2756 -0.0602
 5132SOL    HW218352   8.840   3.920   1.423 -1.9198  0.4090 -0.8391
 5133SOL     OW18353  10.629   9.148   0.192 -0.5228 -0.0928 -0.2380
 5133SOL    HW118354  10.697   9.160   0.125 -0.0342  1.1846  0.4511
 5133SOL    HW218355  10.568   9.220   0.177  0.7946  1.6229  2.0573
 5134SOL     OW18356   5.389   5.150   2.140 -0.4178  0.2044 -0.3707
 5134SOL    HW118357   5.450   5.109   2.078 -0.0374 -0.1960  0.2626
 5134SOL    HW218358   5.365   5.232   2.098  0.1513  0.1246 -0.8739
 5135SOL     OW18359   9.430   3.813   3.665  0.3026 -0.4888  0.6736
 5135SOL    HW118360   9.509   3.866   3.661  0.9138 -1.4515 -0.8436
 5135SOL    HW218361   9.388   3.826   3.580 -0.3275 -1.2443  0.8556
 5136SOL     OW18362   5.897   6.117   0.182 -0.3404  0.3222  0.2752
 5136SOL    HW118363   5.970   6.096   0.124 -0.4342  2.9511 -0.9436
 5136SOL    HW218364   5.926   6.194   0.231 -1.2942 -0.2522  1.8160
 5137SOL     OW18365   6.269   3.077   8.989 -0.0457  0.0445 -0.3901
 5137SOL    HW118366   6.175   3.093   8.995 -0.0413 -0.0275 -0.1040
 5137SOL    HW218367   6.293   3.103   8.900 -0.0926  1.3308 -0.0413
 5138SOL     OW18368   3.537   5.916   8.982  0.0256 -0.1135  0.1073
 5138SOL    HW118369   3.469   5.936   8.919 -0.8751  1.6747  1.5499
 5138SOL    HW218370   3.606   5.980   8.964 -0.1377  0.2562  0.7711
 5139SOL     OW18371   4.277   3.629   7.879 -0.3778  0.5656  0.5123
 5139SOL    HW118372   4.217   3.647   7.951 -0.2792  2.2895  0.2140
 5139SOL    HW218373   4.231   3.659   7.801  0.9538  2.2683  0.3164
 5140SOL     OW18374   6.226   9.499   9.932  0.6811  0.0483  0.4448
 5140SOL    HW118375   6.179   9.520  10.012 -3.3651 -2.4603 -0.9610
 5140SOL    HW218376   6.232   9.582   9.885 -0.5406  0.8550  1.6538
 5141SOL     OW18377   7.678   6.693   9.297 -0.0515 -0.0402  0.2247
 5141SOL    HW118378   7.768   6.687   9.265  0.6788  0.7807  2.0040
 5141SOL    HW218379   7.658   6.604   9.327  0.1989 -0.2100 -0.1081
 5142SOL     OW18380   5.880  10.497   0.228 -0.4570  0.6664 -0.0487
 5142SOL    HW118381   5.841  10.548   0.157 -2.1243  0.6930  0.8330
 5142SOL    HW218382   5.973  10.521   0.227  0.1723 -1.3078 -3.8529
 5143SOL     OW18383   5.965   9.280   4.793  0.3845  0.1229  0.8939
 5143SOL    HW118384   6.022   9.278   4.717 -1.4536  0.9002 -0.5950
 5143SOL    HW218385   6.003   9.217   4.854  0.0456 -3.2343 -2.0638
 5144SOL     OW18386   7.782   3.312   5.956  0.0182 -0.2559 -0.6845
 5144SOL    HW118387   7.867   3.328   5.914  0.5060  0.8238  0.6375
 5144SOL    HW218388   7.753   3.399   5.984 -0.6637 -0.8440  0.4920
 5145SOL     OW18389   1.287   6.051   2.600  0.0581  0.6427  0.4308
 5145SOL    HW118390   1.367   6.003   2.619 -0.0619  1.2600  2.8138
 5145SOL    HW218391   1.317   6.137   2.568  0.3405  0.6824  0.8032
 5146SOL     OW18392   7.798   4.774   7.231  0.1759 -0.2935  0.4062
 5146SOL    HW118393   7.848   4.842   7.186 -0.1385  0.0883  0.6187
 5146SOL    HW218394   7.716   4.769   7.182  0.1596 -0.4530  0.4504
 5147SOL     OW18395   8.498   2.861   5.323  0.2063 -0.1612  0.2555
 5147SOL    HW118396   8.424   2.851   5.382 -0.4098 -0.6619 -0.5762
 5147SOL    HW218397   8.551   2.931   5.362 -0.9647  0.5661  0.5884
 5148SOL     OW18398   0.170   3.097   6.376 -0.1714  0.1931 -0.0992
 5148SOL    HW118399   0.182   3.186   6.410 -0.6774  0.2346 -0.0195
 5148SOL    HW218400   0.127   3.109   6.292 -0.6712  0.0068  0.1244
 5149SOL     OW18401   3.147   2.363   2.536 -0.4351  0.4826  0.9002
 5149SOL    HW118402   3.147   2.356   2.441 -0.0278  0.9727  0.8607
 5149SOL    HW218403   3.131   2.274   2.567 -0.2876  0.2737  0.3774
 5150SOL     OW18404   7.907   3.551   2.533  0.3383  0.4834 -0.8477
 5150SOL    HW118405   7.938   3.496   2.604  1.8198  1.4214 -0.7172
 5150SOL    HW218406   7.882   3.490   2.464  1.5764 -0.3641 -0.5730
 5151SOL     OW18407   1.009  10.076   4.420  0.8321  0.1583  0.0720
 5151SOL    HW118408   0.993  10.051   4.329 -0.8280 -1.0782  0.6450
 5151SOL    HW218409   1.011   9.993   4.467 -1.9095  0.8601  1.6365
 5152SOL     OW18410   5.714   4.503   5.922 -0.6360  0.0744  0.0656
 5152SOL    HW118411   5.697   4.521   5.829 -0.8849  0.6459  0.2182
 5152SOL    HW218412   5.627   4.506   5.963 -0.3490  1.6015  0.6159
 5153SOL     OW18413   2.172   6.712   3.041 -0.6851 -0.3555  0.0514
 5153SOL    HW118414   2.187   6.767   2.964  0.1059 -0.2793  0.2515
 5153SOL    HW218415   2.258   6.706   3.083 -0.7824 -1.6369  0.0992
 5154SOL     OW18416   0.301   9.296   7.647  0.1567 -0.1441  0.1203
 5154SOL    HW118417   0.378   9.290   7.590  0.7137 -1.3692  0.9641
 5154SOL    HW218418   0.244   9.226   7.617  0.4207 -0.7454  0.9962
 5155SOL     OW18419   9.827   5.790   4.701  0.2375 -0.0913  0.1450
 5155SOL    HW118420   9.799   5.756   4.786  0.7556 -2.3161 -0.5084
 5155SOL    HW218421   9.760   5.854   4.677 -1.8713 -1.9981  0.6567
 5156SOL     OW18422   6.920   8.690   1.808  0.1212 -0.1721 -0.0086
 5156SOL    HW118423   6.855   8.622   1.823  0.7906 -1.0397 -0.9044
 5156SOL    HW218424   6.997   8.643   1.773  0.8042  0.9625 -0.0876
 5157SOL     OW18425   0.235   4.551   5.011  0.3117  0.0444 -0.0931
 5157SOL    HW118426   0.257   4.561   4.919 -1.2381  0.0455 -0.4836
 5157SOL    HW218427   0.229   4.457   5.024  0.0728  0.0559 -0.1133
 5158SOL     OW18428   6.894   1.331   7.592  0.3470  0.4605 -0.6220
 5158SOL    HW118429   6.902   1.283   7.509  1.2881  3.4709 -2.4687
 5158SOL    HW218430   6.983   1.333   7.627  0.0526 -0.3103  0.1970
 5159SOL     OW18431   6.512   5.264   9.525  0.2892  0.4488 -0.0528
 5159SOL    HW118432   6.514   5.352   9.562  0.6894  0.4935 -0.1789
 5159SOL    HW218433   6.534   5.207   9.598  0.6942  0.5077 -0.1241
 5160SOL     OW18434   4.346   8.990   8.045 -0.5591 -0.1371  0.1057
 5160SOL    HW118435   4.303   8.957   7.966  0.0798 -0.9291  0.0708
 5160SOL    HW218436   4.313   9.079   8.056 -0.8796 -0.1293 -0.8854
 5161SOL     OW18437   8.251   6.003   8.337  0.2540  0.0807 -0.1466
 5161SOL    HW118438   8.338   6.043   8.334  0.3743 -0.2325 -0.9294
 5161SOL    HW218439   8.207   6.035   8.258 -0.6005  0.7993  0.5902
 5162SOL     OW18440   6.563   3.762   0.558  0.2592  0.6198 -0.3657
 5162SOL    HW118441   6.583   3.823   0.629 -1.3047  2.2860 -1.2942
 5162SOL    HW218442   6.648   3.743   0.518  1.0619  0.3205  1.3711
 5163SOL     OW18443   2.408   5.200   8.829  0.2609 -0.0946  0.0160
 5163SOL    HW118444   2.455   5.250   8.896  0.6968 -0.6745  0.1548
 5163SOL    HW218445   2.429   5.245   8.747 -2.2538  2.1183  0.4609
 5164SOL     OW18446   0.032   5.640   3.092  0.3230 -0.2655  0.1963
 5164SOL    HW118447   0.016   5.552   3.126  1.3948 -0.9679 -1.0194
 5164SOL    HW218448   0.095   5.678   3.153 -1.2429  0.2779  1.5785
 5165SOL     OW18449   7.456   5.037   4.987  0.2835 -0.1738  0.3849
 5165SOL    HW118450   7.396   5.112   4.987  0.3341 -0.1214  1.1614
 5165SOL    HW218451   7.400   4.962   4.967  0.0584 -0.0519  0.5459
 5166SOL     OW18452   7.797   2.810   5.230  0.0316 -0.2810 -0.4830
 5166SOL    HW118453   7.773   2.860   5.152 -0.1199 -1.3745 -1.1490
 5166SOL    HW218454   7.719   2.760   5.252 -1.3869  2.9047  2.7937
 5167SOL     OW18455  10.399   1.256   4.146 -0.1728  0.3353  0.0160
 5167SOL    HW118456  10.308   1.230   4.130  0.2686 -2.0358  0.8649
 5167SOL    HW218457  10.432   1.282   4.061 -0.6705 -2.3400 -1.0987
 5168SOL     OW18458   9.802   2.827   5.600  0.3265 -0.1499 -0.6649
 5168SOL    HW118459   9.722   2.792   5.560  0.4508 -0.2838 -0.7982
 5168SOL    HW218460   9.869   2.761   5.582  0.2681 -0.4631  0.2333
 5169SOL     OW18461  10.231   7.272   8.217  0.3797  0.5634  0.1463
 5169SOL    HW118462  10.242   7.247   8.125  1.4030  0.3622  0.3118
 5169SOL    HW218463  10.183   7.355   8.213 -0.1426  0.2427 -0.5400
 5170SOL     OW18464   6.191   6.809   1.556 -0.2165  0.4245  0.5313
 5170SOL    HW118465   6.164   6.888   1.510 -1.2944 -0.4642 -0.4539
 5170SOL    HW218466   6.182   6.739   1.491  0.9029 -0.4960  1.3032
 5171SOL     OW18467   0.781   0.077   0.271 -0.2390 -0.3574  0.2977
 5171SOL    HW118468   0.783  -0.005   0.222 -0.3193 -1.0335  1.3898
 5171SOL    HW218469   0.872   0.091   0.300  0.1019  0.7854 -1.2000
 5172SOL     OW18470   5.861   7.991   7.149 -0.1617  0.3117 -0.8245
 5172SOL    HW118471   5.942   7.942   7.160  0.4431  1.0948 -1.5976
 5172SOL    HW218472   5.796   7.926   7.123  0.4712 -0.1701 -1.2231
 5173SOL     OW18473   1.692   7.199   4.994 -0.4449  0.3150 -0.1900
 5173SOL    HW118474   1.727   7.161   5.075 -2.6322 -0.1105  0.6305
 5173SOL    HW218475   1.765   7.249   4.957  0.9494 -0.4149  1.4393
 5174SOL     OW18476  10.351  10.439   2.148 -0.0154 -0.0386  0.9857
 5174SOL    HW118477  10.326  10.392   2.228  0.1456 -0.7548  0.6228
 5174SOL    HW218478  10.408  10.378   2.102 -1.5717 -0.3762 -0.5760
 5175SOL     OW18479   8.698   9.503   1.568  0.2563  0.2224  0.7768
 5175SOL    HW118480   8.626   9.513   1.506  0.0824  0.0871  0.9525
 5175SOL    HW218481   8.710   9.408   1.575  1.5206  0.2626 -0.4692
 5176SOL     OW18482   6.634   6.247  10.488  0.6729 -0.1660  0.0946
 5176SOL    HW118483   6.627   6.202  10.403  1.6994 -1.1965  0.5179
 5176SOL    HW218484   6.728   6.247  10.506  0.5687  1.1064  0.6882
 5177SOL     OW18485   0.403   2.074   4.522 -0.1863 -0.3911 -0.0610
 5177SOL    HW118486   0.486   2.116   4.498  0.0656 -1.4309 -1.1513
 5177SOL    HW218487   0.378   2.026   4.443 -1.5856 -0.4824  0.4224
 5178SOL     OW18488   7.718  10.605   2.671 -0.0207  0.0543  0.1140
 5178SOL    HW118489   7.759  10.665   2.734 -0.6541  1.2448 -0.5660
 5178SOL    HW218490   7.647  10.656   2.632  0.7462 -0.3702 -2.0393
 5179SOL     OW18491   0.958   6.435   5.611 -0.2343 -0.2700  0.2902
 5179SOL    HW118492   0.900   6.430   5.535 -1.9877 -0.9346  1.6113
 5179SOL    HW218493   1.021   6.363   5.598 -0.1735 -0.0375 -0.7693
 5180SOL     OW18494   9.058   4.256   1.267  0.4678  0.0792  0.0358
 5180SOL    HW118495   9.033   4.264   1.175  0.4732 -0.0095  0.0265
 5180SOL    HW218496   9.038   4.341   1.305 -0.7981 -0.3034  0.2632
 5181SOL     OW18497   1.625   7.397   4.536  0.7827  0.0186  0.3594
 5181SOL    HW118498   1.702   7.414   4.482  0.4503 -0.8953 -0.4237
 5181SOL    HW218499   1.557   7.372   4.474 -0.6570  2.3639  0.8575
 5182SOL     OW18500   8.868   3.283   0.706 -0.2777 -0.2502 -0.2580
 5182SOL    HW118501   8.838   3.296   0.616  0.4219 -1.9842 -0.7802
 5182SOL    HW218502   8.958   3.316   0.707 -0.6260  0.7304  0.1070
 5183SOL     OW18503   2.894   4.189   1.158  0.0328 -0.3679 -0.2910
 5183SOL    HW118504   2.902   4.278   1.124  2.2446 -0.4553 -0.1544
 5183SOL    HW218505   2.925   4.133   1.087 -0.9807 -1.0198 -0.2345
 5184SOL     OW18506   1.264   8.849   3.028 -0.2927 -0.3617 -0.2251
 5184SOL    HW118507   1.346   8.898   3.023  1.7947 -3.2447  2.0799
 5184SOL    HW218508   1.219   8.884   3.105  0.4158 -0.9203  0.4603
 5185SOL     OW18509   2.365   1.052   7.916 -0.0679 -0.7635 -0.2786
 5185SOL    HW118510   2.451   1.035   7.955 -0.5862 -1.5331  0.5637
 5185SOL    HW218511   2.366   1.146   7.899  0.6743 -0.6299  0.4008
 5186SOL     OW18512   8.486   6.047   9.983 -0.0910  0.3043 -0.2389
 5186SOL    HW118513   8.567   6.093  10.005  0.7233 -0.2512 -1.8954
 5186SOL    HW218514   8.461   6.084   9.898 -0.6678 -0.7041 -0.5176
 5187SOL     OW18515   7.925   9.106   0.775 -0.4798 -0.0470  0.4495
 5187SOL    HW118516   7.904   9.014   0.759  0.3562 -0.1936  0.1309
 5187SOL    HW218517   7.869   9.155   0.716  0.8087 -0.4732 -1.1949
 5188SOL     OW18518   7.363   3.808   3.001  0.2053 -0.0958  0.8407
 5188SOL    HW118519   7.385   3.900   3.012 -0.8803  0.3727 -0.7401
 5188SOL    HW218520   7.401   3.766   3.079  2.9134  1.2571  0.3968
 5189SOL     OW18521   6.641   4.587   2.978  0.3026 -0.0365  0.3488
 5189SOL    HW118522   6.587   4.660   3.008  0.7020  0.1861  0.5388
 5189SOL    HW218523   6.588   4.543   2.911 -0.6993 -0.6833  1.5357
 5190SOL     OW18524   1.662   1.133   1.914 -0.3759  1.1012  0.4545
 5190SOL    HW118525   1.733   1.081   1.953  0.5753  2.0539  0.0250
 5190SOL    HW218526   1.582   1.090   1.945  0.3436 -1.5140 -1.0546
 5191SOL     OW18527   9.118   6.919   4.241 -0.4191  0.0604  0.2632
 5191SOL    HW118528   9.192   6.973   4.213  0.5668 -1.0325  0.6700
 5191SOL    HW218529   9.147   6.829   4.228 -0.7021 -0.4717  2.7023
 5192SOL     OW18530   7.309   3.139   7.654  0.5678  0.0118 -0.0802
 5192SOL    HW118531   7.231   3.138   7.598 -0.3026 -1.7077  1.0604
 5192SOL    HW218532   7.362   3.211   7.620 -0.2494 -0.4684 -2.6183
 5193SOL     OW18533   9.314   6.341   6.474 -0.7833 -0.1460  0.0631
 5193SOL    HW118534   9.290   6.262   6.425 -1.8668 -0.4506  1.0546
 5193SOL    HW218535   9.343   6.403   6.407 -1.3820 -0.8598 -0.8756
 5194SOL     OW18536   9.763   3.102   1.328 -0.2053 -0.5467 -0.1335
 5194SOL    HW118537   9.825   3.069   1.263 -0.6356  0.1196 -0.9066
 5194SOL    HW218538   9.688   3.044   1.322 -0.3920 -0.2737 -0.5028
 5195SOL     OW18539   4.316   3.316   1.194  0.3264  0.1111  0.3445
 5195SOL    HW118540   4.301   3.394   1.142 -0.8157  0.4824  1.1887
 5195SOL    HW218541   4.307   3.346   1.285  0.0412 -0.9575  0.6821
 5196SOL     OW18542   7.994   4.983   3.187  0.4254 -0.1261  0.3685
 5196SOL    HW118543   7.903   5.012   3.183  0.7044  0.9668  1.2203
 5196SOL    HW218544   8.042   5.059   3.220  1.8514 -0.2818 -1.2157
 5197SOL     OW18545   0.825   6.543   3.844 -0.1920 -0.0362 -0.2423
 5197SOL    HW118546   0.849   6.479   3.910  0.8009  0.7829  0.2124
 5197SOL    HW218547   0.764   6.602   3.889 -0.7843 -0.4092 -0.5416
 5198SOL     OW18548   7.142   1.078   4.248 -0.1477  0.1810  0.1712
 5198SOL    HW118549   7.203   1.152   4.249 -0.6968  0.6466 -0.0626
 5198SOL    HW218550   7.102   1.078   4.334  2.4232 -2.0717  1.5295
 5199SOL     OW18551   9.468   4.608   2.739  0.3754  0.0868  0.6758
 5199SOL    HW118552   9.379   4.639   2.755  0.4992  0.5302  0.5239
 5199SOL    HW218553   9.459   4.514   2.724 -0.0181  0.0606  1.0643
 5200SOL     OW18554   4.053   9.555   8.893  0.6093  0.0465  0.1604
 5200SOL    HW118555   4.137   9.510   8.887  0.6901 -0.2976  2.7119
 5200SOL    HW218556   3.987   9.486   8.882  0.7078 -0.1799  0.9370
 5201SOL     OW18557   2.223   0.690   0.868  0.3392 -0.3197  0.0133
 5201SOL    HW118558   2.131   0.666   0.878  0.0620 -0.0922 -1.6175
 5201SOL    HW218559   2.223   0.786   0.878  0.5856 -0.4279  1.1205
 5202SOL     OW18560   5.305   1.926   6.949  0.7607 -0.1198  0.7147
 5202SOL    HW118561   5.260   1.960   6.872  1.4576  1.0100  0.7752
 5202SOL    HW218562   5.251   1.954   7.023  1.5272  1.2743  0.7903
 5203SOL     OW18563   6.926   8.580   8.654 -0.0566 -0.0503 -0.1303
 5203SOL    HW118564   6.957   8.496   8.687  4.0502  1.1668 -0.3461
 5203SOL    HW218565   6.919   8.636   8.732  0.3644  0.2375 -0.2910
 5204SOL     OW18566   6.918   8.636   7.808  0.8536  0.2144  0.5054
 5204SOL    HW118567   6.874   8.714   7.841 -1.7384 -1.1383  0.5804
 5204SOL    HW218568   6.916   8.647   7.712  0.1036  0.1007  0.4953
 5205SOL     OW18569   9.043   9.794   9.392 -0.1915  0.3756  0.4541
 5205SOL    HW118570   9.113   9.752   9.441  1.8102 -0.4141 -2.7243
 5205SOL    HW218571   9.019   9.870   9.444 -1.3754 -2.5008  4.6449
 5206SOL     OW18572  10.010   5.031   4.402  0.0384 -0.2098  0.6616
 5206SOL    HW118573  10.008   5.056   4.309  1.1691  1.2487  0.9819
 5206SOL    HW218574   9.943   4.963   4.410 -0.8558  0.4064 -1.0024
 5207SOL     OW18575   9.969   8.408   6.314  0.2230 -0.2350  0.2162
 5207SOL    HW118576  10.019   8.446   6.387 -0.8754  0.9391  0.4071
 5207SOL    HW218577   9.969   8.477   6.247 -0.0159 -0.7325 -0.3013
 5208SOL     OW18578   0.909   9.424   6.266 -0.1995 -0.7079 -0.0940
 5208SOL    HW118579   0.981   9.443   6.207  0.3711 -0.5663  0.6291
 5208SOL    HW218580   0.891   9.330   6.254 -0.5106 -0.5510 -0.9307
 5209SOL     OW18581   7.354   4.359   2.980  0.4867 -0.1401  0.3240
 5209SOL    HW118582   7.319   4.428   3.037 -0.6192  0.3751 -0.9405
 5209SOL    HW218583   7.409   4.406   2.917 -1.0678 -0.2355 -1.1740
 5210SOL     OW18584   9.076  10.219   6.018  0.2491  0.1617  0.4297
 5210SOL    HW118585   9.095  10.222   5.924  1.0347 -0.1112  0.5753
 5210SOL    HW218586   9.141  10.160   6.054 -0.9512 -0.9020  0.9423
 5211SOL     OW18587   5.691   4.585   5.656 -0.9100  0.6773  0.6839
 5211SOL    HW118588   5.684   4.575   5.561 -2.3939 -1.0980  0.9206
 5211SOL    HW218589   5.606   4.618   5.683 -1.4525 -1.2830  1.6006
 5212SOL     OW18590   9.273   9.711   5.380  0.3182  0.1634 -0.4436
 5212SOL    HW118591   9.272   9.617   5.363 -0.6420  0.0642  0.0436
 5212SOL    HW218592   9.185   9.740   5.356  0.7440  1.0229 -1.0052
 5213SOL     OW18593   0.343   5.136   8.066  0.1661 -0.0014  0.3341
 5213SOL    HW118594   0.309   5.052   8.034  4.1119 -2.1444  1.1278
 5213SOL    HW218595   0.384   5.176   7.989  0.8512 -0.2900  0.5359
 5214SOL     OW18596   4.111   9.196   0.664  0.2483 -0.3927  0.2363
 5214SOL    HW118597   4.057   9.124   0.630  0.0772 -0.1862  0.0707
 5214SOL    HW218598   4.131   9.249   0.587  0.4719 -0.3245  0.3405
 5215SOL     OW18599   6.195   3.817   5.911  0.2215  0.3163  0.2058
 5215SOL    HW118600   6.208   3.830   5.817  0.9252  0.9031  0.3729
 5215SOL    HW218601   6.244   3.737   5.931  0.7341  0.6327  0.2162
 5216SOL     OW18602   5.232   7.987   2.041  0.4076  0.4071 -0.0565
 5216SOL    HW118603   5.204   8.042   1.967 -0.2603 -0.3451 -0.3745
 5216SOL    HW218604   5.157   7.988   2.100  1.8488  3.2406  2.0119
 5217SOL     OW18605   5.169   6.302   6.348  0.0728 -0.7075 -0.0529
 5217SOL    HW118606   5.131   6.381   6.384  1.3373  0.2608 -0.7544
 5217SOL    HW218607   5.261   6.304   6.376  0.6856 -0.7480 -1.9240
 5218SOL     OW18608   3.305   1.381   0.343  0.6266  0.2120 -0.3837
 5218SOL    HW118609   3.272   1.428   0.266 -0.2442 -0.2978 -0.3366
 5218SOL    HW218610   3.226   1.359   0.393  1.2494  2.3060  1.7317
 5219SOL     OW18611   2.342   2.173   9.810 -0.3908  0.1987  0.3521
 5219SOL    HW118612   2.399   2.106   9.850 -1.0963 -0.5320  0.1495
 5219SOL    HW218613   2.312   2.225   9.884 -0.3124 -0.0778  0.5816
 5220SOL     OW18614   3.024   2.362   1.951  0.2905  0.3083  0.0374
 5220SOL    HW118615   2.981   2.336   1.870  0.1349  0.3269  0.1119
 5220SOL    HW218616   3.107   2.401   1.924  2.5452 -3.8946  0.0174
 5221SOL     OW18617   2.011   0.218   4.650 -0.2531 -0.1779 -0.5963
 5221SOL    HW118618   1.997   0.205   4.556 -1.9010 -1.9900 -0.1523
 5221SOL    HW218619   2.040   0.133   4.681  3.9734  1.2287  0.0484
 5222SOL     OW18620   2.592   9.899   8.916 -0.3415 -0.3706 -0.1685
 5222SOL    HW118621   2.681   9.925   8.892 -0.8083  0.0891 -1.5414
 5222SOL    HW218622   2.592   9.897   9.011  1.3413 -1.1309 -0.1466
 5223SOL     OW18623   9.750   8.861  10.316  0.4086  0.1585 -0.1491
 5223SOL    HW118624   9.809   8.856  10.390  0.0572  0.3633  0.1468
 5223SOL    HW218625   9.719   8.951  10.315 -0.5132 -0.1418  0.1867
 5224SOL     OW18626   0.218   3.823   0.068  0.3465 -0.0491 -0.6416
 5224SOL    HW118627   0.239   3.822  -0.025  0.2625  0.5203 -0.6721
 5224SOL    HW218628   0.304   3.821   0.112  0.3779 -0.7013 -0.7185
 5225SOL     OW18629  10.552   2.951  10.003  0.4768 -0.0539 -0.1812
 5225SOL    HW118630  10.591   3.009  10.068 -0.3551 -0.1208  0.3950
 5225SOL    HW218631  10.627   2.912   9.958  1.0749  0.0670  0.6714
 5226SOL     OW18632   9.611   7.936   4.166 -0.2692 -0.2486 -0.0735
 5226SOL    HW118633   9.579   8.020   4.135 -0.3484 -0.3124 -0.1659
 5226SOL    HW218634   9.545   7.873   4.137  0.0753 -0.4143 -0.5069
 5227SOL     OW18635   6.299   9.425  10.606  0.1692 -0.5551  0.3661
 5227SOL    HW118636   6.325   9.515  10.586 -0.7256 -0.4082 -0.2101
 5227SOL    HW218637   6.301   9.419  10.701  1.8344 -0.4272  0.3690
 5228SOL     OW18638   0.169   1.925   1.632  0.3318  0.4160 -0.1413
 5228SOL    HW118639   0.162   1.856   1.566  1.2864 -0.4796  0.6423
 5228SOL    HW218640   0.091   1.978   1.620 -0.4059 -0.7685 -0.8211
 5229SOL     OW18641   7.496   8.457   8.466 -0.2067 -0.3584 -0.3505
 5229SOL    HW118642   7.427   8.494   8.521  0.6098 -0.7546  1.0171
 5229SOL    HW218643   7.495   8.363   8.487  1.0263 -0.3029  0.0559
 5230SOL     OW18644   1.255   1.759  10.420 -0.2829  0.3457  0.3439
 5230SOL    HW118645   1.305   1.734  10.498  3.5393 -0.9125 -2.2169
 5230SOL    HW218646   1.197   1.685  10.404  0.2594 -0.2280  0.9423
 5231SOL     OW18647   9.261   2.549   1.921 -0.0998 -0.1070  0.3713
 5231SOL    HW118648   9.272   2.500   2.002  1.9698 -0.6757 -0.1915
 5231SOL    HW218649   9.166   2.560   1.912 -0.3710  1.2691  3.5972
 5232SOL     OW18650   2.917   5.790   1.799  0.1898 -0.1576  0.0676
 5232SOL    HW118651   2.849   5.815   1.737 -1.7309 -1.3520  1.5652
 5232SOL    HW218652   2.901   5.845   1.876  2.4623  1.2373 -0.3488
 5233SOL     OW18653   7.792   7.222   9.019  0.6161 -0.5052 -0.0201
 5233SOL    HW118654   7.778   7.127   9.016 -1.6179 -0.2073 -0.6182
 5233SOL    HW218655   7.828   7.244   8.933  1.0654 -0.7820  0.0921
 5234SOL     OW18656   5.018   7.495   2.303  0.0909  0.7316  0.1659
 5234SOL    HW118657   5.029   7.432   2.374  0.0301 -0.4195 -0.8325
 5234SOL    HW218658   5.092   7.480   2.244 -0.7998  0.4671 -0.9195
 5235SOL     OW18659   9.518   7.394   2.087  0.0765 -0.3358 -0.2167
 5235SOL    HW118660   9.469   7.403   2.006 -0.3387 -0.1156  0.0558
 5235SOL    HW218661   9.610   7.410   2.063 -0.2082  1.2043 -0.3719
 5236SOL     OW18662   7.091   5.756   9.723 -0.3287 -0.1624  0.3523
 5236SOL    HW118663   7.170   5.766   9.777 -0.1464 -0.4142  0.1330
 5236SOL    HW218664   7.120   5.705   9.648 -0.7000 -0.2461  0.2664
 5237SOL     OW18665   9.095   0.227   6.505  0.1202  0.7203  0.0320
 5237SOL    HW118666   9.012   0.241   6.550 -3.2996 -4.1517 -3.6457
 5237SOL    HW218667   9.088   0.281   6.425  0.8501  0.7940  0.0114
 5238SOL     OW18668   5.458  10.355   9.332  0.2681  0.1007 -0.1461
 5238SOL    HW118669   5.472  10.261   9.319 -2.0638 -0.3131 -0.0661
 5238SOL    HW218670   5.470  10.368   9.426  0.8150 -0.0832 -0.1901
 5239SOL     OW18671   0.854   8.214   9.746  0.1228  0.2857 -0.3282
 5239SOL    HW118672   0.895   8.196   9.831 -1.2630  0.7620  0.4822
 5239SOL    HW218673   0.851   8.310   9.741  1.0952  0.2800 -1.3924
 5240SOL     OW18674   9.178  10.281   5.772  0.5125 -0.4859  0.2018
 5240SOL    HW118675   9.257  10.227   5.764  1.4390  0.6228  1.4678
 5240SOL    HW218676   9.196  10.358   5.717 -0.5502 -1.1317 -1.1133
 5241SOL     OW18677   7.796   4.176   2.320 -0.0695  0.7344  0.2560
 5241SOL    HW118678   7.710   4.170   2.279  0.2679  1.5098 -0.5897
 5241SOL    HW218679   7.855   4.134   2.257  0.3681  1.4230  0.1978
 5242SOL     OW18680   2.888   7.756   5.517 -0.0574  0.1543 -0.2861
 5242SOL    HW118681   2.959   7.707   5.476 -0.4969  0.4978 -1.5305
 5242SOL    HW218682   2.846   7.693   5.576 -0.1610 -0.7699 -1.3097
 5243SOL     OW18683   4.430   2.952   1.364  0.1957 -0.2012 -0.3056
 5243SOL    HW118684   4.337   2.959   1.382 -0.2831 -1.5559 -1.8952
 5243SOL    HW218685   4.473   2.981   1.444 -1.6157 -1.5976  1.2626
 5244SOL     OW18686   7.986   9.491   5.495  0.4829 -0.4549  0.1466
 5244SOL    HW118687   7.917   9.530   5.549  1.4931  0.0527  1.0949
 5244SOL    HW218688   7.948   9.490   5.407 -1.3502 -1.6566  0.8802
 5245SOL     OW18689   2.207   9.323   4.433 -0.0620  0.2037 -0.1627
 5245SOL    HW118690   2.214   9.262   4.507  0.9487 -0.0741 -0.4731
 5245SOL    HW218691   2.293   9.362   4.425 -1.0834  2.9284  1.0225
 5246SOL     OW18692  10.267   9.572   2.953  0.0155  0.4641 -0.4006
 5246SOL    HW118693  10.291   9.483   2.977  0.3981  0.5150 -0.5841
 5246SOL    HW218694  10.345   9.624   2.973  0.3933  0.4926 -1.8343
 5247SOL     OW18695   8.924   1.791   4.918 -0.1052  0.3903  0.0744
 5247SOL    HW118696   8.883   1.806   4.833 -2.5166  0.8354  1.2334
 5247SOL    HW218697   8.934   1.878   4.956  2.6922  0.3633 -0.4381
 5248SOL     OW18698   7.452   7.990   2.258  0.1090 -0.0790 -0.2266
 5248SOL    HW118699   7.526   7.930   2.260 -0.2645 -0.5523  2.0620
 5248SOL    HW218700   7.377   7.938   2.289 -0.6720  0.9934 -0.2293
 5249SOL     OW18701   7.685   4.405   7.067 -0.1815  0.1806  0.2497
 5249SOL    HW118702   7.764   4.459   7.060  0.7044 -0.9725  1.0707
 5249SOL    HW218703   7.621   4.462   7.109  0.4521  0.8844  0.2842
 5250SOL     OW18704   6.348   5.797   8.058  0.1169  0.3367  0.1016
 5250SOL    HW118705   6.253   5.797   8.057  0.1187  0.2348 -0.0871
 5250SOL    HW218706   6.372   5.854   8.131 -0.0753  1.2199 -0.5162
 5251SOL     OW18707   0.987   5.537   5.026  0.2457 -0.1351  0.1113
 5251SOL    HW118708   1.050   5.590   4.976  0.6123 -1.2332 -0.6079
 5251SOL    HW218709   1.037   5.460   5.053 -0.9267 -1.3403 -1.0054
 5252SOL     OW18710   5.564   0.043   7.691 -0.1034  0.3397  0.3378
 5252SOL    HW118711   5.642   0.049   7.635 -1.5070  0.0819 -1.7850
 5252SOL    HW218712   5.550   0.133   7.721  1.0464  0.3735  0.8261
 5253SOL     OW18713   9.232   0.740   7.365 -0.1170 -0.4517 -0.6140
 5253SOL    HW118714   9.284   0.665   7.393 -0.7219 -0.7062 -0.1493
 5253SOL    HW218715   9.292   0.792   7.311  0.9493 -0.1879  0.7512
 5254SOL     OW18716   8.944   8.281   4.006  0.3539  0.0270 -0.2021
 5254SOL    HW118717   8.977   8.213   3.948  0.3555 -1.6144  1.6199
 5254SOL    HW218718   8.967   8.251   4.094 -0.5676  1.8917  0.7406
 5255SOL     OW18719  10.449   4.142   7.043  0.0625 -0.3773  0.3086
 5255SOL    HW118720  10.394   4.098   7.107 -0.0298  0.0277  0.5125
 5255SOL    HW218721  10.463   4.077   6.973 -0.2640 -0.6422  0.4912
 5256SOL     OW18722   5.736   2.367   1.504 -0.2036  0.4363 -0.5821
 5256SOL    HW118723   5.789   2.447   1.498 -0.3805  0.6144  0.1405
 5256SOL    HW218724   5.784   2.303   1.451  0.9371  0.4889  0.3350
 5257SOL     OW18725   0.216   8.262   5.081 -0.1487  0.0251  0.3966
 5257SOL    HW118726   0.144   8.211   5.118 -2.6753  1.6582 -1.9240
 5257SOL    HW218727   0.265   8.199   5.028  0.8857 -1.3216  2.7745
 5258SOL     OW18728   8.421   7.479   3.271 -0.3985 -0.0141  0.4714
 5258SOL    HW118729   8.426   7.393   3.311 -1.0519  0.8053  2.4142
 5258SOL    HW218730   8.473   7.472   3.191 -1.8069 -2.6772 -0.3283
 5259SOL     OW18731   8.372   7.835   2.415 -0.1520  0.1823  0.2993
 5259SOL    HW118732   8.415   7.816   2.332 -1.3192  0.0110 -0.2849
 5259SOL    HW218733   8.431   7.799   2.481 -0.3979 -2.0455 -0.5849
 5260SOL     OW18734   9.262   8.304   9.230  0.3356 -0.0837 -0.3487
 5260SOL    HW118735   9.347   8.310   9.273  0.4578  0.3644 -0.6428
 5260SOL    HW218736   9.235   8.395   9.217  0.3385 -0.2022 -1.2671
 5261SOL     OW18737   4.955   2.508   4.125 -0.0744 -0.1942  0.7575
 5261SOL    HW118738   4.885   2.572   4.110  1.2229  1.5387  1.8331
 5261SOL    HW218739   5.022   2.555   4.175  1.4022 -2.1072  0.7187
 5262SOL     OW18740   0.566   8.820   4.546 -0.5237 -0.4022 -0.0250
 5262SOL    HW118741   0.619   8.744   4.523  0.7167  0.3311  0.2789
 5262SOL    HW218742   0.588   8.838   4.637 -0.2467  0.7246 -0.2910
 5263SOL     OW18743   6.672   5.980   4.030 -0.2001 -0.3819  0.7741
 5263SOL    HW118744   6.601   5.923   4.060 -0.5839 -0.2080  0.2173
 5263SOL    HW218745   6.695   5.946   3.944  1.6921 -1.6159  1.6837
 5264SOL     OW18746   7.530   6.737   0.669 -0.3220 -0.0482 -0.4998
 5264SOL    HW118747   7.602   6.701   0.721  0.9623  1.3539 -1.2176
 5264SOL    HW218748   7.506   6.667   0.609  1.0163 -0.2894 -0.7882
 5265SOL     OW18749   8.252   5.220   2.129 -0.2985  0.2981 -0.5476
 5265SOL    HW118750   8.191   5.159   2.087 -1.6335 -0.5442  2.3609
 5265SOL    HW218751   8.222   5.307   2.103 -0.5855 -0.1842 -1.8929
 5266SOL     OW18752   0.426   8.384   5.891  0.1947  0.2560  0.2796
 5266SOL    HW118753   0.337   8.349   5.901  0.4111 -0.1556  0.8143
 5266SOL    HW218754   0.449   8.417   5.978 -0.0389  1.8515 -0.2385
 5267SOL     OW18755   9.115   6.868   9.259  0.5582  0.3884 -0.1679
 5267SOL    HW118756   9.063   6.894   9.183 -0.1088 -1.6755 -0.4710
 5267SOL    HW218757   9.196   6.833   9.221  0.2412 -0.6099  0.0462
 5268SOL     OW18758   2.148   9.123   5.330 -0.5500 -0.0453 -0.2612
 5268SOL    HW118759   2.218   9.163   5.279 -0.0360 -0.0130  0.4579
 5268SOL    HW218760   2.085   9.194   5.345 -0.2321  0.1829 -0.0197
 5269SOL     OW18761  10.197   4.777   5.638 -0.2887  0.4253  0.4311
 5269SOL    HW118762  10.107   4.746   5.643 -0.0858  0.0594  4.1460
 5269SOL    HW218763  10.249   4.699   5.619 -0.6886  0.8020 -2.8127
 5270SOL     OW18764   1.547   8.204   7.665  0.8589  0.0907  0.1823
 5270SOL    HW118765   1.637   8.217   7.694  1.2918  0.2906 -1.1403
 5270SOL    HW218766   1.524   8.288   7.625 -0.4903  0.5810  1.8906
 5271SOL     OW18767   4.265   7.753   3.031 -0.2968  0.4426 -0.4696
 5271SOL    HW118768   4.222   7.727   2.950  0.0953  3.5474 -1.8007
 5271SOL    HW218769   4.353   7.714   3.025 -0.7394 -0.5307 -0.8158
 5272SOL     OW18770   4.686   9.289  10.298 -0.1611  0.4120 -0.2731
 5272SOL    HW118771   4.753   9.292  10.230  0.4150 -0.2610  0.2569
 5272SOL    HW218772   4.734   9.295  10.381 -0.8463  1.1355  0.0842
 5273SOL     OW18773  10.401   2.523   5.143  0.4191  0.0691 -0.2956
 5273SOL    HW118774  10.468   2.581   5.105 -1.5566  2.2264 -0.7244
 5273SOL    HW218775  10.372   2.469   5.070  1.5889 -0.8311 -0.1240
 5274SOL     OW18776   1.553   3.828   1.032  0.2839  0.1048  0.7179
 5274SOL    HW118777   1.469   3.838   0.989  0.4136  1.2310  0.6907
 5274SOL    HW218778   1.577   3.736   1.017 -1.8831 -0.8575  2.5300
 5275SOL     OW18779   8.176   4.769   4.445 -0.0072 -0.1517 -0.3766
 5275SOL    HW118780   8.215   4.786   4.359  1.1330  0.5969  0.2617
 5275SOL    HW218781   8.144   4.679   4.440 -1.4984  0.4013 -2.1321
 5276SOL     OW18782   3.276   0.679  10.397 -0.5751  0.0805  0.4232
 5276SOL    HW118783   3.363   0.651  10.370 -0.1271 -0.1444  2.0014
 5276SOL    HW218784   3.247   0.738  10.327  0.8205  0.1289 -0.1501
 5277SOL     OW18785   6.578   6.895   2.534  0.1842  0.1202  0.1936
 5277SOL    HW118786   6.567   6.961   2.466 -0.5608 -1.7773 -1.6091
 5277SOL    HW218787   6.623   6.823   2.491 -0.5162 -1.2551  1.6573
 5278SOL     OW18788   3.788   3.457  10.635  0.6461 -0.1146  0.2093
 5278SOL    HW118789   3.858   3.521  10.625 -0.5269  1.3249  0.8774
 5278SOL    HW218790   3.779   3.416  10.549  1.2906  0.7518 -0.2798
 5279SOL     OW18791   6.067   2.745   4.720  0.1794 -0.4554 -0.1404
 5279SOL    HW118792   5.979   2.784   4.718  0.1626 -0.5193 -1.2085
 5279SOL    HW218793   6.124   2.811   4.680  0.9190  0.2292  1.9194
 5280SOL     OW18794   3.465   9.404   9.926  0.0111  0.2965 -0.3019
 5280SOL    HW118795   3.532   9.351   9.969 -0.0055  0.6463  0.1722
 5280SOL    HW218796   3.426   9.455   9.997 -0.0740  0.8301 -0.7199
 5281SOL     OW18797   3.178   2.919   1.399 -0.0708  0.4632 -0.4107
 5281SOL    HW118798   3.117   2.987   1.428 -0.5283  0.1907 -0.7233
 5281SOL    HW218799   3.182   2.857   1.471  2.6566  2.2691  1.2053
 5282SOL     OW18800   8.578   4.424   5.171  1.0535 -0.1001  0.0407
 5282SOL    HW118801   8.569   4.365   5.096 -0.2234  0.0041  0.0883
 5282SOL    HW218802   8.631   4.496   5.139  0.7291 -0.1819 -0.6975
 5283SOL     OW18803   7.891   0.101   2.780 -0.0902  0.1886  0.4206
 5283SOL    HW118804   7.852   0.155   2.712 -1.0364  0.6265  1.2880
 5283SOL    HW218805   7.893   0.158   2.857  2.8106  0.4074  0.3001
 5284SOL     OW18806   6.326   8.659   2.416  0.0421  0.3224  0.6618
 5284SOL    HW118807   6.280   8.667   2.332  1.1147  0.1361  0.0337
 5284SOL    HW218808   6.325   8.566   2.436 -0.0147  0.3405  0.7429
 5285SOL     OW18809   3.832   8.492   1.957 -0.6735 -0.7126 -0.3985
 5285SOL    HW118810   3.913   8.476   2.006 -0.4739 -2.1352 -1.1370
 5285SOL    HW218811   3.860   8.492   1.865 -1.1960  0.9374 -0.5886
 5286SOL     OW18812   6.259   4.141   8.183  0.6941 -0.1286 -0.1764
 5286SOL    HW118813   6.339   4.174   8.143  0.0117  0.7333 -0.8508
 5286SOL    HW218814   6.289   4.077   8.248  1.9851  1.0979  0.4754
 5287SOL     OW18815   8.414   6.954   3.250 -0.4981 -0.0687  0.2187
 5287SOL    HW118816   8.350   6.895   3.289 -0.2831  0.2943  1.1335
 5287SOL    HW218817   8.476   6.895   3.205 -0.7984 -0.4843  0.3405
 5288SOL     OW18818   3.641   2.346  10.159  0.4108  0.9546 -0.1077
 5288SOL    HW118819   3.557   2.384  10.184 -0.7487 -1.0600 -0.6715
 5288SOL    HW218820   3.656   2.377  10.070 -0.0015  0.9297 -0.1899
 5289SOL     OW18821   3.616   1.322   9.589 -0.0048 -0.6227  0.2538
 5289SOL    HW118822   3.618   1.404   9.539 -1.7100 -0.4367  0.4292
 5289SOL    HW218823   3.637   1.349   9.679  1.4414 -0.7205 -0.0158
 5290SOL     OW18824   7.024   0.161   3.244  0.1257 -0.2316 -0.3509
 5290SOL    HW118825   7.033   0.236   3.185  0.0753 -0.5284 -0.7421
 5290SOL    HW218826   7.114   0.133   3.260  0.0927 -0.9291 -1.3095
 5291SOL     OW18827   9.115   6.138   0.562  0.0332 -0.2710 -0.5267
 5291SOL    HW118828   9.072   6.153   0.478 -0.6196  1.6871  0.1219
 5291SOL    HW218829   9.063   6.187   0.626  1.4445 -0.3835  0.7757
 5292SOL     OW18830   1.806   0.844   6.062 -0.1388  0.2215 -0.2112
 5292SOL    HW118831   1.716   0.819   6.040 -0.5648  1.6284 -0.1785
 5292SOL    HW218832   1.839   0.771   6.114 -1.2762 -0.2922 -0.1756
 5293SOL     OW18833   4.384   2.204   8.869  0.2875  0.0145 -0.0910
 5293SOL    HW118834   4.412   2.136   8.807  0.0617 -1.5522  1.4426
 5293SOL    HW218835   4.330   2.263   8.817 -0.4771 -1.6292 -1.2664
 5294SOL     OW18836   0.389   9.849   1.254  0.6177 -0.2728  0.0895
 5294SOL    HW118837   0.411   9.867   1.163  0.1032  1.0645  0.2110
 5294SOL    HW218838   0.341   9.766   1.251 -4.2362  2.2211 -1.6534
 5295SOL     OW18839   3.355   9.618   5.897  0.4724 -0.7536 -0.1747
 5295SOL    HW118840   3.263   9.626   5.870  0.6605 -1.0058 -0.9409
 5295SOL    HW218841   3.352   9.612   5.992 -0.1681  1.0206 -0.0575
 5296SOL     OW18842   3.598   8.410   5.062 -0.6192  0.2290 -1.1721
 5296SOL    HW118843   3.528   8.411   5.128  1.0484  1.3412  0.6736
 5296SOL    HW218844   3.630   8.320   5.064 -0.2412  0.3756 -0.0504
 5297SOL     OW18845   0.815   5.507   1.839 -1.1623 -0.4802  0.1666
 5297SOL    HW118846   0.891   5.566   1.834 -0.8595 -0.9660 -1.8666
 5297SOL    HW218847   0.797   5.500   1.932  1.0772 -0.0580  0.7000
 5298SOL     OW18848   4.847   6.189   2.860 -0.1245  0.0407 -0.2445
 5298SOL    HW118849   4.825   6.244   2.935 -0.9705  2.5120 -2.1356
 5298SOL    HW218850   4.918   6.236   2.817  2.8697 -3.1500  0.7953
 5299SOL     OW18851   0.102   4.778   2.662  0.0157 -0.0536  0.2621
 5299SOL    HW118852   0.127   4.714   2.729 -0.8250  1.7282  2.3990
 5299SOL    HW218853   0.173   4.842   2.663 -0.5019  0.5270  0.1838
 5300SOL     OW18854   8.057   6.953   6.347 -0.3363 -0.0059  0.8391
 5300SOL    HW118855   7.982   6.916   6.302  0.7119 -1.8682  0.5282
 5300SOL    HW218856   8.096   7.013   6.283  2.2221 -3.9672 -1.7861
 5301SOL     OW18857   2.836   4.873   9.626  0.2458  0.9299 -0.2946
 5301SOL    HW118858   2.759   4.815   9.630  0.4145  0.2956 -3.4850
 5301SOL    HW218859   2.825   4.933   9.700 -2.1644 -0.4955  0.6239
 5302SOL     OW18860   2.037   5.175   5.299  0.2000  0.0349  0.1000
 5302SOL    HW118861   1.945   5.194   5.314  0.4152  0.4339  1.0607
 5302SOL    HW218862   2.079   5.196   5.383  1.1861  0.0458 -0.3814
 5303SOL     OW18863   7.011   4.244   6.033  0.4858  0.1293 -0.2799
 5303SOL    HW118864   7.003   4.311   5.965 -2.1036 -0.1683 -0.3655
 5303SOL    HW218865   6.924   4.204   6.038  0.2995  0.6114  3.6842
 5304SOL     OW18866   8.704   9.417   6.412  0.0875  0.3213 -0.8938
 5304SOL    HW118867   8.780   9.473   6.432  0.6087 -0.7387  0.2487
 5304SOL    HW218868   8.733   9.329   6.434 -1.6035 -0.0653 -0.0409
 5305SOL     OW18869   9.787   8.077   3.030  0.0698 -0.1754  0.2707
 5305SOL    HW118870   9.764   8.166   3.003  2.1375  0.4685  0.4954
 5305SOL    HW218871   9.761   8.073   3.123 -1.6175 -0.4387 -0.1694
 5306SOL     OW18872   3.901   1.113   2.534 -0.1149 -0.7426  0.5316
 5306SOL    HW118873   3.899   1.017   2.536 -0.1467 -0.7412  0.5607
 5306SOL    HW218874   3.923   1.138   2.624  0.0243 -0.7263  0.4932
 5307SOL     OW18875   1.878   5.356   7.688 -0.6088 -0.8861 -0.0336
 5307SOL    HW118876   1.825   5.286   7.726 -0.5446 -0.7697  0.2713
 5307SOL    HW218877   1.834   5.437   7.715 -0.1965 -0.7859  0.3358
 5308SOL     OW18878   3.539   1.189   4.969  0.4623  0.1925  0.2161
 5308SOL    HW118879   3.606   1.133   5.009 -1.2845 -1.9188  0.3860
 5308SOL    HW218880   3.508   1.244   5.041 -0.5796 -1.4958  1.1132
 5309SOL     OW18881   2.012  10.092   9.079  0.2637 -0.2405  0.2570
 5309SOL    HW118882   2.010  10.188   9.083  0.6824 -0.2363  0.4134
 5309SOL    HW218883   2.101  10.069   9.104  0.4376 -0.6327 -0.6877
 5310SOL     OW18884   8.868   6.613   2.518  0.4662  0.1067  0.1417
 5310SOL    HW118885   8.920   6.693   2.526  1.3112 -0.2783 -1.0564
 5310SOL    HW218886   8.912   6.563   2.449 -1.3123 -0.4146 -0.6758
 5311SOL     OW18887  10.320   8.906   7.689  0.5313 -0.4509 -0.1356
 5311SOL    HW118888  10.268   8.962   7.631  0.0943 -0.4710  0.2298
 5311SOL    HW218889  10.260   8.836   7.716  0.2779  0.3387  1.4730
 5312SOL     OW18890   4.971   9.622   6.533  0.3902 -0.7634 -0.3380
 5312SOL    HW118891   5.018   9.552   6.488 -0.3639 -1.3987 -0.1610
 5312SOL    HW218892   4.946   9.683   6.464 -0.5952 -1.6340 -0.7695
 5313SOL     OW18893   4.565   2.044   7.008 -0.0567 -0.1347 -0.3081
 5313SOL    HW118894   4.616   2.082   6.935  1.8111  0.4044  1.1786
 5313SOL    HW218895   4.481   2.022   6.969  1.4821 -1.7030 -3.1353
 5314SOL     OW18896   6.615   6.912   0.116 -0.4506  0.0189 -0.1751
 5314SOL    HW118897   6.696   6.892   0.068 -1.9254 -1.6681 -2.1069
 5314SOL    HW218898   6.591   6.829   0.157 -0.7053  0.7721  1.2710
 5315SOL     OW18899   6.879   0.137   0.413  0.0813  0.0995  0.0686
 5315SOL    HW118900   6.846   0.063   0.465  0.8353 -0.1738  0.1674
 5315SOL    HW218901   6.929   0.189   0.476 -0.7499  0.9082  0.0880
 5316SOL     OW18902   0.369   9.583   3.319 -0.4327 -0.7560 -0.4758
 5316SOL    HW118903   0.332   9.498   3.344  1.3162 -0.5825  3.3346
 5316SOL    HW218904   0.441   9.560   3.260 -0.7181 -1.8007 -0.4500
 5317SOL     OW18905   5.142   8.136   7.716  0.2464 -0.1487 -0.2524
 5317SOL    HW118906   5.213   8.072   7.724 -0.2863 -0.5290  2.6975
 5317SOL    HW218907   5.066   8.085   7.686 -0.1716 -0.9987  2.0666
 5318SOL     OW18908   2.993   2.203  10.083 -0.1376  0.2940  0.1161
 5318SOL    HW118909   2.907   2.238  10.102 -0.1694  1.0524 -1.3021
 5318SOL    HW218910   2.979   2.142  10.010 -0.1259 -2.9671  2.6099
 5319SOL     OW18911   2.341   8.202   1.885  0.5168  0.2937 -0.2538
 5319SOL    HW118912   2.378   8.123   1.925 -2.8712 -1.1342  0.3807
 5319SOL    HW218913   2.355   8.190   1.791  0.3794 -0.8902 -0.1360
 5320SOL     OW18914   1.077   0.121   4.265 -0.3315  0.1404 -0.4557
 5320SOL    HW118915   1.115   0.111   4.178  0.5278  0.3573 -0.1177
 5320SOL    HW218916   1.086   0.215   4.285  0.7162 -0.1230  0.4049
 5321SOL     OW18917   6.908   5.894   4.618 -0.2233  0.1793  0.2553
 5321SOL    HW118918   6.978   5.901   4.683 -1.9960  1.4501  2.1502
 5321SOL    HW218919   6.887   5.984   4.596 -0.7010 -0.2092 -0.9627
 5322SOL     OW18920   1.208   0.256   6.177 -0.1900 -0.4757 -0.1418
 5322SOL    HW118921   1.189   0.214   6.093 -1.8298 -2.0290  0.9426
 5322SOL    HW218922   1.297   0.228   6.198  1.8956  3.0189 -3.0332
 5323SOL     OW18923   1.001   2.666   5.345 -0.2586  0.1475  0.6679
 5323SOL    HW118924   0.923   2.721   5.355  0.1544  1.1221 -0.9820
 5323SOL    HW218925   1.008   2.652   5.250  1.5275  0.0273  0.7766
 5324SOL     OW18926   7.307  10.089   2.352 -0.1062 -0.2202  0.2129
 5324SOL    HW118927   7.380  10.031   2.333  1.0630  0.9194  1.0171
 5324SOL    HW218928   7.284  10.070   2.443 -1.8812 -1.6474 -0.4708
 5325SOL     OW18929   4.623   0.817   9.079  0.2281 -0.2561  0.0521
 5325SOL    HW118930   4.666   0.826   8.994 -0.1737 -0.2896 -0.1581
 5325SOL    HW218931   4.639   0.900   9.123 -0.2961  0.0879 -0.3983
 5326SOL     OW18932   2.685   4.482   4.756  0.4267 -0.0349  0.3176
 5326SOL    HW118933   2.714   4.571   4.776  1.3619 -0.5036  1.1778
 5326SOL    HW218934   2.742   4.426   4.810 -1.2865 -1.0832  1.1284
 5327SOL     OW18935   5.597   3.007   7.646 -0.1985  0.1871  0.7075
 5327SOL    HW118936   5.523   3.068   7.640  0.8865  1.4884 -0.3104
 5327SOL    HW218937   5.645   3.036   7.723  1.4269  2.0495 -0.8800
 5328SOL     OW18938   8.096   1.941   1.896 -0.5363 -0.1645  0.8144
 5328SOL    HW118939   8.176   1.923   1.848 -1.1994 -1.2218  0.0706
 5328SOL    HW218940   8.112   2.025   1.940 -0.5100  1.7789 -2.6090
 5329SOL     OW18941   9.996   6.299   3.172 -0.4143  0.0306 -0.1638
 5329SOL    HW118942   9.928   6.248   3.128  1.4673 -1.5733 -1.3684
 5329SOL    HW218943   9.988   6.275   3.264 -0.5701 -1.2461 -0.4964
 5330SOL     OW18944   0.152  10.119   7.908  0.2248  0.4853 -0.1740
 5330SOL    HW118945   0.085  10.116   7.976  1.8981  2.5493  1.7047
 5330SOL    HW218946   0.235  10.119   7.955  1.5414  0.1321 -2.3227
 5331SOL     OW18947   9.611   5.677   5.309  0.4929  0.3275 -0.6893
 5331SOL    HW118948   9.575   5.759   5.276  0.3056  0.2253 -0.7375
 5331SOL    HW218949   9.633   5.696   5.401 -0.6274  0.0947 -0.3652
 5332SOL     OW18950   5.990   1.274   2.361  0.4350  0.3625 -0.3037
 5332SOL    HW118951   6.044   1.274   2.282  0.3199 -0.5928 -0.3840
 5332SOL    HW218952   5.983   1.367   2.384  1.8062  0.5370 -0.4865
 5333SOL     OW18953   1.395   5.127   6.430  0.7255  0.0995  0.2680
 5333SOL    HW118954   1.382   5.221   6.420 -0.4129 -0.2734 -2.7975
 5333SOL    HW218955   1.324   5.100   6.489 -0.0296  0.9522 -0.2145
 5334SOL     OW18956   4.617   0.090  10.527 -0.0759 -0.2472 -0.4193
 5334SOL    HW118957   4.554   0.162  10.526 -0.2298 -0.3671  0.3874
 5334SOL    HW218958   4.615   0.056  10.437  1.0954  1.6833 -1.2394
 5335SOL     OW18959   3.405   7.589   1.679  0.0281  0.3565  0.2011
 5335SOL    HW118960   3.444   7.549   1.757  0.5694  2.2214  0.9247
 5335SOL    HW218961   3.349   7.658   1.712 -1.2893 -0.0792 -1.0103
 5336SOL     OW18962   5.573   9.183   7.787  0.3596  0.6120  0.3496
 5336SOL    HW118963   5.534   9.127   7.720 -0.8197 -0.3060  1.7423
 5336SOL    HW218964   5.624   9.247   7.737  2.5702 -2.1797 -1.3439
 5337SOL     OW18965   4.213   0.911   8.648 -0.0556 -0.3363  0.7309
 5337SOL    HW118966   4.291   0.961   8.626  0.3456 -1.3903 -0.3516
 5337SOL    HW218967   4.151   0.931   8.578  0.7287 -2.6248 -0.7421
 5338SOL     OW18968   9.771   0.492   5.241 -0.2622 -0.1788 -0.1148
 5338SOL    HW118969   9.741   0.533   5.160  0.7755  0.3451 -0.2451
 5338SOL    HW218970   9.819   0.561   5.287 -0.4543 -0.6027  0.7334
 5339SOL     OW18971   4.345   2.352   4.939  0.5647  0.0578  0.5402
 5339SOL    HW118972   4.346   2.274   4.994  1.3811 -1.8222 -1.9517
 5339SOL    HW218973   4.302   2.324   4.858 -0.5458  2.6682  0.1293
 5340SOL     OW18974   4.652   5.646   3.340 -0.3213  0.3158 -0.0884
 5340SOL    HW118975   4.635   5.560   3.301  4.1702 -0.0367 -1.7772
 5340SOL    HW218976   4.714   5.629   3.411  1.5054  2.1893 -1.1347
 5341SOL     OW18977   5.990   7.800   0.992 -0.1169 -0.2863  0.3538
 5341SOL    HW118978   5.989   7.877   1.050 -1.0027 -0.7468  0.9740
 5341SOL    HW218979   6.066   7.750   1.021 -0.5045 -0.4733  1.0932
 5342SOL     OW18980   8.584   1.012   7.496 -0.5979 -0.2912  0.2689
 5342SOL    HW118981   8.584   0.924   7.534  1.9190 -0.5606 -0.1798
 5342SOL    HW218982   8.624   1.067   7.564 -3.8266  1.0046  1.3294
 5343SOL     OW18983   1.110   6.635   8.723 -0.0001 -0.2525  0.1334
 5343SOL    HW118984   1.146   6.616   8.810  0.2317  0.5694  0.2286
 5343SOL    HW218985   1.186   6.660   8.671 -0.2721  0.3213  0.0010
 5344SOL     OW18986   7.436   1.775   4.073  0.7414 -0.4513 -0.0654
 5344SOL    HW118987   7.365   1.767   4.009  2.2142  1.9916 -2.2029
 5344SOL    HW218988   7.474   1.688   4.078  0.0702 -0.9022 -1.9642
 5345SOL     OW18989   8.365   7.258   5.823  0.2124 -0.6498 -0.6022
 5345SOL    HW118990   8.418   7.320   5.771  0.6481  1.4498  2.1333
 5345SOL    HW218991   8.276   7.270   5.790  0.3881  1.0493 -0.5847
 5346SOL     OW18992   0.017   4.881   1.930 -0.4055 -0.4326  0.4420
 5346SOL    HW118993   0.092   4.940   1.922 -1.8642  1.5798  0.6890
 5346SOL    HW218994   0.015   4.858   2.023  0.1907 -0.9287  0.3402
 5347SOL     OW18995   5.591   9.008   6.376  0.1445 -0.3099 -0.9617
 5347SOL    HW118996   5.642   8.944   6.327  0.1071  0.1035 -1.5435
 5347SOL    HW218997   5.570   9.077   6.313  0.9688  0.7424 -0.1238
 5348SOL     OW18998   5.887   0.949   4.185 -0.2902 -0.2093 -0.4990
 5348SOL    HW118999   5.880   0.988   4.098 -2.2530  1.8177  0.4593
 5348SOL    HW219000   5.863   0.857   4.172 -3.0087  0.5716 -1.8377
 5349SOL     OW19001   7.881   0.701   0.859 -0.2257  0.0538  0.0421
 5349SOL    HW119002   7.813   0.655   0.810  0.6152  0.0647 -1.1824
 5349SOL    HW219003   7.855   0.692   0.950 -0.7313 -1.8457 -0.2412
 5350SOL     OW19004   3.681   7.031   8.890 -0.0259  0.4919 -0.0699
 5350SOL    HW119005   3.594   7.000   8.868  0.3504 -2.4087  1.9374
 5350SOL    HW219006   3.737   6.996   8.821 -0.1317  0.1857 -0.0006
 5351SOL     OW19007   0.360   6.001   2.526  0.0009 -0.1536 -0.7164
 5351SOL    HW119008   0.359   5.960   2.613  0.6185  1.4692  0.0870
 5351SOL    HW219009   0.275   6.044   2.519  0.0983  0.0296 -0.7701
 5352SOL     OW19010   9.374   8.970   9.852  0.6937 -0.1393 -0.4162
 5352SOL    HW119011   9.372   8.910   9.778  0.3202 -1.3087  0.5053
 5352SOL    HW219012   9.422   8.922   9.920 -0.7284  0.0597  0.7768
 5353SOL     OW19013   0.903   8.918   3.350 -0.3589 -0.7455  0.2486
 5353SOL    HW119014   0.860   8.995   3.313 -1.0844 -0.6994  1.1632
 5353SOL    HW219015   0.838   8.848   3.343  0.0656 -1.1252  0.0177
 5354SOL     OW19016   4.337  10.666   3.650 -0.8036  0.3181  0.1421
 5354SOL    HW119017   4.419  10.621   3.667 -1.2189 -0.2241  0.7661
 5354SOL    HW219018   4.303  10.626   3.570 -0.0465  1.1535 -0.6169
 5355SOL     OW19019   9.555   5.221   4.372 -0.4705  0.0649  0.2709
 5355SOL    HW119020   9.559   5.315   4.353 -0.1212 -0.2321 -1.3320
 5355SOL    HW219021   9.635   5.203   4.422  0.9262  0.1874 -1.7803
 5356SOL     OW19022   9.526   8.968   8.527 -0.5332  0.4838  0.3373
 5356SOL    HW119023   9.445   9.007   8.557 -1.3800 -1.4394  0.7103
 5356SOL    HW219024   9.526   8.981   8.432 -0.9246  1.1162  0.4268
 5357SOL     OW19025   9.718  10.368   7.572  0.2321  0.1517 -0.1984
 5357SOL    HW119026   9.716  10.273   7.562  1.2582 -0.0157  0.8603
 5357SOL    HW219027   9.640  10.399   7.526 -1.5715 -1.4191  1.5849
 5358SOL     OW19028   9.762  10.494   0.220  0.1287 -0.1221  0.4026
 5358SOL    HW119029   9.749  10.412   0.171 -0.4146  0.5210 -0.5620
 5358SOL    HW219030   9.857  10.499   0.233  0.2538 -0.4693 -0.3104
 5359SOL     OW19031   0.898   8.444   9.505 -0.5413 -0.4630 -0.2067
 5359SOL    HW119032   0.922   8.361   9.463 -1.0642 -0.4443 -0.5452
 5359SOL    HW219033   0.938   8.439   9.592  0.3324 -0.6121 -0.6052
 5360SOL     OW19034   9.260   6.328   1.416  0.1882 -0.4827 -0.2495
 5360SOL    HW119035   9.263   6.280   1.333  2.0594  0.2298 -0.6438
 5360SOL    HW219036   9.344   6.373   1.420 -0.2153  0.1676  1.6537
 5361SOL     OW19037  10.479   0.980   6.302  0.6401  0.4923 -0.3872
 5361SOL    HW119038  10.484   0.894   6.261 -0.9027  1.0024 -1.7541
 5361SOL    HW219039  10.481   1.042   6.229  0.1945  1.5525  0.4704
 5362SOL     OW19040   4.109   1.557  10.340 -0.3281 -0.1034 -0.2096
 5362SOL    HW119041   4.110   1.582  10.248  0.0633  0.0074 -0.1760
 5362SOL    HW219042   4.101   1.639  10.388  1.3675  0.0390 -0.0841
 5363SOL     OW19043   9.278   6.220   9.661  0.0009  0.7564  0.1368
 5363SOL    HW119044   9.354   6.229   9.719  0.3755 -1.3052  0.0476
 5363SOL    HW219045   9.204   6.210   9.721  0.2848 -0.5972  0.2937
 5364SOL     OW19046   6.162   4.499   7.781  0.4558  0.2993  0.1729
 5364SOL    HW119047   6.203   4.436   7.840  0.4589 -1.8835 -1.9754
 5364SOL    HW219048   6.126   4.566   7.838 -1.2250 -2.5951  2.8529
 5365SOL     OW19049   7.566   5.586   8.511  0.0729  0.2683  0.6658
 5365SOL    HW119050   7.562   5.505   8.459 -1.0964 -0.5777  1.9800
 5365SOL    HW219051   7.515   5.649   8.461  1.5160  0.4123 -0.6844
 5366SOL     OW19052   2.776   2.273   8.512  0.3515  0.0015  0.0326
 5366SOL    HW119053   2.761   2.292   8.419 -1.3167  1.3868  0.5200
 5366SOL    HW219054   2.727   2.192   8.528 -0.6242  0.5581 -0.0125
 5367SOL     OW19055   2.777   8.244   8.200  0.2272  0.4386 -0.1067
 5367SOL    HW119056   2.696   8.284   8.230  0.1468  1.3520 -1.4106
 5367SOL    HW219057   2.828   8.228   8.279 -0.6207  1.2166  0.6090
 5368SOL     OW19058   1.449   9.470   1.291 -0.3949  0.4666 -0.4175
 5368SOL    HW119059   1.485   9.383   1.271 -0.3163  0.0918  1.1936
 5368SOL    HW219060   1.477   9.486   1.381 -1.5010  1.6120 -0.2667
 5369SOL     OW19061   6.376   0.811   7.527 -0.3159 -0.5371 -0.7608
 5369SOL    HW119062   6.357   0.854   7.610 -0.9472 -0.7972 -0.7655
 5369SOL    HW219063   6.469   0.789   7.532 -0.3160 -0.4267 -0.1824
 5370SOL     OW19064   6.131   8.369   2.102 -0.1296  0.0049 -0.1864
 5370SOL    HW119065   6.113   8.362   2.008 -0.2572 -0.8608 -0.1091
 5370SOL    HW219066   6.159   8.281   2.127 -4.0759 -1.0282  1.3930
 5371SOL     OW19067   1.643   9.718   0.381  0.6370  0.0190 -0.1809
 5371SOL    HW119068   1.652   9.631   0.343 -0.5558  0.4177 -1.4875
 5371SOL    HW219069   1.717   9.768   0.346  0.3374 -0.0083 -0.8773
 5372SOL     OW19070   6.002  10.482   2.686  0.0238  0.2379 -0.2608
 5372SOL    HW119071   6.058  10.453   2.613  0.6738  0.9483 -0.0536
 5372SOL    HW219072   5.913  10.478   2.651  0.3890  1.3389 -1.3674
 5373SOL     OW19073   7.514   5.920  10.684 -1.2004  0.6458 -0.3020
 5373SOL    HW119074   7.462   5.961  10.753 -2.5028 -2.0147  0.4552
 5373SOL    HW219075   7.462   5.844  10.657  1.6890 -1.4397 -0.4482
 5374SOL     OW19076   7.110   4.392   7.881 -0.7749  0.4432  0.0381
 5374SOL    HW119077   7.160   4.384   7.800 -1.3545 -0.1163 -0.2729
 5374SOL    HW219078   7.093   4.301   7.907 -2.8824  0.5812 -0.6613
 5375SOL     OW19079   7.693   3.076   9.931  0.9685  0.2539  0.0448
 5375SOL    HW119080   7.627   3.143   9.948 -1.3771 -1.3784 -1.9090
 5375SOL    HW219081   7.767   3.124   9.893 -0.3150  1.8246 -0.5626
 5376SOL     OW19082   0.429   6.586   0.903 -0.4775  0.3839 -0.3286
 5376SOL    HW119083   0.375   6.523   0.950 -0.4130  0.5315 -0.0568
 5376SOL    HW219084   0.480   6.532   0.842 -1.3691  0.2996 -1.0278
 5377SOL     OW19085   4.484  10.446   1.553 -0.5226 -0.3149 -0.0544
 5377SOL    HW119086   4.447  10.415   1.471  1.9091 -0.6327 -1.1210
 5377SOL    HW219087   4.455  10.537   1.559 -0.9651 -0.3699 -1.1390
 5378SOL     OW19088   7.860   0.943   2.608  0.1074 -0.4390 -0.2005
 5378SOL    HW119089   7.834   0.996   2.683 -1.0723 -0.1343 -0.8072
 5378SOL    HW219090   7.784   0.889   2.589  0.3274 -0.3938 -1.2706
 5379SOL     OW19091   5.592   8.683   2.494  0.8373 -0.5497 -0.5325
 5379SOL    HW119092   5.502   8.669   2.464  0.9578 -1.2238 -0.5860
 5379SOL    HW219093   5.597   8.777   2.511  0.4764 -0.3186 -1.6660
 5380SOL     OW19094   2.378   6.582   2.165  0.6512  0.3068 -0.1064
 5380SOL    HW119095   2.404   6.569   2.256 -1.5941 -1.4457  0.3519
 5380SOL    HW219096   2.440   6.648   2.132  1.5895  0.9121  2.6154
 5381SOL     OW19097   4.517  10.055   3.108 -0.0913  0.6805  0.4014
 5381SOL    HW119098   4.588  10.107   3.144  2.9107  0.3365 -4.2268
 5381SOL    HW219099   4.475  10.111   3.043  0.2064 -1.0721 -1.4257
 5382SOL     OW19100   0.230   3.356   2.801 -0.1479 -0.6644  0.6571
 5382SOL    HW119101   0.304   3.379   2.857  1.0050 -0.6242 -0.7955
 5382SOL    HW219102   0.267   3.355   2.712 -1.8002 -1.0850 -0.0710
 5383SOL     OW19103   7.883   2.550   7.698  0.6857 -0.2514  0.2993
 5383SOL    HW119104   7.810   2.575   7.755  0.4428  1.2756 -0.6298
 5383SOL    HW219105   7.960   2.589   7.739  0.8369 -0.9835  0.7231
 5384SOL     OW19106   6.515   9.189   9.523 -0.0114  0.2744 -0.0410
 5384SOL    HW119107   6.603   9.222   9.511  0.0190 -0.4546 -2.1319
 5384SOL    HW219108   6.465   9.222   9.449 -1.5074  0.6149  1.0576
 5385SOL     OW19109   9.962   3.370   5.795  0.4497  0.2441 -0.0981
 5385SOL    HW119110   9.873   3.364   5.829  0.4090  0.3445 -0.1855
 5385SOL    HW219111   9.975   3.288   5.747  0.1005  0.5837 -0.8012
 5386SOL     OW19112   4.285   2.725   7.533  0.3018  0.3005 -0.4453
 5386SOL    HW119113   4.379   2.711   7.518  0.8300  1.2622  1.6116
 5386SOL    HW219114   4.278   2.744   7.627 -2.2777 -2.1434 -0.0169
 5387SOL     OW19115   5.789   0.571   1.921 -0.1099  0.1763 -0.3035
 5387SOL    HW119116   5.767   0.631   1.993 -0.5599  0.0772 -0.3577
 5387SOL    HW219117   5.705   0.549   1.881 -0.1080 -1.4639  0.4935
 5388SOL     OW19118   6.565   8.193   5.026 -0.1764 -0.2844 -0.0062
 5388SOL    HW119119   6.497   8.217   5.089  0.5800 -1.7006  1.4143
 5388SOL    HW219120   6.529   8.118   4.979 -0.2522  0.0194 -0.4451
 5389SOL     OW19121   9.825   8.820   4.313 -0.1495  0.1120  0.2778
 5389SOL    HW119122   9.870   8.867   4.243 -0.1884 -0.6069 -0.2467
 5389SOL    HW219123   9.880   8.834   4.391 -0.8902  2.1750  0.4922
 5390SOL     OW19124   5.035   0.058   3.511 -0.4167 -0.0592  0.0453
 5390SOL    HW119125   5.022  -0.037   3.517 -0.2153 -0.0556  0.6337
 5390SOL    HW219126   5.056   0.084   3.601 -0.9948  0.6192 -0.0095
 5391SOL     OW19127   2.792   0.760   1.622 -0.2773  0.1973 -0.0365
 5391SOL    HW119128   2.845   0.797   1.552  0.9861 -1.7892 -0.1978
 5391SOL    HW219129   2.748   0.685   1.582  0.4619 -0.9774  1.2473
 5392SOL     OW19130   6.211   1.439   2.787  0.0285  0.0433 -0.3664
 5392SOL    HW119131   6.154   1.418   2.861 -1.4272  0.5240 -1.2996
 5392SOL    HW219132   6.293   1.393   2.805 -1.4483 -2.6793 -0.1355
 5393SOL     OW19133   9.504   9.480   9.603  0.1192 -0.3065  0.4318
 5393SOL    HW119134   9.453   9.401   9.619  1.1046 -0.8837  0.8089
 5393SOL    HW219135   9.483   9.504   9.512 -0.2733 -0.9324  0.3534
 5394SOL     OW19136   6.938   4.474   5.542  0.1421 -0.1701 -0.6197
 5394SOL    HW119137   6.974   4.526   5.471  2.8261  0.2024  0.8699
 5394SOL    HW219138   6.869   4.529   5.580 -0.9124 -0.1396 -2.4746
 5395SOL     OW19139   8.656   3.637   1.263 -0.6875  0.0319 -0.0724
 5395SOL    HW119140   8.723   3.580   1.227 -1.2410  0.1343 -1.3412
 5395SOL    HW219141   8.574   3.601   1.231 -1.3682 -0.7480  2.3715
 5396SOL     OW19142   3.123  10.477   0.924  0.2950  0.2394  0.0793
 5396SOL    HW119143   3.094  10.389   0.949  0.3690  0.0502 -0.4858
 5396SOL    HW219144   3.094  10.487   0.833  2.4366 -0.1672 -0.6986
 5397SOL     OW19145   9.024   0.755   8.581 -0.6702  0.0044 -0.5901
 5397SOL    HW119146   9.036   0.833   8.526 -3.0868 -0.3195 -1.7270
 5397SOL    HW219147   9.035   0.681   8.521 -0.6263 -0.4568 -0.0237
 5398SOL     OW19148   5.246   3.219   2.183  0.7468  0.5800  0.1413
 5398SOL    HW119149   5.221   3.133   2.149  0.0015 -0.2724  2.6784
 5398SOL    HW219150   5.340   3.212   2.199  1.6702  1.7534 -3.5651
 5399SOL     OW19151   9.641   2.399   4.932 -0.1613  0.1333  0.8019
 5399SOL    HW119152   9.687   2.479   4.957  0.9276 -0.2633  0.1050
 5399SOL    HW219153   9.565   2.396   4.991  0.3909  1.0842  1.5902
 5400SOL     OW19154   5.182   4.946   5.562  0.0600  0.0363 -0.2355
 5400SOL    HW119155   5.177   5.022   5.620 -1.7428  0.9268 -1.4548
 5400SOL    HW219156   5.227   4.979   5.484 -2.6778  0.5897 -1.6948
 5401SOL     OW19157   8.935  10.300   4.899 -0.1625  0.3790  0.4096
 5401SOL    HW119158   8.929  10.221   4.952 -2.1633 -0.2807 -0.6787
 5401SOL    HW219159   8.995  10.276   4.828  0.1649  0.2454  0.7284
 5402SOL     OW19160   9.659   5.890   1.104 -0.3187  0.6923  0.2125
 5402SOL    HW119161   9.716   5.943   1.159  0.4169 -0.6368  0.7782
 5402SOL    HW219162   9.616   5.830   1.165  0.0350 -0.3831 -0.5679
 5403SOL     OW19163   5.183   3.422   5.371  0.1559 -0.3028 -0.9348
 5403SOL    HW119164   5.278   3.421   5.361  0.4082 -1.6072  0.9940
 5403SOL    HW219165   5.150   3.379   5.292  0.9735  2.0483 -2.6554
 5404SOL     OW19166   0.014   9.058   3.090 -0.3104  0.2562  0.0327
 5404SOL    HW119167   0.042   8.975   3.052 -0.3927  0.2305  0.0258
 5404SOL    HW219168  -0.074   9.040   3.125 -0.2120  0.2626  0.2862
 5405SOL     OW19169   3.951   7.483   6.550  0.0978  0.4458  0.2623
 5405SOL    HW119170   3.861   7.457   6.569 -0.3094  2.0320  0.6273
 5405SOL    HW219171   3.984   7.414   6.493 -0.4407 -1.6359  2.2875
 5406SOL     OW19172   4.706   4.717   3.648 -0.1709 -0.2244  0.3533
 5406SOL    HW119173   4.654   4.643   3.679 -0.5409 -0.0279  0.2016
 5406SOL    HW219174   4.777   4.676   3.599 -1.2206 -0.4509 -1.0428
 5407SOL     OW19175   9.251   5.974   0.731 -0.4913  0.8621  0.3020
 5407SOL    HW119176   9.192   5.903   0.756 -1.8199  1.9899  0.5066
 5407SOL    HW219177   9.203   6.022   0.663  0.3782  1.5810  0.1736
 5408SOL     OW19178   1.202   1.789   0.032 -0.7382 -0.0947 -0.0375
 5408SOL    HW119179   1.171   1.750  -0.050  0.9786 -0.5896 -0.4892
 5408SOL    HW219180   1.294   1.763   0.038 -0.8966 -0.3226  2.2081
 5409SOL     OW19181   5.200   1.219   9.013  0.0699 -0.2099 -0.3116
 5409SOL    HW119182   5.144   1.295   8.996  1.1111  0.6908  0.1264
 5409SOL    HW219183   5.189   1.163   8.935  0.7696  1.3276 -1.5719
 5410SOL     OW19184   9.895   3.995   9.544  0.1400  0.2076 -0.2931
 5410SOL    HW119185   9.977   3.994   9.594 -1.3358 -1.2354  2.3298
 5410SOL    HW219186   9.846   4.069   9.579 -0.7433 -0.5673  0.1652
 5411SOL     OW19187   5.604   3.284   1.881  0.1714  0.7933  0.6051
 5411SOL    HW119188   5.519   3.245   1.898  1.1035 -2.0468 -0.6679
 5411SOL    HW219189   5.594   3.328   1.796 -0.1580  0.9236  0.7116
 5412SOL     OW19190   2.186   7.487   3.055 -0.6587  0.0551  0.2260
 5412SOL    HW119191   2.099   7.455   3.028 -1.1515  0.7558  0.9334
 5412SOL    HW219192   2.233   7.408   3.080 -0.8465 -0.4103 -0.8143
 5413SOL     OW19193   7.130   5.321   4.835  0.0632 -0.5086 -1.0524
 5413SOL    HW119194   7.179   5.382   4.780  0.9593 -0.0759  0.1689
 5413SOL    HW219195   7.187   5.306   4.911 -1.4504 -0.4562  0.1468
 5414SOL     OW19196   9.316   8.105   2.729  0.4114  0.3434 -0.3433
 5414SOL    HW119197   9.243   8.146   2.683 -1.7609 -4.2003 -1.5725
 5414SOL    HW219198   9.386   8.100   2.664  0.8506  2.2656 -0.0532
 5415SOL     OW19199   7.382   6.993   2.020  0.2341  0.4636 -0.0065
 5415SOL    HW119200   7.386   6.912   1.970  0.8235  1.1712 -1.1638
 5415SOL    HW219201   7.472   7.024   2.023  0.0212  1.0703  0.4153
 5416SOL     OW19202   4.480   5.241   6.212  0.1129 -0.5086  0.0272
 5416SOL    HW119203   4.420   5.277   6.277 -0.3303 -2.3166  0.6999
 5416SOL    HW219204   4.523   5.317   6.173 -1.9744  0.7986  0.1349
 5417SOL     OW19205   8.672   0.705  10.128  0.8852  0.7403  0.1251
 5417SOL    HW119206   8.605   0.729  10.192  0.1976 -1.8538  0.5104
 5417SOL    HW219207   8.751   0.692  10.179  0.9544  0.9912  0.0843
 5418SOL     OW19208   7.135   9.058   6.520 -0.1896 -0.4298  0.0325
 5418SOL    HW119209   7.083   9.112   6.461  0.0014  0.6431  0.8141
 5418SOL    HW219210   7.087   8.975   6.526 -2.3404  0.8346  1.4543
 5419SOL     OW19211   2.356   8.185   1.610  0.0324 -0.7159 -0.2523
 5419SOL    HW119212   2.261   8.197   1.610  0.1952  0.7885 -0.7630
 5419SOL    HW219213   2.384   8.217   1.524  1.1110 -0.0070  0.3455
 5420SOL     OW19214   6.025   3.931   6.213  0.3626  0.5422 -0.7593
 5420SOL    HW119215   6.078   3.988   6.270 -1.1532  1.4193 -0.1722
 5420SOL    HW219216   5.982   3.991   6.152 -2.0474  0.2324  0.4976
 5421SOL     OW19217   2.604   5.471  10.144 -0.0698 -0.4545  0.6182
 5421SOL    HW119218   2.535   5.510  10.090 -0.8138  0.7753  2.3845
 5421SOL    HW219219   2.557   5.418  10.208  0.5173  0.9756  2.3140
 5422SOL     OW19220   5.934   3.203   4.850  0.2327 -0.6007 -0.4251
 5422SOL    HW119221   5.960   3.207   4.942  0.7055  1.0931 -0.6023
 5422SOL    HW219222   5.865   3.137   4.848 -0.1127 -0.3417  1.2265
 5423SOL     OW19223   1.448   6.497   6.573  0.6629  0.2799  0.0862
 5423SOL    HW119224   1.409   6.413   6.595 -0.7517  1.3674  2.0800
 5423SOL    HW219225   1.535   6.476   6.539  0.4735 -1.9456  0.8618
 5424SOL     OW19226   3.007   8.883   4.337  0.0544  0.0910  0.2207
 5424SOL    HW119227   3.095   8.922   4.337 -0.4343  1.2569 -0.5833
 5424SOL    HW219228   2.958   8.934   4.401  0.2887 -1.4307  1.6783
 5425SOL     OW19229   0.056   2.979   4.696  0.5389 -0.0460 -0.2795
 5425SOL    HW119230   0.046   3.066   4.733  1.7567  0.5356 -1.2514
 5425SOL    HW219231   0.125   2.938   4.749  0.7573 -0.0089 -0.5353
 5426SOL     OW19232  10.384  10.684   7.081  0.1023 -0.9166  0.0885
 5426SOL    HW119233  10.370  10.634   7.161  2.0041  1.4030  2.0372
 5426SOL    HW219234  10.478  10.676   7.065  0.2881  1.1598 -0.0779
 5427SOL     OW19235   1.466   3.447   8.868 -0.0559 -0.6226 -0.3342
 5427SOL    HW119236   1.458   3.441   8.772 -0.1086 -1.3757 -0.2909
 5427SOL    HW219237   1.391   3.398   8.901 -0.1685 -0.1664  0.1013
 5428SOL     OW19238   1.577   0.752   0.458 -0.0344  0.0238 -0.3488
 5428SOL    HW119239   1.577   0.847   0.453 -1.1971  0.0422 -0.2733
 5428SOL    HW219240   1.587   0.723   0.367  2.6100  0.1643 -0.1838
 5429SOL     OW19241   4.562   1.831   4.960  0.5322  0.0792  0.0836
 5429SOL    HW119242   4.580   1.745   4.998  0.1902 -0.0357 -0.0093
 5429SOL    HW219243   4.649   1.868   4.943  0.6887 -0.6076 -0.6950
 5430SOL     OW19244   6.646   8.466   7.799  0.6602 -0.3331 -0.0956
 5430SOL    HW119245   6.648   8.458   7.894  2.3794 -1.1094 -0.1665
 5430SOL    HW219246   6.726   8.513   7.777 -0.5072  1.2951 -1.0743
 5431SOL     OW19247   4.731   7.282   6.705  0.2332  0.2868  0.3285
 5431SOL    HW119248   4.682   7.251   6.630  2.1202  0.1201 -0.8999
 5431SOL    HW219249   4.752   7.373   6.685  0.9388  0.1788  0.5371
 5432SOL     OW19250   2.075   4.191   0.350 -0.0595  0.1979 -0.2529
 5432SOL    HW119251   1.979   4.190   0.345 -0.0368 -0.5880 -0.6007
 5432SOL    HW219252   2.104   4.202   0.260  0.1812  0.4024 -0.1509
 5433SOL     OW19253   2.689   4.465   7.365  0.0338  0.2281 -0.6489
 5433SOL    HW119254   2.602   4.492   7.394  0.2039  4.1027 -3.0180
 5433SOL    HW219255   2.722   4.409   7.435 -3.3318  0.7465  1.5559
 5434SOL     OW19256  10.277   3.844  10.500 -0.0214 -0.9440  0.0527
 5434SOL    HW119257  10.222   3.863  10.576  1.5765  1.3003  0.7526
 5434SOL    HW219258  10.233   3.889  10.427  1.3036  1.8320  0.8224
 5435SOL     OW19259   3.349   6.128   3.872  0.0911  0.6199 -0.1967
 5435SOL    HW119260   3.443   6.113   3.866  0.1207  1.2770 -2.6859
 5435SOL    HW219261   3.332   6.198   3.808 -1.9960  1.0155  0.6980
 5436SOL     OW19262   3.899   6.878   5.328 -0.1693 -0.1719  0.0500
 5436SOL    HW119263   3.938   6.965   5.332 -0.8486  0.2055 -1.1554
 5436SOL    HW219264   3.929   6.841   5.245 -1.2326 -0.4098 -0.2480
 5437SOL     OW19265   7.428   7.744   1.018  0.4506 -0.7528  0.2810
 5437SOL    HW119266   7.377   7.794   0.954 -0.4285 -1.9017  0.0448
 5437SOL    HW219267   7.371   7.738   1.094  0.5222 -1.4350  0.2857
 5438SOL     OW19268   4.475   8.261   5.371  0.6324 -0.0796 -0.0001
 5438SOL    HW119269   4.483   8.182   5.319  0.8124 -0.3268  0.3995
 5438SOL    HW219270   4.474   8.332   5.307 -1.8200 -0.5176 -0.5562
 5439SOL     OW19271   3.892   2.590   3.291 -0.2476 -0.0684  0.3071
 5439SOL    HW119272   3.922   2.639   3.367 -1.1330 -0.1244  0.6977
 5439SOL    HW219273   3.842   2.653   3.239 -1.5274 -0.5647  0.8901
 5440SOL     OW19274   3.269   0.040   9.566 -0.3606 -0.6056  0.4653
 5440SOL    HW119275   3.282   0.133   9.584  0.5307 -0.5800 -0.2526
 5440SOL    HW219276   3.340  -0.004   9.613  0.0500 -0.8047 -0.3350
 5441SOL     OW19277   1.631   8.404   4.660  0.3164 -0.2868  0.0096
 5441SOL    HW119278   1.609   8.469   4.593  1.6947  1.5067  1.2112
 5441SOL    HW219279   1.651   8.325   4.610 -1.6576  0.0575 -1.4838
 5442SOL     OW19280   1.828   0.403   4.757  0.3736 -0.7170  0.0391
 5442SOL    HW119281   1.890   0.330   4.750  1.3328  0.2474 -2.3417
 5442SOL    HW219282   1.766   0.374   4.825  1.8199 -2.8877  0.5636
 5443SOL     OW19283   4.952  10.368   9.376  0.1601  0.3530 -0.3360
 5443SOL    HW119284   4.907  10.284   9.388  0.4971  0.2988  0.6840
 5443SOL    HW219285   5.045  10.348   9.389  0.3521  0.7047 -1.1104
 5444SOL     OW19286   5.949   3.776   7.840 -0.1519  0.1412  0.0541
 5444SOL    HW119287   5.856   3.789   7.857 -0.6412 -1.2367 -1.3530
 5444SOL    HW219288   5.982   3.735   7.920 -0.4715  1.6949  1.0180
 5445SOL     OW19289   4.830   7.000   9.693 -0.1762  0.7810 -0.4553
 5445SOL    HW119290   4.840   7.006   9.598  1.2616  0.5497 -0.3335
 5445SOL    HW219291   4.835   6.907   9.712 -0.4059  0.8325 -0.1314
 5446SOL     OW19292  10.378   1.745   1.406  0.4656 -0.2154  0.2884
 5446SOL    HW119293  10.357   1.773   1.496 -0.0657  1.3090 -0.2696
 5446SOL    HW219294  10.316   1.676   1.387  2.4259 -2.6418  2.0679
 5447SOL     OW19295   6.851   5.569   6.559 -0.0801 -0.1572  0.1766
 5447SOL    HW119296   6.851   5.473   6.554 -0.6619 -0.1296 -0.8372
 5447SOL    HW219297   6.771   5.591   6.607  1.5922 -0.2236  3.1838
 5448SOL     OW19298   0.204   8.218   4.333 -0.3957  0.1458 -0.2445
 5448SOL    HW119299   0.274   8.278   4.309 -0.7033  0.3332 -0.6874
 5448SOL    HW219300   0.152   8.209   4.253 -1.2587  0.5342  0.2681
 5449SOL     OW19301   0.882   2.405   2.506 -0.4175 -0.0359  0.4240
 5449SOL    HW119302   0.906   2.496   2.489  2.2414 -0.8504 -0.6322
 5449SOL    HW219303   0.806   2.389   2.450 -0.4795  1.3177  0.0927
 5450SOL     OW19304   6.435   9.372   1.108  0.2486 -0.0597  0.0576
 5450SOL    HW119305   6.516   9.337   1.071 -1.1582 -2.1722 -1.2774
 5450SOL    HW219306   6.381   9.395   1.032 -0.6993  0.6030  0.8960
 5451SOL     OW19307   2.947   0.636   2.080  0.2375  0.0297  0.4060
 5451SOL    HW119308   3.000   0.556   2.090  0.7294  0.0431 -1.6605
 5451SOL    HW219309   3.004   0.707   2.108  0.5473 -0.1548  0.2408
 5452SOL     OW19310  10.233   3.882   0.440  0.5244  0.4145  0.2978
 5452SOL    HW119311  10.260   3.948   0.503  1.0458  0.5293 -0.0448
 5452SOL    HW219312  10.185   3.817   0.493 -0.3083  1.2379  0.5743
 5453SOL     OW19313   5.748   3.062  10.001  0.1063  0.2773  0.0840
 5453SOL    HW119314   5.745   2.997   9.931 -0.7678  0.8399 -0.4232
 5453SOL    HW219315   5.704   3.139   9.964 -0.0205  0.7128  1.1103
 5454SOL     OW19316   1.505   8.980   9.871  0.2153  0.1401  0.0361
 5454SOL    HW119317   1.554   8.996   9.790  0.1632  1.5582  0.2567
 5454SOL    HW219318   1.505   8.885   9.881  0.2262 -0.0646 -1.6289
 5455SOL     OW19319   8.491   9.886   9.767  0.3255  0.2387  0.2123
 5455SOL    HW119320   8.496   9.965   9.820  0.5281 -0.4294  1.2128
 5455SOL    HW219321   8.424   9.833   9.810  2.3579 -1.4751  1.4371
 5456SOL     OW19322   1.948   5.394   8.134  0.2193 -0.1219 -0.1984
 5456SOL    HW119323   1.957   5.414   8.227  0.3588 -1.0390  0.0005
 5456SOL    HW219324   1.968   5.300   8.128  1.1828  0.1259 -1.2924
 5457SOL     OW19325   4.577   5.284   8.618  0.8546  0.8518  0.1496
 5457SOL    HW119326   4.543   5.357   8.565 -0.4091  0.7890  0.8322
 5457SOL    HW219327   4.595   5.215   8.554  0.2676  1.1105 -0.3099
 5458SOL     OW19328   1.536   9.232   1.130 -0.5928 -0.3018 -0.1382
 5458SOL    HW119329   1.474   9.242   1.058 -1.4786 -0.7071  0.5427
 5458SOL    HW219330   1.498   9.163   1.185 -0.3191  0.4857  1.0935
 5459SOL     OW19331   9.059   6.492   9.402  0.6704  0.3268  0.0342
 5459SOL    HW119332   9.031   6.477   9.312 -1.2371  1.2331  0.4195
 5459SOL    HW219333   9.048   6.587   9.415  0.5755  0.1586  1.3255
 5460SOL     OW19334   7.278   4.351   7.674  0.3058  1.0419  0.4584
 5460SOL    HW119335   7.369   4.331   7.656  0.1555  0.5810  0.2087
 5460SOL    HW219336   7.232   4.332   7.593 -0.3048 -0.6280  1.1524
 5461SOL     OW19337   8.168   6.591  10.346  0.5921 -0.6047  0.5655
 5461SOL    HW119338   8.186   6.511  10.295 -0.0629 -1.3924  1.5375
 5461SOL    HW219339   8.162   6.561  10.437  0.9118  0.6508  1.0172
 5462SOL     OW19340   2.016   8.407   5.612  0.1352  0.0231 -0.4672
 5462SOL    HW119341   2.014   8.313   5.593 -2.6813  0.3095 -2.2810
 5462SOL    HW219342   1.949   8.444   5.554 -0.0195  2.9388  1.3824
 5463SOL     OW19343   8.120   6.710   4.424  0.0771  0.0314  0.6519
 5463SOL    HW119344   8.154   6.720   4.335 -1.1360 -0.4119  0.1195
 5463SOL    HW219345   8.174   6.768   4.477  0.2176  1.0294 -0.5358
 5464SOL     OW19346   5.013  10.445   2.689  0.1351 -0.1641  0.2942
 5464SOL    HW119347   5.048  10.458   2.777  1.1592  1.1264 -0.2818
 5464SOL    HW219348   5.047  10.360   2.661  1.8272  0.5136  0.2261
 5465SOL     OW19349  10.515   9.998   5.911  0.5589  0.2515 -0.8690
 5465SOL    HW119350  10.421   9.998   5.930  1.0479  0.5093  2.0682
 5465SOL    HW219351  10.528   9.921   5.856 -1.0761 -1.2833  0.7490
 5466SOL     OW19352   3.570   0.607   6.378 -0.2281  0.2902 -0.2294
 5466SOL    HW119353   3.599   0.519   6.355 -2.4876 -0.4019 -0.6789
 5466SOL    HW219354   3.475   0.599   6.391 -0.6425  2.8001 -1.0569
 5467SOL     OW19355   0.178   4.711   8.584 -0.0657  0.6965  0.2234
 5467SOL    HW119356   0.244   4.642   8.590 -0.7895 -0.0684 -0.4247
 5467SOL    HW219357   0.106   4.680   8.638 -1.0742  0.1403 -1.3888
 5468SOL     OW19358   9.683   7.350   3.083  0.1478 -0.0008 -0.3898
 5468SOL    HW119359   9.633   7.334   3.163  0.8585 -0.3328 -0.0008
 5468SOL    HW219360   9.645   7.291   3.018 -0.1712 -0.0206 -0.1843
 5469SOL     OW19361   4.688   1.356   0.166 -0.1375 -0.1718 -0.0946
 5469SOL    HW119362   4.679   1.266   0.196  0.7894 -0.4716 -0.6736
 5469SOL    HW219363   4.776   1.360   0.128 -0.2661  0.9054 -0.3154
 5470SOL     OW19364   2.480   8.698   9.895 -0.4247 -0.1377 -0.3216
 5470SOL    HW119365   2.446   8.614   9.925  1.5521 -0.6502  0.6431
 5470SOL    HW219366   2.457   8.760   9.964  1.4114 -0.6988  0.8607
 5471SOL     OW19367   4.399   5.139   1.289 -0.1673  0.0319 -0.2367
 5471SOL    HW119368   4.352   5.065   1.250  0.1437  0.5620 -1.6791
 5471SOL    HW219369   4.436   5.186   1.214  1.2682  0.5653  0.7630
 5472SOL     OW19370   6.763   4.833   6.951 -0.2469 -0.5063  0.1732
 5472SOL    HW119371   6.758   4.919   6.910 -1.5878 -1.3791 -1.5928
 5472SOL    HW219372   6.828   4.785   6.899  0.6869 -0.5213  1.3055
 5473SOL     OW19373   3.514   2.503   1.174 -0.3762  0.1438 -0.1484
 5473SOL    HW119374   3.547   2.517   1.263 -0.3835 -0.5280 -0.0372
 5473SOL    HW219375   3.431   2.458   1.186 -0.3152 -0.0663 -0.4964
 5474SOL     OW19376   6.589   9.886  10.301 -0.0745 -0.2997 -0.2690
 5474SOL    HW119377   6.581   9.921  10.213  1.1521  0.7270 -0.0042
 5474SOL    HW219378   6.528   9.812  10.303 -1.9510  1.1227 -1.1961
 5475SOL     OW19379   3.870   6.585   2.030 -0.6997  0.1721  0.0022
 5475SOL    HW119380   3.910   6.528   1.964 -0.6134  1.5774 -1.2374
 5475SOL    HW219381   3.837   6.659   1.979 -0.9988  1.1164  1.5184
 5476SOL     OW19382   1.474   5.521  10.323  0.6914 -0.0091 -0.1761
 5476SOL    HW119383   1.457   5.613  10.344  0.7465  0.1882 -0.9525
 5476SOL    HW219384   1.530   5.491  10.395  2.3552  1.1400 -0.9034
 5477SOL     OW19385   0.326   8.563   6.294 -0.3128  0.6490 -0.5492
 5477SOL    HW119386   0.309   8.496   6.360  0.6269 -0.0301 -0.9758
 5477SOL    HW219387   0.418   8.585   6.304 -0.6162  1.9587 -0.3613
 5478SOL     OW19388   1.573  10.523   9.901  0.5989  0.2911  0.6042
 5478SOL    HW119389   1.491  10.474   9.913  0.8005 -0.2954 -0.3322
 5478SOL    HW219390   1.564  10.563   9.815  2.3877 -1.9578 -0.7116
 5479SOL     OW19391  10.535   3.658   4.172  0.7072 -0.4135  0.2520
 5479SOL    HW119392  10.495   3.575   4.147  1.8771 -0.8214 -0.2874
 5479SOL    HW219393  10.521   3.715   4.096  2.4449 -1.0226 -0.5637
 5480SOL     OW19394   5.552   3.614   6.718  0.1092  0.4306  0.1419
 5480SOL    HW119395   5.618   3.666   6.764  2.6233 -2.3193 -0.1345
 5480SOL    HW219396   5.590   3.597   6.632 -0.9630 -1.1839 -0.0529
 5481SOL     OW19397   1.864   2.615   8.845 -0.3952 -0.7233 -0.5840
 5481SOL    HW119398   1.927   2.613   8.917 -1.2793  0.0079  0.2181
 5481SOL    HW219399   1.851   2.523   8.823  1.0652 -0.8833 -0.8708
 5482SOL     OW19400   2.656   1.200   5.049 -0.2077  0.0585 -0.3582
 5482SOL    HW119401   2.681   1.108   5.044  2.1629  0.6385 -0.2845
 5482SOL    HW219402   2.595   1.212   4.976  2.1225 -0.8319 -2.6166
 5483SOL     OW19403   8.343   9.593   2.936  0.7606  0.0802  0.3955
 5483SOL    HW119404   8.300   9.569   3.018 -0.1655  1.8758  0.4898
 5483SOL    HW219405   8.412   9.654   2.962  0.8217  0.2333 -0.1111
 5484SOL     OW19406   1.342   3.487   7.551 -0.0582 -0.6807 -0.1242
 5484SOL    HW119407   1.335   3.469   7.457 -0.3058  0.2060 -0.2809
 5484SOL    HW219408   1.431   3.460   7.574 -0.4307 -2.1872 -0.3144
 5485SOL     OW19409   1.394   6.594   7.287  0.1463  0.1610  0.3758
 5485SOL    HW119410   1.379   6.561   7.375  3.7676  0.0813  1.0776
 5485SOL    HW219411   1.385   6.518   7.230 -1.3794  0.0626  0.6831
 5486SOL     OW19412   8.005   7.675   2.109  0.1055 -0.1624 -0.2642
 5486SOL    HW119413   7.984   7.768   2.095 -0.4365 -0.0920  0.9361
 5486SOL    HW219414   7.952   7.649   2.184 -0.0483 -1.5633 -0.8321
 5487SOL     OW19415   9.795   8.825   4.955  0.2008 -0.0103  0.3021
 5487SOL    HW119416   9.887   8.848   4.948  0.6742 -1.9038 -0.1037
 5487SOL    HW219417   9.755   8.862   4.876  0.8259 -0.1363 -0.0775
 5488SOL     OW19418   2.486   0.569   3.615 -0.5443  0.1510 -0.0014
 5488SOL    HW119419   2.422   0.620   3.664 -0.7001 -1.6116  1.8008
 5488SOL    HW219420   2.536   0.523   3.683  0.4048 -1.0839 -1.4716
 5489SOL     OW19421   7.443   7.954   1.655 -0.5287 -0.0333 -0.1620
 5489SOL    HW119422   7.476   7.885   1.597  2.2665  1.5604 -0.6770
 5489SOL    HW219423   7.484   7.935   1.740 -0.4777  0.4600 -0.0733
 5490SOL     OW19424   4.314   2.338   0.447 -0.5918  0.5301 -0.5421
 5490SOL    HW119425   4.257   2.356   0.522 -0.8318 -1.4838 -0.1685
 5490SOL    HW219426   4.402   2.337   0.483 -0.6014  0.6735 -0.5149
 5491SOL     OW19427   2.991   3.855   5.190  0.4997  0.1105  0.4379
 5491SOL    HW119428   3.070   3.892   5.229  0.6653  0.5893 -0.3374
 5491SOL    HW219429   2.960   3.922   5.129  0.1419 -0.5413 -0.1139
 5492SOL     OW19430   9.402   1.079   3.994  0.2631  0.2819  0.4274
 5492SOL    HW119431   9.437   1.164   3.969  0.7066 -0.1733 -0.5623
 5492SOL    HW219432   9.365   1.043   3.913 -1.1532  0.0961  1.1161
 5493SOL     OW19433   8.782   8.855   2.558  0.0211 -0.0529  0.0987
 5493SOL    HW119434   8.866   8.823   2.524 -0.6342 -0.1414 -1.5690
 5493SOL    HW219435   8.778   8.946   2.530 -0.2584  0.0767  0.5552
 5494SOL     OW19436   5.904   4.732   9.864  0.1102 -0.0534  0.1188
 5494SOL    HW119437   5.853   4.672   9.919 -0.5887  0.1973 -0.2498
 5494SOL    HW219438   5.919   4.684   9.783  0.5174 -0.1442  0.2415
 5495SOL     OW19439   1.175   8.581   2.992  0.4821  0.2386  0.3377
 5495SOL    HW119440   1.194   8.662   3.040  1.1570 -0.1273  0.6964
 5495SOL    HW219441   1.084   8.560   3.015  0.9021 -0.1204  1.7390
 5496SOL     OW19442   1.369   2.772   0.873 -0.1605 -0.3613 -0.1228
 5496SOL    HW119443   1.367   2.862   0.905 -1.8442  0.3429 -2.0460
 5496SOL    HW219444   1.293   2.730   0.914  0.9062 -1.1287  1.1785
 5497SOL     OW19445  10.066   3.012   7.989 -0.5230  0.0398  0.1113
 5497SOL    HW119446   9.972   3.017   7.970 -0.5669 -1.3628 -0.1299
 5497SOL    HW219447  10.103   2.965   7.914  0.4466  0.9225  0.0108
 5498SOL     OW19448  10.274   9.646   9.804  0.3464 -0.7911 -0.1530
 5498SOL    HW119449  10.182   9.622   9.818 -0.5514  1.1223 -2.1596
 5498SOL    HW219450  10.289   9.718   9.865 -0.2184  0.3064 -1.2398
 5499SOL     OW19451   4.570   9.430   0.343 -0.6575  0.3996 -0.0279
 5499SOL    HW119452   4.627   9.439   0.419  0.1645  0.2170 -0.6079
 5499SOL    HW219453   4.547   9.338   0.341 -0.3070  0.3155 -0.2580
 5500SOL     OW19454   9.228   0.519   9.690 -0.3270  0.5754 -0.2800
 5500SOL    HW119455   9.244   0.447   9.751  0.1684  0.5497 -0.4409
 5500SOL    HW219456   9.214   0.595   9.746 -0.2603  0.4737 -0.1248
 5501SOL     OW19457   8.037   0.602   7.818  0.1393  0.1232 -0.1335
 5501SOL    HW119458   8.100   0.530   7.817 -0.5738 -0.5343  0.7655
 5501SOL    HW219459   7.963   0.568   7.869 -0.5078  1.2423 -0.3063
 5502SOL     OW19460   4.185   6.821   9.858 -0.1998 -0.4778 -0.0083
 5502SOL    HW119461   4.111   6.880   9.874 -1.4183 -1.6476 -1.1760
 5502SOL    HW219462   4.211   6.792   9.946 -1.0158  0.0553  0.4249
 5503SOL     OW19463   4.049   5.911   2.681  0.0491 -0.5423 -0.4177
 5503SOL    HW119464   4.050   5.847   2.752 -1.1432  0.9924  1.0781
 5503SOL    HW219465   3.959   5.946   2.681  1.3404  3.2953  0.9457
 5504SOL     OW19466   8.607   4.079   8.655  0.0452  0.5266  0.4857
 5504SOL    HW119467   8.629   4.101   8.565 -1.2666 -0.0343  0.0082
 5504SOL    HW219468   8.602   4.163   8.700  0.4628  0.8228 -0.0193
 5505SOL     OW19469   4.112   9.888   1.073  0.3269  0.6050 -0.1774
 5505SOL    HW119470   4.102   9.796   1.049  1.6824  0.3014  0.3397
 5505SOL    HW219471   4.101   9.890   1.168 -0.6322  1.1291 -0.2925
 5506SOL     OW19472   2.220   6.607  10.527 -0.2136  0.0934 -0.3335
 5506SOL    HW119473   2.298   6.575  10.573  0.3671  1.8715 -0.0093
 5506SOL    HW219474   2.180   6.528  10.490  0.5296 -1.1222  1.3249
 5507SOL     OW19475   6.842   8.848   3.861 -0.1388  0.6585 -0.1849
 5507SOL    HW119476   6.774   8.854   3.794 -0.0606  1.9690 -0.1655
 5507SOL    HW219477   6.795   8.847   3.944 -0.1622  0.7046 -0.1981
 5508SOL     OW19478   7.569  10.664   1.704  0.1303 -0.2798 -0.2607
 5508SOL    HW119479   7.510  10.736   1.726  0.6817  0.2621 -0.5398
 5508SOL    HW219480   7.511  10.587   1.698 -0.4576  0.1275  0.0579
 5509SOL     OW19481  10.558   1.907   6.931 -0.3523 -0.1611 -0.0330
 5509SOL    HW119482  10.568   2.000   6.913  0.0449 -0.2369 -0.2160
 5509SOL    HW219483  10.523   1.871   6.850 -0.0428 -0.2494 -0.1281
 5510SOL     OW19484   2.318   3.108   3.809  0.6994 -0.0053 -0.4202
 5510SOL    HW119485   2.373   3.046   3.760  0.9533 -0.7213  0.7300
 5510SOL    HW219486   2.251   3.135   3.747  2.2644  0.8136 -1.8546
 5511SOL     OW19487   5.174   5.127   8.912 -0.1655 -0.4069 -0.4781
 5511SOL    HW119488   5.156   5.077   8.833  0.3393 -0.8488 -0.3193
 5511SOL    HW219489   5.197   5.061   8.978  0.8963  0.0453 -0.3679
 5512SOL     OW19490   9.757   1.859   3.427 -0.0302 -0.2070  0.2679
 5512SOL    HW119491   9.827   1.925   3.429 -0.5252  0.3107  1.1672
 5512SOL    HW219492   9.737   1.849   3.334 -0.2060  1.2106  0.1317
 5513SOL     OW19493   3.315   0.618   5.960  0.3651  0.2765  0.5010
 5513SOL    HW119494   3.394   0.586   6.003 -0.6491 -2.6663  0.4231
 5513SOL    HW219495   3.343   0.694   5.909  3.2252 -0.8762  0.2047
 5514SOL     OW19496   9.060   9.474   7.623  0.5009  0.2511 -0.1712
 5514SOL    HW119497   9.118   9.437   7.557 -0.4626  2.3608 -2.3725
 5514SOL    HW219498   9.116   9.487   7.700  2.2103 -0.3989 -1.2522
 5515SOL     OW19499   3.172   8.846   7.584 -0.1827 -0.3509  0.5902
 5515SOL    HW119500   3.117   8.922   7.605 -0.2292  0.3642 -1.8132
 5515SOL    HW219501   3.111   8.781   7.549 -0.0213 -1.1809  1.8253
 5516SOL     OW19502   7.704   1.195   2.522  0.2527  0.4466 -0.0431
 5516SOL    HW119503   7.747   1.218   2.604  1.0192 -0.5717 -0.1453
 5516SOL    HW219504   7.625   1.148   2.549 -0.9082  2.3743  0.1460
 5517SOL     OW19505  10.359   9.345   0.297 -0.0571 -0.1435 -0.2187
 5517SOL    HW119506  10.391   9.358   0.208 -0.1768 -0.4580 -0.3087
 5517SOL    HW219507  10.385   9.425   0.344 -0.3451  0.1974 -0.6330
 5518SOL     OW19508   2.098   6.822   0.657  0.4841 -0.1473 -0.3523
 5518SOL    HW119509   2.131   6.753   0.714 -1.3056  0.0620  1.0180
 5518SOL    HW219510   2.032   6.779   0.602  0.6756  0.0983 -0.7797
 5519SOL     OW19511   5.304   8.204   5.820 -0.3105 -0.4461  0.0335
 5519SOL    HW119512   5.377   8.174   5.767 -0.2129  0.2117 -0.2247
 5519SOL    HW219513   5.341   8.220   5.906  1.0346  4.2117 -1.1022
 5520SOL     OW19514   9.582  10.170  10.155 -0.0503  0.2003  0.3577
 5520SOL    HW119515   9.602  10.145  10.246  1.0211  0.8735  0.3254
 5520SOL    HW219516   9.560  10.263  10.160  2.8116  1.0310 -0.3855
 5521SOL     OW19517   8.183   8.001   8.804 -0.0140 -0.3694  0.0290
 5521SOL    HW119518   8.143   8.071   8.752 -1.2773 -1.2956 -0.2922
 5521SOL    HW219519   8.109   7.961   8.851  0.2874 -2.9166 -1.4770
 5522SOL     OW19520   6.963   6.147   6.042  0.3446  0.2077 -0.3003
 5522SOL    HW119521   6.945   6.095   5.963  2.2815  0.8544 -1.2282
 5522SOL    HW219522   6.983   6.082   6.109 -3.1052 -0.4555  0.2726
 5523SOL     OW19523   9.746   6.289   9.789 -0.1227 -0.1464 -0.3092
 5523SOL    HW119524   9.733   6.215   9.730  2.8615 -0.2800 -0.9641
 5523SOL    HW219525   9.716   6.365   9.740 -0.4841 -0.5877 -0.7767
 5524SOL     OW19526   2.429   9.078   9.091  0.0286 -0.0324 -0.3678
 5524SOL    HW119527   2.418   8.984   9.076  0.5135 -0.0900 -0.3662
 5524SOL    HW219528   2.472   9.110   9.012  0.8273 -0.0018  0.0666
 5525SOL     OW19529   6.420   3.162   3.777 -0.0303  0.1686  0.3401
 5525SOL    HW119530   6.438   3.145   3.685 -0.2190 -1.2276  0.5481
 5525SOL    HW219531   6.460   3.247   3.793 -2.0123  1.6001 -1.6062
 5526SOL     OW19532   9.057   6.491   1.527 -0.0076  0.2814  0.4836
 5526SOL    HW119533   8.982   6.434   1.544 -1.1736  0.9214 -2.0492
 5526SOL    HW219534   9.131   6.431   1.513 -1.1007 -0.6785 -1.6635
 5527SOL     OW19535   2.992   9.888   0.266 -0.1592 -1.1265  0.6736
 5527SOL    HW119536   3.071   9.922   0.224  0.7779  0.0130  3.1902
 5527SOL    HW219537   2.925   9.891   0.198  0.9315  1.8558 -0.3937
 5528SOL     OW19538   2.443   8.324   5.380 -0.0590 -0.4984 -0.1680
 5528SOL    HW119539   2.421   8.406   5.335 -1.3034 -0.0536  1.1879
 5528SOL    HW219540   2.523   8.295   5.337  0.0275  1.0523 -1.1659
 5529SOL     OW19541   6.777  10.347   0.806 -0.0876 -0.5425 -0.3138
 5529SOL    HW119542   6.704  10.304   0.850 -0.7540  1.7779  0.9786
 5529SOL    HW219543   6.737  10.418   0.756  1.0490 -0.8882 -1.7810
 5530SOL     OW19544   4.512   7.414   4.396  0.6247  0.0509  0.1931
 5530SOL    HW119545   4.459   7.482   4.438  0.2554  0.0461 -0.2630
 5530SOL    HW219546   4.545   7.455   4.316 -0.8837 -0.7846 -0.8977
 5531SOL     OW19547   6.541   5.986  10.142  0.3959  0.3352  0.4326
 5531SOL    HW119548   6.586   5.918  10.191  1.3615 -0.4283 -1.4391
 5531SOL    HW219549   6.448   5.975  10.165  0.6415 -1.0071  0.8320
 5532SOL     OW19550   3.112   8.395   4.354  0.1600 -0.2606  0.1873
 5532SOL    HW119551   3.112   8.450   4.432 -0.9232 -0.5431  0.3999
 5532SOL    HW219552   3.199   8.355   4.353  0.6541  0.7698  0.5047
 5533SOL     OW19553   9.234   9.063   4.812 -0.6526  0.1519 -0.1729
 5533SOL    HW119554   9.191   9.013   4.881 -0.8753  0.8478  0.2003
 5533SOL    HW219555   9.178   9.049   4.735 -0.1874 -0.9419 -0.3259
 5534SOL     OW19556   5.851   0.995   5.984 -0.0493 -0.0726 -0.4168
 5534SOL    HW119557   5.897   0.919   5.950 -1.3457 -1.6577  1.1836
 5534SOL    HW219558   5.913   1.034   6.046 -0.5647 -1.9112  1.3706
 5535SOL     OW19559  10.486   4.540   5.284  0.1450 -0.5991 -0.1885
 5535SOL    HW119560  10.500   4.559   5.191 -2.0368  0.9245 -0.2669
 5535SOL    HW219561  10.392   4.555   5.298  0.7531  1.3190  2.7192
 5536SOL     OW19562   2.379   8.499   1.212  0.3797 -0.1966  0.0678
 5536SOL    HW119563   2.457   8.495   1.156 -0.8786 -2.9112 -1.6511
 5536SOL    HW219564   2.312   8.541   1.158 -0.3396 -1.1598  0.1872
 5537SOL     OW19565   5.053   7.631   4.533 -0.1061 -0.3728 -0.2308
 5537SOL    HW119566   5.004   7.688   4.474  0.2210  0.0166 -0.1266
 5537SOL    HW219567   5.092   7.690   4.597  3.6060 -0.1995 -2.3926
 5538SOL     OW19568   8.518   8.822   1.154  0.3355  0.2848  0.2750
 5538SOL    HW119569   8.464   8.867   1.218  1.8717  1.3494  0.8682
 5538SOL    HW219570   8.606   8.824   1.190  0.9264 -0.7543 -1.0061
 5539SOL     OW19571   2.232   9.576   7.111 -0.2294  0.5252 -0.5018
 5539SOL    HW119572   2.242   9.543   7.021 -0.1985 -2.0768  0.3673
 5539SOL    HW219573   2.212   9.669   7.100  1.4341  0.7008 -3.1350
 5540SOL     OW19574   5.297   8.521   6.947  0.1591 -0.1894 -0.3139
 5540SOL    HW119575   5.317   8.511   7.040  0.0750 -3.1025 -0.5149
 5540SOL    HW219576   5.205   8.545   6.944  0.5608  1.6080  0.3306
 5541SOL     OW19577  10.495  10.664   8.893  0.4274  0.7805 -0.6566
 5541SOL    HW119578  10.579  10.639   8.930  0.3858  1.0255 -0.3860
 5541SOL    HW219579  10.475  10.596   8.829  0.4866  0.3316 -0.2035
 5542SOL     OW19580   9.106   6.584  10.693 -0.3582  0.3379  0.3646
 5542SOL    HW119581   9.023   6.581  10.645 -0.5096  0.9875  0.5661
 5542SOL    HW219582   9.173   6.580  10.625 -0.4966 -1.8471  0.2820
 5543SOL     OW19583   8.216   3.234   7.349 -0.2578  0.2859 -0.4731
 5543SOL    HW119584   8.306   3.229   7.381 -0.6371  1.7637  0.9634
 5543SOL    HW219585   8.165   3.188   7.415 -0.6754  0.4631 -0.6697
 5544SOL     OW19586   9.089  10.245   4.678  0.0649 -0.3244  0.2659
 5544SOL    HW119587   9.112  10.164   4.633  1.7407  0.1132  0.2750
 5544SOL    HW219588   9.066  10.305   4.608 -1.9177 -0.9660  0.2909
 5545SOL     OW19589   7.439   4.401   6.318 -0.2342  0.1338 -0.0385
 5545SOL    HW119590   7.351   4.402   6.282  0.1728 -1.1344 -1.1411
 5545SOL    HW219591   7.467   4.310   6.314  2.1572  0.8349 -2.4279
 5546SOL     OW19592  10.415   8.986   1.321  0.0845  0.3203 -0.2634
 5546SOL    HW119593  10.436   8.925   1.250 -0.4512 -1.0049  0.6729
 5546SOL    HW219594  10.382   9.064   1.277  0.7406 -0.0767 -1.5039
 5547SOL     OW19595   1.570   6.082   4.944  0.6891  0.0529  0.1034
 5547SOL    HW119596   1.510   6.043   5.008 -0.5253  1.6151 -0.0117
 5547SOL    HW219597   1.656   6.048   4.968  0.1001 -0.3639  1.8004
 5548SOL     OW19598   1.311   7.355   8.919 -0.5072 -0.3839 -0.0161
 5548SOL    HW119599   1.373   7.401   8.976 -0.6462  0.6530 -0.6749
 5548SOL    HW219600   1.231   7.350   8.971 -0.7743  0.9570 -0.2423
 5549SOL     OW19601   0.787   6.515   2.731  0.1775  0.1358  0.2456
 5549SOL    HW119602   0.829   6.483   2.811 -1.9274  0.3867  1.5554
 5549SOL    HW219603   0.764   6.436   2.682  0.4967 -0.0785  0.4380
 5550SOL     OW19604   1.638   9.426   1.863 -0.4253  0.3663 -0.2090
 5550SOL    HW119605   1.670   9.372   1.791 -3.1441 -0.2359 -1.0547
 5550SOL    HW219606   1.682   9.511   1.851  0.5251 -0.2762 -1.4791
 5551SOL     OW19607  10.506   5.586   2.124 -0.0315 -0.7416  0.0817
 5551SOL    HW119608  10.512   5.658   2.188 -0.4246  0.2026 -0.9167
 5551SOL    HW219609  10.468   5.626   2.046  0.6205 -1.8376 -0.8258
 5552SOL     OW19610   0.276   6.163   1.152 -0.0284  0.7704 -0.5101
 5552SOL    HW119611   0.213   6.187   1.221 -0.1360 -0.8833  0.0004
 5552SOL    HW219612   0.346   6.228   1.160 -0.6517  1.3656  0.3075
 5553SOL     OW19613  10.160   0.860  10.245  0.3279 -0.2818  0.7416
 5553SOL    HW119614  10.074   0.830  10.275  1.6752 -2.4881  2.6747
 5553SOL    HW219615  10.197   0.785  10.198  1.1573  0.7079 -0.2382
 5554SOL     OW19616   2.177   5.277   7.021  0.3542  0.0525 -0.4381
 5554SOL    HW119617   2.170   5.318   7.107  0.5417  1.4012 -1.0316
 5554SOL    HW219618   2.137   5.340   6.961  0.3610 -0.7939 -1.3681
 5555SOL     OW19619   3.548   5.469   6.865  0.2237  0.0967  0.3693
 5555SOL    HW119620   3.641   5.457   6.884  0.3129 -0.6825 -0.4810
 5555SOL    HW219621   3.539   5.445   6.773 -0.9451 -0.5477  0.6307
 5556SOL     OW19622  10.264   7.786  10.561  0.1697  0.1776  0.3643
 5556SOL    HW119623  10.225   7.851  10.619 -0.0188  1.2784 -0.9240
 5556SOL    HW219624  10.313   7.728  10.619 -1.3491  0.2300  1.7597
 5557SOL     OW19625  10.000   7.221   0.871  0.6535  0.2380 -0.1732
 5557SOL    HW119626  10.057   7.252   0.942  0.0852  2.1523 -0.4883
 5557SOL    HW219627   9.920   7.191   0.916 -0.3142  2.8190  0.0187
 5558SOL     OW19628   9.873   0.078   4.686  0.4192 -0.4298 -0.1301
 5558SOL    HW119629   9.858  -0.017   4.691 -0.9914 -0.2366 -0.2995
 5558SOL    HW219630   9.801   0.116   4.735  0.9229  0.5687 -0.1511
 5559SOL     OW19631   1.318   5.933   3.977  0.5871 -0.0140 -0.1845
 5559SOL    HW119632   1.321   5.837   3.973  0.4636 -0.0141 -0.2667
 5559SOL    HW219633   1.270   5.959   3.898 -0.6269  0.0507  0.5552
 5560SOL     OW19634   7.211   5.638  10.411 -0.2157  0.3303 -1.1153
 5560SOL    HW119635   7.160   5.578  10.358 -0.2550 -0.5168 -0.1379
 5560SOL    HW219636   7.243   5.704  10.349 -1.0770 -0.0754 -2.0091
 5561SOL     OW19637   5.793   4.249   8.279 -0.1604  0.3147 -0.1948
 5561SOL    HW119638   5.707   4.242   8.237  0.7511  0.9992 -2.3441
 5561SOL    HW219639   5.823   4.337   8.257  0.1648  0.9394  2.4867
 5562SOL     OW19640   4.375   6.272   7.277 -0.6522 -0.2861 -0.1245
 5562SOL    HW119641   4.320   6.316   7.212 -0.2134  1.3578  0.5886
 5562SOL    HW219642   4.374   6.329   7.353  0.3032 -1.2969  0.6832
 5563SOL     OW19643   4.763   4.968   1.218  0.3856  0.3278 -0.2695
 5563SOL    HW119644   4.778   4.951   1.125  0.4526  1.0929 -0.4081
 5563SOL    HW219645   4.689   4.912   1.241  0.9121 -0.5145 -0.5662
 5564SOL     OW19646   6.400  10.490   2.939  0.0192  0.1106 -0.2589
 5564SOL    HW119647   6.314  10.520   2.907  0.8392  1.6063 -1.1820
 5564SOL    HW219648   6.457  10.497   2.863  1.1438 -0.0873  0.5494
 5565SOL     OW19649   3.308  10.094   5.450  0.1181 -0.6341 -0.1163
 5565SOL    HW119650   3.344  10.056   5.370  1.0538 -0.5455  0.2461
 5565SOL    HW219651   3.289  10.018   5.506 -1.8641 -0.7932 -0.9225
 5566SOL     OW19652  10.012   1.324   7.778 -0.3341  0.4851  0.7061
 5566SOL    HW119653  10.006   1.325   7.683  0.0759  0.5887  0.6765
 5566SOL    HW219654  10.017   1.416   7.803  0.1026  0.4459  0.7833
 5567SOL     OW19655   7.160   4.341   9.357 -0.0732 -0.0323  0.1135
 5567SOL    HW119656   7.072   4.305   9.373 -0.7320  1.3325 -0.3208
 5567SOL    HW219657   7.191   4.367   9.444  0.7373 -2.2517  0.5638
 5568SOL     OW19658   0.742   1.337   2.433 -0.2603  0.1278  0.6126
 5568SOL    HW119659   0.729   1.412   2.375  1.3303  0.1753  0.2940
 5568SOL    HW219660   0.680   1.271   2.401  1.3653 -0.2866 -1.9323
 5569SOL     OW19661   5.288   5.493   8.148  0.0692  0.4083 -0.1268
 5569SOL    HW119662   5.356   5.519   8.211  0.9297 -1.2810 -0.2823
 5569SOL    HW219663   5.330   5.502   8.063 -0.0459 -0.1941 -0.2526
 5570SOL     OW19664   4.832   1.711   1.200 -0.0794 -0.3586  0.2133
 5570SOL    HW119665   4.873   1.669   1.125  0.1474 -0.5031  0.4185
 5570SOL    HW219666   4.888   1.786   1.220 -0.2909 -0.1591  0.0671
 5571SOL     OW19667   9.139  10.565   5.507  0.0749  0.1284  0.3135
 5571SOL    HW119668   9.112  10.587   5.418 -1.4141 -0.2269  0.6517
 5571SOL    HW219669   9.147  10.470   5.508  1.6088  0.2158  0.1885
 5572SOL     OW19670   5.310   5.367   7.280 -0.1893  0.1556  0.2870
 5572SOL    HW119671   5.362   5.327   7.350  0.1763 -0.7069 -0.4683
 5572SOL    HW219672   5.264   5.294   7.240  0.3534  0.5041 -1.0061
 5573SOL     OW19673   8.772   6.525   6.669 -0.2723 -0.4941 -0.2720
 5573SOL    HW119674   8.799   6.441   6.632  0.5523  0.4200 -1.8465
 5573SOL    HW219675   8.743   6.576   6.594  2.1211  1.6986  0.1744
 5574SOL     OW19676   5.781   5.711   2.646 -0.5138 -0.2375  0.6962
 5574SOL    HW119677   5.874   5.713   2.624 -0.7115 -1.1738 -0.3264
 5574SOL    HW219678   5.739   5.764   2.578 -0.7141  0.4133  1.3146
 5575SOL     OW19679   2.571   5.620   7.308 -0.3213  0.3448  0.0838
 5575SOL    HW119680   2.524   5.611   7.225 -0.2394  1.0240 -0.0443
 5575SOL    HW219681   2.663   5.629   7.282 -0.4046  1.6248  0.1739
 5576SOL     OW19682   6.693   5.094   4.443  0.1985 -0.3144 -0.2622
 5576SOL    HW119683   6.701   5.040   4.365  1.8411  1.1860 -1.2163
 5576SOL    HW219684   6.603   5.083   4.471 -0.3616 -1.0930 -2.2264
 5577SOL     OW19685   8.574   8.992   6.879 -0.5106  0.0459 -0.6148
 5577SOL    HW119686   8.588   9.062   6.942 -2.6639 -0.0964  0.1164
 5577SOL    HW219687   8.493   8.950   6.908 -0.9276 -0.7884 -2.8173
 5578SOL     OW19688   0.537   6.853   1.761 -0.2211  0.6333 -0.0055
 5578SOL    HW119689   0.445   6.864   1.783 -0.5457 -0.2390 -0.8382
 5578SOL    HW219690   0.568   6.942   1.741 -0.6306  1.0476  1.1719
 5579SOL     OW19691   5.895   7.607   7.028 -0.3204  0.2488 -0.1526
 5579SOL    HW119692   5.931   7.690   6.996 -1.2952  0.2151 -1.3826
 5579SOL    HW219693   5.805   7.628   7.051 -1.0117 -0.7548 -1.8004
 5580SOL     OW19694   6.377   8.514   8.825  0.0778  0.1801  0.0465
 5580SOL    HW119695   6.351   8.464   8.902 -1.1272 -0.0958 -0.5288
 5580SOL    HW219696   6.399   8.448   8.759 -0.3788  0.4054 -0.3370
 5581SOL     OW19697   0.658   4.744   0.673 -0.0719  0.2028  0.3219
 5581SOL    HW119698   0.657   4.840   0.663  0.4566  0.1336 -0.5616
 5581SOL    HW219699   0.750   4.720   0.658 -0.3599 -0.5184 -0.3527
 5582SOL     OW19700   9.208   6.840   5.780  0.5113 -0.2882  0.4135
 5582SOL    HW119701   9.162   6.756   5.779 -2.1623  1.0442 -0.4978
 5582SOL    HW219702   9.180   6.880   5.863  3.0412 -0.8586  1.6197
 5583SOL     OW19703   4.946   4.890   3.314  0.0342  0.1930 -0.3153
 5583SOL    HW119704   4.920   4.831   3.385 -2.1004  1.7725  0.3040
 5583SOL    HW219705   4.987   4.965   3.357  1.3369 -0.0848 -0.9952
 5584SOL     OW19706   5.459   3.970   6.651  0.3916 -0.3261 -0.0838
 5584SOL    HW119707   5.428   3.930   6.732 -0.7715 -0.1911 -0.4544
 5584SOL    HW219708   5.504   3.900   6.605  1.9709 -0.1682  1.1131
 5585SOL     OW19709   6.694   7.689   7.023 -0.0839 -0.2975  0.6742
 5585SOL    HW119710   6.723   7.774   7.057  0.6082  0.0455 -0.7075
 5585SOL    HW219711   6.699   7.631   7.098  0.1114  0.7216  1.4825
 5586SOL     OW19712   0.660   3.924   8.725  0.3293 -0.0548  0.2023
 5586SOL    HW119713   0.725   3.861   8.756 -2.4991 -4.0356 -1.0072
 5586SOL    HW219714   0.627   3.966   8.804  1.0620 -1.5263  1.3388
 5587SOL     OW19715   2.116   5.212   7.815 -0.0240  0.6045 -0.2640
 5587SOL    HW119716   2.156   5.198   7.730  1.7157 -0.0363  0.6143
 5587SOL    HW219717   2.022   5.217   7.797  0.3843  1.9773 -2.3846
 5588SOL     OW19718   7.194   0.209   2.126  0.1953 -0.1488  0.0910
 5588SOL    HW119719   7.164   0.299   2.113 -0.8389 -0.7700 -2.5652
 5588SOL    HW219720   7.289   0.216   2.129  0.1518  0.9964 -0.5766
 5589SOL     OW19721   6.840   4.766   5.415  0.0043 -0.4197 -0.5900
 5589SOL    HW119722   6.895   4.705   5.365 -0.3853  0.8897 -2.7140
 5589SOL    HW219723   6.751   4.749   5.385 -0.3968 -0.3641  0.5177
 5590SOL     OW19724   7.309   0.501   7.109  0.1215  0.3641  0.1018
 5590SOL    HW119725   7.225   0.480   7.068 -0.2118  0.5291  0.6978
 5590SOL    HW219726   7.339   0.580   7.063 -0.0667  0.3307 -0.0805
 5591SOL     OW19727   3.103   0.355   2.428  0.0395  0.2933  0.0959
 5591SOL    HW119728   3.060   0.347   2.343  1.0468  0.5900 -0.4511
 5591SOL    HW219729   3.032   0.345   2.492 -0.8064  0.6062 -0.7809
 5592SOL     OW19730   8.986   8.047   0.834 -0.8694  0.1462  0.1906
 5592SOL    HW119731   9.055   8.113   0.833 -0.7849  0.0587  0.1202
 5592SOL    HW219732   8.934   8.068   0.911 -1.6457  1.1142 -0.5707
 5593SOL     OW19733   6.565   8.427   8.589 -0.1138 -0.3973  0.2921
 5593SOL    HW119734   6.648   8.453   8.549  0.5311  0.0949  1.8698
 5593SOL    HW219735   6.579   8.338   8.619 -1.7116 -2.1084 -3.4378
 5594SOL     OW19736   1.758   2.157   9.285 -0.2900  0.0537  0.7165
 5594SOL    HW119737   1.727   2.214   9.355 -0.5397  0.2329  0.4616
 5594SOL    HW219738   1.834   2.112   9.323 -1.0150 -0.5975  1.4457
 5595SOL     OW19739   0.688   1.625   0.855  0.3101  0.1232  0.1709
 5595SOL    HW119740   0.695   1.547   0.801 -0.2622 -1.0005  1.6508
 5595SOL    HW219741   0.659   1.694   0.795 -0.2403 -1.0636 -0.9569
 5596SOL     OW19742  10.239   1.900   1.901 -0.7061  0.1894  0.5757
 5596SOL    HW119743  10.279   1.982   1.932 -0.5860  0.6378 -0.7167
 5596SOL    HW219744  10.264   1.835   1.966  0.4697  0.8707  0.8291
 5597SOL     OW19745   9.325   6.063   5.088  0.5192 -0.0640  0.1110
 5597SOL    HW119746   9.243   6.037   5.046 -0.6626  0.8352  1.7435
 5597SOL    HW219747   9.352   6.142   5.041  1.9186 -1.7969 -2.1559
 5598SOL     OW19748   9.428   2.530   0.326  0.1321  0.2297 -0.1016
 5598SOL    HW119749   9.457   2.513   0.416 -1.3073  0.0392  0.3585
 5598SOL    HW219750   9.475   2.610   0.300 -1.0253  1.5569  1.6286
 5599SOL     OW19751   7.341   7.502   8.337 -0.6350 -0.5438 -0.3797
 5599SOL    HW119752   7.275   7.443   8.373 -2.6089  1.7490 -0.0011
 5599SOL    HW219753   7.298   7.542   8.261  0.6173  0.4141 -0.6157
 5600SOL     OW19754   2.038   0.050   1.590  0.4927  0.6354 -0.0148
 5600SOL    HW119755   2.127   0.077   1.612  0.8599 -2.4412  3.0259
 5600SOL    HW219756   1.982   0.108   1.641  0.7760  1.4761 -0.6336
 5601SOL     OW19757  10.168   4.520   9.455 -0.0294  0.4833  0.1362
 5601SOL    HW119758  10.159   4.465   9.533  2.1459  0.2912  0.3048
 5601SOL    HW219759  10.140   4.464   9.383 -1.2421  0.3775  0.6561
 5602SOL     OW19760   7.576  10.084   5.176 -0.0853  0.0176  0.3657
 5602SOL    HW119761   7.553  10.099   5.268  0.3472  0.8755  0.3441
 5602SOL    HW219762   7.655  10.137   5.162 -0.4889  0.3689 -0.6529
 5603SOL     OW19763   0.290   6.682   1.610  0.4603 -0.2390 -0.4773
 5603SOL    HW119764   0.348   6.614   1.645 -0.3450 -0.9155 -0.4042
 5603SOL    HW219765   0.234   6.635   1.549  1.8156  0.9170 -2.7156
 5604SOL     OW19766   1.125   4.978   9.081  0.6519 -0.6476  0.1058
 5604SOL    HW119767   1.121   5.067   9.116 -0.2995 -1.9921  3.8374
 5604SOL    HW219768   1.217   4.953   9.090  0.2253 -1.4697  3.4740
 5605SOL     OW19769   9.541   4.053   4.521  0.5860 -0.4546 -0.4272
 5605SOL    HW119770   9.585   4.138   4.524  2.1966 -1.1500 -2.4622
 5605SOL    HW219771   9.565   4.015   4.437 -1.2079 -2.3753 -0.1814
 5606SOL     OW19772   7.471   9.361   1.560  0.2861  0.2780  0.1487
 5606SOL    HW119773   7.449   9.285   1.507 -0.8943 -0.1778  1.2487
 5606SOL    HW219774   7.561   9.346   1.588 -0.7512 -2.1647  2.6135
 5607SOL     OW19775   5.952   4.743   6.688  0.0877  0.4701  0.6395
 5607SOL    HW119776   5.873   4.700   6.657 -0.7404  2.2911  0.1052
 5607SOL    HW219777   5.922   4.801   6.758  1.1578  0.2644  1.2925
 5608SOL     OW19778   8.013   5.883   4.081  0.2488  0.3075 -0.0072
 5608SOL    HW119779   7.982   5.802   4.039  0.7471 -0.0311  0.2668
 5608SOL    HW219780   8.108   5.874   4.083  0.5525  2.0095 -2.2258
 5609SOL     OW19781   4.982   9.614   5.546 -0.3292 -0.5756 -0.3839
 5609SOL    HW119782   4.958   9.627   5.454 -1.8105 -0.0535  0.0411
 5609SOL    HW219783   5.076   9.630   5.548 -0.1304 -1.2826 -1.9174
 5610SOL     OW19784   8.830   2.812   5.031  0.8641  0.1592 -0.7597
 5610SOL    HW119785   8.849   2.824   5.124  0.3276  0.5351 -0.6906
 5610SOL    HW219786   8.734   2.807   5.027  0.6769  2.8252 -1.5687
 5611SOL     OW19787   6.254   6.449   3.065  0.2549  0.2187  0.3516
 5611SOL    HW119788   6.274   6.446   3.159  2.4610  3.7960  0.1782
 5611SOL    HW219789   6.170   6.495   3.060 -0.8970 -1.7157  0.5109
 5612SOL     OW19790   3.962   2.117   1.233 -0.1198  0.3626  0.3010
 5612SOL    HW119791   3.882   2.170   1.238  0.6275  1.4652  1.1572
 5612SOL    HW219792   4.014   2.160   1.164  0.7947  1.2248  1.4836
 5613SOL     OW19793   4.102   4.626   3.399  0.4219  0.0604  0.0528
 5613SOL    HW119794   4.094   4.629   3.304  3.0383 -0.0800 -0.2565
 5613SOL    HW219795   4.142   4.710   3.423  1.4589 -0.6121  0.7816
 5614SOL     OW19796   5.932   5.343   6.110  0.1684  0.0337 -0.2115
 5614SOL    HW119797   5.960   5.427   6.074  1.5330  0.8502  2.5270
 5614SOL    HW219798   5.864   5.364   6.173  1.4410 -0.6754  1.4912
 5615SOL     OW19799   9.943   9.283   8.910 -0.1585  0.3189  0.1928
 5615SOL    HW119800   9.986   9.355   8.865 -0.1889  0.1134 -0.1689
 5615SOL    HW219801   9.938   9.311   9.001  0.9202  0.2651  0.2810
 5616SOL     OW19802   3.798   8.814   4.092  0.6471  0.0178  0.0371
 5616SOL    HW119803   3.834   8.773   4.013  0.4156 -0.6362  0.2565
 5616SOL    HW219804   3.730   8.873   4.059  1.4037  0.7003 -0.3277
 5617SOL     OW19805   5.167   2.498   9.956  0.1839 -0.0558  0.0537
 5617SOL    HW119806   5.257   2.468   9.943  0.9032  0.1517  3.5105
 5617SOL    HW219807   5.115   2.418   9.956  1.0636 -0.7087  2.1656
 5618SOL     OW19808   2.331   3.851   9.893 -0.5745 -0.6567 -0.6885
 5618SOL    HW119809   2.306   3.908   9.966  1.4116 -1.9575  1.1642
 5618SOL    HW219810   2.295   3.893   9.815 -0.3594  2.3767  0.7058
 5619SOL     OW19811   1.874  10.168   5.891 -0.2713 -0.0536 -0.3895
 5619SOL    HW119812   1.874  10.241   5.829 -0.2723 -0.8443 -1.3374
 5619SOL    HW219813   1.946  10.112   5.863 -1.3040 -1.2649 -0.6997
 5620SOL     OW19814   5.146   9.143   2.153 -0.2637  0.3012 -0.7692
 5620SOL    HW119815   5.176   9.063   2.111 -0.4909 -1.3189  1.9130
 5620SOL    HW219816   5.217   9.168   2.212 -0.9825  0.9672 -0.1572
 5621SOL     OW19817   8.683   0.078   1.620 -0.2510 -0.2838 -0.2846
 5621SOL    HW119818   8.769   0.098   1.583 -0.1990  0.4671  0.2082
 5621SOL    HW219819   8.646   0.164   1.642 -0.1137 -0.6773  1.7475
 5622SOL     OW19820   1.837   8.788   9.121 -0.4087  0.5372  0.2076
 5622SOL    HW119821   1.764   8.839   9.154  2.2779  3.3892  2.3449
 5622SOL    HW219822   1.854   8.824   9.034 -1.3513 -0.0237 -0.2279
 5623SOL     OW19823   4.871   4.202   7.883 -1.0254 -0.0834  0.2016
 5623SOL    HW119824   4.848   4.116   7.848  3.9194 -1.9605  0.7277
 5623SOL    HW219825   4.903   4.251   7.807  0.7373 -0.6206  0.5543
 5624SOL     OW19826   9.879  10.070   4.679  0.0500  0.0152  0.0184
 5624SOL    HW119827   9.867   9.975   4.690  3.2105 -0.6357 -0.8423
 5624SOL    HW219828   9.879  10.083   4.584  0.1114  0.7804  0.1185
 5625SOL     OW19829   7.901   4.133  10.629  0.6839 -0.7023 -0.7786
 5625SOL    HW119830   7.985   4.146  10.673 -1.1392  0.6922  2.7171
 5625SOL    HW219831   7.856   4.066  10.682 -1.6489  1.0610 -0.3291
 5626SOL     OW19832   1.560   7.706   2.656 -0.9596  0.0896  0.6763
 5626SOL    HW119833   1.508   7.785   2.642 -2.3605 -1.0294 -0.7211
 5626SOL    HW219834   1.576   7.705   2.751 -1.0050  1.9516  0.7559
 5627SOL     OW19835   7.198   3.402   4.478 -0.8980 -0.1430 -0.1036
 5627SOL    HW119836   7.257   3.327   4.462 -3.1380 -2.2673  0.9410
 5627SOL    HW219837   7.220   3.431   4.566 -1.2576 -0.8185  0.2164
 5628SOL     OW19838   4.816   8.023   2.702  0.0345 -0.4721  0.1533
 5628SOL    HW119839   4.864   7.949   2.664 -0.5221 -1.4666  1.3440
 5628SOL    HW219840   4.737   7.985   2.740 -0.7695  0.8798 -0.0775
 5629SOL     OW19841   4.400   7.471   7.889  0.1290  0.4281 -0.0991
 5629SOL    HW119842   4.370   7.546   7.939 -1.3118 -1.4524  2.0866
 5629SOL    HW219843   4.484   7.448   7.927 -1.5517 -1.8230  2.7573
 5630SOL     OW19844   9.655   1.278   4.491 -0.0675 -0.1207 -0.0018
 5630SOL    HW119845   9.615   1.199   4.528 -1.1974  1.6549  2.9802
 5630SOL    HW219846   9.592   1.308   4.425  0.4009 -1.6677 -1.1998
 5631SOL     OW19847   1.524   4.395   0.909 -0.3627  0.0996 -0.8965
 5631SOL    HW119848   1.598   4.353   0.953 -0.1066  1.5285  0.1011
 5631SOL    HW219849   1.452   4.334   0.921 -0.0406 -0.0188  0.6559
 5632SOL     OW19850   5.866   6.700   6.876  0.4755  0.2358 -0.2604
 5632SOL    HW119851   5.854   6.631   6.810  1.5213 -1.0575  0.8199
 5632SOL    HW219852   5.789   6.756   6.868 -0.9732 -1.6891 -0.4846
 5633SOL     OW19853   0.468   0.537   7.880  0.3080 -0.0001 -0.3926
 5633SOL    HW119854   0.481   0.595   7.955  2.7824 -0.3760 -0.4595
 5633SOL    HW219855   0.452   0.451   7.920  1.5238 -0.1813 -0.2744
 5634SOL     OW19856   6.943   3.372   8.777 -0.4915 -0.0612  0.0433
 5634SOL    HW119857   7.030   3.377   8.739 -0.9383  1.4235 -0.8844
 5634SOL    HW219858   6.939   3.447   8.837 -1.5072  0.5972 -0.8142
 5635SOL     OW19859   1.556   1.178  10.593 -0.0950 -0.2238  0.1218
 5635SOL    HW119860   1.585   1.088  10.608 -0.9130 -0.5675 -0.2858
 5635SOL    HW219861   1.492   1.194  10.662 -0.9196 -0.4230 -0.5769
 5636SOL     OW19862   2.198   2.398   2.059  0.2249  0.1973  0.4888
 5636SOL    HW119863   2.150   2.320   2.089 -1.9711  1.3622  0.2618
 5636SOL    HW219864   2.177   2.404   1.966  1.9399  0.0428  0.0613
 5637SOL     OW19865   4.016   6.366  10.361 -0.0371  0.0153 -0.2335
 5637SOL    HW119866   4.072   6.414  10.300  0.7379 -1.6504 -0.8736
 5637SOL    HW219867   4.076   6.337  10.431 -0.6079  0.4756  0.4619
 5638SOL     OW19868   3.336   2.389   7.760  0.5833 -0.1639 -0.1452
 5638SOL    HW119869   3.385   2.309   7.781  1.5065  0.5635  0.5572
 5638SOL    HW219870   3.403   2.457   7.751 -0.2907  0.9453  1.2699
 5639SOL     OW19871   3.938   6.327   0.936  0.0000 -0.0180 -0.1504
 5639SOL    HW119872   4.023   6.370   0.939 -0.3464  0.7465 -0.6572
 5639SOL    HW219873   3.957   6.236   0.916  0.6287  0.6364 -3.0860
 5640SOL     OW19874   4.174   3.904   3.055  0.0718  0.2399  0.2816
 5640SOL    HW119875   4.263   3.893   3.087  0.4891  0.8510 -0.6312
 5640SOL    HW219876   4.181   3.971   2.986 -0.9868 -0.1499 -0.2281
 5641SOL     OW19877   0.465   6.956   0.374 -0.0499 -0.2407  0.2158
 5641SOL    HW119878   0.440   7.018   0.443  0.7254 -0.1176  0.3904
 5641SOL    HW219879   0.489   6.876   0.421 -0.0022 -0.3233  0.0528
 5642SOL     OW19880   5.425   5.491   6.246 -0.2218 -0.1893 -0.8494
 5642SOL    HW119881   5.489   5.523   6.184 -0.8236  1.6879 -0.5465
 5642SOL    HW219882   5.340   5.520   6.212 -0.7948 -1.3506 -0.4800
 5643SOL     OW19883   2.273   1.333   2.647  0.3674 -0.7028 -0.2228
 5643SOL    HW119884   2.314   1.419   2.658 -0.0045 -0.5902  0.3228
 5643SOL    HW219885   2.183   1.353   2.623  0.5506 -0.9489 -1.1571
 5644SOL     OW19886   7.020  10.180   5.786 -0.0147  0.1088  0.1448
 5644SOL    HW119887   7.070  10.100   5.770  0.1604 -0.0433  1.3602
 5644SOL    HW219888   7.016  10.224   5.701  2.7179  0.4292  0.1091
 5645SOL     OW19889   4.105   5.762   5.087  0.0750  0.6512 -0.4926
 5645SOL    HW119890   4.125   5.836   5.144  0.2598  0.2883 -0.0751
 5645SOL    HW219891   4.135   5.685   5.136 -1.7825  0.1298 -0.0991
 5646SOL     OW19892   7.168   4.633   9.689 -0.3251  0.3636  0.4429
 5646SOL    HW119893   7.154   4.694   9.761 -0.4540 -0.1026  0.8167
 5646SOL    HW219894   7.249   4.664   9.648 -0.0195  0.3882  1.0474
 5647SOL     OW19895   5.495   9.312   2.006 -0.0423  0.3938 -0.1241
 5647SOL    HW119896   5.403   9.301   2.033 -0.1235 -0.8521 -0.8373
 5647SOL    HW219897   5.527   9.382   2.062 -0.9975 -0.1855  1.2360
 5648SOL     OW19898   5.311   3.231   1.605  0.0537 -0.2060 -0.0758
 5648SOL    HW119899   5.331   3.198   1.693  0.8243  0.0642 -0.1379
 5648SOL    HW219900   5.397   3.242   1.564 -0.1534  1.7449 -0.1057
 5649SOL     OW19901   1.002   7.447   7.838  0.1676 -0.3237 -0.6528
 5649SOL    HW119902   1.001   7.401   7.922 -0.0720 -0.1470 -0.5553
 5649SOL    HW219903   0.910   7.455   7.814  0.2590 -0.8767 -1.2199
 5650SOL     OW19904   1.302   3.614   0.138 -0.3525 -0.4376 -0.3188
 5650SOL    HW119905   1.230   3.555   0.115  1.6511 -2.9664 -0.6442
 5650SOL    HW219906   1.359   3.613   0.061  1.4553 -0.8957  0.9528
 5651SOL     OW19907   1.911   7.056   6.270 -0.2237 -0.0715  0.5091
 5651SOL    HW119908   1.886   7.082   6.182  1.1236  1.1345  0.4446
 5651SOL    HW219909   1.910   6.960   6.268 -0.3697 -0.0581 -0.7510
 5652SOL     OW19910   1.946   5.315   9.204 -0.0774  0.0726  0.1680
 5652SOL    HW119911   2.025   5.306   9.151  0.2902 -1.3762  0.8807
 5652SOL    HW219912   1.963   5.388   9.263  0.6998 -0.1522  0.2269
 5653SOL     OW19913   0.005   7.812   8.249  0.2425  0.3942 -0.2734
 5653SOL    HW119914  -0.056   7.797   8.177 -1.3861  1.5840  0.7835
 5653SOL    HW219915   0.034   7.724   8.274 -0.7707 -0.1816 -1.0392
 5654SOL     OW19916   6.563   6.306   0.090 -0.5258 -0.1835 -0.2475
 5654SOL    HW119917   6.630   6.320   0.158 -0.9619  1.4603 -0.1165
 5654SOL    HW219918   6.595   6.354   0.015 -1.8231  1.1382  0.0047
 5655SOL     OW19919   4.631   9.388   2.181  0.5673  0.3728 -0.8121
 5655SOL    HW119920   4.544   9.416   2.210  1.1475 -0.3115  1.8124
 5655SOL    HW219921   4.618   9.298   2.150  0.3911  0.1144 -0.0132
 5656SOL     OW19922   3.643   5.669   7.494  0.2205 -0.3851 -0.0281
 5656SOL    HW119923   3.582   5.677   7.421 -0.7178 -3.5092  0.2687
 5656SOL    HW219924   3.640   5.577   7.518  3.1361 -0.1551  1.7268
 5657SOL     OW19925  10.560   6.922   4.537  0.5926  0.9481 -0.0285
 5657SOL    HW119926  10.607   6.998   4.504  0.6068  1.2200  0.5929
 5657SOL    HW219927  10.589   6.913   4.628 -1.4947  1.9262  0.7963
 5658SOL     OW19928   1.172   0.423   2.832 -0.2120  0.0649 -0.0550
 5658SOL    HW119929   1.119   0.453   2.758 -1.2666 -0.6837  0.3646
 5658SOL    HW219930   1.202   0.503   2.874 -1.4184  0.5388 -0.0338
 5659SOL     OW19931   8.748   3.364  10.240  0.5510 -0.3103 -0.5876
 5659SOL    HW119932   8.768   3.333  10.329  0.3177 -0.7607 -0.6901
 5659SOL    HW219933   8.805   3.440  10.228  0.3276 -0.0247  0.0858
 5660SOL     OW19934   9.230   4.662   6.137 -0.0534  0.1991  0.3914
 5660SOL    HW119935   9.294   4.619   6.192 -0.8327 -0.0447  1.1338
 5660SOL    HW219936   9.264   4.751   6.126  0.9548 -0.2400 -0.1519
 5661SOL     OW19937   7.456   4.382   8.337 -0.2293  0.3087  0.1268
 5661SOL    HW119938   7.520   4.424   8.395 -1.4810  0.8160  1.1763
 5661SOL    HW219939   7.413   4.455   8.292 -0.5753 -0.0027 -0.0493
 5662SOL     OW19940   1.708   3.474   9.559 -0.0005  0.1566 -0.1456
 5662SOL    HW119941   1.734   3.560   9.527  1.0244  0.3043  0.9901
 5662SOL    HW219942   1.663   3.433   9.486  0.9059  1.0495 -1.2357
 5663SOL     OW19943  10.589   7.604   3.776  0.1229 -0.2188  0.6703
 5663SOL    HW119944  10.613   7.526   3.827  1.1637 -0.3584 -0.0141
 5663SOL    HW219945  10.583   7.573   3.686 -0.8126  0.2203  0.5713
 5664SOL     OW19946   0.500   8.383   1.509 -0.1353  0.3107 -0.4329
 5664SOL    HW119947   0.482   8.291   1.525  1.7951 -0.0898 -0.3062
 5664SOL    HW219948   0.473   8.427   1.590  1.1900 -0.4987  0.4865
 5665SOL     OW19949  10.080   7.642   7.045 -0.4701  0.4999  0.2054
 5665SOL    HW119950  10.052   7.611   6.959  0.1974  0.0621  0.1407
 5665SOL    HW219951   9.998   7.658   7.092 -0.8820 -1.8871  0.4245
 5666SOL     OW19952   0.438   9.645   7.625 -0.4360 -0.2971  0.1205
 5666SOL    HW119953   0.348   9.616   7.640 -0.0353 -1.3681  0.5899
 5666SOL    HW219954   0.483   9.567   7.591  0.6982 -0.2724  1.4592
 5667SOL     OW19955   3.383   1.782   6.322  0.3378  0.3410 -0.1596
 5667SOL    HW119956   3.299   1.804   6.282  0.0928 -0.3389 -0.0362
 5667SOL    HW219957   3.417   1.710   6.269  1.3690  1.3108 -0.8837
 5668SOL     OW19958   3.383   6.012   8.790 -0.9844 -0.3196  0.2239
 5668SOL    HW119959   3.298   6.050   8.772 -1.0478 -0.5169  0.0991
 5668SOL    HW219960   3.446   6.069   8.745 -1.0534 -0.2003  0.2789
 5669SOL     OW19961   9.477   5.766   8.167 -0.4672  0.0989 -0.0179
 5669SOL    HW119962   9.533   5.829   8.122  0.8247 -0.8374  0.2179
 5669SOL    HW219963   9.505   5.770   8.259 -2.3955  1.2665  0.5890
 5670SOL     OW19964   7.242   4.497   6.819 -0.0090 -0.0404  0.1975
 5670SOL    HW119965   7.314   4.504   6.756 -0.7520 -0.8919 -0.7975
 5670SOL    HW219966   7.240   4.404   6.843 -1.0159 -0.1049 -0.1036
 5671SOL     OW19967   8.663  10.334   1.044  0.1383  0.0602  0.3449
 5671SOL    HW119968   8.686  10.395   1.113 -1.8264 -1.2885  2.3105
 5671SOL    HW219969   8.573  10.307   1.064  0.2663 -2.0304 -1.4927
 5672SOL     OW19970  10.175   9.833   0.881 -0.6432  0.3535 -0.2898
 5672SOL    HW119971  10.246   9.867   0.936  0.1720  0.0289 -1.1094
 5672SOL    HW219972  10.109   9.801   0.943 -0.0792  0.6647  0.4879
 5673SOL     OW19973   2.500   6.701   2.542  0.1192 -0.3584 -0.1223
 5673SOL    HW119974   2.492   6.615   2.584  1.2875 -0.0367  0.7970
 5673SOL    HW219975   2.515   6.762   2.614 -0.8336  0.6657 -0.7495
 5674SOL     OW19976   6.794   8.535   1.409 -0.5388  0.0866 -0.2431
 5674SOL    HW119977   6.839   8.455   1.437  2.1909  1.1916 -1.1399
 5674SOL    HW219978   6.786   8.526   1.314 -1.0233  0.5037 -0.2452
 5675SOL     OW19979   2.049  10.383   8.803 -0.4491  0.2123  0.0351
 5675SOL    HW119980   2.023  10.359   8.892  0.2193 -0.6775  0.0086
 5675SOL    HW219981   1.967  10.401   8.758 -0.7275  3.0265  1.4269
 5676SOL     OW19982   3.132  10.315   2.255 -0.5781 -0.1994 -0.3883
 5676SOL    HW119983   3.178  10.322   2.171  1.2868 -1.0413  0.4968
 5676SOL    HW219984   3.053  10.266   2.235  0.6736 -1.9115 -1.4053
 5677SOL     OW19985   4.911   4.828   0.531 -0.1663 -0.1789 -0.2336
 5677SOL    HW119986   4.869   4.906   0.565  1.8171  0.7340  0.3114
 5677SOL    HW219987   4.988   4.817   0.587 -0.0688 -2.1724 -0.6985
 5678SOL     OW19988   6.504   0.233   5.007  0.9145  0.0625 -0.0568
 5678SOL    HW119989   6.513   0.189   5.091  2.3442  1.3061  0.4911
 5678SOL    HW219990   6.494   0.161   4.944  1.0603 -0.9472  1.0232
 5679SOL     OW19991   8.394   1.210   7.067  0.4279  0.0500  0.3942
 5679SOL    HW119992   8.351   1.295   7.074  0.9694  0.3642  0.0011
 5679SOL    HW219993   8.339   1.161   7.006  0.4127  0.3162  0.1899
 5680SOL     OW19994   0.500   3.245   2.673  0.4013  0.1959  0.2485
 5680SOL    HW119995   0.537   3.247   2.585 -0.2940 -1.9909 -0.1548
 5680SOL    HW219996   0.411   3.213   2.661  0.1742  0.2156  1.7069
 5681SOL     OW19997   0.316   9.062   5.657  0.0395  0.3138 -0.2515
 5681SOL    HW119998   0.269   9.015   5.726 -0.3065  1.0474  0.0214
 5681SOL    HW219999   0.266   9.042   5.577  1.0035 -1.3379 -0.4909
 5682SOL     OW20000   6.641  10.047   0.272  0.4078  0.1216  0.3238
 5682SOL    HW120001   6.569   9.991   0.243  1.4137 -1.0512 -0.0188
 5682SOL    HW220002   6.717   9.989   0.273  1.3298  1.2954  0.7939
 5683SOL     OW20003   4.433   6.874   7.521  0.4092 -0.1649 -0.2245
 5683SOL    HW120004   4.463   6.787   7.493 -1.0677 -0.5034 -0.8505
 5683SOL    HW220005   4.429   6.925   7.440  0.8357  0.3599  0.0810
 5684SOL     OW20006   7.592   8.580   0.909  0.6892  0.4163  0.1844
 5684SOL    HW120007   7.562   8.590   0.999 -0.2392  0.7772 -0.1517
 5684SOL    HW220008   7.559   8.657   0.863  0.7956  0.0379 -0.5568
 5685SOL     OW20009   7.240   1.914   0.273 -0.2524 -0.7691  0.3233
 5685SOL    HW120010   7.307   1.982   0.268  0.4965 -1.3071  2.2956
 5685SOL    HW220011   7.246   1.868   0.189  1.2333 -0.2422  0.1103
 5686SOL     OW20012   8.980   0.334   4.053  0.2137  0.4767 -0.2075
 5686SOL    HW120013   8.907   0.386   4.086  0.6411  1.1569 -0.3381
 5686SOL    HW220014   8.986   0.260   4.113  0.4344  1.2489  0.7380
 5687SOL     OW20015   7.961   9.679   3.328 -0.1051 -0.0850 -0.3472
 5687SOL    HW120016   8.022   9.641   3.264  0.5344 -2.3773  1.4974
 5687SOL    HW220017   8.017   9.707   3.400 -0.6758  3.5927 -1.1195
 5688SOL     OW20018   8.108   4.886   7.144 -0.1025  0.5927  0.6543
 5688SOL    HW120019   8.036   4.870   7.083 -0.8704  1.2449  1.3666
 5688SOL    HW220020   8.187   4.877   7.091 -0.7655  2.3440 -0.7293
 5689SOL     OW20021   1.798   4.629   3.067 -0.2161 -0.0079  0.0798
 5689SOL    HW120022   1.722   4.634   3.125  1.1730  1.1044  1.8881
 5689SOL    HW220023   1.858   4.570   3.111  0.5216  0.1883 -0.6458
 5690SOL     OW20024   4.004   2.997   9.659 -0.1785 -0.1279  0.0249
 5690SOL    HW120025   3.987   2.959   9.745 -0.2439  2.6244  1.3327
 5690SOL    HW220026   3.928   3.053   9.641  1.6835  2.6578  0.2193
 5691SOL     OW20027   1.769   2.444   7.021  0.3976 -0.0154  0.0384
 5691SOL    HW120028   1.779   2.532   6.985  0.3615  0.3912  0.9732
 5691SOL    HW220029   1.850   2.399   6.996  1.1085  0.7732  0.8224
 5692SOL     OW20030   6.751   5.432   1.269  0.2411  0.5335 -0.5269
 5692SOL    HW120031   6.752   5.338   1.249  0.4744  0.8037 -1.9372
 5692SOL    HW220032   6.831   5.465   1.228  0.9491  1.1330  1.2399
 5693SOL     OW20033   6.694   0.717   1.459 -0.5290 -0.3941 -0.1110
 5693SOL    HW120034   6.630   0.784   1.433  1.3017  0.2151 -3.7475
 5693SOL    HW220035   6.763   0.766   1.505 -1.9370 -0.8619  2.6832
 5694SOL     OW20036   6.427   7.063   1.811 -0.4530  0.1410  0.5281
 5694SOL    HW120037   6.410   6.969   1.800  0.6789 -0.0835  0.6189
 5694SOL    HW220038   6.355   7.094   1.866 -1.3065 -0.4954 -0.1909
 5695SOL     OW20039   5.397   2.904   4.716 -0.0971  0.3461  0.0333
 5695SOL    HW120040   5.315   2.862   4.741 -0.1070  0.5058  0.2724
 5695SOL    HW220041   5.386   2.996   4.741  0.1838  0.3518  0.1459
 5696SOL     OW20042   5.184   3.327   0.309 -0.1629 -0.3601 -0.8321
 5696SOL    HW120043   5.131   3.367   0.378  0.6165 -0.4044 -0.1923
 5696SOL    HW220044   5.125   3.322   0.234 -0.2149  2.2880 -1.0594
 5697SOL     OW20045   8.738   5.108   8.612 -0.4588 -0.0882  0.8776
 5697SOL    HW120046   8.800   5.035   8.606 -0.1462  0.2828 -1.6486
 5697SOL    HW220047   8.689   5.092   8.693 -0.3754 -3.0765  0.4523
 5698SOL     OW20048   9.105   5.959   0.102 -0.0079  0.1929 -0.0267
 5698SOL    HW120049   9.090   6.038   0.050  2.8135 -0.5740 -2.2245
 5698SOL    HW220050   9.049   5.893   0.061 -0.6163  0.4470  0.3636
 5699SOL     OW20051   2.323   2.015  10.258 -0.0713  0.1157 -0.0347
 5699SOL    HW120052   2.368   1.941  10.300  1.2182 -0.1959 -1.8035
 5699SOL    HW220053   2.230   1.993  10.262  0.2493 -1.3006  0.0366
 5700SOL     OW20054   7.512  10.682   9.462  0.3425 -0.2894  0.0560
 5700SOL    HW120055   7.502  10.606   9.520  0.6701 -0.3958 -0.0232
 5700SOL    HW220056   7.606  10.696   9.458  0.2337  0.9751  1.1635
 5701SOL     OW20057   3.144   0.725   4.211 -0.1276 -0.2139 -0.2872
 5701SOL    HW120058   3.139   0.631   4.196 -0.3455 -0.2453 -0.0346
 5701SOL    HW220059   3.062   0.760   4.178 -0.3385 -0.2037  0.2321
 5702SOL     OW20060   7.088   3.387   8.265  0.3190  0.0369 -0.5272
 5702SOL    HW120061   7.060   3.300   8.294 -2.2375  0.4443 -1.4425
 5702SOL    HW220062   7.145   3.370   8.190 -1.3828 -0.9060 -1.6812
 5703SOL     OW20063   6.389   2.886   5.591  0.2977  0.2055  0.3414
 5703SOL    HW120064   6.461   2.879   5.654  0.1339  0.3276  0.5428
 5703SOL    HW220065   6.320   2.932   5.638  0.1096  0.1451  0.1275
 5704SOL     OW20066   0.813   4.492   4.156  0.3401 -0.0787  0.2306
 5704SOL    HW120067   0.871   4.466   4.085 -0.1377  0.5970 -0.4181
 5704SOL    HW220068   0.725   4.493   4.117  0.1001  0.5258  0.7578
 5705SOL     OW20069   0.320   5.835   2.824 -0.1442  0.2096 -0.5307
 5705SOL    HW120070   0.359   5.766   2.878 -0.7039 -0.1295 -0.5407
 5705SOL    HW220071   0.245   5.792   2.783 -0.9582  1.0207  0.0543
 5706SOL     OW20072   1.118   2.443   9.715 -0.2526  0.1786  0.3645
 5706SOL    HW120073   1.051   2.393   9.668  1.1116 -0.8859 -0.5272
 5706SOL    HW220074   1.201   2.401   9.691  0.9643  2.6699 -0.1516
 5707SOL     OW20075   2.291   6.012   8.537 -0.3032  0.0412 -0.1523
 5707SOL    HW120076   2.239   6.005   8.457 -0.0400  0.4537 -0.3603
 5707SOL    HW220077   2.235   5.972   8.605 -0.9813  0.6653 -0.3280
 5708SOL     OW20078   8.433   9.618   3.729  0.1151  0.2048  0.4717
 5708SOL    HW120079   8.437   9.576   3.642  1.4348 -0.4442  0.8107
 5708SOL    HW220080   8.387   9.700   3.714 -2.9989 -1.4827 -0.1478
 5709SOL     OW20081   8.623   0.708   2.631 -0.5746  0.3545  0.3435
 5709SOL    HW120082   8.588   0.684   2.545 -1.2765  0.9108  0.4671
 5709SOL    HW220083   8.567   0.662   2.693 -0.0095 -0.1217  0.5145
 5710SOL     OW20084   6.505   4.489   8.301 -0.0355  0.2761 -0.2600
 5710SOL    HW120085   6.486   4.469   8.209 -1.0806  0.9148 -0.2093
 5710SOL    HW220086   6.542   4.577   8.299 -0.2466  0.3705 -0.0525
 5711SOL     OW20087   0.079   7.688   3.020 -0.4789  0.1102  0.3527
 5711SOL    HW120088   0.147   7.698   3.087 -0.2789 -1.4944  0.4155
 5711SOL    HW220089   0.002   7.731   3.057 -0.5189 -1.1929  1.8614
 5712SOL     OW20090   5.904   7.606   7.412  0.7037  0.2003 -0.2157
 5712SOL    HW120091   5.957   7.527   7.412 -0.6217 -0.7251  0.2391
 5712SOL    HW220092   5.915   7.643   7.324 -0.7808 -1.9874 -1.3962
 5713SOL     OW20093   7.307   7.683   6.853  0.0913 -0.5266 -0.1297
 5713SOL    HW120094   7.316   7.590   6.871  1.4344 -0.1817  1.1589
 5713SOL    HW220095   7.361   7.698   6.775  0.4983 -0.6997  0.1155
 5714SOL     OW20096   6.875   1.330   1.384 -0.3578 -0.0204 -0.2337
 5714SOL    HW120097   6.939   1.279   1.434 -1.8062 -0.2361  1.4920
 5714SOL    HW220098   6.841   1.269   1.319  1.8854  0.3913 -1.9356
 5715SOL     OW20099  10.517  10.503   9.714  0.1492 -0.3770 -0.3776
 5715SOL    HW120100  10.457  10.480   9.784 -1.7258  0.9768 -1.4474
 5715SOL    HW220101  10.514  10.599   9.710  0.2861 -0.4095 -2.2016
 5716SOL     OW20102   7.458  10.512   3.379 -0.1208 -0.1132  0.0291
 5716SOL    HW120103   7.495  10.442   3.324 -0.6313 -0.5473  0.2290
 5716SOL    HW220104   7.364  10.496   3.377 -0.1389 -0.1964  1.1118
 5717SOL     OW20105   2.363   8.739   5.864 -0.0881 -0.0964 -0.0887
 5717SOL    HW120106   2.363   8.698   5.951  0.5409 -0.6229 -0.3315
 5717SOL    HW220107   2.361   8.833   5.882 -3.1930 -0.1560  0.4845
 5718SOL     OW20108  10.165   3.798   7.638 -0.2166  0.2786  0.2067
 5718SOL    HW120109  10.131   3.771   7.723  2.4795 -0.2264  1.2377
 5718SOL    HW220110  10.233   3.733   7.619  0.0235  1.0641 -1.7918
 5719SOL     OW20111   0.464   8.003   2.553  0.1427 -0.5996 -0.1592
 5719SOL    HW120112   0.532   7.971   2.494  0.3782 -1.5757  0.6122
 5719SOL    HW220113   0.386   8.011   2.497  0.7136 -0.1104 -0.9024
 5720SOL     OW20114   9.785   3.105   2.609  0.3192  0.3232  0.7570
 5720SOL    HW120115   9.745   3.122   2.695 -0.5761 -0.8362  0.5860
 5720SOL    HW220116   9.855   3.043   2.628  0.3424  0.3269  0.6834
 5721SOL     OW20117   7.527   1.241   3.164  0.2779  0.0628  0.5826
 5721SOL    HW120118   7.573   1.158   3.173  1.1709  0.2632 -1.5721
 5721SOL    HW220119   7.596   1.306   3.151 -0.5024  0.6044 -1.1366
 5722SOL     OW20120   7.415   8.399   9.124  0.4067  0.3815  0.2557
 5722SOL    HW120121   7.452   8.312   9.140 -0.1707  0.0938  0.0288
 5722SOL    HW220122   7.474   8.438   9.059  0.0872 -0.2342 -0.4141
 5723SOL     OW20123   4.679  10.695   5.183 -0.0249  0.1387  0.3374
 5723SOL    HW120124   4.612  10.735   5.238 -0.8236  0.2525 -0.6911
 5723SOL    HW220125   4.635  10.620   5.143  1.1657 -1.2125  1.4732
 5724SOL     OW20126   8.749   7.537   1.606  0.1275 -0.0356  0.3043
 5724SOL    HW120127   8.838   7.520   1.575 -0.5125 -1.4156 -0.8401
 5724SOL    HW220128   8.712   7.596   1.540 -0.7891 -1.9145 -0.9417
 5725SOL     OW20129   0.949   0.964   5.133 -0.3810  0.3971 -0.2490
 5725SOL    HW120130   0.921   0.948   5.223  0.8542  1.3336  0.3192
 5725SOL    HW220131   1.036   0.925   5.127 -0.7151 -0.2434 -1.2504
 5726SOL     OW20132   7.510   2.483   0.615 -0.2828  0.1722  0.2627
 5726SOL    HW120133   7.456   2.420   0.662  0.2425  0.0570  0.7170
 5726SOL    HW220134   7.450   2.524   0.553 -0.6349 -0.7840 -0.0556
 5727SOL     OW20135   1.627  10.206   4.109  0.3317  0.0195  0.1409
 5727SOL    HW120136   1.623  10.175   4.019 -0.0747  3.4252 -1.1340
 5727SOL    HW220137   1.536  10.205   4.139  0.4306 -0.8158  0.4441
 5728SOL     OW20138   9.445   5.283   7.619 -0.5335  0.0464 -0.4213
 5728SOL    HW120139   9.431   5.269   7.525 -1.7962  1.4262 -0.4717
 5728SOL    HW220140   9.374   5.342   7.646 -1.4683 -1.9332  1.8451
 5729SOL     OW20141   9.496   3.040   3.500  0.8631 -0.4793 -0.1451
 5729SOL    HW120142   9.560   3.053   3.570  0.5990 -3.4105  0.8129
 5729SOL    HW220143   9.512   2.950   3.470 -1.5448 -0.6291 -1.1991
 5730SOL     OW20144   2.842   0.436   7.268  0.1855 -0.4481 -0.3063
 5730SOL    HW120145   2.773   0.494   7.237 -0.2541 -1.6200 -1.6757
 5730SOL    HW220146   2.868   0.472   7.353 -1.1741  0.7845 -0.3671
 5731SOL     OW20147  10.067   3.815   5.141 -0.3941 -0.1765  0.7182
 5731SOL    HW120148  10.157   3.786   5.152 -1.0433 -1.4284  3.7798
 5731SOL    HW220149  10.024   3.744   5.093  0.0383  0.0822 -0.0721
 5732SOL     OW20150   2.927   6.261   9.816  0.2760 -0.2300  0.0424
 5732SOL    HW120151   2.859   6.257   9.748  0.2077 -0.0986  0.1032
 5732SOL    HW220152   2.915   6.346   9.857  0.1916 -0.3920  0.3521
 5733SOL     OW20153   5.106   1.202   3.051 -0.4723  0.9059  0.0245
 5733SOL    HW120154   5.099   1.190   2.957  1.4437 -0.3145 -0.0202
 5733SOL    HW220155   5.113   1.113   3.086 -0.8649  1.3578  1.3003
 5734SOL     OW20156   3.829   1.741   5.075 -0.1541  0.5349  0.0329
 5734SOL    HW120157   3.908   1.751   5.022 -0.8676  0.0299 -1.1828
 5734SOL    HW220158   3.826   1.819   5.129  0.5516  1.1245 -0.7520
 5735SOL     OW20159   9.278   1.681   4.230 -0.1436 -0.5254  0.0610
 5735SOL    HW120160   9.319   1.644   4.309 -1.1889 -1.1463  0.3267
 5735SOL    HW220161   9.331   1.758   4.210  1.4735 -1.5607  0.1094
 5736SOL     OW20162   1.597   5.981   2.567 -0.0681 -0.1926 -0.0005
 5736SOL    HW120163   1.627   5.929   2.641 -3.0011 -2.2979 -0.1330
 5736SOL    HW220164   1.677   6.002   2.519  1.5873 -1.6437  1.9317
 5737SOL     OW20165   5.643   8.434   4.198  0.4466 -0.3525 -0.2443
 5737SOL    HW120166   5.652   8.342   4.172 -0.3221  0.0412 -2.0677
 5737SOL    HW220167   5.550   8.446   4.215  0.6528 -0.0805  0.7804
 5738SOL     OW20168   7.180   4.922   3.758  0.1372 -0.0743 -0.1311
 5738SOL    HW120169   7.157   4.850   3.700  0.3481 -0.8898  0.7605
 5738SOL    HW220170   7.184   4.998   3.701 -1.5219 -0.4804 -0.8660
 5739SOL     OW20171  10.275   2.348   1.005 -0.2501  0.1900  0.3288
 5739SOL    HW120172  10.257   2.263   0.964  0.6958  0.7668 -1.4060
 5739SOL    HW220173  10.189   2.390   1.009 -0.4738 -0.1382 -0.5583
 5740SOL     OW20174   5.504   6.900   6.578 -0.0009  0.0818  0.5400
 5740SOL    HW120175   5.442   6.830   6.598  1.5184 -1.3757  0.3300
 5740SOL    HW220176   5.544   6.922   6.662  0.2027  0.0416  0.4537
 5741SOL     OW20177   0.149  10.333   8.704 -0.4712 -0.0380 -0.3220
 5741SOL    HW120178   0.208  10.359   8.634  1.6547  2.9525  2.3133
 5741SOL    HW220179   0.075  10.393   8.697 -0.3088  0.1912 -0.1141
 5742SOL     OW20180   9.894   9.303   5.415  0.6528  0.0471 -0.1777
 5742SOL    HW120181   9.901   9.218   5.371 -0.0276  0.2597 -0.7230
 5742SOL    HW220182   9.816   9.295   5.470  0.3615  0.4411 -0.5296
 5743SOL     OW20183   6.576   7.229   5.139  0.1311 -0.1318  0.2209
 5743SOL    HW120184   6.499   7.185   5.176 -1.0529  0.3838 -1.5052
 5743SOL    HW220185   6.562   7.322   5.158 -0.8996  0.2452 -2.0445
 5744SOL     OW20186   6.387   7.184   2.700 -0.3045  0.7066 -0.1961
 5744SOL    HW120187   6.381   7.267   2.654 -1.2019  0.8472  0.1534
 5744SOL    HW220188   6.389   7.208   2.793  0.9875  0.4042 -0.1210
 5745SOL     OW20189   9.149   5.434   3.970  0.1994 -0.1567 -0.4835
 5745SOL    HW120190   9.210   5.487   3.918  0.2568 -0.4203 -0.6841
 5745SOL    HW220191   9.116   5.368   3.909  0.0694 -0.3071 -0.2525
 5746SOL     OW20192   5.391  10.271   8.380  0.1991 -0.1267 -0.1818
 5746SOL    HW120193   5.339  10.190   8.387  0.3820 -0.2824 -0.5984
 5746SOL    HW220194   5.337  10.329   8.327  1.2193 -0.9470 -2.2269
 5747SOL     OW20195   4.870   1.800   7.055  0.3197  0.3530 -0.4448
 5747SOL    HW120196   4.831   1.715   7.037  0.7956  0.0258  0.0319
 5747SOL    HW220197   4.957   1.796   7.016  0.1019  0.8707 -1.0045
 5748SOL     OW20198   5.983   1.193  10.325  0.0790 -0.1843  0.3363
 5748SOL    HW120199   6.041   1.243  10.383  0.4305  0.1924 -0.3266
 5748SOL    HW220200   6.041   1.154  10.260 -0.4627  0.8113 -0.7918
 5749SOL     OW20201   5.147   7.387   8.395 -0.6097  0.1992 -0.2333
 5749SOL    HW120202   5.173   7.423   8.480 -0.0854  0.2423 -0.4032
 5749SOL    HW220203   5.135   7.294   8.411 -1.1021  0.3029  0.0161
 5750SOL     OW20204   0.689   0.243   1.733  0.1441  0.3964 -0.2467
 5750SOL    HW120205   0.720   0.258   1.643  1.0109  1.2220  0.1760
 5750SOL    HW220206   0.676   0.330   1.768 -0.3798  0.0704  0.3736
 5751SOL     OW20207   2.308   1.462   7.881  0.3535  0.5254 -0.1788
 5751SOL    HW120208   2.264   1.459   7.965  0.2739 -0.3997 -0.2457
 5751SOL    HW220209   2.401   1.463   7.902  0.3398 -0.0500 -0.0820
 5752SOL     OW20210   4.568  10.375   4.701  0.2776 -0.4780 -0.2882
 5752SOL    HW120211   4.510  10.411   4.634 -0.9108 -1.0161  0.4285
 5752SOL    HW220212   4.519  10.383   4.783  1.5554 -0.1753  0.4808
 5753SOL     OW20213   7.218  10.316   8.163 -0.3466  0.1718  0.3297
 5753SOL    HW120214   7.157  10.294   8.234 -1.2581 -0.0970 -0.5220
 5753SOL    HW220215   7.182  10.395   8.124 -0.6956 -0.5192 -0.7874
 5754SOL     OW20216   6.558   5.599   7.248 -0.1223  0.0558  0.5797
 5754SOL    HW120217   6.475   5.639   7.223 -0.6673  0.0380  2.2273
 5754SOL    HW220218   6.624   5.648   7.198 -1.1092 -0.1193 -0.9785
 5755SOL     OW20219  10.386   0.384   9.758 -0.0658  0.2429  0.7110
 5755SOL    HW120220  10.329   0.445   9.806 -1.5891 -0.4260 -0.1829
 5755SOL    HW220221  10.365   0.399   9.666  0.4439 -0.7629  0.4226
 5756SOL     OW20222   5.103   5.777   6.398 -0.2655  0.3642  0.1879
 5756SOL    HW120223   5.181   5.828   6.377 -0.4349  1.2128  1.5263
 5756SOL    HW220224   5.099   5.710   6.329  1.1216  0.8648 -0.4144
 5757SOL     OW20225   6.258   7.615   8.142 -0.0155 -0.4277 -1.0880
 5757SOL    HW120226   6.203   7.596   8.066  0.0039  0.8693 -1.4533
 5757SOL    HW220227   6.340   7.569   8.124 -0.4508 -1.1665 -1.2422
 5758SOL     OW20228   9.257   4.577   6.745  0.5358 -0.4900  0.1453
 5758SOL    HW120229   9.163   4.561   6.750  0.5305 -0.3445  0.5119
 5758SOL    HW220230   9.280   4.553   6.655  0.3004 -1.3176  0.2989
 5759SOL     OW20231   3.355   9.052   3.051 -0.1496  0.5133 -0.4388
 5759SOL    HW120232   3.389   9.102   2.977 -0.7019  1.2256 -0.2228
 5759SOL    HW220233   3.294   8.989   3.012 -0.5445  0.9792 -0.5873
 5760SOL     OW20234   9.831   9.587   2.013 -0.0882 -0.3374 -0.3467
 5760SOL    HW120235   9.877   9.643   2.075  1.4343  0.2026 -1.8710
 5760SOL    HW220236   9.821   9.642   1.935 -0.5047 -1.4972 -1.1338
 5761SOL     OW20237   6.204   7.723   6.326  0.0054 -0.6804  0.4620
 5761SOL    HW120238   6.239   7.769   6.249  1.4869 -0.1335  1.4206
 5761SOL    HW220239   6.263   7.649   6.338 -1.9928 -2.5410 -0.6877
 5762SOL     OW20240  10.672  10.501   1.011  0.4840 -0.1154  0.0432
 5762SOL    HW120241  10.600  10.562   0.995 -0.8587 -1.7276 -0.3936
 5762SOL    HW220242  10.668  10.482   1.104  0.8321  0.3625  0.1586
 5763SOL     OW20243   2.886   1.299   7.305 -0.2842  0.1473  0.0438
 5763SOL    HW120244   2.842   1.259   7.230 -1.5699  1.9476 -0.2351
 5763SOL    HW220245   2.979   1.288   7.288 -0.5702 -0.1326 -1.4555
 5764SOL     OW20246  10.307   1.057  10.618  0.5477  0.3472 -0.3378
 5764SOL    HW120247  10.331   1.051  10.710  1.5233  0.4244 -0.5786
 5764SOL    HW220248  10.251   0.981  10.603  2.2102 -0.9662 -0.2020
 5765SOL     OW20249   6.956   2.278   3.481  0.1629  0.6347 -0.2844
 5765SOL    HW120250   7.038   2.234   3.505 -0.4144 -0.4884 -0.3096
 5765SOL    HW220251   6.957   2.360   3.531  1.4836  0.8350 -0.5964
 5766SOL     OW20252   5.047   1.893   9.568  0.5332 -0.2136 -0.1064
 5766SOL    HW120253   5.075   1.803   9.550 -0.2876 -0.4551 -0.2475
 5766SOL    HW220254   5.034   1.931   9.481 -2.1524 -0.9663 -0.1498
 5767SOL     OW20255   7.081   7.851   3.007 -0.3327  0.5731  0.2157
 5767SOL    HW120256   7.154   7.902   2.971 -1.0661  1.7566  0.3448
 5767SOL    HW220257   7.081   7.770   2.956  0.2400  1.1294 -0.7005
 5768SOL     OW20258   6.676  10.177   3.334  0.4644 -0.1072  0.0317
 5768SOL    HW120259   6.768  10.150   3.340  0.6603  0.4937 -0.2371
 5768SOL    HW220260   6.632  10.102   3.295  0.7941 -0.5003  0.4013
 5769SOL     OW20261   0.468   6.997   7.261 -0.0938  0.1917  0.4409
 5769SOL    HW120262   0.399   6.990   7.196 -0.0230 -0.7302  0.4512
 5769SOL    HW220263   0.451   7.080   7.306 -1.8242 -0.5058  1.1439
 5770SOL     OW20264  10.077   3.646   5.519 -0.4858 -0.1583  0.7614
 5770SOL    HW120265  10.014   3.664   5.588  1.2696  0.5912  2.2626
 5770SOL    HW220266  10.098   3.732   5.483 -1.2940 -0.5307 -0.6769
 5771SOL     OW20267   9.445   5.999  10.030 -0.2209 -0.8105 -0.0702
 5771SOL    HW120268   9.511   5.993  10.099 -2.0667 -1.8420  1.7246
 5771SOL    HW220269   9.485   5.954   9.956  1.9906  0.6759  0.1059
 5772SOL     OW20270   6.989   7.703   7.888 -0.0518 -0.4636 -0.0165
 5772SOL    HW120271   6.997   7.718   7.983 -2.0449 -0.3776  0.1767
 5772SOL    HW220272   7.026   7.782   7.848  2.2404 -1.1416  0.5891
 5773SOL     OW20273  10.551   9.561   4.982  0.4331  0.0523 -0.2445
 5773SOL    HW120274  10.462   9.532   5.000  0.4062  0.0133 -0.4420
 5773SOL    HW220275  10.601   9.480   4.973  0.1398  0.0128 -1.9372
 5774SOL     OW20276   6.472   7.190  10.321  0.8302  0.0851  0.7178
 5774SOL    HW120277   6.498   7.279  10.345 -0.1059  0.7436 -0.6087
 5774SOL    HW220278   6.379   7.197  10.301  1.0495 -0.8853 -0.7834
 5775SOL     OW20279   9.020   6.118   5.822 -0.3582  0.4157 -0.2289
 5775SOL    HW120280   8.935   6.128   5.864  0.5228  0.1483  1.7276
 5775SOL    HW220281   9.076   6.182   5.865  0.5408  0.2894 -1.1773
 5776SOL     OW20282   1.084   4.462   7.727  0.8067  0.2164  0.1500
 5776SOL    HW120283   1.098   4.415   7.645  1.4055 -0.9464  0.8826
 5776SOL    HW220284   0.989   4.460   7.740  0.6614  0.8332 -0.7373
 5777SOL     OW20285   3.400   1.236   2.150 -0.2395  0.5031  0.1054
 5777SOL    HW120286   3.408   1.261   2.057 -2.3405  1.5907  0.1419
 5777SOL    HW220287   3.399   1.320   2.197  0.4048 -0.0230  1.0848
 5778SOL     OW20288   9.559   4.205   9.417 -0.2515 -0.4747  0.2559
 5778SOL    HW120289   9.525   4.184   9.503  2.6715 -1.5812  1.2404
 5778SOL    HW220290   9.578   4.121   9.376 -1.1331  0.0383 -1.3486
 5779SOL     OW20291   3.995   4.979   1.552  0.3780 -0.3716 -0.1672
 5779SOL    HW120292   4.090   4.969   1.550  0.3782 -0.3066 -0.8551
 5779SOL    HW220293   3.980   5.070   1.525  0.1879  0.1498  1.6034
 5780SOL     OW20294   6.828   5.925   8.127  0.0031  0.1494  0.3435
 5780SOL    HW120295   6.832   6.010   8.083 -0.5336  0.7278  1.3736
 5780SOL    HW220296   6.735   5.908   8.137  0.0452  1.0288  3.0477
 5781SOL     OW20297   4.589   7.456   2.698  0.2359 -0.1388  0.1935
 5781SOL    HW120298   4.652   7.489   2.762 -1.0013  0.7774  0.9787
 5781SOL    HW220299   4.541   7.387   2.743 -0.9193  0.7860  0.4312
 5782SOL     OW20300   8.931   0.466   2.714 -0.3204  0.1971 -0.0737
 5782SOL    HW120301   9.016   0.445   2.752 -0.0968  1.8225  0.4083
 5782SOL    HW220302   8.952   0.511   2.632 -0.7415 -0.1726 -0.3924
 5783SOL     OW20303   6.028   6.476   8.049  0.5403  0.5205  0.0224
 5783SOL    HW120304   6.088   6.430   8.108 -1.8173 -2.9763 -0.0317
 5783SOL    HW220305   5.954   6.500   8.105 -0.1854  0.3038 -0.8263
 5784SOL     OW20306   0.013   6.109   4.770 -0.3318  0.2844 -0.0837
 5784SOL    HW120307  -0.060   6.166   4.748  0.1263  0.2583 -1.8103
 5784SOL    HW220308  -0.024   6.021   4.772 -0.9263  0.5098  2.0594
 5785SOL     OW20309   2.474   4.819   8.564  0.7264 -0.3084  0.2978
 5785SOL    HW120310   2.415   4.764   8.615  0.1377  1.5281  1.7028
 5785SOL    HW220311   2.515   4.877   8.628 -0.0514  2.1094 -1.2219
 5786SOL     OW20312   0.523   8.204   7.134 -0.1208 -0.3075 -0.0347
 5786SOL    HW120313   0.428   8.207   7.148 -0.2507 -0.3220 -0.9038
 5786SOL    HW220314   0.544   8.289   7.096 -0.1123 -1.0481 -1.7692
 5787SOL     OW20315   6.426   7.730   0.992 -0.0074  0.1128 -0.5954
 5787SOL    HW120316   6.434   7.818   1.027 -0.1952  0.2547 -0.8946
 5787SOL    HW220317   6.484   7.676   1.045 -0.2578  0.3262 -0.0987
 5788SOL     OW20318   8.905  10.258   3.414  0.8088 -0.0756 -0.2394
 5788SOL    HW120319   8.839  10.320   3.442 -2.3237 -3.3595  0.4517
 5788SOL    HW220320   8.963  10.248   3.490 -1.5658 -1.4267  1.5181
 5789SOL     OW20321   4.510   0.486   7.955  0.0890 -0.2365  0.3109
 5789SOL    HW120322   4.482   0.447   7.872 -1.4870 -1.3903  1.3276
 5789SOL    HW220323   4.603   0.468   7.960  0.0699 -0.7622 -0.8916
 5790SOL     OW20324   6.452   8.999   8.062 -0.4401 -1.0232  0.2510
 5790SOL    HW120325   6.357   8.991   8.055 -0.6266  0.9003  0.0088
 5790SOL    HW220326   6.486   8.934   8.001 -1.6626 -0.3604 -1.2008
 5791SOL     OW20327   8.533   5.162   2.021 -0.2789 -0.3263  0.1011
 5791SOL    HW120328   8.536   5.069   1.998  1.9768 -0.4520  0.7021
 5791SOL    HW220329   8.464   5.168   2.088 -0.9208 -1.4207 -0.4255
 5792SOL     OW20330   0.424   4.354   6.846  0.4970  0.7363 -0.4502
 5792SOL    HW120331   0.498   4.322   6.794  0.8887  0.2506  0.3817
 5792SOL    HW220332   0.464   4.395   6.923 -0.0800 -1.4808  1.1390
 5793SOL     OW20333   8.255   6.669   3.666  0.1833  0.2524  0.2736
 5793SOL    HW120334   8.264   6.574   3.658  0.6000  0.4881 -3.5562
 5793SOL    HW220335   8.341   6.698   3.696  0.7138 -0.4413 -0.5234
 5794SOL     OW20336   2.888   1.758   3.138 -0.1128 -0.0321 -0.2083
 5794SOL    HW120337   2.914   1.671   3.171 -1.7281 -0.5675 -0.2421
 5794SOL    HW220338   2.865   1.743   3.047 -0.7906  0.3432 -0.1022
 5795SOL     OW20339   5.260   2.926   6.470  0.2388  0.4463 -0.0807
 5795SOL    HW120340   5.263   2.979   6.390 -1.0454  0.3168 -0.2349
 5795SOL    HW220341   5.195   2.858   6.451 -1.9906  1.8784  1.9635
 5796SOL     OW20342   8.182   0.289   1.068  0.5479  0.3511  0.0997
 5796SOL    HW120343   8.211   0.226   1.134  0.1633  0.4331  0.3557
 5796SOL    HW220344   8.125   0.239   1.010 -2.4005  1.0516  2.1155
 5797SOL     OW20345   7.592   7.922   8.638 -0.6194  0.5095  0.1441
 5797SOL    HW120346   7.573   8.010   8.605 -1.6732  0.0796 -0.4458
 5797SOL    HW220347   7.595   7.867   8.560  0.5952  0.1024  0.4601
 5798SOL     OW20348   7.880   5.261   3.930 -0.0451 -0.2016  0.2353
 5798SOL    HW120349   7.932   5.206   3.989  1.1005  1.3295  0.7392
 5798SOL    HW220350   7.817   5.304   3.987 -0.2061 -0.1574  0.0255
 5799SOL     OW20351   8.330   2.928   9.921 -0.4278 -0.3382 -0.6202
 5799SOL    HW120352   8.373   3.012   9.905 -0.7178 -0.1517 -0.4323
 5799SOL    HW220353   8.252   2.951   9.973  0.0059 -0.8312  0.2626
 5800SOL     OW20354   4.870   9.204   0.766  0.3464  0.0315 -0.4115
 5800SOL    HW120355   4.824   9.134   0.719 -0.4017  0.4486 -0.3206
 5800SOL    HW220356   4.824   9.212   0.849  1.3153 -0.3192  0.1670
 5801SOL     OW20357   4.448   6.659   4.177  0.3365  0.2462  0.4416
 5801SOL    HW120358   4.447   6.569   4.143 -3.0133  0.3643 -0.1448
 5801SOL    HW220359   4.460   6.713   4.099  0.2615  0.3666  0.5140
 5802SOL     OW20360   1.200   0.161   0.642  0.0207  0.4497 -0.0162
 5802SOL    HW120361   1.290   0.194   0.651  0.1136 -0.0355  0.8899
 5802SOL    HW220362   1.197   0.126   0.553  0.7161  0.5009 -0.0696
 5803SOL     OW20363   4.682   8.960   7.382  0.2977  0.2160 -0.5359
 5803SOL    HW120364   4.645   9.043   7.412  0.8389  0.2237  0.1325
 5803SOL    HW220365   4.655   8.954   7.291 -0.4228  0.7424 -0.3686
 5804SOL     OW20366  10.342   4.924   6.326  0.3286  0.3583 -0.3536
 5804SOL    HW120367  10.366   4.854   6.386  0.3318 -0.0979 -0.8810
 5804SOL    HW220368  10.249   4.911   6.308  0.8099 -0.9153 -2.2360
 5805SOL     OW20369   1.211   8.712   2.499 -0.4930  0.0012 -0.2726
 5805SOL    HW120370   1.186   8.648   2.565 -0.6713  0.0960 -0.2478
 5805SOL    HW220371   1.142   8.779   2.503  0.0926  0.5973  0.2422
 5806SOL     OW20372   1.951   5.483   2.533 -0.2561 -0.1691 -0.1071
 5806SOL    HW120373   1.971   5.396   2.569  0.6724 -0.2732 -0.8528
 5806SOL    HW220374   2.036   5.524   2.519 -0.6134  0.1359 -1.5287
 5807SOL     OW20375   8.519   9.819   0.555 -0.0431 -0.3021 -0.1362
 5807SOL    HW120376   8.506   9.907   0.592 -0.6883 -0.4501 -0.0096
 5807SOL    HW220377   8.614   9.805   0.561  0.2064  0.8116 -1.1281
 5808SOL     OW20378   1.499   4.083   9.300  0.5147 -0.3114  0.2288
 5808SOL    HW120379   1.570   4.064   9.239 -0.4900 -0.6785 -0.8769
 5808SOL    HW220380   1.502   4.012   9.364  1.0760 -0.3855  0.1218
 5809SOL     OW20381   6.617   5.291   2.005  0.4869  0.2662  0.2239
 5809SOL    HW120382   6.571   5.216   2.043  2.2234 -1.0888 -0.1823
 5809SOL    HW220383   6.599   5.285   1.911  1.0669  0.0172  0.1244
 5810SOL     OW20384   8.648  10.652   4.810 -0.0541  0.0946 -0.0398
 5810SOL    HW120385   8.735  10.612   4.806 -0.6441 -1.3606  0.7693
 5810SOL    HW220386   8.660  10.731   4.863  0.9077  0.3473 -0.6059
 5811SOL     OW20387   2.346   1.988   9.591 -0.1624 -0.0687 -0.6504
 5811SOL    HW120388   2.317   2.019   9.506  0.2486  0.7330 -0.5152
 5811SOL    HW220389   2.296   2.039   9.654 -0.5622 -0.7521 -0.4044
 5812SOL     OW20390   4.368  10.084   8.377 -0.1570 -0.6541 -0.1983
 5812SOL    HW120391   4.318  10.165   8.384 -0.9143 -1.2398  2.0087
 5812SOL    HW220392   4.440  10.105   8.317 -2.0425  0.7066 -2.1590
 5813SOL     OW20393   8.357   8.119   6.070  0.0357  0.3535 -0.0646
 5813SOL    HW120394   8.340   8.104   5.977 -1.6154  0.2234  0.2352
 5813SOL    HW220395   8.304   8.195   6.092 -1.5200 -1.0771  1.3052
 5814SOL     OW20396   8.542   3.752   7.777 -0.4738 -0.5479 -0.6809
 5814SOL    HW120397   8.517   3.837   7.741  0.4329 -0.3136 -0.8007
 5814SOL    HW220398   8.637   3.749   7.766 -0.2821 -0.8896  0.7916
 5815SOL     OW20399   3.523   6.756   7.834 -0.1240 -0.5783 -0.4899
 5815SOL    HW120400   3.531   6.847   7.863 -1.5487 -0.2207 -1.1647
 5815SOL    HW220401   3.610   6.719   7.849  0.7205  1.1187 -0.9798
 5816SOL     OW20402   4.522   3.838   9.043  0.4308  0.3994  0.2340
 5816SOL    HW120403   4.606   3.796   9.062  0.0744 -0.2794  0.3364
 5816SOL    HW220404   4.456   3.779   9.081 -0.1877  0.0798 -1.2807
 5817SOL     OW20405   2.974   2.044   8.124  0.3111  0.1990  0.4714
 5817SOL    HW120406   2.981   1.972   8.187  0.4191  0.8090  1.1752
 5817SOL    HW220407   2.922   2.008   8.053  0.8048 -0.7405  0.5636
 5818SOL     OW20408   0.521   6.380   5.970 -0.4878 -0.6272 -0.0301
 5818SOL    HW120409   0.494   6.351   6.057 -1.2432 -1.4308 -0.5127
 5818SOL    HW220410   0.579   6.310   5.938 -0.0971 -0.2670 -0.1171
 5819SOL     OW20411   0.289   4.450   7.397  0.7261  0.0318  0.2240
 5819SOL    HW120412   0.325   4.435   7.309  1.9145 -0.0149  0.6977
 5819SOL    HW220413   0.274   4.545   7.401 -0.0432 -0.0607 -0.2824
 5820SOL     OW20414   2.532   4.351   1.780 -0.0129  0.4750 -0.6056
 5820SOL    HW120415   2.442   4.383   1.782 -0.5047 -0.8741  0.4136
 5820SOL    HW220416   2.541   4.299   1.860  2.0065  1.4212 -0.1332
 5821SOL     OW20417   9.901   6.956   9.345 -0.0829 -0.1814 -0.0561
 5821SOL    HW120418   9.834   6.997   9.291  0.4588 -0.6996 -1.1704
 5821SOL    HW220419   9.953   7.029   9.379  1.9142  0.1646 -3.3707
 5822SOL     OW20420   8.534   8.406  10.561  0.2383 -0.0567 -1.2024
 5822SOL    HW120421   8.603   8.382  10.622 -0.8130  1.1375  0.5534
 5822SOL    HW220422   8.472   8.456  10.613 -2.0364 -1.1672 -2.6698
 5823SOL     OW20423   1.653   6.607   8.031 -0.8646  0.1884  0.4112
 5823SOL    HW120424   1.633   6.560   8.112 -0.7182 -1.6933 -0.5901
 5823SOL    HW220425   1.609   6.692   8.041 -0.7129  0.0742  2.5087
 5824SOL     OW20426   0.485   9.876   4.101 -0.0233 -0.0256  0.7119
 5824SOL    HW120427   0.424   9.934   4.055  2.6688  1.7399 -0.9268
 5824SOL    HW220428   0.479   9.793   4.054 -1.4371 -0.0493  0.8840
 5825SOL     OW20429   1.257   7.721   5.317 -0.4103  0.0814  0.1915
 5825SOL    HW120430   1.235   7.662   5.245  0.0732 -0.3505  0.3911
 5825SOL    HW220431   1.173   7.747   5.354 -0.7279  1.0557 -1.1128
 5826SOL     OW20432   5.504   4.482   4.161 -0.2709 -0.4844  0.2166
 5826SOL    HW120433   5.435   4.541   4.132  0.4687 -0.0327 -0.6563
 5826SOL    HW220434   5.458   4.409   4.203 -1.2081  0.5135  0.9542
 5827SOL     OW20435   4.445   4.650   3.360  0.0933 -0.1111 -0.4715
 5827SOL    HW120436   4.450   4.713   3.432 -2.0535  0.3980 -0.6861
 5827SOL    HW220437   4.477   4.568   3.398 -1.5939 -0.0213  1.3559
 5828SOL     OW20438   9.464   6.109   7.269 -0.3420 -0.5849 -0.4747
 5828SOL    HW120439   9.433   6.183   7.217  1.4937  0.2081 -0.4903
 5828SOL    HW220440   9.396   6.097   7.336 -0.8941  0.7915 -0.7662
 5829SOL     OW20441   4.375   4.645   0.878 -0.0537 -0.6921  0.9245
 5829SOL    HW120442   4.339   4.732   0.862  0.3400 -0.5783  0.6544
 5829SOL    HW220443   4.437   4.657   0.949 -0.0143 -0.7598  0.9016
 5830SOL     OW20444   4.171   2.326   3.625  0.8132 -0.0921 -0.3679
 5830SOL    HW120445   4.265   2.305   3.623  0.4098 -2.0371 -0.7855
 5830SOL    HW220446   4.145   2.326   3.533  0.7402  2.3738 -0.4123
 5831SOL     OW20447   7.044   0.515   8.345 -0.0045  0.2193  0.2893
 5831SOL    HW120448   7.050   0.467   8.428  0.4194  0.2148  0.2630
 5831SOL    HW220449   6.957   0.555   8.346 -0.3338 -0.4872  0.3477
 5832SOL     OW20450  10.220   2.349   4.640  0.3643  0.0784  0.6396
 5832SOL    HW120451  10.205   2.418   4.576  0.9431 -0.1513  0.2454
 5832SOL    HW220452  10.252   2.274   4.588 -1.7451 -1.0325  0.8428
 5833SOL     OW20453   2.521   3.233   2.179  0.0992  0.0003 -0.1192
 5833SOL    HW120454   2.594   3.174   2.195 -0.6523 -0.9766 -0.1830
 5833SOL    HW220455   2.475   3.195   2.104  0.6105  1.6546 -1.3184
 5834SOL     OW20456   4.515   9.264   6.052  1.1368  0.3891 -0.1464
 5834SOL    HW120457   4.467   9.311   5.984  1.3119 -0.2345 -0.7117
 5834SOL    HW220458   4.450   9.204   6.090  0.4881  2.0731  1.6127
 5835SOL     OW20459   2.646   1.461   5.449 -0.3133  0.1785 -0.2706
 5835SOL    HW120460   2.617   1.524   5.383  0.8175  0.4021 -0.5767
 5835SOL    HW220461   2.742   1.467   5.448 -0.2505 -0.2225  0.9920
 5836SOL     OW20462   2.314   2.576   6.056 -0.0694  0.5313 -0.2945
 5836SOL    HW120463   2.222   2.594   6.033  0.1385  0.0389 -1.6244
 5836SOL    HW220464   2.358   2.570   5.971  1.4965  2.1998  0.3500
 5837SOL     OW20465   7.372   2.285   5.363  0.2732  0.8385  0.2896
 5837SOL    HW120466   7.338   2.369   5.393 -1.6256  0.4740 -0.6979
 5837SOL    HW220467   7.437   2.307   5.297 -0.4650  1.5243 -0.2158
 5838SOL     OW20468   6.583   6.966   5.409 -0.1825  0.0429  0.0084
 5838SOL    HW120469   6.597   6.877   5.441 -1.4417  0.3242  1.4497
 5838SOL    HW220470   6.642   6.974   5.334  0.8562 -1.5810  0.6009
 5839SOL     OW20471   5.008   2.283   0.001  0.2721  0.2516  0.1083
 5839SOL    HW120472   5.029   2.371  -0.030  1.5057  0.3375  1.1073
 5839SOL    HW220473   4.987   2.233  -0.078 -0.5402  1.4552 -0.4559
 5840SOL     OW20474   7.177   4.623   8.923 -0.6895 -0.3994  0.2895
 5840SOL    HW120475   7.114   4.651   8.990 -0.1271  0.0057  0.6554
 5840SOL    HW220476   7.140   4.656   8.841 -0.8751 -0.0064  0.5249
 5841SOL     OW20477   0.095   6.508   1.498 -0.2872  0.1208 -0.1805
 5841SOL    HW120478   0.003   6.523   1.476 -0.2797 -0.4756 -0.6276
 5841SOL    HW220479   0.143   6.535   1.420 -0.0739  0.4233  0.0493
 5842SOL     OW20480   6.164   8.743   1.518  0.0958  0.0661  0.3787
 5842SOL    HW120481   6.247   8.751   1.566 -0.2632  0.1951  0.9865
 5842SOL    HW220482   6.169   8.810   1.450  0.4201  0.1843  0.5174
 5843SOL     OW20483   3.853   2.709   6.248  0.1705  0.3274 -0.4880
 5843SOL    HW120484   3.907   2.635   6.219 -0.3998 -0.2771 -0.0650
 5843SOL    HW220485   3.769   2.695   6.204 -0.0768  0.4842 -0.0707
 5844SOL     OW20486   5.761  10.412   8.196 -0.3520  0.2584  0.0496
 5844SOL    HW120487   5.732  10.442   8.282 -0.9673  1.4855 -0.5487
 5844SOL    HW220488   5.856  10.405   8.204 -0.3836  0.5426  0.7791
 5845SOL     OW20489   3.731   6.189   9.459 -0.3803  0.5198  0.1661
 5845SOL    HW120490   3.695   6.277   9.472  0.7844  1.0981 -0.3596
 5845SOL    HW220491   3.708   6.141   9.538  1.3547  2.1512  1.7650
 5846SOL     OW20492   0.764   8.164   4.504  0.4341  0.2400 -0.5976
 5846SOL    HW120493   0.778   8.070   4.515 -0.5377  0.1299 -0.2503
 5846SOL    HW220494   0.821   8.188   4.431  1.5565 -0.4001  0.0393
 5847SOL     OW20495   7.575   7.744   1.501 -0.0226  0.5092  0.4327
 5847SOL    HW120496   7.541   7.705   1.420  1.0832 -0.0420  0.2178
 5847SOL    HW220497   7.621   7.672   1.544 -1.6885  0.4264  2.2273
 5848SOL     OW20498   9.692   0.414   8.981 -0.6158  0.1689  0.1591
 5848SOL    HW120499   9.711   0.494   8.932 -0.8301  0.3703  0.4064
 5848SOL    HW220500   9.700   0.440   9.073 -0.2759 -0.1919  0.2361
 5849SOL     OW20501   9.600   4.490   0.611  0.7009  0.4200 -0.3996
 5849SOL    HW120502   9.613   4.582   0.631 -0.2495  0.5972 -0.5722
 5849SOL    HW220503   9.514   4.469   0.646  1.4995 -0.7884  0.9398
 5850SOL     OW20504   4.205   9.057   9.013 -0.1547  0.6821  0.0247
 5850SOL    HW120505   4.285   9.016   9.047 -0.3970  0.8259  0.7897
 5850SOL    HW220506   4.177   9.115   9.084 -1.5953 -0.2533  0.2646
 5851SOL     OW20507   0.193   1.397   9.940  0.6825 -0.1372  0.7304
 5851SOL    HW120508   0.099   1.398   9.955  0.7378  0.7463  1.0881
 5851SOL    HW220509   0.231   1.422  10.025  1.2862 -1.3740  0.8496
 5852SOL     OW20510   8.511   4.496   1.591  0.0776  0.4244 -0.0242
 5852SOL    HW120511   8.605   4.510   1.590  0.1237  0.2217 -1.9754
 5852SOL    HW220512   8.500   4.406   1.559 -0.8712  1.7393 -3.8883
 5853SOL     OW20513  10.047   9.646   6.858  0.6925  0.0985  0.0831
 5853SOL    HW120514  10.035   9.570   6.801 -0.9366  0.3670 -0.0033
 5853SOL    HW220515  10.036   9.611   6.947  1.8714 -0.0864  0.1636
 5854SOL     OW20516   4.831   1.225   3.247  0.1151  0.0783 -0.1687
 5854SOL    HW120517   4.912   1.216   3.197 -0.1229 -1.1335 -0.3820
 5854SOL    HW220518   4.858   1.254   3.333  0.7591 -0.1094 -0.3041
 5855SOL     OW20519   5.686   6.206   9.730  0.5473 -0.3019  0.3022
 5855SOL    HW120520   5.697   6.283   9.674  4.1719 -1.8931 -1.4565
 5855SOL    HW220521   5.742   6.223   9.805  0.3162 -0.6718  0.5584
 5856SOL     OW20522   6.026   6.399   2.547  0.1918 -0.1268  0.6430
 5856SOL    HW120523   5.948   6.453   2.537  0.9034  0.6658 -1.2324
 5856SOL    HW220524   5.997   6.322   2.594 -1.8412 -0.0796 -0.4342
 5857SOL     OW20525   6.208   9.833   4.550  0.7602  0.1730 -0.5523
 5857SOL    HW120526   6.256   9.762   4.591 -0.8914 -0.8016 -0.2262
 5857SOL    HW220527   6.265   9.862   4.479  2.3854 -0.0414  0.5987
 5858SOL     OW20528   1.146  10.432   2.175  0.0569 -0.1019  0.0000
 5858SOL    HW120529   1.136  10.428   2.270 -1.1697 -2.3093 -0.1492
 5858SOL    HW220530   1.063  10.467   2.143  0.7092  1.2703 -0.2664
 5859SOL     OW20531   4.065   9.369   4.658 -0.0425  0.1014 -0.2602
 5859SOL    HW120532   4.067   9.290   4.712 -1.6569  0.8992  1.0491
 5859SOL    HW220533   4.149   9.369   4.613  0.4888 -1.7212  0.6287
 5860SOL     OW20534   2.160   5.032   4.824  0.5797  0.4330  0.0525
 5860SOL    HW120535   2.106   5.090   4.877 -0.0472  2.6963 -2.7922
 5860SOL    HW220536   2.099   4.992   4.762  1.6834  0.5632 -1.1703
 5861SOL     OW20537   7.572   6.911   8.168 -0.1549 -0.0425  0.2283
 5861SOL    HW120538   7.648   6.925   8.225  1.2033 -3.0821 -0.6855
 5861SOL    HW220539   7.605   6.859   8.095 -2.6140  0.7441 -1.5700
 5862SOL     OW20540   2.728   9.725   7.990  0.2082 -0.1031 -0.2360
 5862SOL    HW120541   2.671   9.793   8.025  2.4881  2.8256 -1.7526
 5862SOL    HW220542   2.711   9.725   7.895  2.1756  0.3814 -0.6318
 5863SOL     OW20543   3.597   4.103   7.929  0.7409  0.4567 -0.3867
 5863SOL    HW120544   3.561   4.176   7.878  1.4429  1.3132  0.2966
 5863SOL    HW220545   3.574   4.124   8.019 -0.4859 -1.0413 -0.3221
 5864SOL     OW20546   5.017   2.569   5.561  0.0095 -0.1380 -0.4292
 5864SOL    HW120547   5.071   2.618   5.499 -0.8036  0.3574 -0.7603
 5864SOL    HW220548   5.027   2.478   5.535  1.7824 -0.2185  0.3781
 5865SOL     OW20549   8.865   5.582   3.377  0.7313 -0.3112  0.3388
 5865SOL    HW120550   8.810   5.580   3.456  0.7436 -0.0877  0.3551
 5865SOL    HW220551   8.897   5.673   3.373  2.4731 -0.8454  1.2663
 5866SOL     OW20552   0.661   2.908   1.660  0.0239  0.2968 -0.4246
 5866SOL    HW120553   0.596   2.914   1.590  0.8688 -0.1265 -1.2693
 5866SOL    HW220554   0.645   2.984   1.715 -1.4013  0.0134 -0.4169
 5867SOL     OW20555   8.598   0.093   0.420  0.0471  0.2635  0.0939
 5867SOL    HW120556   8.612   0.015   0.366  1.5421 -1.2993  2.5545
 5867SOL    HW220557   8.585   0.059   0.509 -1.1020  2.7581  0.9833
 5868SOL     OW20558   1.122   3.011   1.717  0.0713  0.3110  0.2288
 5868SOL    HW120559   1.107   2.987   1.626  1.7570 -1.4136  0.3368
 5868SOL    HW220560   1.217   3.023   1.724  0.1155 -0.6228  1.9430
 5869SOL     OW20561   1.839   5.373   6.692  0.4573  0.4194  0.1353
 5869SOL    HW120562   1.749   5.399   6.711 -0.4453 -1.7316 -0.9386
 5869SOL    HW220563   1.847   5.379   6.597  0.4969 -2.0620 -0.0896
 5870SOL     OW20564   5.425   4.964   8.953  0.2214  0.8420 -0.1596
 5870SOL    HW120565   5.365   4.898   8.919  1.7487  0.0533 -1.4315
 5870SOL    HW220566   5.424   5.033   8.886  0.1299  1.2118  0.2181
 5871SOL     OW20567   6.853   9.867   0.276 -0.6508 -0.2178  0.3647
 5871SOL    HW120568   6.831   9.779   0.305 -1.6758  0.1346  0.6976
 5871SOL    HW220569   6.926   9.855   0.215 -0.5606 -1.2556  0.6619
 5872SOL     OW20570   3.372   1.879   3.774 -0.0192  0.0070  0.0980
 5872SOL    HW120571   3.393   1.928   3.694 -1.1861  0.2745 -0.0624
 5872SOL    HW220572   3.280   1.896   3.789  0.1992  0.0037  1.5574
 5873SOL     OW20573   5.033   0.120   0.229 -0.3207  0.6280  0.5741
 5873SOL    HW120574   5.053   0.182   0.159 -0.8116 -0.5823 -0.6996
 5873SOL    HW220575   5.116   0.107   0.274 -0.1770  2.0465  0.7356
 5874SOL     OW20576   3.039   6.678   7.990  0.0580 -0.3035 -0.8021
 5874SOL    HW120577   3.116   6.640   7.948 -0.6820 -0.0774 -2.4728
 5874SOL    HW220578   3.028   6.762   7.946 -0.8009 -0.0731 -0.1642
 5875SOL     OW20579   3.252   7.394   1.596 -0.4471 -0.4087  0.0441
 5875SOL    HW120580   3.307   7.471   1.608 -1.0378 -0.1356  1.1997
 5875SOL    HW220581   3.191   7.418   1.526 -0.3412  0.0088  0.0965
 5876SOL     OW20582   5.116  10.413   2.918 -0.3856  0.4168 -0.7429
 5876SOL    HW120583   5.148  10.477   2.981  0.4322 -0.0213 -0.7011
 5876SOL    HW220584   5.170  10.335   2.933  0.2915  0.5139 -2.3976
 5877SOL     OW20585   7.724  10.310   0.435  0.1910 -0.3616  0.0482
 5877SOL    HW120586   7.680  10.283   0.355  0.3678 -1.0592  0.1812
 5877SOL    HW220587   7.674  10.385   0.466  1.0635  0.9434 -1.5597
 5878SOL     OW20588   1.561   0.238   0.923 -0.3181 -0.1470 -0.1856
 5878SOL    HW120589   1.467   0.245   0.936 -0.2371  1.3615 -0.2173
 5878SOL    HW220590   1.594   0.196   1.003 -0.7123  1.9237  1.1297
 5879SOL     OW20591   0.583   8.814   3.984 -0.0621  0.5224  0.0309
 5879SOL    HW120592   0.570   8.808   3.889 -0.5121 -0.1529  0.1232
 5879SOL    HW220593   0.536   8.738   4.019 -0.2995  1.0249  0.8314
 5880SOL     OW20594   1.714   7.604   4.294 -0.1445 -0.1834  0.2188
 5880SOL    HW120595   1.659   7.547   4.240 -0.5928  1.4625 -1.1422
 5880SOL    HW220596   1.719   7.686   4.245  0.3621  1.0128  2.1697
 5881SOL     OW20597   7.743   5.070   3.189  0.3290  0.2226  0.2687
 5881SOL    HW120598   7.658   5.027   3.193  0.7190 -0.6613 -0.5703
 5881SOL    HW220599   7.731   5.153   3.235 -0.6743 -0.3902  1.1246
 5882SOL     OW20600  10.083   4.879   4.987 -0.1231  0.2900  0.1010
 5882SOL    HW120601  10.060   4.844   5.073  0.0931 -1.3679 -0.4728
 5882SOL    HW220602  10.002   4.875   4.936  0.1268 -0.3732 -0.2684
 5883SOL     OW20603   7.739   8.893   9.370 -0.4651 -0.2606  0.1584
 5883SOL    HW120604   7.789   8.912   9.449  0.0309  0.5162 -0.3274
 5883SOL    HW220605   7.741   8.975   9.320  0.3115 -1.0748 -1.2333
 5884SOL     OW20606   7.260   2.013   1.684  0.3739 -0.0872 -0.6761
 5884SOL    HW120607   7.271   2.009   1.779  1.3673  1.4562 -0.6773
 5884SOL    HW220608   7.232   1.925   1.659 -0.3089 -0.4135  1.0830
 5885SOL     OW20609   2.719   3.424   3.397  0.3311 -0.6323 -0.0577
 5885SOL    HW120610   2.772   3.457   3.325  2.3229  0.1411  1.6481
 5885SOL    HW220611   2.688   3.339   3.367  4.0014 -1.9480 -0.6026
 5886SOL     OW20612   8.594   4.699   5.755  0.1217 -0.1930  0.2689
 5886SOL    HW120613   8.681   4.737   5.768 -0.3740  0.7001  1.1407
 5886SOL    HW220614   8.534   4.769   5.780 -0.8834 -0.2907 -1.6966
 5887SOL     OW20615   7.237   4.784   8.303  0.2222  0.3400  0.2773
 5887SOL    HW120616   7.276   4.697   8.299 -0.4452 -0.0695  1.7252
 5887SOL    HW220617   7.142   4.768   8.304  0.0698  1.1295 -0.1393
 5888SOL     OW20618   5.486   6.048   2.269 -0.4658 -0.1914 -0.2698
 5888SOL    HW120619   5.436   6.065   2.349  1.4115  1.4442  0.6534
 5888SOL    HW220620   5.520   6.134   2.244  1.9862 -1.2246 -0.7198
 5889SOL     OW20621   2.569   1.703   6.207 -0.1141 -0.3393  0.0627
 5889SOL    HW120622   2.613   1.786   6.225 -0.3877 -0.0792 -0.4457
 5889SOL    HW220623   2.481   1.729   6.177 -0.7201 -0.8500  1.3248
 5890SOL     OW20624   3.897   5.657   4.596  0.0810 -0.0683  0.0470
 5890SOL    HW120625   3.862   5.714   4.664 -1.2673 -2.0888  1.1483
 5890SOL    HW220626   3.844   5.675   4.519 -1.8597 -1.3376  1.0152
 5891SOL     OW20627   4.263   6.985   4.316 -0.0814  0.3890 -0.3692
 5891SOL    HW120628   4.319   6.929   4.370 -0.8993  1.1879  1.3800
 5891SOL    HW220629   4.319   7.059   4.293  0.0725  0.3982  0.0207
 5892SOL     OW20630   3.281   1.370   3.527 -0.0615  0.1122  0.0106
 5892SOL    HW120631   3.198   1.324   3.542  0.4079  0.0044  2.8034
 5892SOL    HW220632   3.256   1.462   3.520 -0.5267 -0.0485 -0.5168
 5893SOL     OW20633   2.472   4.099   7.516  0.4343 -0.3717 -0.0628
 5893SOL    HW120634   2.436   4.066   7.433 -1.9200 -3.5718  1.9675
 5893SOL    HW220635   2.567   4.095   7.505  0.1989 -2.1349 -2.1431
 5894SOL     OW20636  10.475   5.950  10.166  0.1454  0.2287  0.3355
 5894SOL    HW120637  10.399   5.893  10.159 -0.5554  1.1965 -0.1471
 5894SOL    HW220638  10.542   5.909  10.111 -0.6656  0.3714 -0.7734
 5895SOL     OW20639   6.618   8.760   4.592 -0.3293  0.2398 -0.4727
 5895SOL    HW120640   6.679   8.726   4.658 -0.7277  0.4751  0.0257
 5895SOL    HW220641   6.540   8.704   4.600 -0.4116  0.3245 -0.6827
 5896SOL     OW20642   3.800   2.636   9.092 -0.0453 -0.4375  0.0089
 5896SOL    HW120643   3.861   2.567   9.118  0.4658 -0.7467 -1.8550
 5896SOL    HW220644   3.730   2.589   9.047  0.8490  0.2827 -2.2781
 5897SOL     OW20645  10.679   3.903   2.996  0.1304  0.7303  0.4588
 5897SOL    HW120646  10.619   3.977   3.003 -2.4029 -0.8762 -1.8833
 5897SOL    HW220647  10.744   3.930   2.931  2.3725  2.5936  3.2280
 5898SOL     OW20648   5.202   7.746  10.321 -0.2393 -0.0186  0.0129
 5898SOL    HW120649   5.185   7.795  10.240 -1.6628  0.5554  0.6256
 5898SOL    HW220650   5.194   7.654  10.296  1.4296  0.0405 -0.9280
 5899SOL     OW20651   5.108   2.085   2.939  0.3866 -0.7081 -1.1237
 5899SOL    HW120652   5.195   2.109   2.907  0.0762  1.8444 -0.2628
 5899SOL    HW220653   5.124   2.012   2.999  2.3023  1.1756  0.8343
 5900SOL     OW20654   9.625   3.624  10.043  0.4198  0.5731 -0.1968
 5900SOL    HW120655   9.633   3.576  10.125 -1.4922 -3.5644 -2.1240
 5900SOL    HW220656   9.534   3.656  10.042 -0.5337 -1.8731 -1.6808
 5901SOL     OW20657  10.524   0.388   0.894  0.2104 -0.0133 -0.0835
 5901SOL    HW120658  10.560   0.370   0.981 -0.9218  1.7092  0.7975
 5901SOL    HW220659  10.596   0.430   0.847  0.6469 -0.4254  0.1942
 5902SOL     OW20660   1.313   2.654   2.646  0.2742 -0.3598  0.5456
 5902SOL    HW120661   1.342   2.563   2.644 -0.4005 -0.5903  1.0302
 5902SOL    HW220662   1.271   2.664   2.732 -0.7272  0.0765  0.0177
 5903SOL     OW20663   8.781   3.896   0.462  0.3945  0.1990 -0.1060
 5903SOL    HW120664   8.854   3.952   0.437 -0.3732  0.9927 -0.6102
 5903SOL    HW220665   8.768   3.837   0.388 -0.1230  0.7411 -0.4579
 5904SOL     OW20666   5.885   3.555   2.059  0.4837  0.4387 -0.2255
 5904SOL    HW120667   5.877   3.648   2.037 -1.4583  0.3381 -0.1912
 5904SOL    HW220668   5.878   3.553   2.154 -2.7292  0.1155 -0.3542
 5905SOL     OW20669   3.274   4.046   9.677  0.0817 -0.3391  0.1616
 5905SOL    HW120670   3.189   4.018   9.712  0.5207 -1.9860 -0.0150
 5905SOL    HW220671   3.255   4.129   9.633 -1.4520 -0.6885  0.0923
 5906SOL     OW20672   6.648   1.429   2.384  0.0557  0.6194 -0.1263
 5906SOL    HW120673   6.580   1.372   2.347 -0.9727  2.2236 -0.8170
 5906SOL    HW220674   6.704   1.370   2.434 -1.1568 -0.9406 -0.5296
 5907SOL     OW20675   6.675   6.161   2.126 -0.2939  0.6455  0.0366
 5907SOL    HW120676   6.667   6.074   2.165  1.0849  0.4020 -0.1620
 5907SOL    HW220677   6.678   6.221   2.200 -0.4867  0.4490  0.2020
 5908SOL     OW20678   2.676   4.661   0.675  0.5060  0.2781 -0.0637
 5908SOL    HW120679   2.609   4.600   0.707  1.4094  0.3398  2.0524
 5908SOL    HW220680   2.677   4.647   0.580 -1.5125 -0.7198  0.0118
 5909SOL     OW20681   2.820   9.925   2.607 -0.0840  0.4814 -0.1445
 5909SOL    HW120682   2.806   9.926   2.701  1.1365  0.6446  0.0494
 5909SOL    HW220683   2.766   9.997   2.573  0.6417  1.3938  0.6049
 5910SOL     OW20684   6.633   7.968  10.194 -0.3897  0.1595  0.4611
 5910SOL    HW120685   6.618   8.013  10.277 -1.5686  0.6858 -0.0219
 5910SOL    HW220686   6.591   7.882  10.204 -0.6469  0.2738  0.3616
 5911SOL     OW20687   1.906   1.365   9.693  0.4375 -0.6292  0.1681
 5911SOL    HW120688   1.870   1.424   9.760 -0.0378 -0.5443 -0.1624
 5911SOL    HW220689   1.953   1.298   9.743 -1.8350 -1.8870  0.7241
 5912SOL     OW20690   3.180   2.860   3.989  0.5582 -0.3787  0.1908
 5912SOL    HW120691   3.191   2.859   3.894  1.1416 -0.8856  0.2586
 5912SOL    HW220692   3.162   2.769   4.012 -1.4206  0.0134  0.3719
 5913SOL     OW20693   2.331   2.041   6.426 -0.6577 -0.1692 -0.5850
 5913SOL    HW120694   2.412   2.086   6.401 -0.6303 -0.1777 -0.5114
 5913SOL    HW220695   2.326   2.052   6.521 -0.2368 -1.0029 -0.4563
 5914SOL     OW20696   2.082   7.099   9.836 -0.2895  0.1834  0.3734
 5914SOL    HW120697   2.085   7.177   9.779  0.2878 -1.0688 -1.4051
 5914SOL    HW220698   1.999   7.106   9.881 -1.3718  0.6467 -1.5600
 5915SOL     OW20699   3.611   4.875   7.645  0.4829 -0.0520 -0.2374
 5915SOL    HW120700   3.567   4.821   7.579  0.3933  2.0330 -1.9804
 5915SOL    HW220701   3.549   4.944   7.665  1.5616  0.8749  0.0088
 5916SOL     OW20702   3.263   8.926   5.323  0.1632 -0.2129  0.2045
 5916SOL    HW120703   3.196   8.943   5.390  1.7218 -0.9084  2.0361
 5916SOL    HW220704   3.341   8.972   5.355  0.9624 -0.5548 -1.1666
 5917SOL     OW20705   4.750   6.736  10.685  0.7087  0.6996  0.8575
 5917SOL    HW120706   4.694   6.717  10.760  2.2486  0.7980  2.1004
 5917SOL    HW220707   4.829   6.684  10.701 -0.5284 -3.0608 -3.0213
 5918SOL     OW20708   9.507   2.301   3.200  0.3369  0.3648  0.2026
 5918SOL    HW120709   9.596   2.327   3.227 -0.5199  3.0675  0.7012
 5918SOL    HW220710   9.449   2.356   3.252 -1.7086 -1.5759  0.1438
 5919SOL     OW20711   8.344   1.660   6.448 -0.1919 -0.1754  0.5050
 5919SOL    HW120712   8.312   1.748   6.428 -0.5277 -0.4672 -0.2876
 5919SOL    HW220713   8.274   1.619   6.498 -0.3336 -0.2347  0.2563
 5920SOL     OW20714   0.694   5.342  10.303 -0.1543 -0.4382 -0.3442
 5920SOL    HW120715   0.731   5.396  10.372  0.0111  0.0899 -0.8392
 5920SOL    HW220716   0.622   5.394  10.267 -0.2158 -0.6921 -0.5968
 5921SOL     OW20717   2.932   8.613   1.046 -0.5870 -0.6978 -0.1714
 5921SOL    HW120718   2.950   8.524   1.016 -2.3423 -0.7740 -1.1663
 5921SOL    HW220719   2.940   8.666   0.967 -0.6342 -0.1512  0.1922
 5922SOL     OW20720   2.790   6.421   2.912 -0.3336  0.8579  0.7351
 5922SOL    HW120721   2.831   6.397   2.829 -1.1639  1.3730  0.1540
 5922SOL    HW220722   2.755   6.338   2.946 -0.8401  0.7904  0.0772
 5923SOL     OW20723   0.572   4.439   7.059 -0.1820  0.4187 -0.4528
 5923SOL    HW120724   0.610   4.353   7.077  0.6032  1.0571  1.1292
 5923SOL    HW220725   0.647   4.497   7.050 -0.7026  1.3423  0.7930
 5924SOL     OW20726   3.642   7.222   7.910 -0.3704  0.0627  0.8807
 5924SOL    HW120727   3.718   7.212   7.967  0.1437 -0.0713  0.1847
 5924SOL    HW220728   3.669   7.287   7.845 -0.6901 -0.3192  0.3570
 5925SOL     OW20729   1.474   5.085   8.094  0.5067 -0.1676 -0.0158
 5925SOL    HW120730   1.452   5.125   8.178 -2.3831 -0.0794 -0.7188
 5925SOL    HW220731   1.515   5.155   8.044 -0.0647  0.5313  0.4639
 5926SOL     OW20732   0.913   8.584   2.141  0.6637  0.0488 -0.3295
 5926SOL    HW120733   0.966   8.622   2.072  0.5444  0.5134 -0.1691
 5926SOL    HW220734   0.955   8.613   2.222  0.1564  0.4409 -0.2018
 5927SOL     OW20735   1.174   1.739   3.544  0.2174 -0.5826 -0.0689
 5927SOL    HW120736   1.236   1.718   3.614 -0.6637  1.6064  1.4869
 5927SOL    HW220737   1.131   1.657   3.524  0.9528 -1.3816  1.5131
 5928SOL     OW20738   0.854   0.486   0.312 -0.3094  0.4476 -0.4418
 5928SOL    HW120739   0.873   0.568   0.358  2.0456  0.3834 -1.2000
 5928SOL    HW220740   0.869   0.418   0.378  2.2476  0.4087 -0.9655
 5929SOL     OW20741   5.256   1.383   2.327 -0.1518 -0.5319 -0.1898
 5929SOL    HW120742   5.195   1.363   2.398 -0.4856  0.0092 -0.3095
 5929SOL    HW220743   5.319   1.312   2.328  1.6498  0.9226  2.6083
 5930SOL     OW20744   5.604   8.866   3.595  0.6291 -0.1132  0.2802
 5930SOL    HW120745   5.619   8.961   3.588 -0.0265 -0.0503 -0.2851
 5930SOL    HW220746   5.666   8.828   3.533 -2.1621  0.2126 -3.0069
 5931SOL     OW20747   3.279   4.756   1.614  0.2294 -0.2031  0.4924
 5931SOL    HW120748   3.219   4.692   1.576  1.8441 -0.2128 -2.2751
 5931SOL    HW220749   3.342   4.703   1.662  0.3692 -0.5346 -0.0469
 5932SOL     OW20750   5.752   9.990   9.979  0.0506 -0.0259  0.1132
 5932SOL    HW120751   5.743   9.959  10.069  1.5025 -0.4717  0.1348
 5932SOL    HW220752   5.713   9.921   9.925  1.2447 -0.8943  0.3009
 5933SOL     OW20753   4.634   3.600   5.010 -0.1371  0.7191 -0.0867
 5933SOL    HW120754   4.621   3.509   5.039  0.4842  0.5765 -0.2533
 5933SOL    HW220755   4.680   3.641   5.083  0.2774  0.6941 -0.3302
 5934SOL     OW20756   2.109   4.882   6.509  0.2884  0.2636  0.1609
 5934SOL    HW120757   2.146   4.851   6.592 -0.3337 -0.7946  0.0580
 5934SOL    HW220758   2.067   4.965   6.531  2.4778  1.4075  0.3277
 5935SOL     OW20759   7.698   5.241   4.862 -0.5882  0.1710 -0.3156
 5935SOL    HW120760   7.663   5.330   4.865  0.2342  0.4655  0.8643
 5935SOL    HW220761   7.702   5.213   4.953 -1.6022 -1.3993 -0.7159
 5936SOL     OW20762   6.528   7.840   1.636 -0.1508 -0.5720 -0.0583
 5936SOL    HW120763   6.459   7.800   1.689 -0.0280  0.0724  0.6068
 5936SOL    HW220764   6.609   7.801   1.668  0.1094  1.1589  1.5609
 5937SOL     OW20765   1.554   3.790   1.969  0.6775  0.1235  0.6327
 5937SOL    HW120766   1.538   3.867   1.914  1.7230  0.7448  1.1704
 5937SOL    HW220767   1.553   3.716   1.908 -1.0053  0.4647  0.1960
 5938SOL     OW20768  10.114   3.926   6.511  0.1801 -0.2014 -0.3053
 5938SOL    HW120769  10.093   3.901   6.601  0.1339  0.5651 -0.1015
 5938SOL    HW220770  10.187   3.987   6.519  0.4614 -0.4636 -0.8186
 5939SOL     OW20771   3.125   6.732   5.977  0.1676 -0.0590 -0.2989
 5939SOL    HW120772   3.054   6.684   6.020  0.0530  0.8724  0.5882
 5939SOL    HW220773   3.123   6.701   5.887  0.2529 -1.8775  0.2890
 5940SOL     OW20774   4.449   6.505   1.392  0.0696  0.3189  0.4063
 5940SOL    HW120775   4.474   6.474   1.479 -0.2782  0.3251  0.5088
 5940SOL    HW220776   4.528   6.549   1.359 -0.0296  0.9803  1.0220
 5941SOL     OW20777   6.790   6.603   9.163 -0.0823  0.1727  0.0036
 5941SOL    HW120778   6.768   6.601   9.257  0.8775  1.5929  0.3006
 5941SOL    HW220779   6.715   6.562   9.120 -1.1500  0.6551  1.3073
 5942SOL     OW20780  10.460   4.199   9.054  0.0473 -0.1808 -0.1423
 5942SOL    HW120781  10.381   4.161   9.015  0.2034  1.2088 -1.9478
 5942SOL    HW220782  10.510   4.124   9.085 -1.3288 -1.1784 -0.2465
 5943SOL     OW20783   1.589   9.981   0.661 -0.3457 -0.5382 -0.2335
 5943SOL    HW120784   1.666   9.930   0.636  0.3035  1.1226 -1.8503
 5943SOL    HW220785   1.609  10.071   0.634 -1.9200  0.3843  1.4375
 5944SOL     OW20786   1.924   6.740   5.690 -1.4911  0.1366 -0.0211
 5944SOL    HW120787   1.973   6.776   5.764 -0.1883 -1.5203 -0.0264
 5944SOL    HW220788   1.903   6.651   5.716 -1.9251 -0.1376 -1.2419
 5945SOL     OW20789   3.403   1.114   8.318  0.0797 -0.2502  0.1381
 5945SOL    HW120790   3.485   1.065   8.317 -0.6696 -1.6075 -1.9048
 5945SOL    HW220791   3.378   1.117   8.410  1.6236 -1.2222  0.6241
 5946SOL     OW20792   2.451   0.981   4.441 -0.4340  0.1823 -0.1736
 5946SOL    HW120793   2.384   0.943   4.497 -0.7647  0.6650 -0.2371
 5946SOL    HW220794   2.531   0.933   4.463 -1.0877 -1.4363 -1.1602
 5947SOL     OW20795   9.410   7.982   3.670  0.0315  0.1148  0.0233
 5947SOL    HW120796   9.410   7.988   3.766  1.5060  0.0995  0.0404
 5947SOL    HW220797   9.318   7.968   3.648 -0.4603  0.9654  1.3723
 5948SOL     OW20798   4.769   3.542   1.927  0.0099 -0.1972  0.2439
 5948SOL    HW120799   4.722   3.600   1.867  0.0893 -1.5620 -1.1767
 5948SOL    HW220800   4.854   3.586   1.941  0.7841 -0.7443 -2.2206
 5949SOL     OW20801   7.139   8.002  10.206  0.1286  0.6126 -0.1636
 5949SOL    HW120802   7.133   8.097  10.192 -0.8419  1.0499  2.6715
 5949SOL    HW220803   7.069   7.966  10.151  0.1107  1.5707 -0.8095
 5950SOL     OW20804   0.091   3.388   6.916  0.1583  0.3954 -0.3290
 5950SOL    HW120805   0.125   3.405   7.004 -0.8249 -0.0439  0.1628
 5950SOL    HW220806   0.168   3.374   6.862  0.7541 -0.3359  0.6849
 5951SOL     OW20807   1.331   0.383   4.070 -0.1389  0.1367  0.1810
 5951SOL    HW120808   1.377   0.330   4.135  3.5609  0.0596 -2.1960
 5951SOL    HW220809   1.274   0.321   4.024  0.3047 -0.6928  0.7217
 5952SOL     OW20810   5.573   1.560   8.559  0.3550  0.2442  0.4446
 5952SOL    HW120811   5.507   1.624   8.532 -0.4036 -0.8827 -0.4887
 5952SOL    HW220812   5.549   1.537   8.649  0.3624  0.9109  0.6235
 5953SOL     OW20813   6.714   5.681   0.042  0.0572  0.2472  0.1493
 5953SOL    HW120814   6.647   5.612   0.048 -0.6399  0.9312  0.4083
 5953SOL    HW220815   6.745   5.691   0.131 -0.4411  0.8405  0.2620
 5954SOL     OW20816   7.865   3.385   9.768 -0.2327 -0.2101 -0.2963
 5954SOL    HW120817   7.924   3.432   9.711 -0.6626 -0.7229 -1.1841
 5954SOL    HW220818   7.803   3.452   9.798  0.3674  0.1858  0.0893
 5955SOL     OW20819   9.820   1.530   9.639  0.0249 -0.3025  0.1443
 5955SOL    HW120820   9.905   1.545   9.680  0.1003  0.9751 -0.4383
 5955SOL    HW220821   9.839   1.528   9.545 -0.9100  2.7402 -0.1947
 5956SOL     OW20822   4.136   6.884   4.865  0.4097  0.1383 -0.3495
 5956SOL    HW120823   4.214   6.829   4.867  0.7597  0.6143 -0.6426
 5956SOL    HW220824   4.152   6.946   4.793  0.8387  1.8116  1.1063
 5957SOL     OW20825   9.130   6.797   3.525 -0.5136 -0.0279  0.5705
 5957SOL    HW120826   9.046   6.841   3.536 -0.6640 -0.7843  3.1093
 5957SOL    HW220827   9.195   6.861   3.553 -0.0565  0.8965 -2.2783
 5958SOL     OW20828   9.818   8.531   4.896  0.0527  0.0376 -0.1324
 5958SOL    HW120829   9.793   8.614   4.935 -0.2058 -0.4512  0.7533
 5958SOL    HW220830   9.766   8.465   4.941  1.2069 -0.7573  0.1057
 5959SOL     OW20831   3.361  10.327   4.359 -0.4018 -0.4676  0.1807
 5959SOL    HW120832   3.316  10.250   4.395 -0.6313  0.0528  1.0535
 5959SOL    HW220833   3.454  10.310   4.375 -0.4080 -0.8043 -0.1277
 5960SOL     OW20834   9.662   8.898   7.882 -0.1351  0.4461  0.0901
 5960SOL    HW120835   9.693   8.944   7.959  1.7447  0.0335 -0.3693
 5960SOL    HW220836   9.671   8.961   7.810 -0.8417  0.4789  0.0259
 5961SOL     OW20837   6.553   2.928   4.357 -0.6108  0.2440  0.6988
 5961SOL    HW120838   6.496   2.862   4.316 -0.1504  0.4311 -0.2660
 5961SOL    HW220839   6.621   2.944   4.292  0.7242 -0.1929  1.9548
 5962SOL     OW20840   3.602   4.299   4.016 -0.3227  0.5593  0.0778
 5962SOL    HW120841   3.618   4.383   4.059 -1.0441 -0.4101  2.3936
 5962SOL    HW220842   3.562   4.244   4.084 -2.2088 -0.8856 -2.0536
 5963SOL     OW20843   9.493   1.118   0.698 -0.4153  0.4644 -0.2511
 5963SOL    HW120844   9.495   1.033   0.742  2.1675 -0.3797 -1.7803
 5963SOL    HW220845   9.502   1.181   0.769  2.7408 -0.8112  0.6479
 5964SOL     OW20846  10.055   4.514  10.200  0.0010 -0.2124  0.4958
 5964SOL    HW120847  10.139   4.551  10.226  0.6930 -1.0363 -0.4895
 5964SOL    HW220848  10.035   4.449  10.268  0.1957 -0.0774  0.6833
 5965SOL     OW20849   3.659   7.056   0.440 -0.3350  0.1881 -0.3017
 5965SOL    HW120850   3.732   7.085   0.384  1.7852  0.4034  2.3912
 5965SOL    HW220851   3.691   6.977   0.482 -1.8642  0.0313  0.6460
 5966SOL     OW20852   2.611   3.606   5.067 -0.4282  0.2409 -0.0598
 5966SOL    HW120853   2.588   3.632   5.156  0.5697 -0.2145  0.3435
 5966SOL    HW220854   2.660   3.681   5.032 -0.0206  0.0580  0.1079
 5967SOL     OW20855   2.732   2.285   6.900  0.3168 -0.0488 -0.6413
 5967SOL    HW120856   2.806   2.226   6.892  1.3458  0.9257  1.0803
 5967SOL    HW220857   2.655   2.228   6.898  0.9161 -0.9678 -3.9193
 5968SOL     OW20858   6.917   9.772   4.024  0.0487  0.0385  0.5283
 5968SOL    HW120859   6.849   9.741   3.965  0.2058 -1.2278  0.9785
 5968SOL    HW220860   6.938   9.696   4.079 -0.3312  1.2599  2.4598
 5969SOL     OW20861   1.069   7.564  10.557 -0.2903 -0.1938  0.0339
 5969SOL    HW120862   1.114   7.509  10.493  1.7469  1.3274  0.0613
 5969SOL    HW220863   1.051   7.646  10.511 -0.0125  0.4316  1.0119
 5970SOL     OW20864   9.688   3.681   2.032 -0.3732  0.3176  0.1392
 5970SOL    HW120865   9.627   3.617   2.070 -1.3360  0.6004 -0.8626
 5970SOL    HW220866   9.775   3.646   2.053 -0.8695 -0.7932  0.4727
 5971SOL     OW20867   2.931   2.367   8.704  0.1845  0.1596  0.0026
 5971SOL    HW120868   2.869   2.334   8.639  1.0099  0.3391 -0.8950
 5971SOL    HW220869   2.876   2.397   8.776 -0.7071 -0.9681 -0.1689
 5972SOL     OW20870   9.208   9.483   0.962 -0.6701 -0.0287 -0.1097
 5972SOL    HW120871   9.173   9.441   1.041  1.2624  0.7792  1.2727
 5972SOL    HW220872   9.301   9.461   0.962 -0.1976  1.7364 -0.9805
 5973SOL     OW20873   7.178   2.389   0.159 -0.2615 -0.0248 -0.5051
 5973SOL    HW120874   7.155   2.318   0.099 -0.8126 -0.6897  0.4591
 5973SOL    HW220875   7.129   2.369   0.239  3.0008 -1.0565  1.4171
 5974SOL     OW20876   0.951   8.681   9.948 -0.0986 -0.0089 -0.3617
 5974SOL    HW120877   1.013   8.628   9.997  1.0213  0.7344 -0.9215
 5974SOL    HW220878   0.919   8.746  10.011 -0.2187 -0.3198 -0.1004
 5975SOL     OW20879   5.508   0.122   1.238 -0.1276 -0.3162 -0.2982
 5975SOL    HW120880   5.573   0.055   1.257  1.1956  0.9960  0.0813
 5975SOL    HW220881   5.452   0.125   1.316  0.6120 -0.1143  0.2379
 5976SOL     OW20882   2.120   0.846   9.810 -0.5818 -0.4731 -0.1055
 5976SOL    HW120883   2.210   0.820   9.830 -0.8045 -0.6842  0.6700
 5976SOL    HW220884   2.123   0.941   9.801 -0.4999 -0.3340  1.2052
 5977SOL     OW20885   1.205   1.831   4.942  0.5147 -0.0915  0.0753
 5977SOL    HW120886   1.292   1.856   4.910  0.1107  0.9914 -0.2094
 5977SOL    HW220887   1.177   1.761   4.882  0.0670  1.4255 -1.5635
 5978SOL     OW20888  10.341   8.193   1.303  0.1637 -0.2051 -0.5166
 5978SOL    HW120889  10.291   8.135   1.360  0.3618 -1.4411 -1.5669
 5978SOL    HW220890  10.275   8.253   1.266  0.1736  1.3067  1.7541
 5979SOL     OW20891   6.345   5.622   1.840  0.0418 -0.2782 -0.5739
 5979SOL    HW120892   6.406   5.637   1.768  0.0717  2.2080 -0.1321
 5979SOL    HW220893   6.351   5.701   1.893  0.8820 -2.4624  2.8821
 5980SOL     OW20894   6.152   6.007   3.338  0.0457 -0.4571  0.1405
 5980SOL    HW120895   6.066   6.050   3.335 -0.3498 -1.2989 -2.3302
 5980SOL    HW220896   6.210   6.073   3.375 -1.1743  1.0274 -0.4775
 5981SOL     OW20897   8.002   8.523   8.355 -0.0733  0.1545 -0.3598
 5981SOL    HW120898   7.917   8.501   8.394 -0.3149  1.6064 -0.0317
 5981SOL    HW220899   7.986   8.522   8.261 -0.9392  2.1440 -0.2726
 5982SOL     OW20900   6.257   9.198   7.647  0.6538  0.5186 -0.5496
 5982SOL    HW120901   6.195   9.248   7.594 -0.7285  1.0804  1.4666
 5982SOL    HW220902   6.211   9.117   7.668 -1.4174  2.5476  4.3667
 5983SOL     OW20903   9.476   7.060   4.754  0.8783 -0.2093  0.2167
 5983SOL    HW120904   9.518   7.097   4.832  2.4029 -0.7833 -0.2917
 5983SOL    HW220905   9.505   7.117   4.682  0.4181 -0.3557 -0.0855
 5984SOL     OW20906   9.374   0.173   4.143  0.4355  0.4287 -0.0020
 5984SOL    HW120907   9.337   0.261   4.135 -0.6394 -0.0321 -0.2140
 5984SOL    HW220908   9.322   0.119   4.084  0.0325 -0.6716  1.2932
 5985SOL     OW20909   7.461   9.874   3.574 -0.7871 -0.2493 -0.5576
 5985SOL    HW120910   7.375   9.904   3.544  0.1267  0.4874 -2.6392
 5985SOL    HW220911   7.474   9.789   3.531 -0.2536 -0.1082 -0.6836
 5986SOL     OW20912   1.530   1.523   8.673 -0.1550 -0.1505 -0.4652
 5986SOL    HW120913   1.598   1.523   8.606 -0.4606  0.6112 -0.7965
 5986SOL    HW220914   1.465   1.585   8.641 -2.6332 -3.1697 -1.7422
 5987SOL     OW20915   5.536   0.412   6.777 -0.4668  0.0641 -0.1791
 5987SOL    HW120916   5.444   0.399   6.796 -0.3858 -1.1511 -0.5243
 5987SOL    HW220917   5.543   0.400   6.682  0.1447 -0.6328 -0.0596
 5988SOL     OW20918   2.089   4.961   1.978  0.0947 -0.9845  0.4802
 5988SOL    HW120919   2.103   4.981   2.070  1.2314  2.3477 -0.2699
 5988SOL    HW220920   2.022   5.023   1.950  0.6494 -1.0721 -1.1590
 5989SOL     OW20921   4.850   1.849   4.330  0.2697 -0.5331  0.1167
 5989SOL    HW120922   4.916   1.877   4.393 -0.1742 -0.5170  0.5802
 5989SOL    HW220923   4.850   1.754   4.336  0.0542 -0.5219  0.3272
 5990SOL     OW20924   2.937   5.000   5.317 -0.3088  1.0621  0.0621
 5990SOL    HW120925   2.848   4.973   5.296 -0.2816  1.5261 -0.7150
 5990SOL    HW220926   2.952   5.077   5.261  1.5446 -0.6362 -1.9558
 5991SOL     OW20927   6.291   2.674   7.872  0.6005 -0.2217 -0.2467
 5991SOL    HW120928   6.291   2.618   7.794  2.6406 -0.2200 -0.3001
 5991SOL    HW220929   6.328   2.619   7.941 -0.4913  0.0182  0.5572
 5992SOL     OW20930   5.710   1.407   1.493 -0.4881 -0.1017  0.2500
 5992SOL    HW120931   5.692   1.365   1.577  0.3821 -0.8260  0.0896
 5992SOL    HW220932   5.704   1.335   1.429 -1.3927  0.4827 -0.3554
 5993SOL     OW20933   9.203   2.999  10.361 -0.0547 -0.8642 -0.0985
 5993SOL    HW120934   9.167   3.062  10.298 -0.6713  0.3439  1.4087
 5993SOL    HW220935   9.288   2.976  10.325  0.1349  0.7485 -0.7650
 5994SOL     OW20936   2.784   8.641   1.967  0.1959 -0.5607 -0.2261
 5994SOL    HW120937   2.874   8.644   1.935  0.1235  2.2255 -0.4058
 5994SOL    HW220938   2.774   8.721   2.018 -1.9737 -1.1902  0.4278
 5995SOL     OW20939   1.701   3.281   4.695 -0.0817 -0.7399  0.1340
 5995SOL    HW120940   1.676   3.289   4.603 -0.3368  0.9083  0.3222
 5995SOL    HW220941   1.626   3.315   4.744  1.1839  1.2301  0.8222
 5996SOL     OW20942   8.421   1.022   6.736 -0.3781  0.1671  0.0391
 5996SOL    HW120943   8.331   1.043   6.710 -0.5663 -0.9073 -0.2241
 5996SOL    HW220944   8.417   0.931   6.765  0.7333 -0.0918 -0.5605
 5997SOL     OW20945   8.115   2.190   7.501 -0.3405  0.5170 -0.6417
 5997SOL    HW120946   8.152   2.112   7.542  0.1881  0.8534 -0.4809
 5997SOL    HW220947   8.066   2.233   7.571  0.1201  0.8099 -0.4997
 5998SOL     OW20948   1.503   3.677   2.410  0.7834 -0.1824 -0.4074
 5998SOL    HW120949   1.564   3.699   2.480  0.9241 -1.2862 -0.1555
 5998SOL    HW220950   1.553   3.690   2.330  0.8761  0.3235 -0.2699
 5999SOL     OW20951   2.439   3.718   4.525 -0.6731 -0.0446 -0.3236
 5999SOL    HW120952   2.369   3.737   4.588 -0.4475  0.2130 -0.1467
 5999SOL    HW220953   2.514   3.694   4.580 -0.5296 -0.0071 -0.5043
 6000SOL     OW20954   4.550   8.182  10.614 -0.0103  0.6225 -0.6528
 6000SOL    HW120955   4.640   8.196  10.584  0.3926 -0.8726 -0.2381
 6000SOL    HW220956   4.557   8.109  10.676 -1.5459  0.3241 -0.8088
 6001SOL     OW20957   0.370   8.790   6.832  0.4106 -0.6025  0.1782
 6001SOL    HW120958   0.440   8.819   6.774 -0.5303 -1.3288 -1.3814
 6001SOL    HW220959   0.388   8.834   6.915  0.3897  2.4997 -1.3389
 6002SOL     OW20960   9.255   0.299   8.748 -0.0590  0.9282  0.2987
 6002SOL    HW120961   9.259   0.242   8.825 -0.4732  1.0717  0.4300
 6002SOL    HW220962   9.342   0.338   8.743 -0.1821  1.3334  1.0243
 6003SOL     OW20963   3.190   0.313   7.200  0.0231 -0.2378  0.1290
 6003SOL    HW120964   3.201   0.337   7.292  1.2311 -0.3554  0.0297
 6003SOL    HW220965   3.199   0.395   7.152  0.6834 -0.3627  0.0322
 6004SOL     OW20966   6.040   8.792   3.336  0.3398 -0.0933 -0.0745
 6004SOL    HW120967   5.957   8.833   3.312  0.1443  0.3343  1.2257
 6004SOL    HW220968   6.105   8.837   3.282 -0.1598  0.2348 -0.4130
 6005SOL     OW20969   1.258   1.524   7.317 -0.2366 -0.4185 -0.1167
 6005SOL    HW120970   1.286   1.615   7.325 -0.1778 -0.4967  0.6551
 6005SOL    HW220971   1.298   1.494   7.235  0.9849 -0.1819  0.3602
 6006SOL     OW20972   0.701   2.818   2.612 -0.1574  0.0766  0.4856
 6006SOL    HW120973   0.797   2.813   2.609  0.0704  2.3536  1.5528
 6006SOL    HW220974   0.679   2.792   2.702 -0.5397 -0.2969  0.2865
 6007SOL     OW20975   0.554   2.892   6.924  0.2195  0.1470 -0.0958
 6007SOL    HW120976   0.604   2.868   7.003  4.0508  1.7927 -1.7532
 6007SOL    HW220977   0.540   2.986   6.933 -0.8451  0.0459 -0.6337
 6008SOL     OW20978   9.644   1.025   0.464  0.1847  0.1729  0.8058
 6008SOL    HW120979   9.590   1.045   0.540  2.3732  0.5973  2.3319
 6008SOL    HW220980   9.593   1.056   0.389 -1.0455  1.8685  2.2729
 6009SOL     OW20981   6.833  10.186   8.821  0.5088  0.0650 -0.3955
 6009SOL    HW120982   6.761  10.195   8.883  1.5034  0.8634  0.6766
 6009SOL    HW220983   6.853  10.092   8.820  0.6174  0.0636  0.6641
 6010SOL     OW20984   6.862   0.563   6.665  0.1011 -0.4563  0.1643
 6010SOL    HW120985   6.885   0.476   6.634  1.8751  0.0237  0.0133
 6010SOL    HW220986   6.930   0.620   6.629 -1.0912  1.0251  0.1385
 6011SOL     OW20987   6.611   0.909   7.143  0.2933  0.0125 -0.3314
 6011SOL    HW120988   6.601   0.953   7.059 -1.4562 -1.1332 -0.7811
 6011SOL    HW220989   6.679   0.959   7.189  1.5781  0.4335 -2.5506
 6012SOL     OW20990   8.383   1.680   1.863 -0.4887 -0.2989  0.2614
 6012SOL    HW120991   8.415   1.608   1.810  0.9607  0.5958 -0.1342
 6012SOL    HW220992   8.322   1.727   1.806  0.2120  0.0114 -0.2495
 6013SOL     OW20993   1.734   5.714   8.060  0.3082  0.4711  0.0479
 6013SOL    HW120994   1.820   5.757   8.064 -0.0699  1.1533  2.4654
 6013SOL    HW220995   1.673   5.779   8.096 -1.1571 -0.2042 -1.1002
 6014SOL     OW20996   1.355   2.272   0.279 -0.2179 -0.0991 -0.2074
 6014SOL    HW120997   1.424   2.299   0.218  2.7568  0.2915  3.0383
 6014SOL    HW220998   1.302   2.350   0.291 -1.5682 -0.4602 -2.9199
 6015SOL     OW20999   3.617   5.368   9.092 -0.2592 -0.1108  0.0066
 6015SOL    HW121000   3.636   5.384   8.999 -1.3665  1.6049  0.0403
 6015SOL    HW221001   3.545   5.305   9.091 -0.9390  0.6606 -0.3324
 6016SOL     OW21002   3.547   1.962   1.183 -0.1668  0.2719  0.5396
 6016SOL    HW121003   3.633   1.925   1.165  0.5715  1.8927  0.5833
 6016SOL    HW221004   3.564   2.035   1.243 -1.5111  0.8714  0.2309
 6017SOL     OW21005   0.063   9.705   2.248  0.7130  0.4671  0.0491
 6017SOL    HW121006   0.005   9.743   2.315 -1.4622  0.4506 -1.7253
 6017SOL    HW221007   0.146   9.749   2.262  0.2648  0.7078  2.5442
 6018SOL     OW21008   3.995   3.187   3.958  0.2678  0.6234  0.2726
 6018SOL    HW121009   3.961   3.251   4.021  1.0901  0.8379  0.4995
 6018SOL    HW221010   3.969   3.223   3.873  0.9395  1.4009  0.3835
 6019SOL     OW21011   2.224   6.916   4.814  0.2109 -0.1367  0.2229
 6019SOL    HW121012   2.313   6.953   4.810  0.1500 -0.0584 -0.3915
 6019SOL    HW221013   2.172   6.971   4.755  0.0729 -1.0686 -0.5358
 6020SOL     OW21014   9.199   1.526   9.067 -0.4988  0.0362  0.5000
 6020SOL    HW121015   9.175   1.574   8.988 -2.1291  0.2575  1.0958
 6020SOL    HW221016   9.290   1.501   9.053 -0.1771  1.6914 -0.6401
 6021SOL     OW21017   8.880   0.284   3.382  0.0093 -0.3939  0.5252
 6021SOL    HW121018   8.866   0.368   3.337  0.7565 -0.3840  0.2958
 6021SOL    HW221019   8.792   0.250   3.396 -0.2669 -0.3133 -0.8110
 6022SOL     OW21020   8.446   6.134   6.071  0.1206  0.0834 -0.0017
 6022SOL    HW121021   8.386   6.195   6.115  1.4604  0.5535  1.2475
 6022SOL    HW221022   8.393   6.095   6.001 -1.4870  0.8517  0.7270
 6023SOL     OW21023   1.661   7.063   3.551  0.0917 -0.1542  0.3791
 6023SOL    HW121024   1.672   7.040   3.459  3.3800  0.0723  0.6155
 6023SOL    HW221025   1.628   6.983   3.592  0.0787 -0.7283 -0.7155
 6024SOL     OW21026   7.214   0.169  10.063  0.2332  0.1007  0.5394
 6024SOL    HW121027   7.260   0.096  10.023  0.3603  0.2217  0.4623
 6024SOL    HW221028   7.256   0.247  10.026 -0.4595  0.2150 -0.0288
 6025SOL     OW21029   3.061   8.482   5.600 -0.6175 -0.1570 -0.0253
 6025SOL    HW121030   2.974   8.510   5.570  0.0228 -0.0408 -1.8747
 6025SOL    HW221031   3.103   8.447   5.522  1.3486  0.6739  0.6105
 6026SOL     OW21032   8.290   5.946   3.531 -0.1072  0.1715 -0.6243
 6026SOL    HW121033   8.232   5.874   3.556  1.3486 -0.2534  1.7860
 6026SOL    HW221034   8.378   5.916   3.554  0.9039  1.5692 -2.3629
 6027SOL     OW21035   0.725   0.958  10.096  0.2801  0.0466  0.2887
 6027SOL    HW121036   0.794   0.898  10.067  0.7988  1.6060 -1.9623
 6027SOL    HW221037   0.769   1.019  10.155 -0.2465 -1.6367  2.5773
 6028SOL     OW21038   2.351   6.499   3.307 -0.6598  0.4643  0.1678
 6028SOL    HW121039   2.316   6.502   3.396 -1.9182  0.0073 -0.2942
 6028SOL    HW221040   2.375   6.590   3.288  0.4465  0.4393  1.2575
 6029SOL     OW21041   3.466   3.401   5.950 -0.0531  0.0519 -0.1440
 6029SOL    HW121042   3.500   3.490   5.947  3.5260 -1.1749 -0.3359
 6029SOL    HW221043   3.524   3.355   6.011  0.1127 -2.8100 -2.2591
 6030SOL     OW21044   5.140   6.242   2.839 -0.1321  0.3900 -0.2703
 6030SOL    HW121045   5.201   6.226   2.767  0.1866  1.0128 -0.1403
 6030SOL    HW221046   5.132   6.337   2.844  0.7726  0.4228  1.2722
 6031SOL     OW21047   4.799   8.789   6.575  0.2584  0.0298  0.3295
 6031SOL    HW121048   4.860   8.844   6.526  0.4389 -1.8598 -1.7136
 6031SOL    HW221049   4.717   8.838   6.576  0.8792  1.1047  0.1743
 6032SOL     OW21050   1.400   4.192  10.500  0.7129  0.1812  0.5305
 6032SOL    HW121051   1.350   4.127  10.450  1.6206 -0.4175  0.3798
 6032SOL    HW221052   1.375   4.276  10.462  0.0962 -0.1391  0.2163
 6033SOL     OW21053   7.927   1.598   5.242 -0.1639 -0.0252  0.3389
 6033SOL    HW121054   7.871   1.520   5.238  1.2884 -1.0982  0.4359
 6033SOL    HW221055   7.988   1.588   5.170  0.6074  0.5760  0.8931
 6034SOL     OW21056   9.456   1.471   7.664 -0.0391  0.4070 -0.1959
 6034SOL    HW121057   9.518   1.497   7.732 -0.7955  0.7208  0.3890
 6034SOL    HW221058   9.371   1.496   7.699 -0.3615  1.5284 -1.7024
 6035SOL     OW21059   4.959   1.320   0.023  0.3431  0.0836 -0.1916
 6035SOL    HW121060   4.994   1.387  -0.035 -0.4681  0.8758  0.2003
 6035SOL    HW221061   5.018   1.320   0.098  0.1441  0.6141 -0.0340
 6036SOL     OW21062   7.723   5.741   3.049  0.6991  0.1674 -0.5384
 6036SOL    HW121063   7.717   5.649   3.072  1.2169 -0.0584 -1.2945
 6036SOL    HW221064   7.747   5.785   3.131  2.9257 -0.6691 -0.6827
 6037SOL     OW21065   8.675   8.099   6.970  0.3504 -0.2655  0.5558
 6037SOL    HW121066   8.605   8.069   7.027  0.1881 -1.2253 -0.1285
 6037SOL    HW221067   8.632   8.152   6.903  0.0948 -1.7450 -0.5009
 6038SOL     OW21068   8.132   9.469   3.675  0.1844 -0.7458  0.4385
 6038SOL    HW121069   8.125   9.384   3.632  0.7323 -1.5839  1.9301
 6038SOL    HW221070   8.065   9.467   3.743 -1.7081  1.1505 -1.2322
 6039SOL     OW21071   0.822   8.446  10.593 -0.1112 -0.4570 -0.3788
 6039SOL    HW121072   0.841   8.465  10.685  2.2675 -1.7018 -0.5492
 6039SOL    HW221073   0.899   8.477  10.546 -1.9693  1.7095 -2.2504
 6040SOL     OW21074   0.425   4.207   2.952  0.2647  0.3754 -0.2236
 6040SOL    HW121075   0.468   4.215   3.038  1.0739  0.7521 -0.6444
 6040SOL    HW221076   0.437   4.293   2.912  0.1890  0.0987 -0.8501
 6041SOL     OW21077   8.305   1.049   5.284 -0.0362 -0.4576  0.1360
 6041SOL    HW121078   8.332   1.134   5.317  0.2853 -0.2838 -0.5575
 6041SOL    HW221079   8.229   1.026   5.337 -0.1424  0.2709  0.3105
 6042SOL     OW21080   1.496   1.119   1.650  0.1771 -0.1460 -0.0245
 6042SOL    HW121081   1.497   1.074   1.565  1.2900  0.7833 -0.5434
 6042SOL    HW221082   1.566   1.184   1.643 -0.6501  0.9146  1.0977
 6043SOL     OW21083   5.293   1.984   6.498  0.3991 -0.1116 -0.2412
 6043SOL    HW121084   5.269   1.928   6.572 -2.3821  0.8957 -0.2868
 6043SOL    HW221085   5.357   2.045   6.534 -0.8238  0.3009  1.3396
 6044SOL     OW21086   1.357   1.100   7.930 -0.6086 -0.9788  0.4012
 6044SOL    HW121087   1.393   1.023   7.886  1.2496 -0.5459  1.0493
 6044SOL    HW221088   1.393   1.175   7.883  0.7883 -0.5170  2.0686
 6045SOL     OW21089   4.928   3.397   9.685  0.6468  0.2526  0.2153
 6045SOL    HW121090   4.862   3.459   9.653  0.8558 -0.0889 -0.9441
 6045SOL    HW221091   4.885   3.312   9.683  0.9388  0.1059  0.0095
 6046SOL     OW21092   6.109   6.896   0.147  0.0951  0.1961 -0.1886
 6046SOL    HW121093   6.030   6.842   0.143  0.4742 -0.3040 -1.3100
 6046SOL    HW221094   6.092   6.967   0.085  0.1790  0.5786  0.2208
 6047SOL     OW21095   6.363   8.865   1.766  0.2911  0.2030 -0.3624
 6047SOL    HW121096   6.313   8.877   1.847  0.1250 -1.3084 -0.2262
 6047SOL    HW221097   6.390   8.774   1.767  0.6707  0.2714 -1.8098
 6048SOL     OW21098   4.650   2.666   8.875  0.2814  0.5968  0.2764
 6048SOL    HW121099   4.567   2.620   8.864 -1.4423  3.4272  0.5603
 6048SOL    HW221100   4.689   2.627   8.953 -0.1237 -1.6009 -0.5454
 6049SOL     OW21101   0.338   8.550   1.259 -0.8852  0.2321  0.2615
 6049SOL    HW121102   0.337   8.483   1.327 -1.8987  0.0760  0.1134
 6049SOL    HW221103   0.319   8.501   1.178 -0.3114  0.5076 -0.0497
 6050SOL     OW21104   9.820   7.788  10.662  0.3804  0.0427  0.5786
 6050SOL    HW121105   9.771   7.856  10.615 -0.5859 -1.4725 -0.7236
 6050SOL    HW221106   9.829   7.822  10.751 -2.7643  0.5773  0.8099
 6051SOL     OW21107   4.786   9.150   0.010  0.0809  0.1218  0.0311
 6051SOL    HW121108   4.702   9.105   0.002 -0.0710  0.5970 -1.3358
 6051SOL    HW221109   4.770   9.218   0.075 -0.1113 -0.7978  0.9853
 6052SOL     OW21110   2.087   8.761   0.832 -0.5139 -0.6326 -0.0923
 6052SOL    HW121111   2.022   8.729   0.769 -3.4314 -0.0631  2.4102
 6052SOL    HW221112   2.055   8.847   0.858  1.3091 -0.3027  1.2510
 6053SOL     OW21113   6.138  10.616   4.907  0.1998  0.9483  0.4121
 6053SOL    HW121114   6.077  10.682   4.873  1.7135  1.1542 -2.1565
 6053SOL    HW221115   6.095  10.532   4.890 -0.2113  1.1403  0.4806
 6054SOL     OW21116   3.299   9.937   7.816 -0.3763  0.7270  0.5496
 6054SOL    HW121117   3.356   9.947   7.892  1.3145 -1.2368 -0.3764
 6054SOL    HW221118   3.222   9.891   7.850  0.0557  0.4694  1.1831
 6055SOL     OW21119   3.820   7.961   6.880  0.2020 -0.3483 -0.5177
 6055SOL    HW121120   3.750   8.025   6.868 -1.5199 -2.2294 -1.1571
 6055SOL    HW221121   3.858   7.952   6.793  0.4636 -0.1720 -0.4210
 6056SOL     OW21122   0.485   0.909   7.740  0.1966 -0.5166  0.7538
 6056SOL    HW121123   0.534   0.990   7.752 -2.7291  1.1208  3.0349
 6056SOL    HW221124   0.456   0.912   7.649  1.0429  0.3975  0.4927
 6057SOL     OW21125   4.832  10.415   4.726 -0.6649  0.2542 -0.0585
 6057SOL    HW121126   4.746  10.446   4.697 -0.8956  0.0955  0.4430
 6057SOL    HW221127   4.845  10.333   4.678 -1.0720 -0.0405  0.3289
 6058SOL     OW21128   8.825   3.715   6.517  0.5193  0.0353 -0.4886
 6058SOL    HW121129   8.847   3.765   6.596 -0.0026  0.6786 -0.7412
 6058SOL    HW221130   8.901   3.728   6.459  0.2134  0.9157 -0.7218
 6059SOL     OW21131   3.077   2.459   0.715  0.3419 -0.4652  0.2298
 6059SOL    HW121132   3.067   2.419   0.628  0.6791 -1.4167  0.6067
 6059SOL    HW221133   3.013   2.530   0.717 -1.6157 -2.1356  0.1874
 6060SOL     OW21134  10.598   0.453   1.448 -0.1149  0.1932 -0.7785
 6060SOL    HW121135  10.601   0.370   1.400 -1.1199 -0.9737  1.0574
 6060SOL    HW221136  10.509   0.457   1.483  0.3142  1.4092  0.2611
 6061SOL     OW21137   4.124   1.581  10.033  0.3034  0.1885 -0.5436
 6061SOL    HW121138   4.045   1.634  10.021  0.3314  0.4924  0.5577
 6061SOL    HW221139   4.195   1.636  10.001  0.1045  0.0104 -1.3078
 6062SOL     OW21140   1.557   5.305   6.064 -0.3864 -0.0440 -0.2602
 6062SOL    HW121141   1.639   5.306   6.112 -0.2472 -1.5703 -0.4282
 6062SOL    HW221142   1.518   5.391   6.080  0.9960  0.5031  0.2272
 6063SOL     OW21143   0.375   1.372   1.023 -0.0543 -0.1816  0.4452
 6063SOL    HW121144   0.431   1.382   0.946 -1.3469  1.2608 -0.3388
 6063SOL    HW221145   0.428   1.319   1.083  2.2878  1.3489 -0.1363
 6064SOL     OW21146   9.446   4.277   2.296  0.1898 -0.0705  0.0942
 6064SOL    HW121147   9.363   4.231   2.291  0.0244  0.1641  0.6114
 6064SOL    HW221148   9.423   4.369   2.285  0.4213 -0.0399 -0.1298
 6065SOL     OW21149   1.526   2.446   5.974 -0.2843 -0.6641  0.5413
 6065SOL    HW121150   1.489   2.452   5.886 -1.1511  0.0185  0.9318
 6065SOL    HW221151   1.499   2.360   6.006 -0.4637 -0.6744  0.3627
 6066SOL     OW21152   7.426   8.722   4.852  0.0482 -0.5194  0.9687
 6066SOL    HW121153   7.335   8.739   4.829  0.3035 -0.0006  0.3020
 6066SOL    HW221154   7.428   8.630   4.876 -0.5199 -0.7238  0.2703
 6067SOL     OW21155   9.036   9.909  10.612 -0.1681 -0.7844  0.4913
 6067SOL    HW121156   9.057   9.915  10.519  4.2285  0.6263  1.3542
 6067SOL    HW221157   8.996   9.993  10.633  1.9741  0.3290  0.3958
 6068SOL     OW21158   8.636   9.272   3.812  0.7183  0.3890 -0.1706
 6068SOL    HW121159   8.581   9.203   3.849  0.6774 -0.0514 -1.0138
 6068SOL    HW221160   8.665   9.323   3.887  0.7095 -0.5241  0.4699
 6069SOL     OW21161   0.302   8.978   9.618  0.2714 -0.3841  0.1028
 6069SOL    HW121162   0.397   8.986   9.609  0.2691  0.7805  0.8509
 6069SOL    HW221163   0.272   9.067   9.637 -0.7889 -0.9786  1.4004
 6070SOL     OW21164   3.496   6.131   8.099  0.3077 -0.7102  0.3613
 6070SOL    HW121165   3.580   6.125   8.053 -0.0419 -2.0052 -0.1394
 6070SOL    HW221166   3.460   6.042   8.096 -0.6156 -0.3957  1.4689
 6071SOL     OW21167   3.054   4.721   8.105 -0.5105  0.2729  0.3702
 6071SOL    HW121168   3.150   4.712   8.102 -0.4139  1.1630  0.4371
 6071SOL    HW221169   3.037   4.763   8.190 -1.0742 -1.0869  0.9483
 6072SOL     OW21170   2.814   4.374   4.188  0.6669 -0.3475  0.2880
 6072SOL    HW121171   2.875   4.340   4.123  1.7490  0.9508  0.5850
 6072SOL    HW221172   2.825   4.315   4.263  2.2760  0.3661  0.6744
 6073SOL     OW21173   4.569   1.250   9.656 -0.4885  0.0485  0.2783
 6073SOL    HW121174   4.534   1.292   9.734  1.8234  1.7449  0.5121
 6073SOL    HW221175   4.577   1.321   9.592 -2.8744 -1.3864 -1.8302
 6074SOL     OW21176   5.237   1.396   0.666 -0.1446 -0.5973  0.2262
 6074SOL    HW121177   5.229   1.442   0.749  1.5279 -1.3431  0.8583
 6074SOL    HW221178   5.320   1.427   0.630  0.0873 -1.7027 -0.2294
 6075SOL     OW21179   4.630   1.135   5.601  0.3104  0.3061  0.5887
 6075SOL    HW121180   4.684   1.100   5.530 -0.1195 -0.7430  0.7530
 6075SOL    HW221181   4.556   1.177   5.556 -0.7480 -1.6558  0.3942
 6076SOL     OW21182   8.096   6.946   9.196  0.5101  0.4789  0.8458
 6076SOL    HW121183   8.045   6.951   9.277  1.4401 -1.4004  1.6075
 6076SOL    HW221184   8.098   7.036   9.164 -2.1406  0.8552  1.4494
 6077SOL     OW21185   7.052   4.720   8.688  0.1609 -0.0821  0.1855
 6077SOL    HW121186   7.126   4.763   8.645  0.5680  0.4985  1.4418
 6077SOL    HW221187   6.981   4.783   8.683 -0.5566 -0.9433 -1.7407
 6078SOL     OW21188   4.629   0.189   5.640  0.0810  0.7476 -0.1762
 6078SOL    HW121189   4.711   0.173   5.686  2.4515  1.7859 -3.6591
 6078SOL    HW221190   4.640   0.149   5.554 -3.0172  1.0996 -0.8912
 6079SOL     OW21191   6.269   4.788   5.888 -0.0298  0.2940  0.3123
 6079SOL    HW121192   6.326   4.752   5.819  1.2554  0.5655  1.1993
 6079SOL    HW221193   6.265   4.882   5.869 -2.3233 -0.0422 -1.2390
 6080SOL     OW21194   6.886   1.805   4.861  0.4990 -0.0214  0.3601
 6080SOL    HW121195   6.886   1.874   4.795 -0.9502 -1.2056 -0.9786
 6080SOL    HW221196   6.795   1.800   4.891  1.1679  0.6845  2.7454
 6081SOL     OW21197   7.377   4.596   3.130  0.0536 -0.7474 -0.2272
 6081SOL    HW121198   7.452   4.614   3.072 -0.1711 -0.7080 -0.5078
 6081SOL    HW221199   7.403   4.631   3.215 -0.4386  1.0601 -0.7868
 6082SOL     OW21200   3.729   6.605   6.703  0.0979 -0.0613  0.0457
 6082SOL    HW121201   3.743   6.650   6.786  0.6459 -2.4255  1.3320
 6082SOL    HW221202   3.763   6.665   6.637 -0.5315  1.9646  1.4786
 6083SOL     OW21203   7.626   5.940   2.647 -0.3651  0.5163  0.1590
 6083SOL    HW121204   7.541   5.979   2.668  0.0197  1.6942 -0.3678
 6083SOL    HW221205   7.684   6.015   2.635  0.4696 -0.2356 -0.6711
 6084SOL     OW21206  10.401   4.404  10.120 -0.2421  0.0823 -0.3482
 6084SOL    HW121207  10.493   4.407  10.094  0.3599  0.2263  1.6948
 6084SOL    HW221208  10.392   4.323  10.169 -1.5020 -0.4872 -1.4692
 6085SOL     OW21209   2.133   0.962   1.511 -0.2555 -0.1924 -0.2064
 6085SOL    HW121210   2.126   0.868   1.522  3.1093 -0.4327  0.9190
 6085SOL    HW221211   2.127   0.998   1.599  2.6163  0.1635 -0.0644
 6086SOL     OW21212   6.036   8.967  10.635  0.5280 -0.5856 -0.2857
 6086SOL    HW121213   5.952   9.010  10.652 -0.4665 -1.9523 -1.4678
 6086SOL    HW221214   6.089   9.032  10.589  0.1961  0.3489  0.6237
 6087SOL     OW21215   5.020   3.725   9.198 -0.0818  0.3258  0.8762
 6087SOL    HW121216   5.050   3.762   9.281 -1.1130  1.1919  0.8754
 6087SOL    HW221217   4.996   3.801   9.145 -1.1340 -0.2780  0.4514
 6088SOL     OW21218   4.181   0.425   7.204 -0.3056  0.2937 -0.5073
 6088SOL    HW121219   4.149   0.500   7.254 -0.0629 -0.0585  0.1975
 6088SOL    HW221220   4.249   0.460   7.148 -0.2763  0.6206 -0.2693
 6089SOL     OW21221   0.702   5.961   0.056 -0.0033  0.1116  0.2294
 6089SOL    HW121222   0.647   6.005   0.121  1.7778  0.7394  1.4039
 6089SOL    HW221223   0.779   6.018   0.050  0.9035 -1.1863 -0.6830
 6090SOL     OW21224   8.186   0.976   8.164 -0.5606 -0.2693  0.0193
 6090SOL    HW121225   8.273   0.966   8.126 -0.4712  0.4759  0.0253
 6090SOL    HW221226   8.156   0.886   8.178 -0.2689 -0.5548 -1.0610
 6091SOL     OW21227   6.084   6.666   6.049  0.6014  0.0663 -0.3736
 6091SOL    HW121228   6.118   6.623   6.127  0.8729  0.4195 -0.2941
 6091SOL    HW221229   6.139   6.634   5.978 -0.2905 -1.0478 -0.5914
 6092SOL     OW21230   9.173   4.624   1.509  0.5316 -0.5887  0.2375
 6092SOL    HW121231   9.229   4.695   1.478  1.9008 -0.7389  2.1910
 6092SOL    HW221232   9.159   4.642   1.602 -0.5657 -1.9381  0.3818
 6093SOL     OW21233   1.704   9.469   5.734 -0.3793  0.2700  0.0445
 6093SOL    HW121234   1.733   9.507   5.651 -1.1195 -0.4938 -0.5879
 6093SOL    HW221235   1.728   9.534   5.800 -2.0691  2.1418 -1.0439
 6094SOL     OW21236   2.661   3.047   9.215 -0.7041 -0.8209 -0.6714
 6094SOL    HW121237   2.589   3.101   9.248 -0.9335 -0.6140 -1.4859
 6094SOL    HW221238   2.634   3.023   9.127  0.1682 -0.8416 -0.9390
 6095SOL     OW21239   6.553   3.525   3.089 -0.0864  0.7189 -0.7568
 6095SOL    HW121240   6.513   3.555   3.008  0.7284 -1.2335 -1.9659
 6095SOL    HW221241   6.633   3.578   3.097 -1.5695  2.9222  0.3774
 6096SOL     OW21242   3.052   0.801   0.751  0.5708 -0.3201 -0.0376
 6096SOL    HW121243   3.142   0.768   0.743  0.6480 -0.5381  1.3148
 6096SOL    HW221244   3.048   0.878   0.695  1.6712 -0.1866  0.0564
 6097SOL     OW21245   0.101   9.916   8.916 -0.3957 -0.1176 -0.2238
 6097SOL    HW121246   0.011   9.908   8.948 -0.1294  2.1054  1.3432
 6097SOL    HW221247   0.096   9.982   8.847 -0.1527 -1.1060 -1.2175
 6098SOL     OW21248   5.874   4.761   4.538 -0.2967  0.2578 -0.4024
 6098SOL    HW121249   5.963   4.726   4.540 -0.3338  0.1867 -0.0461
 6098SOL    HW221250   5.822   4.697   4.586 -0.4339  0.5922 -0.1004
 6099SOL     OW21251   3.645   1.339   7.665 -0.4081 -0.1076  0.1686
 6099SOL    HW121252   3.595   1.407   7.710  0.6048 -0.1655  1.4424
 6099SOL    HW221253   3.716   1.318   7.725  0.6384 -0.6562 -1.1998
 6100SOL     OW21254   1.787   0.205   9.424  0.1710  0.0443 -0.1837
 6100SOL    HW121255   1.753   0.206   9.335  0.5498  1.2065 -0.3366
 6100SOL    HW221256   1.876   0.240   9.416  0.5025 -0.5993  0.5438
 6101SOL     OW21257   3.290   4.762   1.939 -0.2692  0.2895 -0.0205
 6101SOL    HW121258   3.382   4.758   1.965 -0.3523  0.2544  0.2775
 6101SOL    HW221259   3.243   4.735   2.018 -0.4970 -0.5300 -0.4309
 6102SOL     OW21260   5.685   8.111   9.996  0.1428  0.0109  0.1971
 6102SOL    HW121261   5.684   8.045   9.927  0.4436 -1.5678  1.6252
 6102SOL    HW221262   5.763   8.163   9.978 -0.4763  0.4523 -1.3518
 6103SOL     OW21263   0.042   7.709   6.736  0.3359  0.5056  1.0643
 6103SOL    HW121264  -0.009   7.694   6.816 -1.4775  1.8323  0.2287
 6103SOL    HW221265  -0.014   7.675   6.666  0.2163  2.6748  0.0396
 6104SOL     OW21266   2.275   8.804   9.676 -0.2488 -0.4067 -0.3932
 6104SOL    HW121267   2.307   8.734   9.733 -2.5151 -1.6383 -0.5292
 6104SOL    HW221268   2.312   8.784   9.590 -0.8006 -1.4240 -0.4093
 6105SOL     OW21269   1.313   5.745   8.644  0.2584  0.1425 -0.0192
 6105SOL    HW121270   1.252   5.689   8.597  0.8762 -1.9056  1.4771
 6105SOL    HW221271   1.392   5.745   8.590 -0.1501  0.5782 -0.6242
 6106SOL     OW21272   6.828   2.641   2.685  0.0898  0.1518  0.2188
 6106SOL    HW121273   6.823   2.577   2.614 -0.4996 -1.7428  1.8627
 6106SOL    HW221274   6.856   2.722   2.642 -0.6188 -0.7823 -2.2113
 6107SOL     OW21275   6.187   2.987   4.599 -0.2915  0.0990 -0.2042
 6107SOL    HW121276   6.265   3.011   4.648 -0.3138 -0.7170  0.2475
 6107SOL    HW221277   6.193   3.036   4.517  0.7187 -0.0120 -0.1988
 6108SOL     OW21278   8.781   6.891   2.295  0.1122  0.0577  0.2805
 6108SOL    HW121279   8.755   6.923   2.381  0.8396 -1.0952  0.9409
 6108SOL    HW221280   8.780   6.796   2.303  2.3118 -0.0708 -0.3122
 6109SOL     OW21281   9.850   4.684   0.949 -0.2014 -0.0553  0.1945
 6109SOL    HW121282   9.774   4.691   1.007 -0.0610 -1.7484  0.6389
 6109SOL    HW221283   9.860   4.590   0.934  1.7184  0.1387  0.0312
 6110SOL     OW21284   9.582   6.610   0.189  0.0126  0.1248 -0.0089
 6110SOL    HW121285   9.579   6.515   0.180 -3.4448  0.0556  0.3914
 6110SOL    HW221286   9.535   6.643   0.113 -1.4238  1.2824  1.3128
 6111SOL     OW21287   9.535   3.897   0.205  0.5020 -0.3887  0.1799
 6111SOL    HW121288   9.624   3.865   0.189  0.7924 -0.6641  2.0956
 6111SOL    HW221289   9.546   3.987   0.234  0.1624 -0.4180  0.4134
 6112SOL     OW21290   4.075   9.184   0.041  0.4844  0.2591  0.3244
 6112SOL    HW121291   4.094   9.153   0.130 -0.4313  1.0330  0.8246
 6112SOL    HW221292   4.033   9.109  -0.002  2.4775 -0.6894 -0.0498
 6113SOL     OW21293   0.746   9.680   3.973 -1.0121  0.3973 -0.0359
 6113SOL    HW121294   0.794   9.604   4.007  0.5860  0.3788 -2.1321
 6113SOL    HW221295   0.654   9.654   3.977 -0.6246 -0.9503  0.9182
 6114SOL     OW21296   5.989   8.991   6.598  0.2169 -0.1730  0.5348
 6114SOL    HW121297   5.908   8.966   6.642  0.8151 -2.2477  0.5251
 6114SOL    HW221298   5.961   9.019   6.510 -0.5824  0.3493  0.9401
 6115SOL     OW21299   9.175   9.985   1.877 -0.4494 -0.3436 -0.4549
 6115SOL    HW121300   9.219  10.055   1.828  0.7779 -0.3793  0.5320
 6115SOL    HW221301   9.100  10.027   1.918  0.5597  0.5695  0.5578
 6116SOL     OW21302   6.548   4.706   6.122 -0.3552 -0.3603 -0.6751
 6116SOL    HW121303   6.534   4.714   6.216  0.7230 -1.5757 -0.3852
 6116SOL    HW221304   6.560   4.796   6.092  2.5902 -0.0766  0.9138
 6117SOL     OW21305   0.957   9.243   5.889 -0.2260 -0.0227 -0.2048
 6117SOL    HW121306   0.865   9.228   5.869 -0.4046 -0.2034  0.7002
 6117SOL    HW221307   1.004   9.183   5.831 -0.7484 -0.9859  0.3259
 6118SOL     OW21308   7.522   8.189   8.266  0.0264  0.1315  0.2931
 6118SOL    HW121309   7.585   8.243   8.219  0.0712  0.4165  0.6782
 6118SOL    HW221310   7.443   8.191   8.212  0.1748  0.2058  0.0782
 6119SOL     OW21311   9.598  10.380   8.240 -0.2249  0.6243  0.2603
 6119SOL    HW121312   9.578  10.306   8.297  0.7588  1.6904  2.1004
 6119SOL    HW221313   9.525  10.384   8.178 -1.9442  0.0741  2.1575
 6120SOL     OW21314   8.740   2.350   6.648 -0.4406  0.1044 -0.1584
 6120SOL    HW121315   8.728   2.270   6.597 -2.4563  0.6587 -0.6427
 6120SOL    HW221316   8.776   2.413   6.585  2.5139 -0.7271  0.5585
 6121SOL     OW21317   1.456   4.480   6.985 -0.0914 -0.3974  0.6278
 6121SOL    HW121318   1.406   4.455   7.062 -1.0992  0.6859  0.3660
 6121SOL    HW221319   1.546   4.455   7.004 -0.4338 -0.7046  1.8832
 6122SOL     OW21320   6.700   5.053   5.432 -0.0235 -0.3554 -0.9572
 6122SOL    HW121321   6.682   4.961   5.450  0.4543 -0.2926 -0.1181
 6122SOL    HW221322   6.694   5.097   5.517  2.0850 -0.0286 -0.9175
 6123SOL     OW21323   4.413   6.052   8.239 -0.1047 -0.2741  0.2647
 6123SOL    HW121324   4.346   6.005   8.289  0.5127  0.1217  1.5039
 6123SOL    HW221325   4.472   6.087   8.305  1.7928 -1.2709 -0.8266
 6124SOL     OW21326   7.170   7.696   3.338 -0.2639  0.5837  0.1169
 6124SOL    HW121327   7.078   7.670   3.330 -0.0926 -0.5958  1.6265
 6124SOL    HW221328   7.210   7.665   3.257 -0.4419 -2.4968  1.0963
 6125SOL     OW21329   3.941   5.266   5.044  0.1452  0.0863  0.2267
 6125SOL    HW121330   3.963   5.276   4.951 -1.4854 -0.6864 -0.2780
 6125SOL    HW221331   3.899   5.349   5.068 -0.6400 -0.2032 -0.1106
 6126SOL     OW21332   1.010   9.017   9.527 -0.8745  0.5551 -0.7604
 6126SOL    HW121333   1.012   8.997   9.620  2.1841  0.1466 -0.8266
 6126SOL    HW221334   1.065   9.094   9.517  1.5550 -1.2632 -2.5185
 6127SOL     OW21335   3.460  10.027   0.474 -0.1579 -0.2886  0.6035
 6127SOL    HW121336   3.538  10.072   0.509 -0.6211  1.0006  0.0416
 6127SOL    HW221337   3.447  10.066   0.388 -0.3389 -1.8570 -0.1096
 6128SOL     OW21338   4.863  10.637   3.217 -0.0190  0.0516 -0.6057
 6128SOL    HW121339   4.817  10.719   3.238 -0.5576 -0.6821  1.3117
 6128SOL    HW221340   4.799  10.569   3.236 -0.0004 -0.8372 -3.3326
 6129SOL     OW21341   5.182   7.596   5.933 -0.1476 -0.3237  0.2114
 6129SOL    HW121342   5.242   7.561   5.999 -0.0909 -0.5180  0.0559
 6129SOL    HW221343   5.168   7.687   5.960 -1.4434 -0.8618  1.4420
 6130SOL     OW21344   4.973   4.481   3.681 -0.0223 -0.0378 -0.0753
 6130SOL    HW121345   5.044   4.545   3.676 -1.7986  2.1226  0.5115
 6130SOL    HW221346   4.971   4.454   3.773 -0.8616  1.0851  0.2639
 6131SOL     OW21347   2.482   7.459   2.478  0.4468  0.6748  0.0856
 6131SOL    HW121348   2.567   7.441   2.518  0.7619  0.3424 -0.7089
 6131SOL    HW221349   2.422   7.466   2.552  1.0380  0.2317  0.6251
 6132SOL     OW21350   3.040   9.765  10.105 -0.4494 -0.5138 -0.2590
 6132SOL    HW121351   2.951   9.775  10.140 -0.8682 -3.8075 -0.0847
 6132SOL    HW221352   3.083   9.705  10.166  3.0669  3.1186  1.3984
 6133SOL     OW21353   6.029   5.691   6.548  0.0379  0.3738  0.1326
 6133SOL    HW121354   6.065   5.644   6.472  1.2885  0.9426  0.3481
 6133SOL    HW221355   6.089   5.670   6.620 -0.7645  0.3636  0.8157
 6134SOL     OW21356   1.407   0.498   0.589  0.3131  0.6563 -0.2298
 6134SOL    HW121357   1.320   0.496   0.629  0.4414  1.2777  0.0883
 6134SOL    HW221358   1.446   0.414   0.612  0.4307  1.0469  1.0698
 6135SOL     OW21359   6.946  10.066   3.336 -0.1050  0.2986  0.0765
 6135SOL    HW121360   6.989   9.981   3.348  0.5128  0.3821 -1.3663
 6135SOL    HW221361   6.902  10.058   3.251  0.2011  1.5179 -0.2098
 6136SOL     OW21362   7.865   7.763  10.063  0.4270 -0.5481 -0.0942
 6136SOL    HW121363   7.874   7.733   9.973  0.5061  1.1975 -0.7085
 6136SOL    HW221364   7.789   7.717  10.097  0.3241 -1.1284 -1.0919
 6137SOL     OW21365  10.640   3.040   9.251  0.0492 -0.3699 -0.0331
 6137SOL    HW121366  10.720   3.088   9.230  0.2646 -0.8487 -0.3076
 6137SOL    HW221367  10.571   3.107   9.248  0.4630  0.0927  0.4468
 6138SOL     OW21368   0.334   8.642   2.458 -0.5172 -0.0465 -0.1632
 6138SOL    HW121369   0.350   8.734   2.482  0.6940  0.4595 -2.6549
 6138SOL    HW221370   0.419   8.599   2.471 -1.2823 -1.1104  1.8492
 6139SOL     OW21371   0.446  10.076   7.260 -0.1228 -0.1415  0.0796
 6139SOL    HW121372   0.370  10.035   7.302 -0.2547 -0.0988 -0.1125
 6139SOL    HW221373   0.520  10.055   7.316 -0.5218  1.1463  1.1353
 6140SOL     OW21374   7.239   9.481   7.951  0.1037  0.2818 -0.4993
 6140SOL    HW121375   7.292   9.561   7.951  0.5906 -0.0292 -0.0367
 6140SOL    HW221376   7.289   9.420   7.896 -0.3235  0.3250 -0.9447
 6141SOL     OW21377   1.023   2.609   8.716  0.1090 -0.0488 -0.5909
 6141SOL    HW121378   0.949   2.669   8.715 -0.6924 -1.0119 -0.9265
 6141SOL    HW221379   1.045   2.596   8.623  0.0965 -0.4716 -0.5390
 6142SOL     OW21380   7.629   3.326   2.959 -0.1099 -0.2922  0.0272
 6142SOL    HW121381   7.683   3.287   3.028 -1.9729 -1.4946  0.9005
 6142SOL    HW221382   7.631   3.262   2.888  0.4757  0.1732 -0.3812
 6143SOL     OW21383   0.978   9.396   8.817 -0.9602 -0.0790  0.0826
 6143SOL    HW121384   0.920   9.470   8.797 -2.3947 -1.6146 -1.7682
 6143SOL    HW221385   0.918   9.326   8.844  0.3467 -0.6841  1.5689
 6144SOL     OW21386   7.589  10.603   0.558  0.2858 -0.2704 -0.4350
 6144SOL    HW121387   7.589  10.629   0.650 -0.1544  0.5889 -0.6558
 6144SOL    HW221388   7.497  10.587   0.538  0.5915 -2.8256 -0.1314
 6145SOL     OW21389   8.405   3.626   2.790  0.5132  0.3619  0.3655
 6145SOL    HW121390   8.342   3.588   2.729 -0.8165  1.1041  1.2214
 6145SOL    HW221391   8.491   3.605   2.753 -0.2444  1.0750 -1.9160
 6146SOL     OW21392   3.761   1.410   6.043 -0.0189  0.3865  1.0091
 6146SOL    HW121393   3.711   1.383   5.967  1.3644  0.6167 -0.0169
 6146SOL    HW221394   3.736   1.349   6.112 -0.1281 -0.8232 -0.0723
 6147SOL     OW21395   7.791   3.652   4.452  0.3051 -0.0286 -0.1646
 6147SOL    HW121396   7.812   3.657   4.359  0.7308 -1.5983 -0.1829
 6147SOL    HW221397   7.830   3.731   4.490 -0.7420  1.1417 -1.4493
 6148SOL     OW21398   2.993   6.899   9.540  1.0555 -0.5018  0.3871
 6148SOL    HW121399   2.952   6.910   9.454  1.1923 -0.5135  0.3184
 6148SOL    HW221400   2.930   6.849   9.591  0.6361  0.1671  0.5439
 6149SOL     OW21401   1.309   7.627   8.787 -0.1024 -0.2666 -0.5142
 6149SOL    HW121402   1.278   7.538   8.805 -0.3227 -0.1779 -0.4552
 6149SOL    HW221403   1.274   7.647   8.700 -3.1568  1.1232  0.8901
 6150SOL     OW21404   6.963   4.535   9.244  0.3202  0.1666  0.4262
 6150SOL    HW121405   6.891   4.555   9.304  1.2351  2.1299  0.9553
 6150SOL    HW221406   7.036   4.509   9.300  0.6708  0.3447  0.0612
 6151SOL     OW21407   7.499   9.618   5.829  0.3057  0.1536  0.2048
 6151SOL    HW121408   7.526   9.657   5.746  1.6901  1.9190  1.4101
 6151SOL    HW221409   7.581   9.585   5.867 -0.2862 -0.4698  0.9721
 6152SOL     OW21410   4.795  10.197   1.707  0.8047  0.4599  0.0144
 6152SOL    HW121411   4.881  10.203   1.749  0.5924  1.6714  0.3098
 6152SOL    HW221412   4.778  10.103   1.702  2.3686  0.1731 -0.5290
 6153SOL     OW21413   9.887   4.081   3.339  0.4206  0.2099  0.4197
 6153SOL    HW121414   9.963   4.038   3.300  1.1023  0.8081  1.0467
 6153SOL    HW221415   9.827   4.010   3.360  0.6424 -0.2385 -0.4236
 6154SOL     OW21416   4.891   3.379   5.134 -0.2784 -0.4067  0.0947
 6154SOL    HW121417   4.896   3.459   5.081  2.3337  1.6338  3.0048
 6154SOL    HW221418   4.957   3.321   5.096 -0.1553  0.0018 -0.3304
 6155SOL     OW21419   5.029   0.407   7.662 -0.0568  0.3860  0.2850
 6155SOL    HW121420   5.007   0.499   7.679  1.1843  0.6742  0.3939
 6155SOL    HW221421   4.954   0.358   7.696  0.4715  1.1901  2.7844
 6156SOL     OW21422  10.579   5.442   3.800  0.2355  0.1958  0.3687
 6156SOL    HW121423  10.629   5.502   3.855 -0.0678 -0.4303  1.3540
 6156SOL    HW221424  10.574   5.361   3.851 -0.2210 -0.3393 -0.5028
 6157SOL     OW21425   7.361   1.520   6.245 -0.3358  0.2111  0.4762
 6157SOL    HW121426   7.425   1.491   6.310 -1.8749 -2.2791  1.0153
 6157SOL    HW221427   7.316   1.440   6.218 -0.0269  1.1682 -3.4725
 6158SOL     OW21428  10.431   8.636   9.428 -0.0444 -0.2568 -0.0738
 6158SOL    HW121429  10.511   8.600   9.388 -0.3159 -0.9544 -0.0013
 6158SOL    HW221430  10.450   8.640   9.521 -0.1299 -0.5074 -0.0463
 6159SOL     OW21431   6.240   5.805   7.211 -0.6143 -0.2674  0.0206
 6159SOL    HW121432   6.218   5.796   7.118 -0.7683  0.9071 -0.0737
 6159SOL    HW221433   6.168   5.762   7.257 -0.5252 -0.8756 -0.3973
 6160SOL     OW21434   2.835   1.859   2.670 -0.0148  0.1262  0.0297
 6160SOL    HW121435   2.862   1.781   2.621 -0.9618  0.4303 -1.0238
 6160SOL    HW221436   2.759   1.829   2.721  0.3929  0.0518  0.6042
 6161SOL     OW21437   6.872   1.151   0.504 -0.2931  0.0248 -0.7123
 6161SOL    HW121438   6.893   1.239   0.473  1.7981 -0.8448 -1.9643
 6161SOL    HW221439   6.799   1.122   0.449  0.0915  0.3732 -1.4072
 6162SOL     OW21440   1.403   5.735   9.528 -0.4546  0.0797  0.4518
 6162SOL    HW121441   1.386   5.674   9.599  1.0899 -0.4250  0.4192
 6162SOL    HW221442   1.467   5.797   9.564 -1.4241  1.2613  0.2428
 6163SOL     OW21443  10.297   7.503   9.273  0.4392  0.6870 -0.4829
 6163SOL    HW121444  10.319   7.485   9.181  0.4448  0.6161 -0.4676
 6163SOL    HW221445  10.221   7.560   9.268 -0.8100 -0.9073 -0.5222
 6164SOL     OW21446   8.308   8.935   0.790 -0.3572  0.0136 -0.1425
 6164SOL    HW121447   8.373   8.884   0.838  1.3320  1.1100 -1.1748
 6164SOL    HW221448   8.256   8.869   0.743 -1.5776 -1.0293  2.4852
 6165SOL     OW21449   3.152   5.246   4.842 -1.0117  0.2124  0.1291
 6165SOL    HW121450   3.118   5.329   4.875 -2.4089 -0.5036  0.5591
 6165SOL    HW221451   3.246   5.249   4.861 -1.4483  0.6051  2.5688
 6166SOL     OW21452   3.670  10.104   6.978  0.0146  0.2634  0.4221
 6166SOL    HW121453   3.632  10.072   6.896 -0.9631 -0.5377  1.1538
 6166SOL    HW221454   3.763  10.114   6.960 -0.4666  2.2049 -1.4262
 6167SOL     OW21455   5.364   7.868   3.951  0.5996  0.1056 -0.7042
 6167SOL    HW121456   5.349   7.803   3.882 -2.2255 -0.5587  0.3733
 6167SOL    HW221457   5.358   7.952   3.907 -2.2395 -0.2731 -1.2161
 6168SOL     OW21458  10.161   0.818   4.750 -0.7435  0.2703 -0.6956
 6168SOL    HW121459  10.159   0.872   4.829  2.6949 -1.1430  0.5180
 6168SOL    HW221460  10.106   0.743   4.772  1.7075 -1.0907  1.2847
 6169SOL     OW21461   4.630   8.238   7.469 -0.6300  0.1526  0.5895
 6169SOL    HW121462   4.598   8.298   7.402 -1.0816 -0.4781  0.2362
 6169SOL    HW221463   4.683   8.174   7.421  2.3795  1.9286  1.2842
 6170SOL     OW21464   9.905   2.643   0.371  0.1945 -0.0126 -0.9356
 6170SOL    HW121465   9.839   2.712   0.382 -0.3702 -0.7420  0.4083
 6170SOL    HW221466   9.946   2.663   0.287 -1.0447  1.0453 -1.3242
 6171SOL     OW21467  10.360   6.150   2.496  0.4321  0.7308 -0.8605
 6171SOL    HW121468  10.340   6.233   2.540  2.8565  0.4239  1.0272
 6171SOL    HW221469  10.361   6.171   2.403  0.7919  2.7838 -0.4276
 6172SOL     OW21470   5.484   3.107  10.196  0.7864  0.1274  0.2212
 6172SOL    HW121471   5.498   3.168  10.123  1.4651 -1.9494 -1.4904
 6172SOL    HW221472   5.572   3.092  10.231  0.5384  0.6167  1.0790
 6173SOL     OW21473   3.235   2.900   2.417 -0.5070  0.1122  0.1658
 6173SOL    HW121474   3.216   2.993   2.405  0.0749  0.1208 -0.7673
 6173SOL    HW221475   3.329   2.897   2.435 -0.8443 -0.1480  2.1090
 6174SOL     OW21476   7.026   9.858   4.639  0.1278 -0.0515  0.0298
 6174SOL    HW121477   6.997   9.948   4.621  1.1177  0.5134  1.0534
 6174SOL    HW221478   7.040   9.820   4.553 -1.4381  0.3742 -0.4485
 6175SOL     OW21479   9.686   4.570   1.342 -0.2163  0.1672  0.3628
 6175SOL    HW121480   9.627   4.576   1.267 -1.7573  0.0240  1.5206
 6175SOL    HW221481   9.688   4.659   1.377  1.5992  0.5587 -0.6067
 6176SOL     OW21482   5.135   2.564   3.708  0.0657  0.0205  0.0703
 6176SOL    HW121483   5.180   2.613   3.638  0.7151  0.3988  0.7368
 6176SOL    HW221484   5.195   2.569   3.782  0.1467 -1.8179  0.1603
 6177SOL     OW21485   4.237   1.105   5.924  0.3568  0.2588  0.2296
 6177SOL    HW121486   4.247   1.137   6.014  1.8234  0.9474 -0.1356
 6177SOL    HW221487   4.213   1.183   5.874  1.7312  0.3599 -0.3098
 6178SOL     OW21488   7.113   9.795   1.165 -0.0064  0.1815  0.4944
 6178SOL    HW121489   7.079   9.832   1.246 -2.2071  0.5909 -0.5294
 6178SOL    HW221490   7.056   9.831   1.097  1.3621 -0.6509 -1.1668
 6179SOL     OW21491   8.506   5.651   6.288 -0.2268  0.0486 -0.4093
 6179SOL    HW121492   8.447   5.575   6.290  0.4752 -0.5228 -0.8137
 6179SOL    HW221493   8.480   5.700   6.211 -1.4386  0.8497  0.4882
 6180SOL     OW21494   1.653   6.392   2.725 -0.4661 -0.2486 -0.5395
 6180SOL    HW121495   1.594   6.376   2.797  1.2973 -1.7282  0.6641
 6180SOL    HW221496   1.666   6.487   2.725  0.6151 -0.3299  2.0670
 6181SOL     OW21497   8.498   0.885   5.216 -0.2462  0.6208 -0.3280
 6181SOL    HW121498   8.532   0.886   5.306  1.4835 -2.4691 -0.7986
 6181SOL    HW221499   8.413   0.929   5.222 -1.1745 -1.2499  3.2836
 6182SOL     OW21500   3.890   8.850   9.298  0.2590  0.8715  0.1980
 6182SOL    HW121501   3.853   8.819   9.216  2.3007  1.0951 -0.8543
 6182SOL    HW221502   3.884   8.945   9.293 -0.7236  0.8683  0.8875
 6183SOL     OW21503   1.426   0.708  10.066  0.0316  0.7792  0.5080
 6183SOL    HW121504   1.405   0.796  10.034  0.6898  1.2021  1.2250
 6183SOL    HW221505   1.358   0.689  10.130 -0.0309  0.8145  0.4531
 6184SOL     OW21506   5.503   8.623   8.081 -0.2955  0.0768  0.2830
 6184SOL    HW121507   5.448   8.682   8.030 -0.7432  0.2330  0.9384
 6184SOL    HW221508   5.573   8.678   8.115 -1.4092  0.5476  1.9622
 6185SOL     OW21509   5.181   3.735   3.653 -0.1706  0.1688 -0.4536
 6185SOL    HW121510   5.133   3.659   3.619  0.7576 -0.5265 -0.2477
 6185SOL    HW221511   5.184   3.721   3.747 -1.3971  1.3109 -0.2035
 6186SOL     OW21512   0.865   9.251  10.591 -0.2412  0.5325  0.4572
 6186SOL    HW121513   0.852   9.345  10.577  0.2325  0.3165 -1.7184
 6186SOL    HW221514   0.957   9.235  10.568 -0.5407 -0.5965 -0.0290
 6187SOL     OW21515   5.790   7.057   4.348 -0.1129  0.1640  0.3155
 6187SOL    HW121516   5.790   7.153   4.344  0.8361  0.1360 -1.3519
 6187SOL    HW221517   5.698   7.033   4.348 -0.3618  1.0502 -0.6562
 6188SOL     OW21518   2.779   1.025   6.021  0.0722  0.1146 -0.2144
 6188SOL    HW121519   2.765   0.970   5.944 -2.5748  0.2136  0.0916
 6188SOL    HW221520   2.754   1.113   5.993  0.0955  0.3437  0.4549
 6189SOL     OW21521   4.652   4.578   4.516 -0.0661  0.0778  0.1504
 6189SOL    HW121522   4.601   4.497   4.513  1.4651 -0.9498  0.3245
 6189SOL    HW221523   4.724   4.562   4.455  1.4508  0.4260  1.7610
 6190SOL     OW21524   2.960   4.641   9.806 -0.0722  0.0075  0.4326
 6190SOL    HW121525   2.923   4.726   9.783  2.3940  1.3810  1.2275
 6190SOL    HW221526   2.974   4.597   9.722  1.1973  1.5654 -0.2278
 6191SOL     OW21527   2.116   2.067   3.468  0.1896 -0.0561 -0.5355
 6191SOL    HW121528   2.066   2.131   3.417 -0.4127  0.2508  0.4121
 6191SOL    HW221529   2.115   1.988   3.415 -1.9431 -0.2893 -0.2261
 6192SOL     OW21530   8.011  10.401   0.669  0.0626  0.4485 -0.4514
 6192SOL    HW121531   8.085  10.460   0.657  2.1444 -1.0726  3.0686
 6192SOL    HW221532   8.042  10.316   0.638 -1.1063  0.2344 -1.0881
 6193SOL     OW21533   2.112   9.691   8.874  0.0213 -0.4775  0.2233
 6193SOL    HW121534   2.052   9.762   8.896 -0.3655 -0.7978  0.2197
 6193SOL    HW221535   2.135   9.707   8.782  0.2661 -0.1248  0.3416
 6194SOL     OW21536   5.770   2.519   8.081 -0.1202  0.4024 -0.4540
 6194SOL    HW121537   5.854   2.520   8.034  0.2071 -0.7604  0.0744
 6194SOL    HW221538   5.711   2.570   8.025 -0.0162 -1.7741 -2.6784
 6195SOL     OW21539   7.430   5.733   5.130  0.6526 -0.0024 -0.0791
 6195SOL    HW121540   7.392   5.694   5.209 -0.3022  0.8154 -0.1131
 6195SOL    HW221541   7.508   5.679   5.112  0.5734 -0.5472  1.0849
 6196SOL     OW21542   2.337   8.803   8.992 -1.0155  0.1756 -0.7175
 6196SOL    HW121543   2.245   8.808   9.018 -0.3531  1.4629  1.6892
 6196SOL    HW221544   2.376   8.741   9.054 -0.1591  0.0106 -1.3971
 6197SOL     OW21545   9.376   3.986   5.447 -0.3766  0.7254 -0.1649
 6197SOL    HW121546   9.394   4.018   5.359 -0.2350  0.2193 -0.3256
 6197SOL    HW221547   9.376   4.064   5.502  1.2404  0.8801 -0.3301
 6198SOL     OW21548   1.212   1.623   2.121  0.2171 -0.2910 -0.5292
 6198SOL    HW121549   1.237   1.535   2.094 -0.0925 -0.1623 -1.2636
 6198SOL    HW221550   1.220   1.676   2.042  0.8880  0.4486  0.0168
 6199SOL     OW21551   3.501   6.060   1.519  1.1048  0.3736  0.0431
 6199SOL    HW121552   3.422   6.006   1.514 -0.1955  2.1501  0.2479
 6199SOL    HW221553   3.561   6.012   1.575  0.1336 -0.9846 -0.0590
 6200SOL     OW21554   6.980   5.615   8.693  0.5669  0.1958  0.6056
 6200SOL    HW121555   6.951   5.700   8.726  0.7022  0.0092  1.2198
 6200SOL    HW221556   6.961   5.554   8.764  0.1900 -0.3392  0.0473
 6201SOL     OW21557   6.201  10.293   2.256 -0.1139 -0.4943  0.3322
 6201SOL    HW121558   6.277  10.350   2.269 -1.0331  0.7238  0.4547
 6201SOL    HW221559   6.148  10.338   2.191 -1.2222 -0.8516  0.9750
 6202SOL     OW21560   4.426   9.329   8.630 -0.2821 -0.6892 -0.4653
 6202SOL    HW121561   4.490   9.268   8.666 -0.4347 -0.3575  0.3842
 6202SOL    HW221562   4.458   9.415   8.655 -0.5381 -0.4694 -0.8911
 6203SOL     OW21563  10.180   4.071   4.169 -0.0064  0.2114  0.3095
 6203SOL    HW121564  10.104   4.124   4.143  0.7264  0.5030 -1.4198
 6203SOL    HW221565  10.238   4.132   4.214 -1.9532 -0.6225  4.3449
 6204SOL     OW21566   1.282   6.253   4.873  0.3515 -0.0747 -0.0512
 6204SOL    HW121567   1.336   6.261   4.794 -0.7976  0.2834 -0.8220
 6204SOL    HW221568   1.239   6.168   4.865 -1.0063  0.6314 -0.6489
 6205SOL     OW21569   6.276   5.144   1.657 -0.2345 -0.1225 -0.2623
 6205SOL    HW121570   6.280   5.140   1.752 -2.9316  2.1497  0.1041
 6205SOL    HW221571   6.249   5.057   1.630  0.2402 -0.7100  1.0899
 6206SOL     OW21572   0.820   3.600   3.765 -0.2429 -0.4850  0.3487
 6206SOL    HW121573   0.795   3.517   3.723  0.6866 -0.2920 -0.6327
 6206SOL    HW221574   0.737   3.634   3.799 -0.5811 -2.0055  1.1527
 6207SOL     OW21575   3.161   9.978   2.370 -0.4292  0.0552 -0.8112
 6207SOL    HW121576   3.219  10.005   2.299  0.3249  0.0528 -0.2002
 6207SOL    HW221577   3.077  10.020   2.349  0.7641  3.2826  0.3056
 6208SOL     OW21578  10.052   2.270   1.812  0.3229  0.2271 -0.0709
 6208SOL    HW121579  10.062   2.186   1.767  1.7899  1.0411 -1.3653
 6208SOL    HW221580  10.088   2.253   1.900  0.2720 -0.5857 -0.1955
 6209SOL     OW21581   7.806   1.178   1.685 -0.0760  0.1191 -0.8339
 6209SOL    HW121582   7.883   1.184   1.628 -0.1871  2.0079 -0.8417
 6209SOL    HW221583   7.732   1.195   1.626 -0.3460  0.1906 -0.4743
 6210SOL     OW21584   0.365   5.553   4.606 -0.5824 -0.0474  0.1150
 6210SOL    HW121585   0.296   5.583   4.664  0.2622  0.3379  0.9548
 6210SOL    HW221586   0.364   5.614   4.533  0.3293  1.3580  1.2228
 6211SOL     OW21587   5.488   5.462   4.567 -0.2543  0.2327 -0.2008
 6211SOL    HW121588   5.565   5.406   4.562  1.1545  1.9117  1.1052
 6211SOL    HW221589   5.462   5.458   4.659 -1.0220  0.5797 -0.3943
 6212SOL     OW21590   3.164   9.742   6.805  0.2057  0.5706  0.0994
 6212SOL    HW121591   3.146   9.790   6.724  0.7548 -2.7944 -2.2500
 6212SOL    HW221592   3.078   9.720   6.840 -0.0376  1.8636  0.3490
 6213SOL     OW21593   3.932   3.218   0.125 -0.1901 -1.3463  0.0537
 6213SOL    HW121594   3.988   3.204   0.201  0.0169 -3.0379 -0.3817
 6213SOL    HW221595   3.898   3.131   0.104 -2.4339 -0.4971 -0.1319
 6214SOL     OW21596   0.481   9.994   9.184  0.3474  0.0389 -0.3418
 6214SOL    HW121597   0.409   9.949   9.139  1.8028 -1.2668 -1.4786
 6214SOL    HW221598   0.439  10.041   9.256 -1.5723 -1.0310 -0.7004
 6215SOL     OW21599   8.608   6.643   2.609 -0.1620  0.4575  0.1442
 6215SOL    HW121600   8.599   6.737   2.596 -1.8777  0.3270  0.1717
 6215SOL    HW221601   8.689   6.620   2.563 -0.7859  1.6305 -1.6655
 6216SOL     OW21602   6.701   4.554   3.348  0.6951  0.2236  0.3002
 6216SOL    HW121603   6.772   4.526   3.289 -2.1243 -0.1405 -3.3298
 6216SOL    HW221604   6.649   4.474   3.360 -1.7739  1.4285 -1.4870
 6217SOL     OW21605   8.141   2.860   4.001 -0.5921  0.2952  0.0372
 6217SOL    HW121606   8.154   2.766   4.019  1.0147  0.2435 -1.1335
 6217SOL    HW221607   8.171   2.904   4.080 -1.1855 -0.1786  0.5281
 6218SOL     OW21608   2.351   0.587   4.525  0.2336  0.0369 -0.6649
 6218SOL    HW121609   2.429   0.585   4.470 -0.1202 -0.1668 -1.1706
 6218SOL    HW221610   2.349   0.501   4.568  0.0331 -0.1432 -1.0250
 6219SOL     OW21611  10.078   6.288   8.215 -0.2457 -0.4249  0.3254
 6219SOL    HW121612  10.133   6.217   8.249 -0.3676 -0.0478  1.3664
 6219SOL    HW221613  10.026   6.248   8.146  1.3011 -0.8104 -0.6768
 6220SOL     OW21614   0.786   8.039   8.311  0.0980 -0.8136  0.6131
 6220SOL    HW121615   0.700   8.041   8.269 -0.0750  1.2201  0.9391
 6220SOL    HW221616   0.836   7.975   8.259 -0.5608  0.4935 -1.8157
 6221SOL     OW21617   0.984   2.220   5.653  0.2049 -0.0266  0.5150
 6221SOL    HW121618   0.975   2.291   5.590 -0.1184 -0.2517  0.3014
 6221SOL    HW221619   0.923   2.153   5.622  0.9545 -0.6509  0.3611
 6222SOL     OW21620   9.088   6.681   3.813  0.5789 -0.2629  1.0941
 6222SOL    HW121621   9.062   6.650   3.726 -2.0973 -0.6694  1.9439
 6222SOL    HW221622   9.148   6.753   3.795  0.7272 -0.8336 -1.0650
 6223SOL     OW21623   5.078   4.715   2.855  0.3999  0.2116  0.1078
 6223SOL    HW121624   5.062   4.809   2.863  1.4877  0.4480 -0.3212
 6223SOL    HW221625   5.066   4.681   2.943  0.0206  0.7582  0.2696
 6224SOL     OW21626   6.890   7.211   9.372 -0.4200 -0.6451  0.2631
 6224SOL    HW121627   6.932   7.163   9.301 -1.3320 -0.3656 -0.4841
 6224SOL    HW221628   6.941   7.188   9.450  1.3119 -0.0689 -0.6384
 6225SOL     OW21629   6.075   6.470   4.274  0.1707 -0.4597 -0.3412
 6225SOL    HW121630   6.102   6.477   4.182 -0.5368 -1.2765 -0.6238
 6225SOL    HW221631   5.980   6.458   4.270  0.1490 -0.6032  0.4894
 6226SOL     OW21632   7.422   0.410   0.554 -0.0657 -0.5853  1.0884
 6226SOL    HW121633   7.419   0.488   0.499  1.2231 -1.2879 -0.0509
 6226SOL    HW221634   7.436   0.338   0.492 -1.0839 -1.7165  2.1185
 6227SOL     OW21635   7.760   8.241  10.484  0.1789 -0.2997  0.7143
 6227SOL    HW121636   7.821   8.314  10.498 -0.1557  0.0460  0.3810
 6227SOL    HW221637   7.722   8.257  10.398  2.7194 -2.7799 -1.0252
 6228SOL     OW21638   2.438   4.365   7.469 -0.5110 -0.0086  0.0208
 6228SOL    HW121639   2.467   4.276   7.491  1.1362  0.7080  0.8779
 6228SOL    HW221640   2.374   4.386   7.537 -1.6684 -0.8801 -0.7595
 6229SOL     OW21641   8.803   5.908  10.080  0.2519 -0.2398  0.1019
 6229SOL    HW121642   8.813   5.908   9.985  1.6155 -0.9422  0.2168
 6229SOL    HW221643   8.709   5.902  10.095 -0.2151  2.5186 -1.1725
 6230SOL     OW21644   9.324   5.163   8.526 -0.5550  0.2747 -0.2793
 6230SOL    HW121645   9.261   5.214   8.577 -0.3046 -0.5544  0.8949
 6230SOL    HW221646   9.388   5.132   8.590  0.5832  0.3893 -1.3272
 6231SOL     OW21647   5.343   2.406   4.245  0.0091 -0.6172  0.0667
 6231SOL    HW121648   5.398   2.361   4.181 -0.9371 -3.0771  0.8647
 6231SOL    HW221649   5.258   2.361   4.241 -1.4460  1.9017  0.1213
 6232SOL     OW21650   5.283   8.777   1.357 -0.2027  0.2006  0.1696
 6232SOL    HW121651   5.343   8.703   1.364  1.3620  1.5287  1.8907
 6232SOL    HW221652   5.196   8.737   1.345  0.7472 -1.8329 -0.3534
 6233SOL     OW21653   0.578   0.014   5.748 -0.5745  0.0821  0.1771
 6233SOL    HW121654   0.581   0.105   5.775 -0.5582 -0.3370  1.6744
 6233SOL    HW221655   0.513  -0.027   5.807 -0.0898 -1.0086 -0.0132
 6234SOL     OW21656   4.449   9.785   0.011 -0.6184 -0.6118  0.0718
 6234SOL    HW121657   4.543   9.800   0.004 -0.7488 -0.0377 -0.5610
 6234SOL    HW221658   4.420   9.766  -0.078 -1.4767  1.6949 -0.2322
 6235SOL     OW21659   7.305   0.617   8.408  0.6263 -1.0335 -0.5177
 6235SOL    HW121660   7.224   0.575   8.380 -0.3811 -0.1971  0.9966
 6235SOL    HW221661   7.336   0.562   8.480 -0.8494  0.8197  1.6687
 6236SOL     OW21662   7.261   6.058   7.764 -0.0638 -0.6133  0.1375
 6236SOL    HW121663   7.312   6.014   7.695  0.0300 -0.4026  0.0713
 6236SOL    HW221664   7.269   6.151   7.743 -4.2957 -0.6339 -2.6460
 6237SOL     OW21665   6.231   6.943   4.624  0.1221  0.8648  0.0552
 6237SOL    HW121666   6.167   6.933   4.554 -1.3319  1.4105  1.2488
 6237SOL    HW221667   6.290   7.012   4.593  0.1148  0.3825 -1.0518
 6238SOL     OW21668   5.520   2.386  10.171  0.7118 -0.0031 -0.1361
 6238SOL    HW121669   5.512   2.467  10.221  2.4964  0.6259 -0.7856
 6238SOL    HW221670   5.444   2.334  10.197  0.0543  1.4668  1.0340
 6239SOL     OW21671   4.927   3.924   6.657  0.2439  0.0519 -0.3753
 6239SOL    HW121672   4.919   3.954   6.748  1.6940 -0.6910  0.0342
 6239SOL    HW221673   4.925   4.005   6.605  0.0137  0.5348  0.3598
 6240SOL     OW21674   0.096  10.264   9.161 -0.9430  0.3741  0.7494
 6240SOL    HW121675   0.032  10.228   9.100 -0.4845  3.2926 -1.6876
 6240SOL    HW221676   0.181  10.240   9.124 -0.6515  2.2452  0.1341
 6241SOL     OW21677   2.822   9.892   7.246 -0.0386  0.7509 -0.5698
 6241SOL    HW121678   2.840   9.803   7.277 -1.1127  0.0907 -1.7315
 6241SOL    HW221679   2.729   9.906   7.264 -0.0266  1.3941 -0.9567
 6242SOL     OW21680   5.073   6.615   9.975  0.3719  1.0592 -0.1660
 6242SOL    HW121681   5.034   6.677   9.914 -1.5713  0.4849  0.4071
 6242SOL    HW221682   5.078   6.533   9.926  2.3875  1.4581 -0.7307
 6243SOL     OW21683   4.050   5.392   5.587  0.0907  0.0165  0.2289
 6243SOL    HW121684   4.074   5.358   5.674  0.8926  0.7576  0.3084
 6243SOL    HW221685   4.092   5.332   5.526 -0.6809 -0.6550  0.3339
 6244SOL     OW21686   0.245   4.829   0.498 -0.0756  0.1641 -0.7065
 6244SOL    HW121687   0.165   4.776   0.504  0.8670 -1.2399  0.1162
 6244SOL    HW221688   0.250   4.875   0.582 -0.5167  1.0126 -1.1393
 6245SOL     OW21689   7.117   1.181   4.667  0.3715 -0.3241 -0.1736
 6245SOL    HW121690   7.066   1.142   4.738 -2.1094  1.2918 -0.9406
 6245SOL    HW221691   7.084   1.141   4.587  0.8292  0.2267 -0.6564
 6246SOL     OW21692   0.115   9.312   8.140 -0.1178  0.1698 -0.1420
 6246SOL    HW121693   0.165   9.330   8.061  0.6695  0.9401  0.5091
 6246SOL    HW221694   0.024   9.333   8.117  0.2103  1.0861 -0.6230
 6247SOL     OW21695   2.275   0.099   1.018  0.2341  0.3132  0.2530
 6247SOL    HW121696   2.324   0.037   0.964  1.5782  1.9626 -0.5286
 6247SOL    HW221697   2.187   0.100   0.980  0.4878 -0.3273 -0.3698
 6248SOL     OW21698   9.423   8.441   3.995 -0.4307  0.0517 -0.4246
 6248SOL    HW121699   9.375   8.514   3.957  0.8615  0.5402 -1.2149
 6248SOL    HW221700   9.513   8.473   4.002  0.3997 -1.7853 -1.7647
 6249SOL     OW21701   7.707   8.644   7.015  0.3768 -0.6032 -0.2979
 6249SOL    HW121702   7.688   8.551   7.027 -0.5019 -0.2925  1.0111
 6249SOL    HW221703   7.710   8.679   7.105  3.1554  0.1890 -0.6001
 6250SOL     OW21704  10.598   5.771   0.695  0.1309  0.0924  0.5410
 6250SOL    HW121705  10.638   5.848   0.655  0.9819 -1.6817 -2.2967
 6250SOL    HW221706  10.668   5.733   0.749  0.5708 -0.0754 -0.1325
 6251SOL     OW21707   5.159   6.733  10.371 -0.0213  0.1458 -0.3847
 6251SOL    HW121708   5.239   6.764  10.330  0.8284 -0.5905  0.6313
 6251SOL    HW221709   5.158   6.775  10.457  0.6865 -1.8293  0.6577
 6252SOL     OW21710   5.603   8.202   4.936  0.2908 -0.2717 -0.0920
 6252SOL    HW121711   5.565   8.264   4.999  0.5478 -1.1068  0.9288
 6252SOL    HW221712   5.528   8.157   4.899  0.1622 -0.2547  0.1408
 6253SOL     OW21713   0.494   6.954   0.881  0.5640  0.3905 -0.0034
 6253SOL    HW121714   0.428   6.889   0.904  2.4047 -2.0552 -1.1074
 6253SOL    HW221715   0.519   6.995   0.964  0.4717 -1.4947  0.9970
 6254SOL     OW21716   4.070   2.016   5.739  0.4540  0.9568  0.1083
 6254SOL    HW121717   4.001   2.057   5.792  0.8973  1.2641  0.4509
 6254SOL    HW221718   4.149   2.024   5.791  0.8198  0.8957 -0.4241
 6255SOL     OW21719  10.527  10.059   0.792  0.6411 -0.0231 -0.0340
 6255SOL    HW121720  10.450  10.109   0.819 -0.2228 -1.2326 -0.1496
 6255SOL    HW221721  10.493   9.993   0.731  1.6710 -0.9580  0.3547
 6256SOL     OW21722   3.811  10.546   8.381  0.2379  0.0055 -0.1942
 6256SOL    HW121723   3.808  10.459   8.422 -4.3451 -0.1726 -0.3242
 6256SOL    HW221724   3.841  10.604   8.451 -1.9418 -1.0760  1.8045
 6257SOL     OW21725   7.809   9.906   5.653 -0.0595  0.2444  0.0290
 6257SOL    HW121726   7.766   9.992   5.652 -0.2805  0.1413  0.5717
 6257SOL    HW221727   7.892   9.921   5.607  0.0147  0.8101  0.3373
 6258SOL     OW21728   4.183   4.983   2.343 -0.0735 -0.2127  0.6217
 6258SOL    HW121729   4.131   4.996   2.264  1.2395 -0.5778 -0.3400
 6258SOL    HW221730   4.263   5.033   2.328 -0.8108  1.8517  2.8387
 6259SOL     OW21731   3.528   4.117   9.810 -0.8493  0.2357 -0.0504
 6259SOL    HW121732   3.454   4.075   9.767 -1.5804  0.2173  1.1781
 6259SOL    HW221733   3.519   4.092   9.902  0.8418  0.0151  0.0842
 6260SOL     OW21734   9.300   6.354   9.425 -0.5384  0.4215 -0.3097
 6260SOL    HW121735   9.211   6.385   9.407  0.0427  2.4058 -0.0125
 6260SOL    HW221736   9.289   6.289   9.495 -1.8980 -0.6960 -1.4914
 6261SOL     OW21737  10.331   1.499   3.123 -0.0888 -0.0229  0.0217
 6261SOL    HW121738  10.425   1.488   3.139 -0.0229 -1.0795 -0.9228
 6261SOL    HW221739  10.313   1.590   3.143  0.8961 -0.0954  1.3665
 6262SOL     OW21740   4.296   7.374   3.181  0.2505  0.1908  0.0557
 6262SOL    HW121741   4.246   7.296   3.155  0.9468 -0.8870  1.7082
 6262SOL    HW221742   4.235   7.424   3.236  0.5259 -0.4495  0.9761
 6263SOL     OW21743   7.967   5.770   3.395 -0.1162  0.1240 -0.3433
 6263SOL    HW121744   7.988   5.756   3.487 -0.8243 -0.3690 -0.2524
 6263SOL    HW221745   8.051   5.760   3.349 -0.3110 -3.2156 -0.1663
 6264SOL     OW21746   9.600   9.541   5.544  0.5308 -0.2566  0.0200
 6264SOL    HW121747   9.583   9.481   5.472 -0.4069  0.0977 -0.0716
 6264SOL    HW221748   9.533   9.520   5.609  1.7427 -0.9767  1.0534
 6265SOL     OW21749   2.084   8.283   1.568 -0.3987  0.2995 -0.3211
 6265SOL    HW121750   1.995   8.250   1.580 -0.2404 -0.1564 -0.3853
 6265SOL    HW221751   2.103   8.333   1.647  0.5056 -2.3450  1.2681
 6266SOL     OW21752   9.890   6.762   1.256  0.1225 -0.0566 -0.6716
 6266SOL    HW121753   9.915   6.826   1.189  2.1169 -1.3810 -1.2899
 6266SOL    HW221754   9.798   6.743   1.238 -0.7466  3.0320 -0.0576
 6267SOL     OW21755   8.304   5.170   4.359  0.8453  0.3693  0.4045
 6267SOL    HW121756   8.341   5.088   4.326 -0.4756  1.0361 -3.1495
 6267SOL    HW221757   8.253   5.144   4.436  2.3222 -1.7119  0.7703
 6268SOL     OW21758   9.768   7.364   5.149 -0.7306 -0.0657 -0.0879
 6268SOL    HW121759   9.734   7.439   5.199  0.1551 -0.3307  0.9445
 6268SOL    HW221760   9.810   7.309   5.215 -0.0594 -0.7300 -1.0543
 6269SOL     OW21761   2.625   1.003   3.821 -0.2582 -0.5047  0.2801
 6269SOL    HW121762   2.615   1.025   3.728  0.0415  0.6102  0.4970
 6269SOL    HW221763   2.719   0.993   3.833 -0.3575 -1.5770  0.2802
 6270SOL     OW21764   7.280   3.366   8.684 -0.0359 -0.0513  0.0202
 6270SOL    HW121765   7.307   3.295   8.625  1.7029  0.3114  0.3272
 6270SOL    HW221766   7.299   3.446   8.635 -4.2169  0.3645 -1.3460
 6271SOL     OW21767  10.244   4.363   8.428 -0.1802 -0.0492 -0.2071
 6271SOL    HW121768  10.173   4.300   8.431  0.4675 -0.7733  0.1391
 6271SOL    HW221769  10.255   4.382   8.334 -1.9148  1.3612 -0.1842
 6272SOL     OW21770   7.739   3.289   4.211  0.4338 -0.3382  0.2633
 6272SOL    HW121771   7.697   3.375   4.201 -0.0821 -0.4166  1.5674
 6272SOL    HW221772   7.809   3.289   4.145 -1.2103  0.0216 -1.5681
 6273SOL     OW21773   0.502   7.844  10.274 -0.5584  0.3581  0.5256
 6273SOL    HW121774   0.573   7.780  10.270 -0.2022  0.8315 -1.3706
 6273SOL    HW221775   0.518   7.892  10.355  1.1211  0.2559  0.2764
 6274SOL     OW21776  10.346   1.716   2.072 -0.7141 -0.5247  0.1090
 6274SOL    HW121777  10.372   1.639   2.124  2.4583  0.6734  0.5329
 6274SOL    HW221778  10.316   1.779   2.137  0.0205 -0.2152  0.1580
 6275SOL     OW21779   1.419   5.052   2.580 -0.2154  0.2731 -0.2148
 6275SOL    HW121780   1.349   5.064   2.644 -0.4509 -1.4683 -0.0795
 6275SOL    HW221781   1.485   5.117   2.602 -0.4517 -0.0493  1.5754
 6276SOL     OW21782  10.008   5.538   0.631 -0.6210  0.5328 -0.1325
 6276SOL    HW121783  10.018   5.577   0.544  0.5897 -1.9367 -1.2106
 6276SOL    HW221784   9.999   5.444   0.614 -0.7463  0.0194  2.3976
 6277SOL     OW21785   8.107  10.395   7.201 -0.4176  0.3946 -0.1295
 6277SOL    HW121786   8.138  10.424   7.286  1.5423 -0.2151 -0.5908
 6277SOL    HW221787   8.039  10.458   7.177 -0.4355  1.0342  1.5015
 6278SOL     OW21788   8.524   9.865   1.559  0.4911  0.1208  0.6381
 6278SOL    HW121789   8.468   9.930   1.602 -0.1934  0.7743 -1.1475
 6278SOL    HW221790   8.507   9.784   1.608 -0.8188  0.6501  1.1317
 6279SOL     OW21791   9.922   8.292   7.469  0.3405 -0.6564 -0.2605
 6279SOL    HW121792   9.942   8.200   7.448  0.9281 -0.2551 -1.6064
 6279SOL    HW221793   9.993   8.341   7.429 -0.5288  0.4575 -0.4928
 6280SOL     OW21794   0.833   8.547   6.323  0.3862  0.0042  0.2258
 6280SOL    HW121795   0.843   8.528   6.230 -0.0838 -0.4387  0.2630
 6280SOL    HW221796   0.843   8.463   6.367 -0.3396  0.0515  0.4994
 6281SOL     OW21797   1.365   8.252   2.010 -0.4318  0.5153 -0.1534
 6281SOL    HW121798   1.313   8.210   2.078  1.4138  1.4170  1.9337
 6281SOL    HW221799   1.446   8.202   2.008 -0.3313  0.7010 -1.5083
 6282SOL     OW21800   1.223   5.670   2.584 -0.2726 -0.5521 -0.2800
 6282SOL    HW121801   1.197   5.717   2.663  0.4384  1.5889 -1.2324
 6282SOL    HW221802   1.141   5.638   2.547 -0.7187 -0.6400  0.7534
 6283SOL     OW21803   7.648   7.008   0.578  0.1078 -0.5038 -0.5804
 6283SOL    HW121804   7.691   6.985   0.496  0.9148 -0.7603 -0.0954
 6283SOL    HW221805   7.597   6.930   0.601  0.8807 -0.9174 -0.2072
 6284SOL     OW21806   9.497   7.507   1.606 -0.6901 -0.0786 -0.4536
 6284SOL    HW121807   9.514   7.591   1.563 -1.4186  0.0959 -0.4087
 6284SOL    HW221808   9.532   7.442   1.545  0.7331  0.2823 -0.0653
 6285SOL     OW21809   2.636   9.059  10.291 -0.1482 -0.1183 -0.0033
 6285SOL    HW121810   2.695   8.999  10.338 -0.1502 -0.8254 -0.8639
 6285SOL    HW221811   2.562   9.072  10.350  0.7149  0.5184  0.9558
 6286SOL     OW21812   2.868   3.333   9.184  0.0404  0.2305  0.1337
 6286SOL    HW121813   2.835   3.247   9.209 -0.5508  0.1281 -0.9484
 6286SOL    HW221814   2.910   3.319   9.099 -0.1823  1.0295 -0.1184
 6287SOL     OW21815   4.695   9.461   1.128  0.4438  0.0880  0.1762
 6287SOL    HW121816   4.646   9.532   1.170  1.6935  0.8953  0.3447
 6287SOL    HW221817   4.765   9.506   1.080 -0.2315 -0.8813 -1.8220
 6288SOL     OW21818   5.877   8.728  10.630 -0.0523  0.4857  0.4649
 6288SOL    HW121819   5.942   8.797  10.641 -0.6271  1.3380 -1.1197
 6288SOL    HW221820   5.807   8.769  10.579  0.0032 -1.4895 -1.3486
 6289SOL     OW21821   4.682   3.546   6.294  0.0472  0.6516  0.2459
 6289SOL    HW121822   4.752   3.496   6.253 -0.2929  1.3864 -1.3070
 6289SOL    HW221823   4.613   3.549   6.227 -1.3999  0.1348  1.6427
 6290SOL     OW21824   7.454   5.522   9.198 -0.2657 -0.2289  0.3312
 6290SOL    HW121825   7.389   5.457   9.223 -0.3765 -1.4275 -2.6732
 6290SOL    HW221826   7.538   5.485   9.225 -0.5711 -0.0126  1.6278
 6291SOL     OW21827   6.159   2.958   8.662  0.0905 -0.6975 -0.2248
 6291SOL    HW121828   6.197   2.942   8.575  2.3414 -0.6335  0.6610
 6291SOL    HW221829   6.204   3.037   8.693 -1.4773 -0.0730  0.5862
 6292SOL     OW21830   5.766   4.635   8.229  0.2433  0.3290  0.2842
 6292SOL    HW121831   5.855   4.661   8.252  0.5226 -0.9364  0.6531
 6292SOL    HW221832   5.729   4.598   8.308 -0.2496 -0.1503 -0.1597
 6293SOL     OW21833   6.853   5.199   0.969  0.3288 -0.1910 -0.3832
 6293SOL    HW121834   6.882   5.233   0.884  0.9598  0.6789  0.1590
 6293SOL    HW221835   6.757   5.196   0.962 -0.0958  4.2946  0.3501
 6294SOL     OW21836   0.864   3.309   1.345  0.2317  0.6753  0.0791
 6294SOL    HW121837   0.808   3.310   1.267  0.4835 -1.5987 -0.1961
 6294SOL    HW221838   0.828   3.239   1.399  0.7903  1.4338  1.4696
 6295SOL     OW21839   8.894   7.615  10.015 -0.4631  0.0223  0.5081
 6295SOL    HW121840   8.989   7.620  10.014 -0.4005 -0.9795 -0.5178
 6295SOL    HW221841   8.873   7.564  10.093 -0.0148 -1.6348 -0.4120
 6296SOL     OW21842   1.720   9.347   9.152  0.2166  0.4099 -0.3753
 6296SOL    HW121843   1.802   9.300   9.165 -0.6038 -0.8607  0.4379
 6296SOL    HW221844   1.703   9.341   9.058 -1.0402 -3.1148 -0.0785
 6297SOL     OW21845   0.169   3.362   6.442 -0.2695  0.2728  0.6013
 6297SOL    HW121846   0.116   3.427   6.395  1.0769  1.4691  0.6469
 6297SOL    HW221847   0.259   3.382   6.416  0.1409 -2.0844  0.0568
 6298SOL     OW21848   5.773   8.502   2.607 -0.1940 -0.1233 -0.3561
 6298SOL    HW121849   5.857   8.514   2.563  0.5124 -1.8126  0.4371
 6298SOL    HW221850   5.713   8.562   2.562  0.7161 -1.0402 -2.9369
 6299SOL     OW21851   8.242   6.853   4.952  0.2239  0.0472 -0.2285
 6299SOL    HW121852   8.321   6.862   5.005  1.0953  2.0830 -1.7773
 6299SOL    HW221853   8.189   6.929   4.975 -0.1657  0.0185 -1.0087
 6300SOL     OW21854   1.552   2.156   6.196  0.7485  0.2076 -0.1535
 6300SOL    HW121855   1.488   2.172   6.127  0.2293 -1.9248 -0.2161
 6300SOL    HW221856   1.519   2.080   6.243  1.5033  1.1089  1.9918
 6301SOL     OW21857   0.616   0.383   3.561 -0.4471 -0.4378 -0.0810
 6301SOL    HW121858   0.679   0.379   3.632 -1.3806  2.3647  1.0414
 6301SOL    HW221859   0.542   0.332   3.592 -0.4508 -0.0701  0.5352
 6302SOL     OW21860   7.822   8.012   5.205  0.4354 -0.1901  0.2099
 6302SOL    HW121861   7.798   7.990   5.295 -0.6527  1.7094  0.4271
 6302SOL    HW221862   7.753   7.972   5.151 -0.7535  1.3843  0.4982
 6303SOL     OW21863   0.272   5.175   1.469 -0.1982  0.2109  0.3686
 6303SOL    HW121864   0.231   5.262   1.476  0.2331  0.2905  2.3574
 6303SOL    HW221865   0.327   5.168   1.547  1.6281 -0.9328 -0.9457
 6304SOL     OW21866   6.241   8.000   1.972  0.3464  0.0955  0.1963
 6304SOL    HW121867   6.211   8.072   1.916 -0.0935  0.5126  0.9591
 6304SOL    HW221868   6.249   8.038   2.059  0.5148 -0.6825  0.5339
 6305SOL     OW21869   0.536   8.927   8.849  0.0526  0.5040 -0.2962
 6305SOL    HW121870   0.549   8.984   8.924 -0.0953  1.9107 -1.3075
 6305SOL    HW221871   0.617   8.875   8.844 -1.5842 -2.9010  3.4194
 6306SOL     OW21872   9.060   7.587   4.441  0.3289 -0.1921  0.0749
 6306SOL    HW121873   9.005   7.663   4.460 -0.5544 -0.7838 -0.0380
 6306SOL    HW221874   8.999   7.522   4.407  1.4544 -0.0807 -2.3214
 6307SOL     OW21875  10.368   8.795  10.549  0.0305 -0.1006 -0.0412
 6307SOL    HW121876  10.445   8.757  10.591  0.1333  1.9545  1.8383
 6307SOL    HW221877  10.400   8.878  10.512 -0.5956 -0.7806 -2.2889
 6308SOL     OW21878   9.094   0.813   0.625  0.2168 -0.6392  0.1827
 6308SOL    HW121879   9.137   0.893   0.656  1.2248 -0.7899 -0.7909
 6308SOL    HW221880   9.072   0.766   0.705  1.3229 -0.2708  0.7308
 6309SOL     OW21881   5.910   4.146   5.059 -0.2762  0.3535  0.1112
 6309SOL    HW121882   5.908   4.182   5.148 -0.1527  0.6394  0.0015
 6309SOL    HW221883   5.890   4.221   5.003 -0.3101  0.1842 -0.1060
 6310SOL     OW21884   7.034   9.745   3.345 -0.3347  0.2125  0.4383
 6310SOL    HW121885   7.056   9.736   3.438 -0.2965 -0.9416  0.3345
 6310SOL    HW221886   6.938   9.746   3.344 -0.3397 -0.1198  0.4659
 6311SOL     OW21887   6.343   8.191   5.224  0.2469  0.2645 -0.2110
 6311SOL    HW121888   6.332   8.131   5.299  0.0205  0.2554 -0.2505
 6311SOL    HW221889   6.280   8.261   5.241  0.8014  0.7140  0.0507
 6312SOL     OW21890  10.452   7.057   2.427  0.2491 -0.2617 -0.2471
 6312SOL    HW121891  10.520   7.088   2.488  0.9981 -2.2538  0.0124
 6312SOL    HW221892  10.424   7.136   2.381  2.0955  0.7793  0.2884
 6313SOL     OW21893   9.443   8.478   4.345 -0.0145  0.3667 -0.2936
 6313SOL    HW121894   9.487   8.557   4.314 -0.4672  0.9307  0.4430
 6313SOL    HW221895   9.362   8.474   4.294 -0.3657  0.8331  0.2067
 6314SOL     OW21896   1.124   1.715   5.348  0.4664  0.7318  0.4415
 6314SOL    HW121897   1.043   1.682   5.387  1.2618 -0.8260  0.8670
 6314SOL    HW221898   1.095   1.767   5.273 -0.9682  1.2723  1.3315
 6315SOL     OW21899   7.768   8.744  10.596  0.1227 -0.4064 -0.0070
 6315SOL    HW121900   7.799   8.703  10.676 -0.0867 -0.9564 -0.2048
 6315SOL    HW221901   7.802   8.690  10.526 -0.8702 -0.7531 -0.2406
 6316SOL     OW21902   2.835   1.299   8.841 -0.2369  0.1377 -0.0056
 6316SOL    HW121903   2.906   1.255   8.888 -1.4336 -0.4458  1.3300
 6316SOL    HW221904   2.811   1.373   8.897 -0.2838  0.6943 -0.7468
 6317SOL     OW21905   7.530   1.945   5.589 -0.2793 -0.4543 -0.0301
 6317SOL    HW121906   7.492   1.916   5.672 -0.8989  1.5393  0.4605
 6317SOL    HW221907   7.624   1.938   5.602 -0.3897 -0.9164  0.5631
 6318SOL     OW21908   9.388   3.264   3.615  0.2195  0.2271 -0.2093
 6318SOL    HW121909   9.406   3.340   3.559 -0.8815  0.6221 -0.0558
 6318SOL    HW221910   9.423   3.190   3.566  0.1354  0.6810 -0.9808
 6319SOL     OW21911   1.132   6.179   0.331 -0.4265 -0.5969  0.0247
 6319SOL    HW121912   1.107   6.257   0.282 -0.0207 -1.4436 -1.5851
 6319SOL    HW221913   1.086   6.107   0.287  1.2583 -1.6007 -0.1930
 6320SOL     OW21914   1.733   8.481   7.201 -0.0896 -0.2822 -0.0439
 6320SOL    HW121915   1.787   8.432   7.140  0.4571 -2.6939  2.1777
 6320SOL    HW221916   1.662   8.517   7.148  0.8540 -1.4449 -2.2062
 6321SOL     OW21917   4.425   2.887   9.157  0.1777 -0.0007 -0.6360
 6321SOL    HW121918   4.506   2.922   9.195  0.2143 -0.5130 -0.2434
 6321SOL    HW221919   4.416   2.799   9.194  0.3791 -0.6427 -2.0471
 6322SOL     OW21920   1.880   8.727   3.560 -0.1221 -0.4769  0.1927
 6322SOL    HW121921   1.955   8.768   3.517  0.4684  0.8595  2.3404
 6322SOL    HW221922   1.803   8.765   3.516  0.4465 -0.1208 -0.5179
 6323SOL     OW21923   2.975   8.360   6.737  0.0281 -0.6218 -0.1303
 6323SOL    HW121924   2.884   8.353   6.766  0.0074  0.1476  0.0189
 6323SOL    HW221925   3.027   8.341   6.814 -0.0263  1.3031  0.4458
 6324SOL     OW21926   7.344   0.088   1.869 -0.2222  0.0134  0.6794
 6324SOL    HW121927   7.286   0.120   1.937  0.9839  1.1894  1.2046
 6324SOL    HW221928   7.417   0.047   1.916 -0.9878 -2.3003  0.0356
 6325SOL     OW21929   9.134   6.693   2.173  0.5990  0.0678  0.2200
 6325SOL    HW121930   9.184   6.660   2.099 -0.7259  2.7581 -2.0491
 6325SOL    HW221931   9.043   6.676   2.149  0.0471  2.5861  0.3125
 6326SOL     OW21932   4.364   5.791   6.714  0.7946  0.3395  0.0384
 6326SOL    HW121933   4.368   5.777   6.809  2.4776  1.2228  0.1265
 6326SOL    HW221934   4.437   5.850   6.695 -0.3066  1.2575 -1.6317
 6327SOL     OW21935   0.290   2.788   0.477 -0.3102 -0.0158 -0.5297
 6327SOL    HW121936   0.225   2.780   0.546  0.4058 -1.0703  0.0437
 6327SOL    HW221937   0.242   2.826   0.403 -0.9382  1.7795  0.7237
 6328SOL     OW21938   5.621   3.277   5.254 -0.2762  0.3361 -0.0046
 6328SOL    HW121939   5.713   3.280   5.228 -0.1862  1.0484  0.3726
 6328SOL    HW221940   5.615   3.202   5.313 -0.4276 -1.1335 -1.7710
 6329SOL     OW21941  10.443   5.334   3.592 -0.6462 -0.0300  0.5129
 6329SOL    HW121942  10.402   5.409   3.548  1.5290  0.1704 -1.3900
 6329SOL    HW221943  10.499   5.373   3.659  0.0239  0.0397 -0.0750
 6330SOL     OW21944   0.995   1.591   7.415  0.1173 -0.8049 -0.4473
 6330SOL    HW121945   1.073   1.572   7.363 -0.3453 -1.4697 -0.9108
 6330SOL    HW221946   0.922   1.564   7.360 -0.5777  1.5777 -0.8025
 6331SOL     OW21947   5.497   3.904   0.500 -0.0703  0.4759 -0.2245
 6331SOL    HW121948   5.514   3.881   0.409 -0.3586 -1.1859  0.1090
 6331SOL    HW221949   5.548   3.985   0.514  1.4306 -0.2200 -1.3369
 6332SOL     OW21950   0.214   7.841  10.549 -0.9715 -0.3650  0.0035
 6332SOL    HW121951   0.184   7.773  10.608 -0.5404 -0.6004 -0.0404
 6332SOL    HW221952   0.222   7.797  10.464  1.0717 -0.7623  0.3402
 6333SOL     OW21953   1.979   1.858   7.291  0.4213  0.6273  0.3721
 6333SOL    HW121954   1.913   1.873   7.222  0.0538 -2.2798 -0.0339
 6333SOL    HW221955   1.967   1.931   7.351 -1.8784  1.2288 -0.6867
 6334SOL     OW21956   2.204   9.723  10.315 -0.6368 -0.4786  0.1863
 6334SOL    HW121957   2.261   9.736  10.240 -1.0163 -0.6882 -0.1392
 6334SOL    HW221958   2.171   9.634  10.306  0.2710 -0.9531  1.2593
 6335SOL     OW21959   0.724   1.491   1.871 -0.1816  0.3304 -0.1323
 6335SOL    HW121960   0.667   1.519   1.943  1.6285  0.6812  1.2359
 6335SOL    HW221961   0.683   1.411   1.838  0.4431 -1.6224  3.3145
 6336SOL     OW21962   1.534   2.405   8.144  0.1712 -0.1649  0.6553
 6336SOL    HW121963   1.627   2.427   8.143  0.4021 -0.9022  2.3918
 6336SOL    HW221964   1.523   2.342   8.073  0.7826  0.6874 -0.2114
 6337SOL     OW21965   7.714   3.795   9.077 -0.5051  0.1683  0.0659
 6337SOL    HW121966   7.662   3.778   8.998 -1.1620  0.7618  0.3686
 6337SOL    HW221967   7.759   3.877   9.057  0.8760 -0.6792 -0.4699
 6338SOL     OW21968   4.019   1.137   0.622  0.5726 -0.1156 -0.2872
 6338SOL    HW121969   4.020   1.124   0.717  0.3316  2.8977  0.2086
 6338SOL    HW221970   4.106   1.109   0.593  1.2112  0.3732  1.0763
 6339SOL     OW21971   0.854  10.070   2.425  0.4444  0.0603 -0.0945
 6339SOL    HW121972   0.780  10.012   2.442  0.4518  0.2058  0.4552
 6339SOL    HW221973   0.850  10.087   2.331  0.0531 -0.3038 -0.1444
 6340SOL     OW21974   3.707   6.646   4.794 -0.0168 -0.0631  0.3304
 6340SOL    HW121975   3.759   6.708   4.743 -0.0180  0.0204  0.4307
 6340SOL    HW221976   3.764   6.620   4.866  0.6860 -1.6095 -0.7208
 6341SOL     OW21977   8.360   9.343  10.011  0.9520 -0.4606 -0.0712
 6341SOL    HW121978   8.308   9.361  10.089  0.9739 -2.6335  0.5046
 6341SOL    HW221979   8.396   9.428   9.986 -1.5919  0.8261  0.4057
 6342SOL     OW21980   5.322  10.199   2.928 -0.5271  0.8028 -0.6359
 6342SOL    HW121981   5.414  10.178   2.939 -0.5842  0.3007 -1.1046
 6342SOL    HW221982   5.276  10.115   2.938 -0.9764  1.1186  0.0565
 6343SOL     OW21983   9.242   0.906   2.627 -0.1819  0.0346  0.0783
 6343SOL    HW121984   9.245   0.982   2.568  1.0294 -1.4204 -1.8539
 6343SOL    HW221985   9.334   0.886   2.646 -0.5175 -0.3396  1.4265
 6344SOL     OW21986   6.931   1.472   3.855 -0.0323  0.2698 -0.0307
 6344SOL    HW121987   6.960   1.387   3.889  0.5721  0.9489  1.2518
 6344SOL    HW221988   6.964   1.475   3.766 -0.3540 -0.9718 -0.2155
 6345SOL     OW21989   4.471   1.661   4.475 -0.2460 -0.1912 -0.5213
 6345SOL    HW121990   4.516   1.609   4.410  0.5839 -3.0894  2.1234
 6345SOL    HW221991   4.534   1.729   4.500  0.9768 -1.4569 -0.0405
 6346SOL     OW21992   5.175   6.646   0.556  0.1364 -0.1560 -0.6961
 6346SOL    HW121993   5.144   6.686   0.638  0.0424  1.0198 -1.2898
 6346SOL    HW221994   5.113   6.676   0.490 -0.0318 -1.4282 -1.1579
 6347SOL     OW21995   1.367   0.587   4.821  0.0534  0.4506  0.2933
 6347SOL    HW121996   1.336   0.523   4.886  0.4750 -0.2449 -0.1850
 6347SOL    HW221997   1.297   0.590   4.755 -0.1338  0.7666  0.5010
 6348SOL     OW21998   7.510   1.345   6.404  0.3903 -0.2518  0.3771
 6348SOL    HW121999   7.463   1.271   6.443 -0.4319 -0.0896 -0.2777
 6348SOL    HW222000   7.551   1.309   6.325 -2.7874  0.6252 -1.8834
 6349SOL     OW22001   5.638   7.748   7.096 -0.3529 -0.0719 -0.1452
 6349SOL    HW122002   5.558   7.740   7.045 -0.3173 -0.5092 -0.1433
 6349SOL    HW222003   5.610   7.738   7.187 -0.9496  4.1858  0.3266
 6350SOL     OW22004   5.429   8.538   0.347  0.1285 -0.1563 -0.1074
 6350SOL    HW122005   5.362   8.572   0.288 -0.2247 -1.1641 -0.3188
 6350SOL    HW222006   5.500   8.511   0.288 -0.8513 -2.6228 -0.3024
 6351SOL     OW22007   1.921   0.114   5.456  0.0642  0.4979 -0.1190
 6351SOL    HW122008   1.940   0.125   5.549  0.3806  1.2843 -0.2728
 6351SOL    HW222009   1.848   0.052   5.453  0.7063 -0.3058  0.6058
 6352SOL     OW22010   2.726   2.960   5.336  0.0601  0.1494 -0.2639
 6352SOL    HW122011   2.805   2.909   5.350 -0.3647 -0.3907  0.2179
 6352SOL    HW222012   2.691   2.928   5.252  0.3168  0.3501 -0.4495
 6353SOL     OW22013   6.906   0.798   1.713  0.1121 -0.0320  0.2372
 6353SOL    HW122014   6.888   0.879   1.665  1.6057  1.6323  2.2892
 6353SOL    HW222015   6.931   0.735   1.645 -3.0414  0.5011 -1.6482
 6354SOL     OW22016   3.553   6.820   6.240  0.0023 -0.0192 -0.1151
 6354SOL    HW122017   3.642   6.852   6.249  0.1507  0.3395 -2.3377
 6354SOL    HW222018   3.505   6.893   6.200 -0.8819 -0.7711 -0.4789
 6355SOL     OW22019   3.315   7.695   5.506  0.0144  0.6708 -0.0963
 6355SOL    HW122020   3.408   7.686   5.488  0.2528  2.7012 -0.0992
 6355SOL    HW222021   3.295   7.621   5.564  1.8397  0.6975  0.6497
 6356SOL     OW22022   1.667   3.103   3.573  0.4203 -0.3242  0.4197
 6356SOL    HW122023   1.745   3.154   3.598 -0.1233 -1.0341  4.1046
 6356SOL    HW222024   1.689   3.013   3.596 -1.5814 -0.4722  2.0064
 6357SOL     OW22025   9.484   1.574   2.870 -0.0392 -0.0012  0.4453
 6357SOL    HW122026   9.388   1.572   2.867 -0.1223  2.0485 -2.5530
 6357SOL    HW222027   9.505   1.643   2.932 -0.5228  0.0455  0.5622
 6358SOL     OW22028   2.276   7.069   1.848  0.0906 -0.7089  0.3458
 6358SOL    HW122029   2.217   7.112   1.910 -1.6642 -1.6960 -0.5477
 6358SOL    HW222030   2.352   7.127   1.843 -1.3338  1.3195  0.6147
 6359SOL     OW22031   2.160   8.576  10.228  0.3120  0.0440  0.4099
 6359SOL    HW122032   2.118   8.490  10.221  0.0660  0.2224 -0.3364
 6359SOL    HW222033   2.149   8.615  10.142  0.9643  0.5800  0.5635
 6360SOL     OW22034   3.227   7.686   6.337 -0.3116  0.2336  0.0642
 6360SOL    HW122035   3.164   7.709   6.269 -0.3822  0.4966  0.2134
 6360SOL    HW222036   3.216   7.592   6.351 -2.1052  0.6064  1.5098
 6361SOL     OW22037   5.490   4.673   3.715  0.0848 -0.3214  0.0049
 6361SOL    HW122038   5.438   4.739   3.760  1.6965  0.3597  0.9518
 6361SOL    HW222039   5.499   4.705   3.626  1.0438  0.8999  0.5147
 6362SOL     OW22040   6.639   1.105   1.522  0.1963 -0.1978  0.3634
 6362SOL    HW122041   6.642   1.117   1.617  0.2920  2.4769  0.1027
 6362SOL    HW222042   6.726   1.074   1.498  2.1333  4.1991  0.7252
 6363SOL     OW22043  10.051   5.490   0.156 -0.1356  0.3486 -0.1501
 6363SOL    HW122044   9.992   5.438   0.102 -2.4665  1.9832  0.6738
 6363SOL    HW222045  10.107   5.536   0.093 -0.1101 -0.7892 -0.9832
 6364SOL     OW22046   0.282   9.595   0.599  0.0884 -0.4761 -0.2517
 6364SOL    HW122047   0.359   9.544   0.622 -0.6707 -1.4023  0.3339
 6364SOL    HW222048   0.209   9.548   0.641 -0.6662  0.9508  0.0905
 6365SOL     OW22049   8.637   7.215   1.991  0.3001  0.0189 -0.3237
 6365SOL    HW122050   8.732   7.220   1.974  0.3127 -0.5696 -0.4510
 6365SOL    HW222051   8.603   7.163   1.919  0.2175 -1.7705  0.9615
 6366SOL     OW22052   4.812   5.935   6.565  0.1857  0.2696  0.1699
 6366SOL    HW122053   4.873   5.981   6.508 -2.5052  1.1671 -2.2318
 6366SOL    HW222054   4.822   5.843   6.540 -1.2541  0.6824 -2.2510
 6367SOL     OW22055   0.654   0.884   6.777 -0.3195  0.2818  0.1584
 6367SOL    HW122056   0.623   0.798   6.748  0.2566 -0.6280  2.0523
 6367SOL    HW222057   0.580   0.922   6.823 -0.0972  0.0966  0.6825
 6368SOL     OW22058   1.813   4.947   8.915 -0.2420 -0.0607  0.1644
 6368SOL    HW122059   1.770   5.024   8.878  0.9719  0.7092  0.3039
 6368SOL    HW222060   1.906   4.969   8.915  0.2803 -2.0170 -0.9605
 6369SOL     OW22061   6.823   9.678   2.058 -0.5629 -0.3422  0.0658
 6369SOL    HW122062   6.895   9.733   2.029 -0.9446 -0.5837 -1.4304
 6369SOL    HW222063   6.745   9.719   2.020 -0.8562 -1.8545 -1.0729
 6370SOL     OW22064   4.366   4.337   1.472 -0.5317 -0.0967 -0.5953
 6370SOL    HW122065   4.379   4.373   1.384  0.4848 -0.4339 -0.5982
 6370SOL    HW222066   4.316   4.256   1.457 -0.2126 -0.2436 -0.8795
 6371SOL     OW22067   7.058   0.946  10.140 -0.1490  0.1369 -0.0912
 6371SOL    HW122068   7.089   0.893  10.213  2.5213  0.5082 -0.8769
 6371SOL    HW222069   6.989   1.000  10.178 -1.2080 -2.0489  1.3050
 6372SOL     OW22070   8.987   8.407   2.982 -0.6286 -0.5994 -0.1594
 6372SOL    HW122071   9.048   8.416   2.908 -0.4530 -3.5376 -0.4960
 6372SOL    HW222072   8.912   8.361   2.946 -0.8032 -1.5705  1.3588
 6373SOL     OW22073  10.033   6.983   4.498  0.2336  0.5002 -0.2132
 6373SOL    HW122074  10.039   6.927   4.575  2.8473  0.2123 -0.5482
 6373SOL    HW222075  10.108   7.041   4.505 -0.4346  1.6017 -1.7131
 6374SOL     OW22076   8.371  10.371   0.375  0.6498 -0.1220  0.6210
 6374SOL    HW122077   8.338  10.283   0.355 -1.0262  0.8677 -1.4240
 6374SOL    HW222078   8.333  10.392   0.460 -1.5039 -0.2522 -0.2505
 6375SOL     OW22079   3.415   6.363   2.262 -0.2423 -0.0067 -0.3466
 6375SOL    HW122080   3.369   6.385   2.181 -0.6657  1.1149  0.1791
 6375SOL    HW222081   3.345   6.342   2.324  0.0587 -0.4048 -0.1427
 6376SOL     OW22082   4.166   4.671   1.349 -0.4812 -0.7582 -0.0233
 6376SOL    HW122083   4.189   4.594   1.402 -0.4809  0.4965  1.8997
 6376SOL    HW222084   4.249   4.699   1.311 -0.3361 -1.2233 -0.0552
 6377SOL     OW22085   3.001  10.227   1.878 -0.9368 -0.0476  0.4055
 6377SOL    HW122086   3.064  10.260   1.942 -0.8129 -0.3452  0.4363
 6377SOL    HW222087   2.917  10.262   1.908 -0.3713  4.0852 -1.9864
 6378SOL     OW22088   7.032  10.469   0.157  0.4031 -0.1584  0.4308
 6378SOL    HW122089   6.970  10.397   0.145 -0.5418  0.8982 -1.3912
 6378SOL    HW222090   7.114  10.426   0.185 -0.1970 -1.9007 -0.3697
 6379SOL     OW22091   5.357   5.082  10.575 -0.1640 -0.3469  0.3594
 6379SOL    HW122092   5.338   5.101  10.483  1.5750 -0.6206 -0.1024
 6379SOL    HW222093   5.273   5.090  10.620 -0.3993  4.5086 -0.4000
 6380SOL     OW22094   2.322   0.770   2.313  0.8625 -0.1809 -0.2093
 6380SOL    HW122095   2.256   0.796   2.376  0.6019  2.5436 -1.4632
 6380SOL    HW222096   2.403   0.811   2.344  1.0515 -0.0777 -0.8101
 6381SOL     OW22097   9.193   7.938   9.999 -0.3258 -0.0278 -0.2012
 6381SOL    HW122098   9.125   7.903  10.056 -1.1295 -0.1324 -1.2032
 6381SOL    HW222099   9.228   7.862   9.954  1.5580 -0.2010  1.3965
 6382SOL     OW22100   6.534   7.625   4.253 -0.1140  0.3829  0.4517
 6382SOL    HW122101   6.556   7.613   4.345 -0.2849 -0.0755  0.4325
 6382SOL    HW222102   6.492   7.712   4.250  0.4959  0.6937  0.6940
 6383SOL     OW22103   8.966   4.806   1.348  0.5782 -0.1570  0.6052
 6383SOL    HW122104   8.935   4.804   1.257  0.0910 -0.4738  0.7708
 6383SOL    HW222105   9.061   4.798   1.341  0.4290 -2.2295  0.1845
 6384SOL     OW22106   0.903   6.905   3.025  0.1233  0.4581 -0.0345
 6384SOL    HW122107   0.929   6.867   2.941  3.6072  0.9021  0.6791
 6384SOL    HW222108   0.869   6.992   3.001  1.2342  0.6581 -1.0140
 6385SOL     OW22109   5.661  10.521   1.692 -0.0062  0.4340  0.6788
 6385SOL    HW122110   5.580  10.479   1.663  0.5478  0.5987 -1.2889
 6385SOL    HW222111   5.729  10.479   1.639  1.0620  1.0594  1.5216
 6386SOL     OW22112   2.752   2.686   1.452  0.3732  0.0808 -0.6372
 6386SOL    HW122113   2.725   2.691   1.360  0.5524  0.1412 -0.6881
 6386SOL    HW222114   2.676   2.717   1.502  0.2832  0.0678 -0.7669
 6387SOL     OW22115   3.636   7.699   1.538  0.3983 -0.3098  0.2657
 6387SOL    HW122116   3.556   7.654   1.567 -0.3335 -0.8684 -2.3597
 6387SOL    HW222117   3.705   7.633   1.549  0.1225 -0.5496  0.5866
 6388SOL     OW22118   9.933   1.648   4.728  0.0315  0.3590  0.1226
 6388SOL    HW122119   9.968   1.728   4.769 -1.5020  1.7455 -1.1280
 6388SOL    HW222120   9.999   1.581   4.746 -0.3831  0.8563  4.5669
 6389SOL     OW22121   5.746   5.539   5.847  0.2626 -0.1465 -0.3681
 6389SOL    HW122122   5.810   5.467   5.846  0.9852  0.4907 -0.7372
 6389SOL    HW222123   5.786   5.608   5.794 -0.9417  0.0941 -1.0160
 6390SOL     OW22124   0.469   4.865   8.822  0.6058  0.0039 -1.1388
 6390SOL    HW122125   0.453   4.866   8.728 -0.7412  0.5200 -0.9225
 6390SOL    HW222126   0.423   4.787   8.853  0.0250  0.4798 -0.7640
 6391SOL     OW22127   0.417   3.361   7.686 -0.3046  0.1995 -0.7439
 6391SOL    HW122128   0.369   3.365   7.604 -1.2927  0.2795 -0.1848
 6391SOL    HW222129   0.427   3.453   7.712  1.5658  0.2836 -1.6272
 6392SOL     OW22130   5.405   8.528   0.863 -0.0925 -0.2796 -0.3408
 6392SOL    HW122131   5.436   8.446   0.900 -0.7586 -0.0946  0.6577
 6392SOL    HW222132   5.396   8.586   0.938 -1.7531  0.0263 -0.7480
 6393SOL     OW22133   7.209   3.604  10.123  0.1785  0.2347 -0.1666
 6393SOL    HW122134   7.195   3.516  10.157  2.4103 -0.4302 -0.7480
 6393SOL    HW222135   7.189   3.662  10.196 -0.5017 -0.7934  0.4941
 6394SOL     OW22136   2.099   2.261   5.148 -0.2333  0.7341  0.1052
 6394SOL    HW122137   2.059   2.285   5.232 -1.8587  0.1045 -0.4417
 6394SOL    HW222138   2.053   2.314   5.083 -0.2329 -0.0600 -0.5658
 6395SOL     OW22139   5.600   3.599   7.668  0.3362 -0.8504  0.6889
 6395SOL    HW122140   5.651   3.622   7.746  1.0938 -1.9042  0.5324
 6395SOL    HW222141   5.647   3.524   7.630  1.9660  1.6488 -2.7122
 6396SOL     OW22142   3.478  10.264   9.557  0.0554 -0.0826  0.2928
 6396SOL    HW122143   3.428  10.252   9.476 -0.0452 -0.3252  0.3909
 6396SOL    HW222144   3.539  10.335   9.537  0.7873 -0.8783 -0.3548
 6397SOL     OW22145   5.960   0.203   1.412 -0.4550  0.1157  0.3383
 6397SOL    HW122146   6.013   0.258   1.355  0.1572  0.5458  1.2955
 6397SOL    HW222147   5.968   0.115   1.374  0.6082  0.2442  0.2265
 6398SOL     OW22148   3.286   2.491   9.758 -0.5911 -0.0287 -0.7611
 6398SOL    HW122149   3.366   2.542   9.744  0.4094 -1.0273  0.9021
 6398SOL    HW222150   3.229   2.515   9.685  1.0652  1.0162 -1.7874
 6399SOL     OW22151   6.913   6.163   9.365  0.4550  0.6008  0.3720
 6399SOL    HW122152   6.846   6.145   9.299  1.7257 -0.2290 -0.7792
 6399SOL    HW222153   6.975   6.090   9.356  1.2383  1.0548  1.7450
 6400SOL     OW22154  10.168  10.374   6.900  0.1043  0.1364 -0.3577
 6400SOL    HW122155  10.158  10.456   6.852 -1.2852 -0.0845 -0.4804
 6400SOL    HW222156  10.120  10.388   6.982  2.0772  0.3542  0.8265
 6401SOL     OW22157   3.301   9.382  10.640  0.5273  0.3948  0.4501
 6401SOL    HW122158   3.363   9.449  10.670  0.7907  0.2153  0.3183
 6401SOL    HW222159   3.271   9.340  10.720  1.7670 -0.5569  0.4564
 6402SOL     OW22160   2.554   6.326   3.299  0.0963  0.9166  0.3922
 6402SOL    HW122161   2.469   6.370   3.302  0.0419  1.1044 -2.1200
 6402SOL    HW222162   2.617   6.396   3.311 -0.0403  0.7355  2.5807
 6403SOL     OW22163   4.665   1.961   5.281  0.6131  0.2361  0.0080
 6403SOL    HW122164   4.688   1.880   5.236 -0.4504  0.0548 -0.2467
 6403SOL    HW222165   4.716   2.028   5.236  0.9604 -0.1951 -0.2526
 6404SOL     OW22166   2.655   7.427   7.531 -0.2788 -0.2112 -0.2713
 6404SOL    HW122167   2.654   7.385   7.616  0.0224  0.5858  0.1347
 6404SOL    HW222168   2.587   7.495   7.537  1.7613  1.8859  0.4152
 6405SOL     OW22169   1.019   9.990   9.165 -0.3481  0.1977  0.1648
 6405SOL    HW122170   0.973   9.930   9.106 -2.1538  1.1320  0.5658
 6405SOL    HW222171   1.059   9.934   9.230 -1.8393 -0.6235  0.4185
 6406SOL     OW22172   2.939   3.741   4.633 -0.1811 -0.0362  0.6335
 6406SOL    HW122173   2.915   3.812   4.692  0.2790 -0.0923  0.8892
 6406SOL    HW222174   3.014   3.774   4.584 -0.6638  0.0754 -0.0450
 6407SOL     OW22175   3.354   5.825   3.623 -0.0705  0.1373  0.2806
 6407SOL    HW122176   3.381   5.911   3.590 -0.8869  0.0188 -0.7725
 6407SOL    HW222177   3.401   5.763   3.567 -1.0361 -0.0710 -0.3292
 6408SOL     OW22178   9.306  10.306   6.395 -0.2436 -0.2162 -0.0658
 6408SOL    HW122179   9.362  10.228   6.407 -1.1621 -0.8865 -0.0303
 6408SOL    HW222180   9.335  10.366   6.464  0.0560 -0.7768  0.3122
 6409SOL     OW22181   7.088   9.420   1.327  0.1854 -0.2261  0.1957
 6409SOL    HW122182   7.024   9.447   1.393  0.0174 -4.1970  1.9237
 6409SOL    HW222183   7.037   9.412   1.247 -0.4638  0.9703  0.4607
 6410SOL     OW22184   7.317   7.844   9.108 -0.0344  0.2242  0.0150
 6410SOL    HW122185   7.230   7.807   9.090  1.2073 -2.1573 -1.6198
 6410SOL    HW222186   7.304   7.938   9.102 -2.3185 -0.0902 -1.3171
 6411SOL     OW22187   3.708   4.661   0.750 -0.4771 -0.3098  0.0800
 6411SOL    HW122188   3.754   4.742   0.726  1.9366 -0.9154  2.1988
 6411SOL    HW222189   3.745   4.595   0.691  0.0579 -0.4580  0.5718
 6412SOL     OW22190   1.456   8.940   7.846  0.3284 -0.8287 -0.0681
 6412SOL    HW122191   1.503   8.945   7.763 -0.0390 -0.0205 -0.2391
 6412SOL    HW222192   1.524   8.923   7.911  0.7537 -0.4930 -0.4132
 6413SOL     OW22193   4.445   0.890   5.570 -0.6127 -0.6080 -0.5067
 6413SOL    HW122194   4.420   0.900   5.662  0.9432 -0.1190 -0.1159
 6413SOL    HW222195   4.523   0.944   5.560 -0.8975 -0.4500 -2.1912
 6414SOL     OW22196   6.573   8.597   4.969 -0.1088  0.4756  0.8150
 6414SOL    HW122197   6.621   8.674   5.001  0.6157  0.1245  0.5954
 6414SOL    HW222198   6.613   8.578   4.884 -0.1658 -0.2447  0.9467
 6415SOL     OW22199   2.119   9.093   7.168 -0.7237  0.0978  0.4715
 6415SOL    HW122200   2.177   9.169   7.178  0.1619 -0.3361 -0.9679
 6415SOL    HW222201   2.129   9.044   7.249  1.2051 -0.1110  0.1574
 6416SOL     OW22202   3.731   2.985   0.485  0.3713 -0.4239 -0.1822
 6416SOL    HW122203   3.749   2.974   0.391  3.7843 -1.0497  0.4282
 6416SOL    HW222204   3.725   2.896   0.519  0.6739 -0.2154  0.4244
 6417SOL     OW22205   3.207   2.640   1.967  0.0156  0.0128 -0.1352
 6417SOL    HW122206   3.199   2.657   2.061  1.3104  2.1090 -0.3505
 6417SOL    HW222207   3.150   2.705   1.926 -0.0301 -0.4563 -0.8301
 6418SOL     OW22208   9.056   4.093   9.563 -0.2378  0.5839 -1.0767
 6418SOL    HW122209   8.973   4.076   9.518 -0.5774 -1.2331  0.1712
 6418SOL    HW222210   9.048   4.183   9.594 -2.3626 -0.0029  0.2405
 6419SOL     OW22211   3.065   9.817   9.833  0.1469  0.1991 -0.2740
 6419SOL    HW122212   3.065   9.832   9.928  1.3632  3.2815 -0.6533
 6419SOL    HW222213   2.972   9.811   9.811 -0.2319  0.9999  0.9509
 6420SOL     OW22214   5.667   0.946   1.368  0.4169  0.7173  0.8050
 6420SOL    HW122215   5.741   0.887   1.353 -1.1515 -1.0629 -0.4461
 6420SOL    HW222216   5.676   0.974   1.459  0.1883 -3.1042  2.1939
 6421SOL     OW22217  10.216   1.143   9.989  0.0310 -0.0735  0.4631
 6421SOL    HW122218  10.258   1.229   9.992  0.4895 -0.3180  1.3981
 6421SOL    HW222219  10.237   1.103  10.073  0.6686 -1.5008 -0.3368
 6422SOL     OW22220   5.486   4.873   7.352  0.3613 -0.0422  0.6367
 6422SOL    HW122221   5.451   4.809   7.414 -1.3363  0.7305  0.4991
 6422SOL    HW222222   5.516   4.946   7.406 -2.1008  1.1094  0.5782
 6423SOL     OW22223   0.596   2.573   6.571 -0.5649  0.2728  0.2433
 6423SOL    HW122224   0.642   2.539   6.495  1.0749  0.5536  1.0627
 6423SOL    HW222225   0.616   2.667   6.571 -0.5246  0.2691  1.0307
 6424SOL     OW22226   3.618   3.009  10.352 -0.3170  0.3346 -0.1343
 6424SOL    HW122227   3.687   2.952  10.385 -1.6491 -1.3888 -0.2010
 6424SOL    HW222228   3.554   3.014  10.423 -0.6086  1.1143 -0.4352
 6425SOL     OW22229  10.604   9.795   2.437  0.2180 -0.7031  0.4054
 6425SOL    HW122230  10.600   9.880   2.481  0.9158 -1.5682  2.2808
 6425SOL    HW222231  10.513   9.766   2.432  0.0969 -0.4788  1.1201
 6426SOL     OW22232   5.171   2.063   2.340  0.2186  0.5715  0.2025
 6426SOL    HW122233   5.237   2.012   2.292 -0.2408  0.6179 -0.4867
 6426SOL    HW222234   5.100   2.001   2.357 -0.4016  0.9959 -0.7557
 6427SOL     OW22235   7.957   9.399   9.882  0.0727  0.1832 -0.0667
 6427SOL    HW122236   7.981   9.306   9.882  1.4079  0.4962  0.4777
 6427SOL    HW222237   7.995   9.433   9.801  0.2717  0.4096  0.1221
 6428SOL     OW22238   6.014   5.869  10.309 -0.2309 -0.1844 -0.5066
 6428SOL    HW122239   5.923   5.888  10.288  0.8407  2.3553 -3.7235
 6428SOL    HW222240   6.042   5.809  10.240  0.8273  0.1149 -0.3524
 6429SOL     OW22241   6.948   9.656   1.638  0.6468  0.0480  0.2740
 6429SOL    HW122242   6.927   9.739   1.681  1.3636  0.0434  0.6595
 6429SOL    HW222243   7.040   9.665   1.614  1.5086 -1.5468  2.5564
 6430SOL     OW22244   0.840   5.097  10.564  0.5283  0.4829 -0.4607
 6430SOL    HW122245   0.887   5.055  10.492 -2.0882 -1.2352 -1.3354
 6430SOL    HW222246   0.894   5.172  10.588  1.8901  0.7165 -3.7200
 6431SOL     OW22247   0.738   5.174   2.503  0.3333  0.5843 -0.8443
 6431SOL    HW122248   0.743   5.114   2.428  0.7987  0.5073 -0.7595
 6431SOL    HW222249   0.646   5.176   2.526  0.2331  0.3437 -1.2117
 6432SOL     OW22250   9.938   4.660   4.755 -0.0150  0.2562  0.0577
 6432SOL    HW122251  10.022   4.636   4.717  1.0879  0.6199  2.1328
 6432SOL    HW222252   9.911   4.738   4.706  1.1800  0.5416 -0.1836
 6433SOL     OW22253   0.270   2.297  10.566  0.1475 -0.1525 -0.0298
 6433SOL    HW122254   0.245   2.316  10.476  1.0398  1.4148  0.0145
 6433SOL    HW222255   0.210   2.227  10.594 -0.9445  0.1931 -1.4245
 6434SOL     OW22256   7.979  10.361   6.011  0.3546  0.5857 -0.1944
 6434SOL    HW122257   7.895  10.388   6.048 -0.7642 -2.5188 -0.1660
 6434SOL    HW222258   8.043  10.418   6.052 -1.4737  1.2741  1.8844
 6435SOL     OW22259   7.369   0.184   8.513 -0.6900  0.0282 -0.6507
 6435SOL    HW122260   7.298   0.234   8.554  1.2045  1.2976  1.2563
 6435SOL    HW222261   7.352   0.192   8.419 -1.8372  2.2237 -0.3184
 6436SOL     OW22262   2.045   1.485   8.748  0.1843  1.4695  1.0018
 6436SOL    HW122263   2.025   1.408   8.801 -0.9560  1.3532  0.4451
 6436SOL    HW222264   1.962   1.533   8.744  1.1452  3.3650  2.3223
 6437SOL     OW22265   1.577   1.512   2.441 -0.2196  0.7911 -0.0368
 6437SOL    HW122266   1.521   1.440   2.471 -0.4147  0.6990 -0.6037
 6437SOL    HW222267   1.550   1.587   2.494 -0.6136  0.6496 -0.0319
 6438SOL     OW22268   8.195   4.939   6.877 -0.2611  0.2096 -0.0423
 6438SOL    HW122269   8.141   4.941   6.798  0.6481 -1.8440 -0.7913
 6438SOL    HW222270   8.270   4.884   6.854  0.0642 -0.4279  2.2376
 6439SOL     OW22271   6.932   9.900   1.330  0.0370  0.3767 -0.1036
 6439SOL    HW122272   6.902   9.840   1.261  1.7875 -3.6084  2.2570
 6439SOL    HW222273   6.860   9.903   1.392  0.3863 -0.3095  0.3458
 6440SOL     OW22274   0.853   6.421   4.097 -0.1690 -0.2569 -0.2005
 6440SOL    HW122275   0.846   6.471   4.178 -0.6351  0.4522 -0.6630
 6440SOL    HW222276   0.932   6.369   4.108 -1.2749 -1.6754  1.5083
 6441SOL     OW22277   0.223   8.352   1.070  0.1261 -0.2460 -0.0519
 6441SOL    HW122278   0.212   8.280   1.008  0.6183 -0.3489 -0.0239
 6441SOL    HW222279   0.254   8.310   1.151 -0.4357 -0.1046  0.2412
 6442SOL     OW22280   5.278   1.055   2.793 -0.3119  0.0584 -0.1806
 6442SOL    HW122281   5.329   0.975   2.780 -0.7885 -0.3517  0.3665
 6442SOL    HW222282   5.324   1.102   2.862 -2.7050 -2.2305  3.3241
 6443SOL     OW22283   3.630   4.633  10.384  0.1252 -0.6918 -0.3496
 6443SOL    HW122284   3.622   4.548  10.341  0.6512 -0.4636 -0.9140
 6443SOL    HW222285   3.704   4.675  10.341 -1.0166  0.6474 -1.1179
 6444SOL     OW22286   3.400   0.347   8.354  0.0105 -0.1553 -0.1751
 6444SOL    HW122287   3.318   0.347   8.305 -0.3023  0.2089  0.3499
 6444SOL    HW222288   3.406   0.258   8.390  0.4764 -0.5768 -1.2509
 6445SOL     OW22289   9.547   2.034   5.642 -0.4834  0.1459 -0.3308
 6445SOL    HW122290   9.523   2.076   5.560  0.8199  3.4300  0.7932
 6445SOL    HW222291   9.559   2.107   5.704 -0.2442 -2.0835  2.4710
 6446SOL     OW22292   0.675   8.203   5.315  0.0540  0.1483  0.8224
 6446SOL    HW122293   0.732   8.273   5.283  1.7487 -0.9677  1.2293
 6446SOL    HW222294   0.623   8.177   5.240  0.2423  1.0633  0.3667
 6447SOL     OW22295   2.773   1.262   4.670  0.1242  0.0573 -0.1981
 6447SOL    HW122296   2.804   1.342   4.713 -0.3762  0.7990 -1.1712
 6447SOL    HW222297   2.689   1.286   4.633 -0.9715 -1.5098  1.1493
 6448SOL     OW22298   4.916   6.020  10.527 -0.2152 -0.4282  0.0530
 6448SOL    HW122299   4.826   6.019  10.560  0.2833  0.7473  1.5385
 6448SOL    HW222300   4.916   6.088  10.460 -0.3916 -0.3220  0.1622
 6449SOL     OW22301   6.395   2.170   0.556  0.2214 -0.1051 -0.2204
 6449SOL    HW122302   6.464   2.199   0.616  0.4823 -0.7197 -0.2130
 6449SOL    HW222303   6.435   2.173   0.469 -0.3095  1.2563 -0.4414
 6450SOL     OW22304   4.921   5.208   8.827  0.3041  0.5518  0.3174
 6450SOL    HW122305   4.967   5.178   8.906 -0.5375 -1.8061 -0.0024
 6450SOL    HW222306   4.830   5.218   8.855  0.0623  0.0144 -0.2347
 6451SOL     OW22307   1.356   7.812   3.008 -0.2568  0.5281 -0.7296
 6451SOL    HW122308   1.359   7.783   3.099 -0.1423  0.0343 -0.8879
 6451SOL    HW222309   1.421   7.758   2.963 -1.0688 -0.0130 -1.3117
 6452SOL     OW22310   5.745   7.683   2.700  0.1650 -0.1640 -0.1943
 6452SOL    HW122311   5.765   7.667   2.608 -1.1693  1.2068 -0.7742
 6452SOL    HW222312   5.721   7.597   2.734  1.1177 -0.7707 -1.0056
 6453SOL     OW22313   3.809   0.492   9.392  0.2373 -0.0744 -0.2424
 6453SOL    HW122314   3.758   0.419   9.427  0.3232  0.4756  1.0757
 6453SOL    HW222315   3.855   0.455   9.316 -1.8713 -0.6682 -1.3037
 6454SOL     OW22316   6.139   4.114   9.256 -0.4014  0.2379  0.1110
 6454SOL    HW122317   6.130   4.164   9.175  1.3091 -1.3275 -1.1378
 6454SOL    HW222318   6.139   4.023   9.228 -0.1839 -0.3728  1.9473
 6455SOL     OW22319   7.559   8.006   1.214  0.6597 -0.2647  0.6375
 6455SOL    HW122320   7.473   7.971   1.237  0.5922  1.0793  2.6831
 6455SOL    HW222321   7.543   8.097   1.190  1.4672 -0.0648  0.8156
 6456SOL     OW22322   6.651   2.944   7.719  0.1628 -0.2229 -0.1626
 6456SOL    HW122323   6.562   2.955   7.753  0.3571 -0.2579  0.3555
 6456SOL    HW222324   6.689   2.875   7.772  0.6254  0.0407 -0.1455
 6457SOL     OW22325   9.855   8.475   0.875 -0.3550  0.2257  0.1409
 6457SOL    HW122326   9.813   8.408   0.929  1.7636 -1.0636  0.3241
 6457SOL    HW222327   9.838   8.557   0.922 -1.7062 -0.3657  0.7390
 6458SOL     OW22328   5.512   6.077   3.369 -0.0049  0.3342 -0.6797
 6458SOL    HW122329   5.490   6.148   3.430 -1.6955 -2.7934  2.8365
 6458SOL    HW222330   5.598   6.046   3.398 -2.0717 -3.1883  2.8209
 6459SOL     OW22331   1.353   9.761   6.559 -0.0804  0.2104 -0.0724
 6459SOL    HW122332   1.285   9.816   6.522 -0.7698 -0.5083  0.0917
 6459SOL    HW222333   1.417   9.822   6.596 -0.8938  0.8857  0.2382
 6460SOL     OW22334   4.532   3.408  10.260  0.3603  0.2953 -0.1735
 6460SOL    HW122335   4.564   3.420  10.350 -0.2527  1.2857 -0.0688
 6460SOL    HW222336   4.599   3.354  10.218  2.3442  2.4243 -0.0105
 6461SOL     OW22337   3.712   2.794   4.367 -0.1654 -0.7637  0.3110
 6461SOL    HW122338   3.724   2.747   4.285 -0.0882 -0.5491  0.1984
 6461SOL    HW222339   3.768   2.872   4.359  0.5268 -1.1862  0.9280
 6462SOL     OW22340   3.732   2.658   4.080  0.0663 -0.7827 -0.6734
 6462SOL    HW122341   3.755   2.740   4.038  2.2431 -1.8040 -1.5966
 6462SOL    HW222342   3.735   2.592   4.010  1.7250 -2.1828  0.6163
 6463SOL     OW22343   9.607   8.220   7.197 -0.4587 -0.6556  0.2341
 6463SOL    HW122344   9.593   8.226   7.103 -2.0940  2.2674  0.5381
 6463SOL    HW222345   9.642   8.306   7.222  1.0896 -1.7627  2.1677
 6464SOL     OW22346  10.181   8.840   0.059 -0.0226 -0.2430  0.1800
 6464SOL    HW122347  10.225   8.795  -0.014 -0.2463  0.3734 -0.3438
 6464SOL    HW222348  10.092   8.856   0.026  0.2553  1.1993  0.0859
 6465SOL     OW22349   3.026   9.790   1.205  0.0062 -0.4429  0.0400
 6465SOL    HW122350   2.938   9.809   1.239  0.7009  0.4082  1.4433
 6465SOL    HW222351   3.078   9.866   1.230  0.9383 -0.4725 -1.6618
 6466SOL     OW22352   1.892   9.636   3.171 -0.0051 -0.2668 -0.5038
 6466SOL    HW122353   1.950   9.632   3.247  1.9159  0.3843 -1.8739
 6466SOL    HW222354   1.858   9.547   3.162  1.9613 -1.0594 -0.5105
 6467SOL     OW22355   6.255   6.965   9.617  0.0217  0.9158  0.2952
 6467SOL    HW122356   6.228   6.899   9.680 -0.8265 -1.0095 -1.9357
 6467SOL    HW222357   6.182   7.027   9.614 -1.3851 -0.7048 -0.9884
 6468SOL     OW22358   4.024   0.040   5.769 -0.3251  0.3290  0.3231
 6468SOL    HW122359   4.017   0.115   5.829 -1.5349  0.6999 -0.2446
 6468SOL    HW222360   3.943  -0.010   5.784 -0.3470  0.0922 -0.5466
 6469SOL     OW22361   0.001   1.275   5.669 -0.0068 -0.7109 -0.4269
 6469SOL    HW122362   0.068   1.336   5.700  0.0649 -0.0844 -1.7262
 6469SOL    HW222363   0.047   1.191   5.664  0.2849 -0.5828  0.0444
 6470SOL     OW22364   0.731   0.973   2.027  0.0744  0.4114  0.0986
 6470SOL    HW122365   0.800   0.907   2.032  0.7327  1.1857  2.3450
 6470SOL    HW222366   0.650   0.924   2.042  0.5178  0.0340  1.3371
 6471SOL     OW22367   4.936   4.253   6.709  0.6042 -0.6624 -0.6050
 6471SOL    HW122368   4.847   4.273   6.681 -0.7748 -0.7181  3.0964
 6471SOL    HW222369   4.979   4.338   6.717  0.5752 -0.5636 -1.4480
 6472SOL     OW22370   1.355   4.927   2.306  0.3534 -0.3306 -0.0063
 6472SOL    HW122371   1.366   4.973   2.389 -0.6196 -0.7359  0.3604
 6472SOL    HW222372   1.262   4.939   2.284  0.4483 -0.8104 -0.6860
 6473SOL     OW22373   1.381   0.091   5.494 -0.5022  0.1912  0.3562
 6473SOL    HW122374   1.449   0.159   5.495  0.3827 -0.6039 -1.3818
 6473SOL    HW222375   1.420   0.018   5.541 -0.4238 -0.0270 -0.0478
 6474SOL     OW22376   6.982   3.308   1.442 -0.1584 -0.2417 -0.2676
 6474SOL    HW122377   7.000   3.325   1.349  2.5372 -0.4185  0.1511
 6474SOL    HW222378   7.001   3.391   1.486 -0.3141 -0.4799  0.2543
 6475SOL     OW22379   7.830   5.394   0.408  0.1740 -0.0270 -0.3299
 6475SOL    HW122380   7.825   5.403   0.313 -2.1570  0.7131 -0.1930
 6475SOL    HW222381   7.807   5.481   0.442  1.9998  0.0311  0.9598
 6476SOL     OW22382   4.655   5.176   5.309 -0.4905  0.5595  0.2841
 6476SOL    HW122383   4.689   5.265   5.296  1.1728 -0.3201 -2.0417
 6476SOL    HW222384   4.610   5.155   5.228  0.1092 -1.1097  0.3454
 6477SOL     OW22385   5.093   2.295   6.929  0.4290 -0.2691 -0.6222
 6477SOL    HW122386   5.048   2.302   6.845  0.3518  0.5134 -0.5246
 6477SOL    HW222387   5.039   2.234   6.980 -0.1217  0.1002 -0.7570
 6478SOL     OW22388   2.337   7.565   6.648  0.6462  0.6361  0.4163
 6478SOL    HW122389   2.312   7.655   6.669  0.4140  0.4724  0.8486
 6478SOL    HW222390   2.295   7.512   6.715  0.2625  0.1404 -0.2071
 6479SOL     OW22391   3.139   8.976   5.993 -0.4723  0.1257 -0.2105
 6479SOL    HW122392   3.137   8.883   5.968 -1.0532 -0.0829  0.5923
 6479SOL    HW222393   3.079   9.018   5.931 -1.6551 -0.3402  0.5959
 6480SOL     OW22394   7.168   1.617   9.545  0.2625  0.3901 -0.3558
 6480SOL    HW122395   7.223   1.667   9.485  1.0475 -0.3632 -0.2742
 6480SOL    HW222396   7.205   1.634   9.632  0.9132 -0.7927 -0.3874
 6481SOL     OW22397  10.343   9.053   9.667 -0.4263 -0.2586 -0.3424
 6481SOL    HW122398  10.410   9.016   9.610 -1.0532 -2.3767  0.2289
 6481SOL    HW222399  10.270   9.073   9.608  0.4180  1.5453 -0.8748
 6482SOL     OW22400   4.278   7.757   9.819 -0.2182 -0.1613 -0.1567
 6482SOL    HW122401   4.224   7.765   9.741 -0.2722  1.2980 -0.0092
 6482SOL    HW222402   4.216   7.750   9.891 -0.5038  4.1133  0.3162
 6483SOL     OW22403   4.978   8.872   8.012 -0.1876  0.2815  0.2181
 6483SOL    HW122404   5.005   8.803   7.952  0.2832 -0.0118  0.7595
 6483SOL    HW222405   4.986   8.953   7.962  0.5564  0.0782  0.0049
 6484SOL     OW22406   7.387   2.212   2.486  0.4551 -0.1513  0.3660
 6484SOL    HW122407   7.459   2.234   2.545 -0.7020  2.2604  0.9978
 6484SOL    HW222408   7.309   2.250   2.528 -1.0245 -1.6669 -0.8602
 6485SOL     OW22409   5.121   2.952   1.013  0.0126  0.4208  0.2454
 6485SOL    HW122410   5.045   2.977   0.960 -0.1630  0.1647  0.3703
 6485SOL    HW222411   5.085   2.933   1.100  0.4203  1.7122  0.7169
 6486SOL     OW22412   3.374   0.746   8.191 -0.6045  0.3091 -0.4267
 6486SOL    HW122413   3.381   0.768   8.284 -0.8493 -0.0405 -0.3229
 6486SOL    HW222414   3.434   0.673   8.179 -0.0099  0.8413 -0.7082
 6487SOL     OW22415   8.336   3.092   8.701 -0.4470 -0.0818 -0.1730
 6487SOL    HW122416   8.344   2.997   8.695  0.8566 -0.0480  0.4269
 6487SOL    HW222417   8.296   3.107   8.787  1.1586 -0.0916  0.6390
 6488SOL     OW22418   8.750   0.981   6.237 -0.2083  0.0830  0.0759
 6488SOL    HW122419   8.840   0.987   6.268 -0.6416 -1.3454  1.7788
 6488SOL    HW222420   8.744   0.895   6.196 -0.7413  0.2495 -0.2144
 6489SOL     OW22421   8.572   6.471   4.026 -0.3044 -0.0024  0.3579
 6489SOL    HW122422   8.622   6.472   3.945  0.5850 -0.3974  0.8888
 6489SOL    HW222423   8.638   6.469   4.096 -1.0304 -1.1268  1.0661
 6490SOL     OW22424   3.571   7.255   1.122  0.5833 -0.4357 -0.0943
 6490SOL    HW122425   3.637   7.325   1.126  1.2946 -1.0563 -0.5160
 6490SOL    HW222426   3.505   7.280   1.186  0.8114  0.6339 -0.2553
 6491SOL     OW22427   8.882   3.493   4.268  0.2108 -0.2814 -0.5561
 6491SOL    HW122428   8.834   3.411   4.261 -0.5187  0.2435 -2.1311
 6491SOL    HW222429   8.923   3.490   4.354 -0.6887 -1.8089 -0.1560
 6492SOL     OW22430  10.530   3.074   8.943 -0.5231  0.0831  0.5226
 6492SOL    HW122431  10.485   3.104   9.022 -1.4843  2.4207 -0.8115
 6492SOL    HW222432  10.586   3.147   8.918  0.3244 -0.9037 -0.5660
 6493SOL     OW22433   8.666   9.528   8.587 -0.6318  0.0654 -0.0707
 6493SOL    HW122434   8.662   9.514   8.682 -1.7445  0.9984  0.0305
 6493SOL    HW222435   8.667   9.623   8.576  1.0756 -0.0118 -0.9602
 6494SOL     OW22436   5.404   4.609   1.174 -0.2045  0.4858 -0.5557
 6494SOL    HW122437   5.376   4.628   1.263  1.9574 -0.5241  0.4159
 6494SOL    HW222438   5.368   4.681   1.121 -0.1209  2.0448  1.3984
 6495SOL     OW22439   2.787   9.996   2.046 -0.0977  0.6698  0.2452
 6495SOL    HW122440   2.722   9.954   2.102  0.6958  1.0190  1.4827
 6495SOL    HW222441   2.867   9.945   2.060  0.9032  2.4915  1.7988
 6496SOL     OW22442   5.775   3.091   7.369 -0.5439  0.3816  1.0298
 6496SOL    HW122443   5.834   3.103   7.295 -2.1082 -1.9783 -0.7871
 6496SOL    HW222444   5.831   3.093   7.446  1.2927  1.9956 -0.2649
 6497SOL     OW22445   7.666   3.274   5.160 -0.3712 -0.1632  0.3619
 6497SOL    HW122446   7.723   3.208   5.200 -1.2794 -1.8591 -0.9629
 6497SOL    HW222447   7.673   3.350   5.217  3.1326 -0.2789  0.3141
 6498SOL     OW22448   6.402   3.178   1.814 -0.0175 -0.2893  0.2740
 6498SOL    HW122449   6.394   3.089   1.780 -0.7604 -0.1966  0.1878
 6498SOL    HW222450   6.425   3.166   1.906 -1.1988 -0.6006  0.5420
 6499SOL     OW22451   5.055   2.785   1.838  0.1052 -0.5539  0.3805
 6499SOL    HW122452   5.102   2.772   1.756  1.8995 -0.3183  1.3322
 6499SOL    HW222453   4.968   2.814   1.811  0.1686 -1.9359 -1.4497
 6500SOL     OW22454   7.065   0.363   4.190 -0.1876 -0.5696 -0.0079
 6500SOL    HW122455   7.130   0.307   4.146  0.4197 -0.4333  0.6826
 6500SOL    HW222456   7.015   0.302   4.245 -0.0168 -0.5405  0.1801
 6501SOL     OW22457   7.203   0.115   1.095 -0.1886 -0.6487 -0.1381
 6501SOL    HW122458   7.192   0.021   1.087  1.5899 -0.7513 -2.0672
 6501SOL    HW222459   7.284   0.126   1.144 -1.7576 -0.0171  2.5340
 6502SOL     OW22460   5.829   4.376   6.652 -0.0814 -0.1579  0.1161
 6502SOL    HW122461   5.754   4.316   6.654 -0.8463  0.7631 -0.1300
 6502SOL    HW222462   5.867   4.370   6.739 -0.0529 -1.1095  0.0489
 6503SOL     OW22463   6.915   2.606   8.056 -0.3344  0.8248  0.2773
 6503SOL    HW122464   7.004   2.593   8.022 -0.6434 -0.5564 -0.0902
 6503SOL    HW222465   6.925   2.664   8.130  1.0286 -0.1143  0.8696
 6504SOL     OW22466   6.622   9.787  10.657 -0.3665  1.0367  0.1105
 6504SOL    HW122467   6.544   9.776  10.602  0.4889  1.9572 -1.3693
 6504SOL    HW222468   6.665   9.701  10.656 -0.8977  0.7648  0.2133
 6505SOL     OW22469   6.508   2.660   1.282  0.1389  0.2995 -0.0882
 6505SOL    HW122470   6.466   2.574   1.292  0.8358 -0.2320 -1.4573
 6505SOL    HW222471   6.557   2.653   1.200  2.1908  1.1889  0.9873
 6506SOL     OW22472   7.257   7.336   6.369  0.0810 -0.1722  0.1264
 6506SOL    HW122473   7.201   7.315   6.444 -2.0633  1.2619 -0.9853
 6506SOL    HW222474   7.337   7.372   6.408 -1.7637  2.4444  1.7878
 6507SOL     OW22475  10.328   1.089   8.709 -0.5433  0.8540 -0.0990
 6507SOL    HW122476  10.244   1.084   8.755 -0.0565  1.3472  0.8708
 6507SOL    HW222477  10.334   1.007   8.662 -1.6151  0.8446 -0.2523
 6508SOL     OW22478   3.311  10.023   1.253  0.1718 -0.2136 -0.0800
 6508SOL    HW122479   3.397   9.994   1.221  0.7937  1.3324  0.0777
 6508SOL    HW222480   3.281   9.953   1.310  0.5678 -1.5299 -1.4273
 6509SOL     OW22481   3.712   5.676  10.671 -0.0479  0.0303 -0.5636
 6509SOL    HW122482   3.655   5.696  10.745  0.8400  1.4328 -0.2327
 6509SOL    HW222483   3.685   5.737  10.602 -0.0842 -0.4722 -1.0019
 6510SOL     OW22484   1.304   7.239   8.265 -0.1007 -0.4522 -0.7070
 6510SOL    HW122485   1.387   7.201   8.292 -0.5510 -0.5163  0.6815
 6510SOL    HW222486   1.322   7.282   8.182  1.5481  0.3925  0.0595
 6511SOL     OW22487   0.463   5.063   0.147  0.3822  0.6954  0.2011
 6511SOL    HW122488   0.452   5.097   0.058 -0.8595 -0.2572 -0.0281
 6511SOL    HW222489   0.556   5.039   0.152  0.0704 -1.1420 -1.5559
 6512SOL     OW22490   3.451   8.171   2.479  0.2271  0.4239 -0.1516
 6512SOL    HW122491   3.444   8.075   2.480  1.2105  0.3115 -1.7098
 6512SOL    HW222492   3.399   8.198   2.404  0.8935  1.0076 -0.4154
 6513SOL     OW22493  10.678   2.754   8.183  0.5482  0.3382 -0.0828
 6513SOL    HW122494  10.738   2.682   8.166 -0.1832 -0.3576  0.2118
 6513SOL    HW222495  10.598   2.730   8.137  0.5648  1.3766 -0.6751
 6514SOL     OW22496   6.515   8.946   5.969  0.5487 -0.2824  0.0293
 6514SOL    HW122497   6.579   9.010   5.999 -1.2484  1.6801 -0.0820
 6514SOL    HW222498   6.431   8.977   6.004 -0.7366 -1.2651 -1.9825
 6515SOL     OW22499   6.858   3.669   1.414  0.2223  0.4886 -0.2905
 6515SOL    HW122500   6.913   3.746   1.430 -1.2535  1.2127  1.6479
 6515SOL    HW222501   6.781   3.703   1.368  0.5809 -0.2469 -1.4862
 6516SOL     OW22502   6.509   7.585   3.856  0.2672 -0.9247 -0.3136
 6516SOL    HW122503   6.556   7.568   3.774  0.5844  0.5189 -0.4572
 6516SOL    HW222504   6.510   7.681   3.865 -0.9760 -0.9823  0.6690
 6517SOL     OW22505   9.796   8.729   7.453  0.1033  0.9167  0.0024
 6517SOL    HW122506   9.888   8.752   7.444  0.3556 -0.2914 -0.7243
 6517SOL    HW222507   9.797   8.636   7.479 -0.9126  0.3930 -1.7129
 6518SOL     OW22508   6.701   3.703   5.001  0.5530  0.1281  0.2516
 6518SOL    HW122509   6.635   3.662   5.059  2.2220 -1.4296  1.1714
 6518SOL    HW222510   6.657   3.709   4.916 -0.9600 -0.3737  0.9474
 6519SOL     OW22511   9.930   4.475   2.038 -0.0493 -0.8478  0.2790
 6519SOL    HW122512   9.985   4.536   1.988 -0.8213 -0.3739 -0.0161
 6519SOL    HW222513   9.976   4.464   2.121  0.5499 -0.5555 -0.0043
 6520SOL     OW22514   2.825   2.427  10.454  0.5846 -0.2945  0.7827
 6520SOL    HW122515   2.785   2.349  10.415  0.9873 -0.0876 -0.0681
 6520SOL    HW222516   2.783   2.501  10.410 -0.0527 -0.0156  1.8474
 6521SOL     OW22517   9.516   4.288   1.675  0.5965 -0.0808  0.1000
 6521SOL    HW122518   9.549   4.227   1.610 -0.5467 -0.6034 -0.0254
 6521SOL    HW222519   9.424   4.302   1.651 -0.2764 -1.3454  2.3236
 6522SOL     OW22520   8.580   6.313  10.116 -0.5738  0.3196  0.1615
 6522SOL    HW122521   8.648   6.275  10.060 -1.4911 -1.1217 -0.0295
 6522SOL    HW222522   8.625   6.335  10.197  0.2270 -0.1973 -0.1302
 6523SOL     OW22523   8.943   7.125   5.392 -0.4601  0.5319 -0.0780
 6523SOL    HW122524   9.010   7.184   5.426 -0.6807  1.2008 -0.7649
 6523SOL    HW222525   8.991   7.049   5.359  0.1049  1.6029 -1.8171
 6524SOL     OW22526   0.153   3.337   4.634  0.2777 -0.1542 -0.4219
 6524SOL    HW122527   0.229   3.280   4.644 -0.2882 -0.8540 -0.0151
 6524SOL    HW222528   0.190   3.425   4.624  1.1091 -0.0522  2.6460
 6525SOL     OW22529   3.085   2.292   0.926  0.2819 -0.4328 -0.4990
 6525SOL    HW122530   3.075   2.342   0.845  0.6382  0.1573 -0.1880
 6525SOL    HW222531   3.007   2.313   0.977  1.5757  1.8586  0.6985
 6526SOL     OW22532  10.594   5.306   6.209  0.0928  0.0403  0.7644
 6526SOL    HW122533  10.590   5.378   6.273 -0.2645  2.1152 -1.4500
 6526SOL    HW222534  10.557   5.231   6.255 -2.8520  2.1309  2.1114
 6527SOL     OW22535   2.448   9.429   3.622  0.0506  0.2802  0.6066
 6527SOL    HW122536   2.465   9.416   3.529 -1.1012  0.1080  0.4086
 6527SOL    HW222537   2.443   9.341   3.659 -0.1929  0.3323  0.7002
 6528SOL     OW22538   9.734   6.492   9.267 -0.0142  0.0768 -0.8044
 6528SOL    HW122539   9.696   6.540   9.193  0.7850 -0.4508 -1.5801
 6528SOL    HW222540   9.828   6.491   9.249  0.4462  1.5727  1.1857
 6529SOL     OW22541   2.806   1.252   1.679 -0.8902 -0.2274 -0.0321
 6529SOL    HW122542   2.811   1.295   1.593 -1.5758  0.6144  0.3320
 6529SOL    HW222543   2.889   1.206   1.688  0.1818  1.5933 -0.1537
 6530SOL     OW22544   6.901  10.418   4.424  0.1444  0.0508  0.2662
 6530SOL    HW122545   6.898  10.501   4.375 -2.4366 -0.1308  0.0120
 6530SOL    HW222546   6.976  10.429   4.482  0.0962  2.4499  0.0056
 6531SOL     OW22547  10.443   2.770   3.236 -0.0557 -0.7979 -0.3446
 6531SOL    HW122548  10.497   2.783   3.314  0.7565 -2.7117 -0.5307
 6531SOL    HW222549  10.503   2.784   3.163 -0.6439  0.3112 -0.6256
 6532SOL     OW22550   7.854   2.940   0.593  0.3518  0.1928  0.1319
 6532SOL    HW122551   7.833   2.950   0.685  1.6534  0.6126  0.4056
 6532SOL    HW222552   7.933   2.992   0.580  0.9710 -0.9295 -0.9134
 6533SOL     OW22553   9.792   3.022   7.985  0.1993  0.2496 -0.2169
 6533SOL    HW122554   9.719   2.971   8.019 -0.1318 -0.2376 -1.5925
 6533SOL    HW222555   9.751   3.090   7.931  0.7347 -0.9835 -2.3059
 6534SOL     OW22556   5.595   0.059   5.692 -0.6931 -0.3923 -0.0936
 6534SOL    HW122557   5.675   0.035   5.739 -0.6707 -0.2413 -0.0523
 6534SOL    HW222558   5.624   0.123   5.626 -0.2751 -2.5473 -2.1217
 6535SOL     OW22559   1.533   5.121   4.317  0.1855  0.3546 -0.2014
 6535SOL    HW122560   1.470   5.094   4.250 -0.0954 -3.3250  1.3069
 6535SOL    HW222561   1.614   5.074   4.295  1.3853  2.2888 -0.1614
 6536SOL     OW22562   2.929   0.650   3.717  0.1441 -0.1855  0.3210
 6536SOL    HW122563   2.965   0.568   3.749  1.4806  0.3272  0.1744
 6536SOL    HW222564   2.999   0.715   3.730 -0.5368  0.7363 -0.4272
 6537SOL     OW22565   9.340   8.304   5.201 -0.3387  0.2036  0.2615
 6537SOL    HW122566   9.385   8.302   5.116  0.8330 -0.9758  0.8859
 6537SOL    HW222567   9.248   8.287   5.180 -0.6362  2.9227 -1.0719
 6538SOL     OW22568   6.376   5.822   5.984  0.2384 -0.2182 -0.1501
 6538SOL    HW122569   6.334   5.756   5.929 -0.3809 -0.3329  0.4486
 6538SOL    HW222570   6.470   5.803   5.977  0.1244 -0.6102 -0.6686
 6539SOL     OW22571   2.260   7.358   8.367 -0.2131  0.0214  0.1579
 6539SOL    HW122572   2.269   7.433   8.307 -2.0130 -0.4202 -0.7432
 6539SOL    HW222573   2.203   7.391   8.437  0.4700  0.0145  0.7247
 6540SOL     OW22574   9.761   8.110   9.547  0.3724 -0.2294  0.0694
 6540SOL    HW122575   9.670   8.104   9.574  1.0616 -1.9411  2.2672
 6540SOL    HW222576   9.810   8.067   9.617  2.9642  1.3798 -0.6172
 6541SOL     OW22577   3.805   6.506   4.522  0.7744 -0.0407  0.1329
 6541SOL    HW122578   3.779   6.594   4.551  0.7113  0.0130 -0.0826
 6541SOL    HW222579   3.863   6.474   4.591  2.2587  0.8816 -0.6105
 6542SOL     OW22580   7.520   5.043   7.158  0.5465  0.1891  0.0772
 6542SOL    HW122581   7.498   5.026   7.250 -0.2059 -1.5754 -0.3763
 6542SOL    HW222582   7.511   4.958   7.115  1.2965  0.8865 -1.5653
 6543SOL     OW22583   2.355   4.739   2.440  0.9295  0.3457 -0.5756
 6543SOL    HW122584   2.422   4.808   2.432  1.5730 -0.3128 -1.0033
 6543SOL    HW222585   2.313   4.737   2.354  1.0895  0.0285 -0.6467
 6544SOL     OW22586   4.918   5.513   8.512 -0.3378  0.2239  0.7279
 6544SOL    HW122587   4.941   5.606   8.515  1.9837 -0.3016  1.1408
 6544SOL    HW222588   4.868   5.498   8.592 -1.1564  1.1902  0.4268
 6545SOL     OW22589   3.134   9.435   9.229  0.1882  0.0452  0.4825
 6545SOL    HW122590   3.054   9.484   9.244  0.7764  1.5319 -0.9678
 6545SOL    HW222591   3.106   9.343   9.230 -1.4704  0.5143  0.3206
 6546SOL     OW22592   2.908   9.198   9.195 -0.0625 -0.0199 -0.3906
 6546SOL    HW122593   2.910   9.102   9.201 -1.3589 -0.0820 -0.6498
 6546SOL    HW222594   2.850   9.226   9.265 -0.2103  0.5245 -0.7204
 6547SOL     OW22595   1.337   9.934   6.839  0.5190  0.0093  0.7566
 6547SOL    HW122596   1.247   9.960   6.823  0.4289 -1.4874 -1.7476
 6547SOL    HW222597   1.335   9.889   6.924 -1.0500  0.1120  0.7901
 6548SOL     OW22598   9.977   7.062   7.936 -0.3394  0.7216 -0.3019
 6548SOL    HW122599  10.058   7.113   7.927 -1.0512  1.7855 -0.8020
 6548SOL    HW222600   9.920   7.118   7.989  0.2464 -1.2429  2.6856
 6549SOL     OW22601   9.498   5.921   4.861 -0.3224  0.0335  0.4487
 6549SOL    HW122602   9.428   5.983   4.839 -0.0105  0.2425  0.0407
 6549SOL    HW222603   9.515   5.874   4.779  0.7857  0.7599  0.2488
 6550SOL     OW22604   4.563   8.097   8.595  0.0061  0.2499 -0.1181
 6550SOL    HW122605   4.500   8.040   8.551  1.0393 -1.0935  0.0754
 6550SOL    HW222606   4.633   8.108   8.531 -0.4456  1.8230 -0.3764
 6551SOL     OW22607   1.940   0.993   2.730  0.2020 -0.5539 -0.1329
 6551SOL    HW122608   1.967   0.964   2.816 -0.1937 -2.8906 -0.7362
 6551SOL    HW222609   2.020   1.024   2.688  0.5581 -0.3056  0.7159
 6552SOL     OW22610   9.024   8.679   2.096 -0.3031  0.0856 -0.2289
 6552SOL    HW122611   9.040   8.772   2.086 -0.0557  0.0370 -0.2921
 6552SOL    HW222612   8.944   8.674   2.148  0.9391  0.3380  1.8139
 6553SOL     OW22613   4.807   4.385   1.647 -0.2944 -0.9091 -0.4550
 6553SOL    HW122614   4.817   4.450   1.577  0.4871 -0.1847  0.3046
 6553SOL    HW222615   4.840   4.429   1.725  0.8008 -2.4196 -0.0261
 6554SOL     OW22616   4.620   0.727   7.214 -0.0662  0.1792 -0.0334
 6554SOL    HW122617   4.539   0.679   7.199  0.7644 -0.8080 -1.6072
 6554SOL    HW222618   4.610   0.808   7.164 -0.1993  0.2146  0.0494
 6555SOL     OW22619   8.797   2.307   6.271 -0.0050 -0.2493 -0.3119
 6555SOL    HW122620   8.833   2.375   6.328 -1.7099 -0.0775  0.6598
 6555SOL    HW222621   8.780   2.233   6.329 -1.3487 -0.2388 -0.6386
 6556SOL     OW22622   4.572  10.674   6.579  0.3295  0.0608  0.2881
 6556SOL    HW122623   4.510  10.723   6.633 -0.5122 -0.9677  0.2892
 6556SOL    HW222624   4.574  10.722   6.496 -2.2837 -1.1175 -0.5620
 6557SOL     OW22625   6.260   9.012   3.447 -0.1590  0.6194 -0.2909
 6557SOL    HW122626   6.239   8.930   3.492 -0.3978  0.4776 -0.6573
 6557SOL    HW222627   6.223   9.002   3.359 -0.9684  1.4593 -0.0740
 6558SOL     OW22628   4.562   5.007   4.165  0.3999 -0.0325  0.5154
 6558SOL    HW122629   4.592   5.036   4.251 -0.5523  0.0226  0.8437
 6558SOL    HW222630   4.472   4.978   4.180  0.6027 -1.1216 -0.2287
 6559SOL     OW22631   5.840   9.813   0.855 -0.1791 -0.2435  0.1955
 6559SOL    HW122632   5.893   9.752   0.907  0.8319  1.0150  0.7130
 6559SOL    HW222633   5.807   9.761   0.783 -0.4451 -1.7125  1.3384
 6560SOL     OW22634   7.871   0.032   0.621  0.2624 -0.2483 -0.3296
 6560SOL    HW122635   7.923  -0.047   0.639  0.9225  0.6710  2.3497
 6560SOL    HW222636   7.925   0.083   0.561  1.5865 -0.2430  0.8070
 6561SOL     OW22637   2.753   1.771   4.170  0.6708  0.6487  0.5931
 6561SOL    HW122638   2.822   1.801   4.230  1.6869 -1.6248  0.6645
 6561SOL    HW222639   2.800   1.725   4.101 -0.6909  0.5451 -0.2942
 6562SOL     OW22640   0.455   6.730   2.711 -0.2546  0.3813 -0.0197
 6562SOL    HW122641   0.542   6.766   2.698 -0.9384  2.5073  0.8484
 6562SOL    HW222642   0.405   6.759   2.635 -0.2486 -0.7933 -0.4937
 6563SOL     OW22643   8.642   4.857   5.384 -0.4160  0.6811 -0.0543
 6563SOL    HW122644   8.686   4.773   5.396  0.8695  1.3815  0.2472
 6563SOL    HW222645   8.686   4.897   5.309  0.0282  1.7268  0.7345
 6564SOL     OW22646   0.916   2.323   9.545 -0.0569 -0.5283 -0.1514
 6564SOL    HW122647   0.825   2.330   9.575  0.0009  0.3963 -0.1631
 6564SOL    HW222648   0.913   2.351   9.454  0.0710 -1.5710 -0.4869
 6565SOL     OW22649   4.445   2.650   2.105  0.3534  0.5452 -0.4615
 6565SOL    HW122650   4.503   2.576   2.086  0.5471  0.5137  0.2318
 6565SOL    HW222651   4.503   2.717   2.143 -0.3883 -0.3706  2.5303
 6566SOL     OW22652   3.079   8.858   0.743  0.0613 -0.6046 -0.8336
 6566SOL    HW122653   3.072   8.950   0.718  0.6379 -0.9475 -2.3413
 6566SOL    HW222654   3.017   8.848   0.816  0.8084  1.2105  0.1091
 6567SOL     OW22655  10.366  10.667   3.592 -0.0364  0.6656 -0.1340
 6567SOL    HW122656  10.455  10.635   3.577 -0.3041  0.0541 -0.4214
 6567SOL    HW222657  10.359  10.677   3.687  0.6749  1.6984 -0.1676
 6568SOL     OW22658   9.131   7.363   0.531 -0.6818  0.1694 -0.5575
 6568SOL    HW122659   9.063   7.328   0.589  0.1182  0.1785  0.3983
 6568SOL    HW222660   9.138   7.298   0.461 -1.6682  0.1676 -0.6810
 6569SOL     OW22661   9.066  10.019   3.435 -0.4679  0.3392  0.1174
 6569SOL    HW122662   9.008  10.040   3.362  1.4258 -1.8555 -2.2161
 6569SOL    HW222663   9.131  10.090   3.435 -0.9948  0.8281  0.3078
 6570SOL     OW22664   8.702   5.326   8.053 -0.3734 -0.1143  0.1615
 6570SOL    HW122665   8.608   5.317   8.037 -0.4889 -0.1540  0.8422
 6570SOL    HW222666   8.709   5.335   8.147  0.4766 -2.4175  0.3762
 6571SOL     OW22667   3.153   6.052   6.791 -0.6120  0.4815 -0.0372
 6571SOL    HW122668   3.132   6.137   6.752 -3.5245 -0.6552 -1.2870
 6571SOL    HW222669   3.107   5.988   6.736  0.7972 -1.8646  1.3222
 6572SOL     OW22670   9.076   4.233   1.699  0.0005 -0.2400  0.1094
 6572SOL    HW122671   8.987   4.238   1.665 -0.0609 -1.2396  0.1025
 6572SOL    HW222672   9.111   4.151   1.665  1.0339  0.2823 -0.1278
 6573SOL     OW22673   9.185   0.845   5.571 -0.9647  0.7954 -0.0634
 6573SOL    HW122674   9.241   0.778   5.531 -1.4281  0.5777 -0.3596
 6573SOL    HW222675   9.217   0.928   5.534 -0.0040  0.8031  0.7577
 6574SOL     OW22676   6.037   1.132   1.469  0.1485 -0.2091  0.3683
 6574SOL    HW122677   6.045   1.062   1.404 -0.6921  0.5089 -0.5302
 6574SOL    HW222678   5.993   1.090   1.543  0.0465 -0.7406  0.0175
 6575SOL     OW22679   9.200   5.647   9.516 -0.5177 -0.1949 -0.4231
 6575SOL    HW122680   9.213   5.688   9.430 -0.0136 -1.7402 -1.1257
 6575SOL    HW222681   9.106   5.649   9.530 -0.4469  2.6499  0.3627
 6576SOL     OW22682   1.004   4.422   2.829 -0.1347  0.0967 -0.4013
 6576SOL    HW122683   1.070   4.490   2.845  0.5026 -0.4242 -0.7668
 6576SOL    HW222684   0.929   4.448   2.883  1.2450 -0.6204  1.9874
 6577SOL     OW22685   1.692  10.470   1.513  0.4182  0.3395  0.1090
 6577SOL    HW122686   1.785  10.478   1.532  0.4562 -1.1576  0.6626
 6577SOL    HW222687   1.656  10.425   1.590 -0.6698  0.4049 -0.3457
 6578SOL     OW22688   4.526   6.063   3.457 -0.4669  0.4355  0.1210
 6578SOL    HW122689   4.479   6.135   3.416 -1.4333  0.7705  1.7386
 6578SOL    HW222690   4.458   6.005   3.491  0.2929 -0.1103  0.7689
 6579SOL     OW22691   1.776   1.632   4.061 -0.5607  0.1095 -0.3044
 6579SOL    HW122692   1.735   1.638   4.147 -2.8578 -2.4034 -1.0978
 6579SOL    HW222693   1.728   1.695   4.007 -0.7509 -0.0456 -0.3160
 6580SOL     OW22694   4.090   7.265   3.496  0.1969  0.1656 -0.5408
 6580SOL    HW122695   4.058   7.178   3.473  0.8985  0.1818 -1.6761
 6580SOL    HW222696   4.184   7.253   3.511  0.6198  0.9529 -2.2666
 6581SOL     OW22697   8.590   0.747   7.576 -0.0792  0.0341 -0.1119
 6581SOL    HW122698   8.530   0.745   7.650 -0.1586  0.6962 -0.1503
 6581SOL    HW222699   8.677   0.754   7.616 -0.1016  0.0982 -0.0749
 6582SOL     OW22700   9.144  10.036   5.580  0.0414  0.6148  0.2777
 6582SOL    HW122701   9.232  10.073   5.589  0.3696 -0.1491  0.3128
 6582SOL    HW222702   9.156   9.942   5.598 -1.1711  0.8547  2.6664
 6583SOL     OW22703   0.750   6.077   8.195  0.5279  0.1192  0.0997
 6583SOL    HW122704   0.806   6.139   8.148  0.9644 -0.7226 -0.5149
 6583SOL    HW222705   0.726   6.123   8.275  1.1795  0.9310 -0.1552
 6584SOL     OW22706   3.659  10.279   6.246 -0.3141  0.1886 -0.1570
 6584SOL    HW122707   3.700  10.366   6.241  1.3431 -0.5972 -1.6330
 6584SOL    HW222708   3.703  10.228   6.177 -2.0285 -1.5088 -0.0847
 6585SOL     OW22709   9.900   0.091   1.978  0.0683 -0.2608 -0.4284
 6585SOL    HW122710   9.978   0.099   1.923  0.7846  1.8937  0.7982
 6585SOL    HW222711   9.865   0.180   1.982  0.2981 -0.2115  2.9232
 6586SOL     OW22712   3.844   3.594   6.040 -0.0314  0.3770  0.4645
 6586SOL    HW122713   3.785   3.554   5.976  1.0174 -0.2637 -0.1270
 6586SOL    HW222714   3.929   3.555   6.022  1.1581  3.1062 -0.3920
 6587SOL     OW22715   6.855   3.910   5.106  0.1322  0.0498  0.3489
 6587SOL    HW122716   6.853   3.976   5.037  1.3921 -0.4023 -0.1495
 6587SOL    HW222717   6.788   3.846   5.081  0.4612 -0.0181 -0.3687
 6588SOL     OW22718   5.670  10.107   4.772 -0.1481  0.0105  0.0986
 6588SOL    HW122719   5.680  10.032   4.713 -2.0123  0.9926 -1.5776
 6588SOL    HW222720   5.731  10.173   4.737  0.5117 -0.2391  0.7609
 6589SOL     OW22721   6.256   0.267   6.961 -0.0570  0.3805 -0.3349
 6589SOL    HW122722   6.188   0.216   6.918 -0.3184  1.1339 -0.8356
 6589SOL    HW222723   6.261   0.231   7.050  2.6149 -3.3176 -1.7192
 6590SOL     OW22724   2.101   7.769   2.061 -0.4461 -0.2258 -0.1162
 6590SOL    HW122725   2.121   7.771   2.155 -0.2685 -1.1678 -0.1242
 6590SOL    HW222726   2.075   7.859   2.040  2.3445  0.7315  0.2020
 6591SOL     OW22727   4.937   0.278   5.941  0.1250 -0.0276  0.3097
 6591SOL    HW122728   4.985   0.353   5.907 -2.3436  1.7052  0.3517
 6591SOL    HW222729   4.974   0.202   5.895 -0.1761  1.6982 -3.0829
 6592SOL     OW22730   0.348   0.998   6.724  0.0018 -0.0065 -0.1479
 6592SOL    HW122731   0.265   1.046   6.721  0.1781  0.2803 -0.4570
 6592SOL    HW222732   0.383   1.015   6.811 -1.3007 -1.8856  0.8040
 6593SOL     OW22733   4.051   3.723   6.541 -0.2318  0.4442 -0.4714
 6593SOL    HW122734   4.033   3.629   6.540 -0.6405  0.4645  1.2711
 6593SOL    HW222735   4.094   3.740   6.458 -1.5803 -0.9860 -1.5223
 6594SOL     OW22736   2.753   2.032   6.594 -0.4009 -0.6086  0.3436
 6594SOL    HW122737   2.692   1.961   6.614 -1.3955  0.2624  0.4890
 6594SOL    HW222738   2.802   2.044   6.675 -1.3899 -0.0332  0.8882
 6595SOL     OW22739   9.613   0.797   9.920 -0.3034 -0.0515  0.6222
 6595SOL    HW122740   9.692   0.850   9.928  0.2883 -0.8723  0.3347
 6595SOL    HW222741   9.619   0.734   9.992 -1.7024  1.1171  1.8422
 6596SOL     OW22742   5.524   7.388   7.684  0.7095  0.4398 -0.6605
 6596SOL    HW122743   5.523   7.375   7.589  2.3479  0.7880 -0.7527
 6596SOL    HW222744   5.488   7.476   7.697  0.0033  0.1972 -0.8985
 6597SOL     OW22745   4.391   6.567   5.413 -0.3629 -0.7127  0.4365
 6597SOL    HW122746   4.485   6.551   5.399 -0.4256 -0.7724  0.0899
 6597SOL    HW222747   4.383   6.577   5.508 -0.0097 -0.7407  0.4714
 6598SOL     OW22748   3.644   1.556  10.353  0.5852 -0.4551 -0.3392
 6598SOL    HW122749   3.711   1.622  10.336 -0.4417  1.1584  1.4583
 6598SOL    HW222750   3.574   1.575  10.290  1.4111 -1.6383 -1.6764
 6599SOL     OW22751   4.631   5.661   6.548  0.2743 -0.3257 -0.2863
 6599SOL    HW122752   4.643   5.727   6.616 -0.8208 -1.8451  1.4822
 6599SOL    HW222753   4.613   5.580   6.596 -1.5619 -1.2763 -2.4148
 6600SOL     OW22754   7.010   2.069   8.610  0.9743  0.1898 -0.1245
 6600SOL    HW122755   7.012   2.152   8.564 -0.5729 -0.4244 -1.3790
 6600SOL    HW222756   7.090   2.024   8.582  0.8061  0.4412 -1.0346
 6601SOL     OW22757   1.366   7.655  10.411 -0.7815  0.4834 -0.3294
 6601SOL    HW122758   1.306   7.730  10.408 -0.0566  1.0999  0.1203
 6601SOL    HW222759   1.309   7.579  10.415 -1.5555  1.1123  1.4825
 6602SOL     OW22760   9.304   6.621   7.320 -0.2510 -0.3849 -0.1210
 6602SOL    HW122761   9.221   6.581   7.292  0.3275 -0.5798 -1.6911
 6602SOL    HW222762   9.315   6.695   7.260  0.3313  0.1026  0.5823
 6603SOL     OW22763   3.049   9.272  10.024 -0.1279  0.1618  0.4931
 6603SOL    HW122764   2.955   9.260  10.037 -0.1214  0.3999  0.7587
 6603SOL    HW222765   3.059   9.367  10.012  0.0547  0.1158  0.2806
 6604SOL     OW22766   6.719   9.664   4.378 -0.2245 -0.2499  0.4790
 6604SOL    HW122767   6.810   9.677   4.403 -0.2590  0.1201  0.4084
 6604SOL    HW222768   6.668   9.705   4.447 -0.3232  0.4360  0.0100
 6605SOL     OW22769   3.742  10.223   4.153  0.2316  0.3673  0.2698
 6605SOL    HW122770   3.696  10.250   4.073 -1.0156  0.8427  1.1188
 6605SOL    HW222771   3.730  10.296   4.214  0.2345 -0.4320  1.2546
 6606SOL     OW22772   7.050   6.050   3.610  0.4432 -0.4006  0.2703
 6606SOL    HW122773   7.088   5.966   3.585 -1.7092 -1.1706 -0.6691
 6606SOL    HW222774   6.959   6.030   3.630 -0.7473  2.0182 -2.1135
 6607SOL     OW22775   7.571   6.963   7.389 -0.1889 -0.2222  0.0423
 6607SOL    HW122776   7.594   7.028   7.322  0.4131  0.6955  1.1073
 6607SOL    HW222777   7.655   6.934   7.423 -0.4982 -0.5926  0.4895
 6608SOL     OW22778   5.143   9.724   0.072  0.2639  0.3183  0.5682
 6608SOL    HW122779   5.205   9.747   0.002 -0.6313  0.7092 -0.1172
 6608SOL    HW222780   5.116   9.808   0.108  0.9461  0.1093  1.6171
 6609SOL     OW22781   8.936   8.190   0.051 -0.5400  0.0101 -0.0954
 6609SOL    HW122782   8.903   8.102   0.068  1.4558 -0.8510 -0.3853
 6609SOL    HW222783   9.000   8.206   0.121  2.7119 -0.8293 -2.6037
 6610SOL     OW22784   3.822   0.635   1.569  0.1830  0.1599 -0.5559
 6610SOL    HW122785   3.776   0.705   1.522 -0.8567 -0.6778 -0.8109
 6610SOL    HW222786   3.874   0.681   1.635 -2.3495  1.0893  0.9023
 6611SOL     OW22787   2.791   4.034   8.092 -0.9054  0.1004  0.5992
 6611SOL    HW122788   2.877   4.026   8.051 -1.1574 -0.1481  0.1121
 6611SOL    HW222789   2.777   3.949   8.133 -0.4321  0.5149  1.6555
 6612SOL     OW22790   4.445   0.891   2.154 -0.2490  0.2759 -0.0330
 6612SOL    HW122791   4.456   0.796   2.155 -1.4770  0.1156  1.3087
 6612SOL    HW222792   4.432   0.915   2.246 -1.3578  1.5498 -0.4847
 6613SOL     OW22793   1.468   8.441   3.979 -0.0995  0.8347  0.2736
 6613SOL    HW122794   1.388   8.475   3.937 -1.1104  1.5672  2.6306
 6613SOL    HW222795   1.538   8.464   3.918 -1.3642  2.5835 -0.6219
 6614SOL     OW22796   9.939   9.115   3.877 -0.1842 -0.2875  0.4090
 6614SOL    HW122797   9.938   9.159   3.792  2.1491 -2.1887 -0.7239
 6614SOL    HW222798  10.020   9.146   3.918  0.1694 -1.5277  0.6874
 6615SOL     OW22799   9.851   6.133   2.678  0.4480 -0.3332 -0.5209
 6615SOL    HW122800   9.776   6.102   2.729  0.8680 -0.5876 -0.0439
 6615SOL    HW222801   9.879   6.213   2.723  1.0988 -0.8032 -0.0713
 6616SOL     OW22802   0.957   6.632   8.492  0.2353  0.1913 -0.0235
 6616SOL    HW122803   0.952   6.539   8.474 -1.0151  0.3038 -0.3635
 6616SOL    HW222804   0.988   6.637   8.583  1.2868 -0.5126 -0.3325
 6617SOL     OW22805   6.353   9.704   8.460  0.2344  0.3897 -0.1871
 6617SOL    HW122806   6.359   9.684   8.366  0.6759 -1.2894  0.1749
 6617SOL    HW222807   6.363   9.799   8.464 -1.1036  0.6562 -1.9403
 6618SOL     OW22808   1.968   9.891   3.638 -0.6111 -0.3454 -0.1764
 6618SOL    HW122809   2.039   9.841   3.678 -0.1478 -0.4154 -1.0748
 6618SOL    HW222810   2.010   9.946   3.572 -0.8691  2.4966  1.8473
 6619SOL     OW22811   9.234   6.851   5.514 -0.3166 -0.0423 -0.0949
 6619SOL    HW122812   9.225   6.877   5.605  1.6080  1.9802 -0.3658
 6619SOL    HW222813   9.191   6.766   5.508 -0.1651 -0.4178  2.7600
 6620SOL     OW22814   8.133   9.198   9.512  0.6502 -0.1776 -0.3859
 6620SOL    HW122815   8.087   9.272   9.552  0.4185 -0.0114 -0.9502
 6620SOL    HW222816   8.225   9.225   9.510  0.9926 -0.9636  1.7891
 6621SOL     OW22817  10.292   7.209   8.598  0.2796 -0.0317 -0.0966
 6621SOL    HW122818  10.266   7.149   8.528  3.2947  0.2310 -1.5945
 6621SOL    HW222819  10.279   7.296   8.560  1.1146  0.1306 -0.0140
 6622SOL     OW22820   7.964   4.802   6.695  0.0034 -0.0565 -0.1251
 6622SOL    HW122821   7.989   4.781   6.605 -0.7673 -1.1244 -0.1123
 6622SOL    HW222822   7.882   4.850   6.685 -2.0239 -3.1886  0.0584
 6623SOL     OW22823   4.671   8.502   8.397 -0.2314  0.4674  0.2242
 6623SOL    HW122824   4.608   8.573   8.388 -0.0182  0.5604 -0.6578
 6623SOL    HW222825   4.633   8.429   8.348 -0.9670 -0.4197  2.0144
 6624SOL     OW22826   4.066   7.741   2.849 -0.1644 -0.1760  0.1542
 6624SOL    HW122827   4.035   7.722   2.760  1.5041 -1.7832 -0.1656
 6624SOL    HW222828   4.030   7.827   2.870 -0.1375  0.5195 -2.3188
 6625SOL     OW22829   2.353   6.994   3.288 -0.3301  0.0283 -0.3698
 6625SOL    HW122830   2.307   7.060   3.236  0.6828  0.3876 -0.8478
 6625SOL    HW222831   2.422   7.044   3.333  1.4285 -0.8850 -1.9096
 6626SOL     OW22832   1.910   3.439   5.121  0.1767 -0.3239  0.1162
 6626SOL    HW122833   1.842   3.428   5.187 -0.9088 -3.0710 -1.2758
 6626SOL    HW222834   1.862   3.466   5.042  0.8632 -0.9014 -0.5207
 6627SOL     OW22835  10.126   5.762   8.535  0.8947  0.3375 -1.0175
 6627SOL    HW122836  10.213   5.769   8.494  1.7405 -0.6223  0.5087
 6627SOL    HW222837  10.108   5.850   8.569  1.4388  0.4539 -1.0209
 6628SOL     OW22838   4.402   3.951   9.352 -0.3169 -0.6278 -0.3401
 6628SOL    HW122839   4.317   3.951   9.308  0.6700 -0.5990 -2.3846
 6628SOL    HW222840   4.383   3.977   9.442 -2.2478  1.2272 -1.2052
 6629SOL     OW22841   2.028   6.354   0.655 -0.2005 -0.5381  0.1978
 6629SOL    HW122842   2.117   6.320   0.663  0.8363  2.2090  1.6447
 6629SOL    HW222843   1.986   6.330   0.737 -0.3788 -0.7278  0.0512
 6630SOL     OW22844   2.747  10.542   5.308 -0.5224  0.0967  0.2110
 6630SOL    HW122845   2.664  10.524   5.351 -0.9216 -1.4549 -1.1471
 6630SOL    HW222846   2.723  10.580   5.224  0.0965 -1.0696 -0.5106
 6631SOL     OW22847   0.204   0.913   6.298 -0.2175  0.2387 -0.9451
 6631SOL    HW122848   0.220   0.819   6.308  0.2646  0.2448 -1.6307
 6631SOL    HW222849   0.155   0.920   6.217 -0.9440  0.5184 -0.4923
 6632SOL     OW22850   6.110   3.582   4.886  0.0685 -0.6824  0.4021
 6632SOL    HW122851   6.020   3.592   4.855  0.4059  0.2275 -0.3050
 6632SOL    HW222852   6.117   3.488   4.908 -0.5369 -1.1054 -1.1049
 6633SOL     OW22853   2.470   1.290   6.663  0.2303 -0.5693 -0.1006
 6633SOL    HW122854   2.406   1.269   6.595  1.0818  1.8075 -1.8095
 6633SOL    HW222855   2.535   1.219   6.657 -1.5398 -2.3413  0.8257
 6634SOL     OW22856   0.779   5.206   1.702  0.2821 -0.1329  0.1086
 6634SOL    HW122857   0.715   5.198   1.632  0.0718  0.4700  0.2275
 6634SOL    HW222858   0.838   5.276   1.673 -0.1459  0.5285  0.7872
 6635SOL     OW22859   7.640   8.612   9.478 -0.0404 -0.4453  0.1413
 6635SOL    HW122860   7.732   8.589   9.493  0.3770 -1.8167 -3.4513
 6635SOL    HW222861   7.640   8.707   9.466  0.9026 -0.4268  0.2207
 6636SOL     OW22862   4.754   2.475   7.797 -0.1233 -0.0536 -0.0367
 6636SOL    HW122863   4.754   2.564   7.761  1.3873  0.2025  0.5212
 6636SOL    HW222864   4.844   2.461   7.827 -0.5662 -1.4199  0.7643
 6637SOL     OW22865   0.498   4.487   1.333 -0.0368 -0.4568 -0.2043
 6637SOL    HW122866   0.449   4.440   1.265 -0.5409  0.2843 -0.3802
 6637SOL    HW222867   0.434   4.504   1.401  0.3633 -0.8116  0.2642
 6638SOL     OW22868   4.810  10.537   7.546  0.3969 -0.2338  0.1870
 6638SOL    HW122869   4.904  10.548   7.556  0.0223  2.9486  1.4925
 6638SOL    HW222870   4.780  10.505   7.632  0.3337 -2.6703 -0.6487
 6639SOL     OW22871  10.405   9.639   5.595  0.1703 -0.3916 -0.1516
 6639SOL    HW122872  10.352   9.618   5.672 -0.4650  1.3112 -0.0752
 6639SOL    HW222873  10.419   9.555   5.552 -1.3312 -1.0966  0.6497
 6640SOL     OW22874   3.808   0.829   3.865 -0.2840  0.0322 -0.4018
 6640SOL    HW122875   3.724   0.782   3.868 -0.1140 -0.3515 -1.3822
 6640SOL    HW222876   3.873   0.760   3.853 -0.2237  0.5831 -4.4359
 6641SOL     OW22877   8.039   9.151   6.766 -0.4174  0.5679  0.5699
 6641SOL    HW122878   8.053   9.152   6.860  1.5573 -0.3665  0.3402
 6641SOL    HW222879   8.093   9.079   6.734 -0.9972  0.8929 -1.2979
 6642SOL     OW22880   6.619   5.701   7.519 -0.0458 -0.0032  0.4631
 6642SOL    HW122881   6.598   5.690   7.426 -0.4449  1.1331  0.3957
 6642SOL    HW222882   6.590   5.620   7.560 -3.7229  0.9908  0.2116
 6643SOL     OW22883   8.426   3.820   5.395 -0.1559 -0.1675 -0.0239
 6643SOL    HW122884   8.494   3.806   5.461  0.9136 -1.2958 -1.3100
 6643SOL    HW222885   8.443   3.909   5.363  2.1408 -1.1657 -1.8243
 6644SOL     OW22886   0.560   2.496   3.777  0.1940  0.5639 -0.3439
 6644SOL    HW122887   0.481   2.450   3.805  0.4775 -0.4848 -1.2127
 6644SOL    HW222888   0.631   2.434   3.791  0.4617  0.2987 -2.4763
 6645SOL     OW22889   8.411   6.180   5.681 -0.2573  0.2940  0.1500
 6645SOL    HW122890   8.332   6.230   5.705  0.2633  1.0087  0.4158
 6645SOL    HW222891   8.459   6.238   5.623 -0.5620 -0.6775 -1.1041
 6646SOL     OW22892   2.030   2.716   5.213  0.2768 -0.5897  0.3435
 6646SOL    HW122893   1.993   2.678   5.292 -0.9037 -0.3295 -0.0695
 6646SOL    HW222894   2.125   2.707   5.224  0.0793 -1.8252  1.1356
 6647SOL     OW22895  10.658   6.180   0.892  0.0984  0.1465  0.0475
 6647SOL    HW122896  10.742   6.149   0.858 -0.4302 -0.3873 -0.8132
 6647SOL    HW222897  10.630   6.247   0.829  0.0238  0.5515  0.5058
 6648SOL     OW22898   9.877   7.599   9.457  0.3398  0.0837 -0.2606
 6648SOL    HW122899   9.815   7.664   9.423  0.6622  0.0305 -0.9478
 6648SOL    HW222900   9.909   7.639   9.538 -1.7486 -0.5749  0.9635
 6649SOL     OW22901   2.840   5.456   2.303 -0.2303 -0.5971 -0.2257
 6649SOL    HW122902   2.798   5.414   2.379  0.5772 -0.3374  0.3775
 6649SOL    HW222903   2.776   5.447   2.233 -0.7328 -1.4157  0.3163
 6650SOL     OW22904   3.000   5.744   8.702  0.0349  0.2020 -0.7248
 6650SOL    HW122905   3.036   5.803   8.768  1.7083 -2.3746  0.8133
 6650SOL    HW222906   3.050   5.764   8.622  0.0119  1.3594 -0.4736
 6651SOL     OW22907   7.918   7.582  10.482 -0.5688 -0.2698 -0.4606
 6651SOL    HW122908   7.885   7.513  10.424 -2.3165 -0.3925  0.5987
 6651SOL    HW222909   7.935   7.537  10.565 -2.5102  0.6485  0.4989
 6652SOL     OW22910   4.168   2.751   7.123 -0.4057  0.5812  0.1185
 6652SOL    HW122911   4.248   2.801   7.141 -0.1786  0.3283 -0.1643
 6652SOL    HW222912   4.146   2.710   7.207 -0.5328  1.0685  0.3236
 6653SOL     OW22913   1.592   0.990   8.861  0.1772  0.0596 -0.3205
 6653SOL    HW122914   1.501   0.969   8.885 -0.0704  0.5158 -0.8399
 6653SOL    HW222915   1.587   1.079   8.826  1.4650  1.8274  3.4576
 6654SOL     OW22916   4.817   6.315   6.513 -0.0447  0.3596 -0.0676
 6654SOL    HW122917   4.827   6.405   6.484  0.8704  0.4501  0.4560
 6654SOL    HW222918   4.737   6.284   6.472  0.1278  1.1176 -0.9968
 6655SOL     OW22919   9.810   7.093   6.323  0.2224  0.6129 -0.5249
 6655SOL    HW122920   9.872   7.138   6.266  2.1953 -1.2505  0.0081
 6655SOL    HW222921   9.726   7.137   6.308  1.3421  2.2350 -2.4336
 6656SOL     OW22922   7.718   0.249   0.519  0.5173 -0.1830  0.7284
 6656SOL    HW122923   7.702   0.158   0.546 -0.6464  0.0361  0.8171
 6656SOL    HW222924   7.715   0.299   0.601 -0.1045  0.0931  0.5437
 6657SOL     OW22925   1.511   9.955   4.257 -0.5834 -0.3270  0.1344
 6657SOL    HW122926   1.435   9.917   4.301  1.0741 -1.2202  2.4241
 6657SOL    HW222927   1.508   9.918   4.169 -2.9846  0.0090 -0.0037
 6658SOL     OW22928   2.587   9.314   6.202 -0.0405 -0.3108 -0.2949
 6658SOL    HW122929   2.551   9.392   6.162  0.2519  0.1966  0.3971
 6658SOL    HW222930   2.525   9.244   6.181 -0.2481  0.0860 -1.0050
 6659SOL     OW22931   0.796   1.595   7.701 -0.3206  0.4730  0.1761
 6659SOL    HW122932   0.887   1.567   7.709 -0.1873  0.8764  0.0750
 6659SOL    HW222933   0.770   1.619   7.790 -0.0972  1.0621  0.0874
 6660SOL     OW22934   9.709   7.371   9.518 -0.5741 -0.4744  0.1061
 6660SOL    HW122935   9.620   7.402   9.532  0.1605  1.7763  0.2167
 6660SOL    HW222936   9.763   7.450   9.523  1.6549 -1.9796  1.8332
 6661SOL     OW22937  10.034   9.111   9.621 -0.0182 -0.1167 -0.3151
 6661SOL    HW122938   9.984   9.132   9.543 -0.6031  1.1168  0.3544
 6661SOL    HW222939  10.027   9.189   9.676  2.3328 -0.0303 -0.0248
 6662SOL     OW22940   3.027   3.447   3.757 -0.1832  0.4106  0.2717
 6662SOL    HW122941   3.056   3.515   3.695 -0.2907 -1.0710 -1.4830
 6662SOL    HW222942   2.943   3.417   3.723 -1.2804  0.9480  2.3304
 6663SOL     OW22943   0.604   9.142   9.031 -0.0200 -0.0740 -0.6277
 6663SOL    HW122944   0.657   9.079   9.079  0.3814  0.2112 -0.6887
 6663SOL    HW222945   0.668   9.200   8.990 -0.4024  1.1645  0.4761
 6664SOL     OW22946   2.488   5.263   1.331 -0.2862  0.0395  0.1514
 6664SOL    HW122947   2.480   5.180   1.284 -0.3541  0.6424 -0.9367
 6664SOL    HW222948   2.507   5.238   1.421  1.4448 -1.1622 -0.4820
 6665SOL     OW22949  10.275   1.304   5.219  0.3992  0.4842 -0.4743
 6665SOL    HW122950  10.203   1.358   5.253 -0.0958 -0.3647 -0.1541
 6665SOL    HW222951  10.353   1.336   5.266 -0.0626  0.2096  0.5040
 6666SOL     OW22952   6.871   9.299  10.300  0.6694 -0.0399 -0.3090
 6666SOL    HW122953   6.960   9.265  10.291  0.6043 -0.7105  1.1544
 6666SOL    HW222954   6.869   9.340  10.387  0.1942  2.1079 -1.2651
 6667SOL     OW22955   2.451   1.506   1.549  0.7551 -0.0395  0.7719
 6667SOL    HW122956   2.370   1.553   1.571 -0.1867 -0.6232 -1.2522
 6667SOL    HW222957   2.495   1.496   1.633 -1.3133  0.1993  1.9702
 6668SOL     OW22958   7.215   8.978   5.791 -0.1707  0.1198  0.2888
 6668SOL    HW122959   7.133   9.018   5.760  0.2232 -0.1238 -1.1314
 6668SOL    HW222960   7.266   8.963   5.711 -0.0173 -2.6126  0.7975
 6669SOL     OW22961   7.338   8.395   3.400  0.8228  0.5549  0.3430
 6669SOL    HW122962   7.266   8.359   3.348  0.8726  1.3048 -0.2628
 6669SOL    HW222963   7.303   8.475   3.438  1.3884  1.0250 -0.1095
 6670SOL     OW22964   0.677   3.135   5.279 -0.5850 -0.0081 -0.4717
 6670SOL    HW122965   0.726   3.148   5.198  2.8310  0.2322  1.4507
 6670SOL    HW222966   0.655   3.041   5.279  1.0762 -0.4249 -0.8311
 6671SOL     OW22967   8.491   5.659   0.254  0.2589 -0.1505  0.1110
 6671SOL    HW122968   8.406   5.627   0.286 -0.0905  2.6925  2.5224
 6671SOL    HW222969   8.554   5.626   0.318  0.7954 -1.0200 -0.8450
 6672SOL     OW22970   4.362   8.695   6.264 -0.0584  0.0124  0.5300
 6672SOL    HW122971   4.402   8.621   6.310  1.2731  0.9896  0.9872
 6672SOL    HW222972   4.409   8.772   6.296  0.4714  0.8040 -1.9664
 6673SOL     OW22973   0.715   9.503   9.652  0.5524  0.6777 -0.1767
 6673SOL    HW122974   0.735   9.597   9.656 -1.2191  1.0521  2.0811
 6673SOL    HW222975   0.692   9.487   9.560  1.7909  2.2100 -0.8060
 6674SOL     OW22976   2.721   3.258   8.218  0.1530 -0.4775  0.3607
 6674SOL    HW122977   2.696   3.234   8.129  1.0586  1.0199 -0.3574
 6674SOL    HW222978   2.667   3.203   8.275 -0.6872 -1.2283 -1.1051
 6675SOL     OW22979   5.132   5.947   4.518 -0.5031  0.0012  0.5404
 6675SOL    HW122980   5.059   5.927   4.458  0.6222  0.3429 -1.0077
 6675SOL    HW222981   5.173   5.862   4.535 -0.0402  0.0569 -0.2536
 6676SOL     OW22982   3.816   3.009   1.077 -0.5719  0.3274 -0.0593
 6676SOL    HW122983   3.766   3.003   1.159 -1.5141  0.2019 -0.6336
 6676SOL    HW222984   3.899   2.964   1.097  0.2836  2.4465  1.5905
 6677SOL     OW22985   4.022   1.779   4.669  0.0281  0.1748 -0.5328
 6677SOL    HW122986   3.974   1.704   4.635  0.7802 -1.2767  1.4559
 6677SOL    HW222987   4.114   1.755   4.657  0.2760  0.7495  0.1969
 6678SOL     OW22988   9.176   7.773   0.965 -0.4225 -0.2881 -0.3521
 6678SOL    HW122989   9.155   7.813   0.880 -0.2644 -0.5911 -0.5369
 6678SOL    HW222990   9.175   7.679   0.948 -3.6238 -0.5467  0.7385
 6679SOL     OW22991   3.958   9.151   6.879 -0.1458  1.5528  0.0979
 6679SOL    HW122992   4.026   9.116   6.820 -0.6821  0.0122  0.3769
 6679SOL    HW222993   3.899   9.078   6.895 -0.6545  2.2650  1.6573
 6680SOL     OW22994   5.035   7.837   5.345  0.0645  0.0470 -0.0932
 6680SOL    HW122995   4.996   7.901   5.405 -1.1852  2.0989 -2.8685
 6680SOL    HW222996   4.977   7.762   5.348  0.3431 -0.1372  1.6117
 6681SOL     OW22997   1.609   7.513   0.155 -0.4368  0.0697  0.0635
 6681SOL    HW122998   1.578   7.492   0.067  2.5895 -1.4005 -0.7815
 6681SOL    HW222999   1.680   7.576   0.142 -0.9695  1.0814  1.6475
 6682SOL     OW23000   8.435   0.334   2.910  0.7286  0.5115  0.0437
 6682SOL    HW123001   8.457   0.401   2.974  0.2982  0.1021  0.6305
 6682SOL    HW223002   8.439   0.252   2.959 -2.0608  0.3908  0.2080
 6683SOL     OW23003   2.937   7.810   1.555 -0.5724  0.3232 -0.0089
 6683SOL    HW123004   2.939   7.727   1.507  1.0705  0.0513  0.4646
 6683SOL    HW223005   2.844   7.834   1.556 -0.8842 -0.5868 -1.7030
 6684SOL     OW23006   4.511   5.056   0.944  0.5680  0.3486 -0.1421
 6684SOL    HW123007   4.578   5.107   0.989  0.1188  1.5940 -0.8186
 6684SOL    HW223008   4.555   5.019   0.867  0.3769  1.7130 -0.9551
 6685SOL     OW23009   4.058   0.021   6.233 -0.1559 -0.1984 -0.5342
 6685SOL    HW123010   4.044  -0.064   6.190  0.5588  0.3312 -1.8709
 6685SOL    HW223011   3.970   0.060   6.236 -0.2243 -0.2263 -1.6085
 6686SOL     OW23012   7.493   5.809  10.405 -0.5541  0.0927  0.0186
 6686SOL    HW123013   7.440   5.819  10.326 -2.8549 -2.9060  1.0075
 6686SOL    HW223014   7.451   5.738  10.454  0.5211  2.0040  4.1694
 6687SOL     OW23015   8.954   7.401   8.094  0.2319  0.0574  0.5497
 6687SOL    HW123016   8.861   7.382   8.107  0.4209 -1.8924 -0.5297
 6687SOL    HW223017   8.957   7.493   8.066 -1.4105  0.0361  0.2421
 6688SOL     OW23018   1.290   1.302   4.195 -0.5415 -0.2168 -0.1382
 6688SOL    HW123019   1.366   1.290   4.252 -0.1713  1.0136 -0.3495
 6688SOL    HW223020   1.249   1.383   4.226 -0.7811  0.0510 -1.1129
 6689SOL     OW23021   3.552   4.973  10.389 -0.3930 -0.0012  0.1140
 6689SOL    HW123022   3.564   4.918  10.311  0.4761 -1.0101  0.9305
 6689SOL    HW223023   3.575   5.061  10.360 -1.3496 -0.1329 -1.1052
 6690SOL     OW23024   1.036   0.115   2.224  0.3181 -0.0101  0.4239
 6690SOL    HW123025   1.118   0.164   2.222  0.0357  0.4690  0.1465
 6690SOL    HW223026   1.014   0.109   2.317  0.8853 -0.5204  0.5287
 6691SOL     OW23027   1.958   7.415   4.072 -0.5206  0.1044  0.2792
 6691SOL    HW123028   1.872   7.441   4.039 -1.0337 -0.0265  1.4452
 6691SOL    HW223029   1.941   7.336   4.123  0.3040  0.0337  0.4544
 6692SOL     OW23030   3.852   9.680   7.349  0.3646  0.4629  0.3522
 6692SOL    HW123031   3.866   9.588   7.328 -0.8991 -0.2559  2.4063
 6692SOL    HW223032   3.770   9.703   7.304  0.4309  0.4557  0.2275
 6693SOL     OW23033   5.276   7.909   5.475  0.2215 -0.5801 -0.4242
 6693SOL    HW123034   5.283   7.902   5.380  0.6952  1.2338 -0.5752
 6693SOL    HW223035   5.185   7.937   5.490 -0.1007 -1.6858 -0.2659
 6694SOL     OW23036   9.706   4.101   9.022  0.4779  0.2321 -0.0913
 6694SOL    HW123037   9.751   4.184   9.039 -0.0952  0.3012  1.2431
 6694SOL    HW223038   9.717   4.051   9.103  0.9022 -1.0583 -0.9095
 6695SOL     OW23039   7.319   5.868   2.544  0.4801  0.0953  0.4475
 6695SOL    HW123040   7.372   5.792   2.567  0.9363  0.6775  1.3861
 6695SOL    HW223041   7.355   5.939   2.597 -0.7339  0.6810  0.5201
 6696SOL     OW23042   7.192   2.749   1.836 -0.0263 -0.1885  0.0077
 6696SOL    HW123043   7.232   2.662   1.839  2.2896  0.7906 -0.1868
 6696SOL    HW223044   7.153   2.761   1.923  0.3552 -1.0855  0.3099
 6697SOL     OW23045   7.469   0.387   3.088  0.3784 -0.0150  1.2071
 6697SOL    HW123046   7.491   0.295   3.103  0.3381  0.1373  2.2920
 6697SOL    HW223047   7.553   0.433   3.096  0.5121 -0.0124  0.0092
 6698SOL     OW23048   0.703   5.683   7.692  0.1755  0.2394  0.0491
 6698SOL    HW123049   0.771   5.668   7.627 -0.8700  0.4270 -1.1179
 6698SOL    HW223050   0.725   5.769   7.729  0.5302  0.3325 -0.3673
 6699SOL     OW23051   2.395   3.577   5.964  0.2131 -0.4191  0.1576
 6699SOL    HW123052   2.325   3.639   5.985  0.0322  0.2611 -2.1505
 6699SOL    HW223053   2.464   3.596   6.027 -0.6413  0.7445  0.7772
 6700SOL     OW23054   3.553   5.593   2.477  0.2747 -0.0544  0.2513
 6700SOL    HW123055   3.632   5.556   2.439 -0.0227  0.5612 -0.9989
 6700SOL    HW223056   3.482   5.539   2.443  0.0916 -0.2428  0.9062
 6701SOL     OW23057   8.501   4.560   9.152  0.5336 -0.4259  0.0792
 6701SOL    HW123058   8.481   4.634   9.094  1.3510 -0.7679 -0.6610
 6701SOL    HW223059   8.531   4.601   9.233 -0.1952  0.0568  0.1136
 6702SOL     OW23060   9.228   5.186   6.474 -0.8908  0.3164  0.5719
 6702SOL    HW123061   9.280   5.110   6.447 -0.0579  0.6516  1.1884
 6702SOL    HW223062   9.152   5.185   6.415  1.1718  1.4338 -2.3438
 6703SOL     OW23063   2.128   1.836   3.311 -0.4243  1.0516 -0.1897
 6703SOL    HW123064   2.113   1.746   3.339 -0.5738  1.3215  0.6128
 6703SOL    HW223065   2.205   1.831   3.253  1.5284  0.8068  2.2554
 6704SOL     OW23066   1.187   0.704   0.872  0.7697 -0.0105  0.0292
 6704SOL    HW123067   1.213   0.613   0.882 -2.3412 -1.0636 -0.3502
 6704SOL    HW223068   1.214   0.746   0.954  0.5129 -1.7718  1.0725
 6705SOL     OW23069   9.916   3.436   6.257 -0.4392 -0.7056  0.3515
 6705SOL    HW123070   9.893   3.344   6.248 -0.2320 -0.7094 -0.1436
 6705SOL    HW223071   9.934   3.466   6.168  0.0475 -0.3286  0.5706
 6706SOL     OW23072   6.848   4.074   0.528 -0.2002 -0.7063 -0.3720
 6706SOL    HW123073   6.859   3.983   0.555  2.1747 -0.1142  0.9816
 6706SOL    HW223074   6.754   4.084   0.516 -0.8924 -2.5928  2.3688
 6707SOL     OW23075   4.941   5.565   5.087 -0.6408  0.0309 -0.1808
 6707SOL    HW123076   4.935   5.660   5.073 -0.0282  0.1165  0.0918
 6707SOL    HW223077   5.018   5.554   5.143 -0.9838 -0.5921  0.1794
 6708SOL     OW23078   2.483  10.048   8.623  0.1340  0.2091 -0.3492
 6708SOL    HW123079   2.489  10.033   8.718  3.2138  1.2196 -0.2682
 6708SOL    HW223080   2.523   9.970   8.584  0.0360  0.3606 -0.7525
 6709SOL     OW23081   6.598   9.559   8.566 -0.1171  0.0703  0.1411
 6709SOL    HW123082   6.554   9.475   8.569  1.6922 -0.9940 -1.1677
 6709SOL    HW223083   6.537   9.617   8.519 -0.9729 -0.7570  0.2098
 6710SOL     OW23084   2.823   5.372   4.031  0.3414  0.0418 -0.5207
 6710SOL    HW123085   2.800   5.387   4.123 -0.3784 -0.9068 -0.5395
 6710SOL    HW223086   2.739   5.359   3.986  0.7642 -1.3464 -0.9687
 6711SOL     OW23087   5.416   5.508   7.910  0.1695 -0.4100 -0.1844
 6711SOL    HW123088   5.462   5.428   7.933  2.1922  0.8788  0.4802
 6711SOL    HW223089   5.443   5.527   7.820 -3.1061 -2.2667 -1.7561
 6712SOL     OW23090  10.370   7.357   4.556  0.0980 -0.1112 -0.0287
 6712SOL    HW123091  10.394   7.405   4.636  0.1588  2.4151 -1.4649
 6712SOL    HW223092  10.378   7.421   4.486 -0.3031 -2.1484 -2.0673
 6713SOL     OW23093   9.552   9.585   7.768  0.1225 -0.3298 -0.7127
 6713SOL    HW123094   9.554   9.598   7.863  0.4524 -2.1968 -0.4253
 6713SOL    HW223095   9.514   9.498   7.757  0.3852 -0.2652 -2.2778
 6714SOL     OW23096   8.011  10.341   8.568  0.3996 -0.6273 -0.0099
 6714SOL    HW123097   8.022  10.269   8.506 -0.6637  0.1303 -1.1551
 6714SOL    HW223098   7.922  10.329   8.602  0.7909 -0.7373  0.9800
 6715SOL     OW23099   8.306   2.526   4.465 -0.1433 -0.0815  0.0037
 6715SOL    HW123100   8.337   2.522   4.555 -1.1179 -0.0565  0.3441
 6715SOL    HW223101   8.370   2.474   4.416  0.5487  0.1323  0.6502
 6716SOL     OW23102  10.113   8.682   4.153  0.0078 -0.0933 -0.4985
 6716SOL    HW123103  10.152   8.766   4.128  0.3154 -0.2628 -0.5978
 6716SOL    HW223104  10.175   8.617   4.121  0.5115 -0.3165  0.8519
 6717SOL     OW23105   8.255   5.163   6.248  0.6830  0.1899 -0.5240
 6717SOL    HW123106   8.189   5.151   6.180  1.4733  0.1577 -1.3131
 6717SOL    HW223107   8.211   5.139   6.329  0.0393 -0.8409 -1.1576
 6718SOL     OW23108   7.095   0.235   0.844 -0.0933  0.6154  0.1330
 6718SOL    HW123109   7.134   0.217   0.930  0.7668  1.0736 -0.1528
 6718SOL    HW223110   7.011   0.276   0.865  0.5418  1.6650  0.7858
 6719SOL     OW23111   4.278  10.682   0.156  0.1377  0.1249  0.6766
 6719SOL    HW123112   4.268  10.773   0.128  0.5932  0.0030  0.1068
 6719SOL    HW223113   4.278  10.632   0.075 -0.0928 -0.3885  0.9890
 6720SOL     OW23114   6.797   4.446   6.856  0.6485  0.4585  0.1935
 6720SOL    HW123115   6.777   4.424   6.947  0.1194 -1.3247 -0.3146
 6720SOL    HW223116   6.714   4.432   6.810  1.8617 -2.9671 -1.2672
 6721SOL     OW23117   0.075   8.321   8.569 -0.4181  0.5348 -0.1454
 6721SOL    HW123118   0.018   8.312   8.493  2.0013 -2.1293 -1.8183
 6721SOL    HW223119   0.027   8.278   8.640 -1.5985  0.7372 -0.7911
 6722SOL     OW23120   6.728   6.231   1.080  0.1951  0.1991  0.1072
 6722SOL    HW123121   6.741   6.139   1.099 -1.0410 -0.4381 -1.7842
 6722SOL    HW223122   6.687   6.232   0.993 -0.9339  2.4631  0.5734
 6723SOL     OW23123   8.062   6.747   6.552 -0.0414  0.2552 -0.1305
 6723SOL    HW123124   8.086   6.834   6.518 -0.7809  0.8426  0.8082
 6723SOL    HW223125   7.981   6.761   6.601 -1.6892 -1.4688 -2.1938
 6724SOL     OW23126   0.005   3.394   9.741  0.6292 -0.5990 -0.7880
 6724SOL    HW123127   0.054   3.475   9.747  1.7831 -1.3144 -0.1663
 6724SOL    HW223128   0.033   3.354   9.659  0.8148 -0.8319 -0.6138
 6725SOL     OW23129   5.914   8.664   4.430  0.0580 -0.1692 -0.1021
 6725SOL    HW123130   5.906   8.647   4.524 -0.5611 -0.1592 -0.1502
 6725SOL    HW223131   5.993   8.718   4.422 -0.1022  0.1514  0.4520
 6726SOL     OW23132   1.086   0.503   8.426  0.4793  0.2296  0.0320
 6726SOL    HW123133   1.023   0.434   8.405  1.0974 -0.7097  1.1868
 6726SOL    HW223134   1.111   0.539   8.340  0.1247 -0.9476 -0.5885
 6727SOL     OW23135   0.358   3.763   3.184 -0.0703  0.0196 -0.6126
 6727SOL    HW123136   0.265   3.762   3.205  0.0910  1.1747  0.2820
 6727SOL    HW223137   0.363   3.737   3.092 -1.2212 -0.5711 -0.5170
 6728SOL     OW23138   0.108   8.712   8.542 -0.1299 -0.1315  0.2717
 6728SOL    HW123139   0.078   8.802   8.527 -0.1365  0.2359  2.2672
 6728SOL    HW223140   0.039   8.672   8.595  1.2561 -0.3365  2.0207
 6729SOL     OW23141   5.983   6.586   1.583 -0.1837  0.1149 -0.2501
 6729SOL    HW123142   6.033   6.522   1.532 -0.8410 -1.1388  0.6300
 6729SOL    HW223143   6.026   6.589   1.668 -0.1850  0.8176 -0.2694
 6730SOL     OW23144   4.919   7.416   1.652 -0.5529  0.1395 -0.1870
 6730SOL    HW123145   4.833   7.390   1.620  0.2539 -2.5985 -0.4011
 6730SOL    HW223146   4.980   7.374   1.591  0.9583  2.1684 -0.1525
 6731SOL     OW23147   7.525   7.356   9.927  0.4493  0.1906  0.2069
 6731SOL    HW123148   7.603   7.305   9.905  0.5899  0.4263  0.1471
 6731SOL    HW223149   7.555   7.418   9.994  0.0678 -0.3992  0.9348
 6732SOL     OW23150   8.781   4.513   1.561 -0.3735  0.2610  0.0841
 6732SOL    HW123151   8.805   4.528   1.469 -0.9194 -0.8876 -0.2588
 6732SOL    HW223152   8.794   4.420   1.574 -2.7148 -0.0782  0.4405
 6733SOL     OW23153   7.267   7.071   5.704  0.4805  0.3256  0.3461
 6733SOL    HW123154   7.235   7.059   5.614 -1.3098 -0.0902  0.9953
 6733SOL    HW223155   7.339   7.133   5.696  1.1123 -0.5722 -1.5052
 6734SOL     OW23156   8.293   8.763   9.308 -0.5950 -0.5074  0.1602
 6734SOL    HW123157   8.221   8.722   9.260 -1.2464 -1.3657  1.8269
 6734SOL    HW223158   8.322   8.834   9.250 -0.9029 -1.8947 -1.8008
 6735SOL     OW23159   4.722   9.833   3.751 -0.9857  0.3127  0.9347
 6735SOL    HW123160   4.787   9.848   3.819  0.2999  2.2051 -0.5873
 6735SOL    HW223161   4.645   9.884   3.778 -0.4821  1.0541  1.0051
 6736SOL     OW23162   2.154   9.329   1.898 -0.4815 -0.0484 -0.1800
 6736SOL    HW123163   2.113   9.291   1.975  0.9757 -0.7932  0.2612
 6736SOL    HW223164   2.247   9.307   1.906 -0.0376  1.2335 -1.3359
 6737SOL     OW23165   6.928   3.896   9.716 -0.1106 -0.0975  0.0255
 6737SOL    HW123166   6.965   3.851   9.792  0.2971  0.3140  0.0740
 6737SOL    HW223167   6.997   3.957   9.688 -0.3739 -0.0293 -0.4878
 6738SOL     OW23168   6.296  10.687   8.883  0.0612  0.0112 -0.1654
 6738SOL    HW123169   6.244  10.693   8.964 -0.5488 -4.3701  0.0028
 6738SOL    HW223170   6.384  10.715   8.910 -0.8146  1.7941  1.0882
 6739SOL     OW23171   4.752  10.202   8.522  0.3998  0.3595  0.2962
 6739SOL    HW123172   4.735  10.112   8.547  1.7551  0.0188  0.1101
 6739SOL    HW223173   4.845  10.216   8.543  0.3262  1.5693 -0.0647
 6740SOL     OW23174   8.051   3.853   1.600 -0.1523  0.0159  0.3040
 6740SOL    HW123175   7.977   3.856   1.539 -0.6411 -0.3698  0.8570
 6740SOL    HW223176   8.128   3.851   1.545 -0.5125  1.3670 -0.2795
 6741SOL     OW23177   3.592   7.708   6.752  0.4914  0.1473  0.3351
 6741SOL    HW123178   3.620   7.668   6.834  0.7525  1.8282  1.0913
 6741SOL    HW223179   3.643   7.788   6.745  0.1995  0.2252 -1.2892
 6742SOL     OW23180   3.383   5.943   5.569 -0.6439  0.0282 -0.3277
 6742SOL    HW123181   3.399   5.957   5.663  1.1408  0.3542 -0.6539
 6742SOL    HW223182   3.443   5.873   5.544 -0.6548  0.3751 -1.3659
 6743SOL     OW23183   7.702   2.686   2.805 -0.6066 -0.1046 -0.0859
 6743SOL    HW123184   7.698   2.591   2.807  0.4973 -0.1590  0.5932
 6743SOL    HW223185   7.610   2.715   2.808 -1.0701 -1.1334 -2.3894
 6744SOL     OW23186   2.596   7.510   9.448 -0.3400  0.0513 -0.2758
 6744SOL    HW123187   2.658   7.500   9.520  0.0921  2.2222 -0.2834
 6744SOL    HW223188   2.637   7.463   9.375 -0.1237 -0.9913  0.4927
 6745SOL     OW23189   7.108   6.399   6.339 -0.3854 -0.0659 -0.3183
 6745SOL    HW123190   7.136   6.314   6.373  2.0078  0.2491 -1.3057
 6745SOL    HW223191   7.154   6.408   6.256 -1.4089  1.7692 -0.7385
 6746SOL     OW23192   1.562  10.405   1.768  0.4033 -0.2588 -0.2465
 6746SOL    HW123193   1.556  10.419   1.863  0.5645 -0.3727 -0.2203
 6746SOL    HW223194   1.536  10.314   1.756 -0.0112 -0.1317 -0.3539
 6747SOL     OW23195   7.992   6.234   0.125 -0.0014  0.6371  0.3858
 6747SOL    HW123196   8.025   6.323   0.120 -0.2323  0.7385  0.6610
 6747SOL    HW223197   7.897   6.243   0.119  0.0477  0.1872 -2.9707
 6748SOL     OW23198   9.718   6.429   4.648 -0.1882  0.0131  0.1457
 6748SOL    HW123199   9.689   6.466   4.565 -0.0190  1.2132  0.6066
 6748SOL    HW223200   9.641   6.383   4.682 -0.0641 -1.0772 -0.9763
 6749SOL     OW23201   6.695   6.673   8.596 -0.5078 -0.3035  0.0474
 6749SOL    HW123202   6.619   6.678   8.655 -1.8957 -0.7098 -1.6230
 6749SOL    HW223203   6.761   6.624   8.646 -1.3466  0.0288  1.5330
 6750SOL     OW23204   2.189   5.289   2.066 -0.1105 -0.2483 -0.0970
 6750SOL    HW123205   2.186   5.335   1.982 -0.0327 -0.9964 -0.5157
 6750SOL    HW223206   2.282   5.282   2.087 -0.1724  2.3686  1.4327
 6751SOL     OW23207   0.020  10.376   6.294 -0.3990 -0.3978 -0.3854
 6751SOL    HW123208   0.069  10.436   6.239  0.0809 -0.8310 -0.4296
 6751SOL    HW223209   0.011  10.422   6.378  0.8331 -0.6681 -0.0928
 6752SOL     OW23210   6.751   1.359   3.240  0.4013  0.1839 -0.0934
 6752SOL    HW123211   6.791   1.280   3.205  2.0518  1.7865 -2.1400
 6752SOL    HW223212   6.684   1.382   3.176 -0.7416 -0.0394  0.9889
 6753SOL     OW23213  10.587   9.046   1.734  0.0021 -0.3707 -0.5590
 6753SOL    HW123214  10.638   9.126   1.723 -0.2682 -0.1067  0.0477
 6753SOL    HW223215  10.614   8.990   1.662  0.3831  0.1692 -0.8406
 6754SOL     OW23216   6.280   2.662  10.281 -0.3123 -0.7556 -0.1100
 6754SOL    HW123217   6.226   2.700  10.212  1.0062  0.3527 -0.5831
 6754SOL    HW223218   6.367   2.699  10.267  0.5243 -2.2497  0.7976
 6755SOL     OW23219   2.521   7.171   9.493 -0.0905  0.6544  1.3482
 6755SOL    HW123220   2.466   7.246   9.469 -0.7021  0.3746  1.8540
 6755SOL    HW223221   2.524   7.118   9.413  1.1194  1.6587  0.6832
 6756SOL     OW23222   2.443   5.643  10.482  0.1752  0.0577  0.1438
 6756SOL    HW123223   2.432   5.578  10.412 -0.5584  0.4315 -0.0947
 6756SOL    HW223224   2.486   5.717  10.439  3.8869 -1.3508  1.0396
 6757SOL     OW23225   8.270   3.768   7.039  0.3747 -0.7011 -0.2385
 6757SOL    HW123226   8.305   3.762   6.950 -1.0899 -0.2575 -0.8716
 6757SOL    HW223227   8.206   3.840   7.035  1.7879  0.7736  1.7001
 6758SOL     OW23228   7.062   9.994   4.251  0.3495 -0.2368  0.3937
 6758SOL    HW123229   7.057   9.932   4.323 -0.5867  0.3966  0.9039
 6758SOL    HW223230   7.071   9.940   4.173 -0.3655 -1.0229  0.8393
 6759SOL     OW23231   5.379   4.068  10.343  0.1532 -1.1013 -0.0257
 6759SOL    HW123232   5.357   4.068  10.250  0.6525  0.9648 -0.1865
 6759SOL    HW223233   5.295   4.055  10.387 -0.6213  1.1719 -0.7370
 6760SOL     OW23234   2.219  10.111   9.836  0.7005 -0.3482 -0.2171
 6760SOL    HW123235   2.130  10.096   9.866  0.0576 -0.2120 -1.9805
 6760SOL    HW223236   2.246  10.027   9.797  1.2905 -0.3308  0.1294
 6761SOL     OW23237   3.835   0.409  10.160 -0.2720  0.1510  0.7556
 6761SOL    HW123238   3.896   0.344  10.195  0.7126  0.7575  0.2029
 6761SOL    HW223239   3.875   0.493  10.180 -1.9953  0.6714  2.3042
 6762SOL     OW23240   5.600   2.705   1.240 -0.3987  0.2567  0.5020
 6762SOL    HW123241   5.649   2.623   1.236 -1.0363 -0.1117  0.2067
 6762SOL    HW223242   5.595   2.725   1.334  0.0902  0.1659  0.5506
 6763SOL     OW23243   5.567   1.409   2.045 -0.2705 -0.0167  0.2013
 6763SOL    HW123244   5.641   1.446   2.093 -1.0836  1.9624  0.0222
 6763SOL    HW223245   5.515   1.485   2.018 -1.1674 -1.2109 -1.6578
 6764SOL     OW23246   9.396   7.514   4.939  0.1139 -0.3901  0.8079
 6764SOL    HW123247   9.380   7.541   4.849 -0.4568 -0.2509  0.9453
 6764SOL    HW223248   9.460   7.443   4.932  0.9113  0.3514  0.3746
 6765SOL     OW23249   0.536   2.274   9.990 -0.5876 -0.6086 -0.8124
 6765SOL    HW123250   0.487   2.355  10.001 -1.9915 -1.4974 -0.2211
 6765SOL    HW223251   0.614   2.285  10.043 -0.9538  0.2038 -0.4288
 6766SOL     OW23252   1.581   0.724   4.697  0.1333  0.4696  0.5723
 6766SOL    HW123253   1.594   0.710   4.603  0.3000  3.2265  0.0885
 6766SOL    HW223254   1.503   0.672   4.719 -0.1160  0.0493 -1.1759
 6767SOL     OW23255  10.317  10.119   2.903  0.3947  0.3204  0.3525
 6767SOL    HW123256  10.277  10.083   2.824 -0.3991  0.4151  0.6970
 6767SOL    HW223257  10.345  10.207   2.878  2.9488 -0.6883 -0.6871
 6768SOL     OW23258   2.673   1.150   8.029 -0.0516  0.4382 -0.1321
 6768SOL    HW123259   2.646   1.242   8.030  1.3850  0.8889  1.2854
 6768SOL    HW223260   2.752   1.147   8.083  1.2808 -1.2328 -2.0124
 6769SOL     OW23261   9.317   8.518   1.471  0.4276 -0.2534 -0.2016
 6769SOL    HW123262   9.356   8.466   1.541 -0.3977 -0.6432 -0.0172
 6769SOL    HW223263   9.355   8.605   1.481  1.7650 -0.7875 -0.4659
 6770SOL     OW23264   1.604   3.080   2.547  0.0365  0.4871 -0.3174
 6770SOL    HW123265   1.641   3.021   2.481 -0.0589  1.7023 -1.4932
 6770SOL    HW223266   1.556   3.022   2.607 -0.1193 -0.6254 -1.4792
 6771SOL     OW23267   7.662   6.450   9.413  0.4673  0.3940  0.1472
 6771SOL    HW123268   7.615   6.406   9.484 -0.6997 -0.1222 -0.9121
 6771SOL    HW223269   7.733   6.390   9.390 -0.5206 -0.5280 -0.6188
 6772SOL     OW23270   8.744   2.629   6.966  0.4485 -0.3422  0.6370
 6772SOL    HW123271   8.682   2.563   6.935  0.5016 -0.2039  0.2287
 6772SOL    HW223272   8.816   2.579   7.004  0.6970 -0.5326 -0.0699
 6773SOL     OW23273   2.222   0.201   6.688 -0.3263 -0.0952 -0.0174
 6773SOL    HW123274   2.272   0.133   6.734  1.7457  2.5095  1.8748
 6773SOL    HW223275   2.271   0.218   6.608 -0.9703 -0.9125 -0.6051
 6774SOL     OW23276   6.646   5.888   3.266  0.2073  0.0320 -0.7427
 6774SOL    HW123277   6.595   5.819   3.223 -0.8441  1.0295 -1.1276
 6774SOL    HW223278   6.585   5.962   3.273  0.9364  0.5169  0.7739
 6775SOL     OW23279   9.500   1.962   7.248  0.0546  0.0479  0.0361
 6775SOL    HW123280   9.424   1.917   7.211 -0.3611  0.4808  0.3528
 6775SOL    HW223281   9.570   1.896   7.248 -0.4839 -0.5296  0.2986
 6776SOL     OW23282  10.319   2.968   4.481  0.3051  0.0187  0.0940
 6776SOL    HW123283  10.387   2.949   4.545  1.1852 -0.8450 -1.0445
 6776SOL    HW223284  10.361   2.953   4.396 -1.1646 -0.0872 -0.6549
 6777SOL     OW23285   5.562   6.382   0.271 -0.4501 -0.2605  0.3407
 6777SOL    HW123286   5.472   6.368   0.300  0.2708  0.6004  3.3381
 6777SOL    HW223287   5.616   6.353   0.344  1.5539  2.5154  0.1456
 6778SOL     OW23288   5.013  10.077  10.048 -0.3848  0.1194  0.6047
 6778SOL    HW123289   5.045  10.127   9.973  1.5644 -0.4647  1.0017
 6778SOL    HW223290   5.056  10.117  10.124  0.5320 -1.5402  1.0156
 6779SOL     OW23291   5.605   9.754   0.208  0.0622 -0.5549 -0.1168
 6779SOL    HW123292   5.650   9.739   0.125 -2.9535 -1.2760 -1.7708
 6779SOL    HW223293   5.614   9.671   0.255  0.8902 -0.4954 -0.1571
 6780SOL     OW23294   0.630  10.261   2.738  0.1176  1.4345 -0.0855
 6780SOL    HW123295   0.620  10.191   2.802  0.9189  1.1592 -0.2482
 6780SOL    HW223296   0.608  10.341   2.786 -1.0166  1.0582  0.0412
 6781SOL     OW23297   4.332   5.900   3.586  0.4547  0.8099  0.1246
 6781SOL    HW123298   4.365   5.812   3.603 -0.7347  0.0787 -1.1594
 6781SOL    HW223299   4.382   5.956   3.645  1.5767 -0.6567  0.6250
 6782SOL     OW23300   8.958   2.006   6.121 -0.4053  0.5646  0.4051
 6782SOL    HW123301   8.992   2.094   6.110 -0.6341  0.5421 -0.6538
 6782SOL    HW223302   8.978   1.962   6.038 -1.3501 -0.0112  0.4656
 6783SOL     OW23303   1.947   2.729   3.550  0.2665 -0.0295 -0.0747
 6783SOL    HW123304   1.992   2.800   3.597 -0.4094  1.0988 -1.0758
 6783SOL    HW223305   2.013   2.695   3.490  0.0595  1.1030 -0.9880
 6784SOL     OW23306   2.046   7.357   3.756  0.1965 -0.1229  0.0227
 6784SOL    HW123307   2.017   7.284   3.811 -1.0108  1.2630  1.2952
 6784SOL    HW223308   1.973   7.373   3.696  0.9234 -0.6684 -1.0466
 6785SOL     OW23309   7.948   9.949   1.975 -0.3228 -0.1305 -0.3558
 6785SOL    HW123310   7.890   9.959   1.900 -1.6527  1.3513  0.7850
 6785SOL    HW223311   7.947   9.855   1.994 -1.7793 -0.2358 -0.8311
 6786SOL     OW23312   3.099   0.731   8.168 -0.1575  0.6078  0.4633
 6786SOL    HW123313   3.191   0.757   8.175  0.9361 -2.7362  0.3645
 6786SOL    HW223314   3.074   0.757   8.079  1.4428 -0.3581 -0.3215
 6787SOL     OW23315   1.582   7.330   7.546  0.3558 -0.2367 -0.0991
 6787SOL    HW123316   1.581   7.425   7.552 -3.4789 -0.1628  0.7772
 6787SOL    HW223317   1.497   7.307   7.509  0.5607 -3.3556  1.0485
 6788SOL     OW23318   6.661   1.796   7.495 -0.2837 -0.0015  0.1295
 6788SOL    HW123319   6.692   1.721   7.546  1.1043 -0.2500 -1.0112
 6788SOL    HW223320   6.722   1.866   7.517  0.6837 -0.2708 -1.5602
 6789SOL     OW23321   8.774   0.851   3.725  0.1786  0.0199 -0.1164
 6789SOL    HW123322   8.848   0.909   3.743 -0.3269  0.7439 -0.3651
 6789SOL    HW223323   8.700   0.890   3.771 -0.1467 -0.4710 -0.2161
 6790SOL     OW23324   4.730   5.292   5.549  0.2070  0.0253  0.6224
 6790SOL    HW123325   4.654   5.300   5.607  0.2395  0.7376  0.5728
 6790SOL    HW223326   4.700   5.235   5.478 -0.5739  1.0199  0.1317
 6791SOL     OW23327   3.765   5.529   8.901  0.0407 -0.0194 -0.3070
 6791SOL    HW123328   3.713   5.605   8.930 -1.5394 -0.6134 -1.4204
 6791SOL    HW223329   3.830   5.517   8.970 -0.8215  1.2415  0.7872
 6792SOL     OW23330   5.705   3.468   9.815 -0.6153 -0.4869  0.1982
 6792SOL    HW123331   5.796   3.462   9.845  0.2709 -0.8723 -2.3845
 6792SOL    HW223332   5.678   3.557   9.839  1.7244  1.0029 -2.2198
 6793SOL     OW23333   0.940   8.844   6.866  0.3035 -0.0075 -0.4397
 6793SOL    HW123334   0.904   8.865   6.780 -0.1086  0.1155 -0.2408
 6793SOL    HW223335   0.902   8.909   6.924  1.4525  0.6045 -0.3469
 6794SOL     OW23336   4.982   4.685   9.275  0.4636  0.9466  0.0794
 6794SOL    HW123337   4.985   4.602   9.323 -4.3435  1.6694  2.1098
 6794SOL    HW223338   4.986   4.753   9.342 -2.4332  2.1023 -0.7763
 6795SOL     OW23339   3.969   1.566   6.050 -0.1098 -0.3073 -0.1766
 6795SOL    HW123340   3.901   1.499   6.056  0.1678 -0.6770 -0.9420
 6795SOL    HW223341   3.958   1.604   5.963  0.4638 -0.1579 -0.1906
 6796SOL     OW23342   9.282   0.231   3.198 -0.4361  0.5812 -0.2467
 6796SOL    HW123343   9.258   0.324   3.200  0.9209  0.9822  1.7428
 6796SOL    HW223344   9.227   0.191   3.265 -1.3198 -0.1662 -1.3973
 6797SOL     OW23345   1.838  10.277   0.981  0.3624 -0.1323 -0.5142
 6797SOL    HW123346   1.879  10.359   0.954  0.6168 -0.2968 -0.6320
 6797SOL    HW223347   1.746  10.300   0.995  0.5153  0.2718 -0.1151
 6798SOL     OW23348   3.324   8.825   7.830 -0.1228 -0.4760  0.1541
 6798SOL    HW123349   3.316   8.739   7.871  1.5287 -0.8203 -0.1876
 6798SOL    HW223350   3.296   8.811   7.739  1.6814 -1.0708 -0.3493
 6799SOL     OW23351   7.575   8.787   0.663 -0.0757 -0.2792  0.0607
 6799SOL    HW123352   7.601   8.872   0.629  2.9109 -1.7995 -1.9404
 6799SOL    HW223353   7.510   8.755   0.600 -0.7010  0.2045  0.4470
 6800SOL     OW23354   5.537   6.206   6.981  0.1080 -0.0167 -0.1838
 6800SOL    HW123355   5.563   6.155   7.058 -0.0203  0.2774  0.0559
 6800SOL    HW223356   5.530   6.142   6.911  0.7026 -0.2182 -0.0647
 6801SOL     OW23357   8.701   0.348   9.262 -0.0458 -0.2259  0.3062
 6801SOL    HW123358   8.611   0.316   9.255 -0.0631  0.1022 -1.4649
 6801SOL    HW223359   8.745   0.312   9.185  1.1898  0.0996  0.8379
 6802SOL     OW23360   2.005   1.209   5.196  0.6834  0.3626  0.4035
 6802SOL    HW123361   1.946   1.137   5.214  1.5761 -0.5446 -0.1504
 6802SOL    HW223362   2.063   1.212   5.272  1.5930 -0.5176 -0.2198
 6803SOL     OW23363   7.673   8.289   0.051  0.2090  0.2775  0.0425
 6803SOL    HW123364   7.729   8.280  -0.026  0.2614 -0.0903  0.1237
 6803SOL    HW223365   7.591   8.326   0.017 -0.3376 -1.2894 -0.4418
 6804SOL     OW23366   4.347   2.492   0.201 -0.0571 -0.6931  0.1615
 6804SOL    HW123367   4.285   2.470   0.131  1.1502  0.7467 -1.4634
 6804SOL    HW223368   4.293   2.505   0.278 -2.1276  2.4972 -1.6114
 6805SOL     OW23369   1.513   7.932   8.410  0.2057 -0.7775 -0.4807
 6805SOL    HW123370   1.572   8.006   8.395  1.3976 -2.0789 -2.8571
 6805SOL    HW223371   1.568   7.866   8.451 -0.3974 -0.9624  0.0409
 6806SOL     OW23372   2.135   7.351   6.535 -0.2597  0.4306  0.3942
 6806SOL    HW123373   2.140   7.323   6.626  1.7706  0.2209  0.2765
 6806SOL    HW223374   2.042   7.348   6.513 -0.8280  0.9016  2.5666
 6807SOL     OW23375   0.484   7.226   1.129  0.0862 -0.3499 -0.0861
 6807SOL    HW123376   0.516   7.261   1.213 -1.8029  1.3237  0.0314
 6807SOL    HW223377   0.389   7.232   1.136 -0.1221 -0.2126 -2.3516
 6808SOL     OW23378   1.270   3.061   8.614  0.2876  0.5887 -0.3763
 6808SOL    HW123379   1.303   2.986   8.663 -3.2609 -0.2855  0.9836
 6808SOL    HW223380   1.224   3.023   8.540  1.6515  1.7032 -1.8640
 6809SOL     OW23381   5.924   9.756   0.202 -0.5050  0.1510 -0.5776
 6809SOL    HW123382   5.977   9.676   0.202 -2.0402 -1.0022  1.9027
 6809SOL    HW223383   5.867   9.747   0.125 -0.0057 -0.6928 -0.8641
 6810SOL     OW23384   5.892  10.015   1.168 -0.1195  0.0368  0.1603
 6810SOL    HW123385   5.920  10.052   1.251 -1.1623 -0.7625  0.8969
 6810SOL    HW223386   5.832   9.944   1.192 -0.7293  0.0247 -1.2748
 6811SOL     OW23387  10.201   1.870   7.107  0.0016  1.1001  0.4990
 6811SOL    HW123388  10.162   1.935   7.165  1.4236  1.1243  1.4803
 6811SOL    HW223389  10.277   1.914   7.068 -0.8779  1.0691 -1.4044
 6812SOL     OW23390   2.027   7.180   1.393  0.1683 -0.3143 -0.1239
 6812SOL    HW123391   2.053   7.153   1.481  1.5207 -0.7052 -0.6210
 6812SOL    HW223392   2.036   7.275   1.393  0.5481 -0.3515  0.0409
 6813SOL     OW23393   0.908   2.972   0.240  0.1560 -0.3088 -0.3548
 6813SOL    HW123394   0.953   3.000   0.160  0.0450  0.5083 -0.1364
 6813SOL    HW223395   0.827   2.933   0.208  0.8640 -1.5151 -0.7311
 6814SOL     OW23396   6.928   4.938   7.248  0.4041 -0.0744  0.2715
 6814SOL    HW123397   6.870   4.862   7.235  2.5196 -2.2146  2.2077
 6814SOL    HW223398   7.003   4.920   7.192  0.9102  0.6304  0.7142
 6815SOL     OW23399   9.179   2.603   8.102  0.0334 -0.2892  0.0669
 6815SOL    HW123400   9.164   2.682   8.153  0.1521 -0.0429 -0.2754
 6815SOL    HW223401   9.119   2.611   8.027  0.5439 -0.1895 -0.3340
 6816SOL     OW23402   1.095   9.944   6.665 -0.2307 -0.0663 -0.1614
 6816SOL    HW123403   1.166   9.963   6.604  2.3010 -1.6276  2.0825
 6816SOL    HW223404   1.058  10.030   6.687  2.1793  1.0248 -0.0757
 6817SOL     OW23405   4.114   7.163   3.086 -0.4511 -0.1160 -0.2262
 6817SOL    HW123406   4.080   7.131   3.170 -1.7981  1.3690 -0.1500
 6817SOL    HW223407   4.162   7.089   3.050 -1.3279 -1.3691  1.0604
 6818SOL     OW23408   6.562   9.235   5.142 -0.3128 -0.3041 -0.2538
 6818SOL    HW123409   6.644   9.199   5.174 -0.0494 -0.0980 -0.6958
 6818SOL    HW223410   6.587   9.299   5.075 -0.6895  1.8184  1.5218
 6819SOL     OW23411   7.243   8.244   0.099 -0.0843  0.2565  0.1907
 6819SOL    HW123412   7.274   8.284   0.180 -2.4810  2.9056 -0.0410
 6819SOL    HW223413   7.150   8.229   0.114 -0.5687  0.7304 -2.0316
 6820SOL     OW23414   8.903   2.606   8.925 -0.1626  0.1373 -0.1987
 6820SOL    HW123415   8.883   2.537   8.988 -3.2384  1.4138  0.3960
 6820SOL    HW223416   8.953   2.561   8.856 -1.5421 -2.5832  0.4215
 6821SOL     OW23417   7.664   4.665   4.481 -0.0946 -0.6386 -0.4979
 6821SOL    HW123418   7.609   4.737   4.451 -0.2655 -0.4268  0.2900
 6821SOL    HW223419   7.747   4.706   4.504 -0.1677 -0.7032 -0.1172
 6822SOL     OW23420   8.309   2.341   1.732 -0.0494  0.3563  0.7271
 6822SOL    HW123421   8.249   2.384   1.671  1.3123  1.3222  0.0082
 6822SOL    HW223422   8.373   2.409   1.755  1.4374 -0.9208  0.5613
 6823SOL     OW23423   4.693   3.459   3.676 -0.3108 -0.4192  0.2199
 6823SOL    HW123424   4.638   3.497   3.608 -1.8078 -1.5416  0.7614
 6823SOL    HW223425   4.739   3.388   3.632  1.3093  0.9348 -0.4028
 6824SOL     OW23426   4.169   7.862   2.071 -0.4273 -0.3355  0.6639
 6824SOL    HW123427   4.233   7.825   2.010  0.9316 -0.1642  1.9057
 6824SOL    HW223428   4.128   7.934   2.023  0.2745 -0.4886 -0.1908
 6825SOL     OW23429   4.429  10.251   7.174  0.2019  0.4080 -0.3142
 6825SOL    HW123430   4.343  10.224   7.207 -0.4008  1.7599 -0.6979
 6825SOL    HW223431   4.445  10.337   7.214  2.8265 -1.1027  2.2043
 6826SOL     OW23432   9.845   9.052   5.297 -0.4540 -0.0690  0.3057
 6826SOL    HW123433   9.878   9.037   5.209  2.0726 -2.6578  1.5036
 6826SOL    HW223434   9.793   8.975   5.317  1.4029 -1.0162  1.9523
 6827SOL     OW23435   5.161   7.097   3.553 -0.2504  0.6507  0.2401
 6827SOL    HW123436   5.091   7.154   3.584 -0.6206 -0.7216  2.1258
 6827SOL    HW223437   5.242   7.143   3.576 -0.5433  0.8751  0.8311
 6828SOL     OW23438   3.884   2.138   2.329  0.2562  0.3003  0.1964
 6828SOL    HW123439   3.932   2.070   2.376 -0.6070 -1.6533 -1.5835
 6828SOL    HW223440   3.921   2.137   2.241  0.4387  2.4133  0.2155
 6829SOL     OW23441   6.924   6.602   0.905 -0.3280  0.0525 -0.5247
 6829SOL    HW123442   6.997   6.546   0.878 -1.4277 -1.3062 -0.7926
 6829SOL    HW223443   6.908   6.658   0.830 -1.1049 -1.3209 -1.4313
 6830SOL     OW23444   3.790   9.793   3.734  0.6017 -0.1857 -0.5031
 6830SOL    HW123445   3.798   9.732   3.806 -1.1497  2.9769  2.6903
 6830SOL    HW223446   3.732   9.750   3.671 -0.3925 -1.8709  1.4710
 6831SOL     OW23447   2.616   6.353   4.900 -0.1416 -0.7614  0.1362
 6831SOL    HW123448   2.671   6.350   4.977  2.4027  0.2847 -1.5145
 6831SOL    HW223449   2.538   6.402   4.928  1.8320  1.8995  1.4549
 6832SOL     OW23450   2.675   6.646   0.250  0.0528  0.1666  0.1601
 6832SOL    HW123451   2.734   6.719   0.232  1.5471 -1.1646 -0.6336
 6832SOL    HW223452   2.630   6.671   0.331  2.4616  0.8254  1.3814
 6833SOL     OW23453   1.480   0.166   6.172 -0.6539  0.3345 -0.2332
 6833SOL    HW123454   1.561   0.127   6.205 -0.1640  1.3600 -0.1875
 6833SOL    HW223455   1.487   0.160   6.077  0.7997  2.8732 -0.3867
 6834SOL     OW23456   2.133   1.486   9.553 -0.0434  0.1228  0.0544
 6834SOL    HW123457   2.153   1.580   9.562  0.3884  0.0171  0.2254
 6834SOL    HW223458   2.060   1.471   9.614  0.0510  0.2961  0.2101
 6835SOL     OW23459   1.960   8.336   7.084  0.6794 -0.3721 -0.8755
 6835SOL    HW123460   2.000   8.330   7.170  0.4292  0.9112 -0.6486
 6835SOL    HW223461   2.024   8.383   7.031 -0.1788  1.0727 -0.6941
 6836SOL     OW23462   8.124   4.661   9.194  0.5272 -0.3838 -0.1506
 6836SOL    HW123463   8.154   4.684   9.282 -1.7202  2.2805  0.0690
 6836SOL    HW223464   8.086   4.574   9.204  0.4907 -0.2150  1.5163
 6837SOL     OW23465  10.656   7.911   2.019  0.1381 -0.1303 -0.1669
 6837SOL    HW123466  10.709   7.832   2.018 -0.0362 -0.2959  1.0807
 6837SOL    HW223467  10.708   7.977   1.973  1.6457 -0.1746  1.3742
 6838SOL     OW23468   9.441   3.667   2.920 -0.2505 -0.0967 -0.6937
 6838SOL    HW123469   9.356   3.623   2.919  0.7288 -2.0959 -1.7424
 6838SOL    HW223470   9.441   3.722   2.842 -0.1525 -0.9929 -1.3334
 6839SOL     OW23471   4.218   4.133   2.105 -0.3844 -0.1313 -0.6593
 6839SOL    HW123472   4.246   4.109   2.193 -0.7659 -0.3674 -0.6022
 6839SOL    HW223473   4.122   4.132   2.108 -0.4176  0.9501 -0.7772
 6840SOL     OW23474   8.891   5.097   6.715  0.2512  0.3930  0.5267
 6840SOL    HW123475   8.908   5.011   6.679  0.8460  1.3652 -1.6951
 6840SOL    HW223476   8.819   5.083   6.777 -0.4182 -1.5178 -0.5930
 6841SOL     OW23477   3.647   9.805   9.141 -0.2712  0.1912 -0.4229
 6841SOL    HW123478   3.732   9.781   9.179  0.0883  1.9554 -0.0043
 6841SOL    HW223479   3.651   9.773   9.051  0.7369  0.0361 -0.3335
 6842SOL     OW23480   4.014   0.834   6.634 -0.5844 -0.5555  0.1269
 6842SOL    HW123481   4.055   0.897   6.695 -1.4846 -0.8429  1.0670
 6842SOL    HW223482   4.069   0.756   6.640 -1.1999 -0.9243  1.3465
 6843SOL     OW23483   9.375  10.440   5.198  0.2726  0.4313 -0.0679
 6843SOL    HW123484   9.447  10.442   5.261 -0.1942  2.4253  0.4838
 6843SOL    HW223485   9.405  10.381   5.129  1.8169  0.0790  0.8670
 6844SOL     OW23486  10.553   1.129   4.703  0.0552 -0.2438  0.5004
 6844SOL    HW123487  10.575   1.159   4.791 -0.5123 -2.1589  1.3473
 6844SOL    HW223488  10.459   1.146   4.696  0.3171  1.0605 -0.2614
 6845SOL     OW23489   4.329   9.761   2.254  0.0778  0.0204  0.4947
 6845SOL    HW123490   4.237   9.781   2.270 -0.3845 -1.0323 -0.6132
 6845SOL    HW223491   4.353   9.815   2.178  0.2050 -0.1047  0.4438
 6846SOL     OW23492   2.647   5.405   5.476 -0.2790  0.3083  0.3380
 6846SOL    HW123493   2.726   5.458   5.471 -0.4415  0.5674  0.5453
 6846SOL    HW223494   2.583   5.460   5.520 -0.8771  0.4764 -0.6956
 6847SOL     OW23495   4.868   9.935   3.276 -1.4468  0.3549 -0.3448
 6847SOL    HW123496   4.778   9.903   3.279 -1.7579  1.2332  0.3453
 6847SOL    HW223497   4.902   9.920   3.364 -0.6040 -0.7749 -0.8348
 6848SOL     OW23498   9.920   0.297   1.132 -0.3493  0.4607  0.3904
 6848SOL    HW123499   9.944   0.388   1.115  0.3163  0.1677 -0.2822
 6848SOL    HW223500   9.938   0.251   1.050  1.4614 -0.6989  1.3469
 6849SOL     OW23501   7.617   0.882   5.759  0.3132  0.0653  0.3431
 6849SOL    HW123502   7.643   0.885   5.851  3.6155 -0.9973 -0.4239
 6849SOL    HW223503   7.665   0.808   5.723 -2.0767 -0.5160 -1.9888
 6850SOL     OW23504   7.781   8.652   3.249  0.2143  0.4210  0.3893
 6850SOL    HW123505   7.735   8.591   3.307  1.2185  1.1934  2.0817
 6850SOL    HW223506   7.723   8.728   3.243  0.0153  0.2552  0.2092
 6851SOL     OW23507   1.363   1.739   0.377 -0.0865 -0.5034 -0.4213
 6851SOL    HW123508   1.395   1.663   0.329 -0.9754 -1.1235 -0.0590
 6851SOL    HW223509   1.274   1.753   0.345  0.5739  1.3562 -1.6044
 6852SOL     OW23510   6.395   0.599   3.502 -0.3735  0.6994  0.1539
 6852SOL    HW123511   6.352   0.599   3.417 -0.3801  3.9693  0.0572
 6852SOL    HW223512   6.462   0.531   3.495 -1.3731 -0.1509 -1.8981
 6853SOL     OW23513   1.625  10.599   5.758 -0.3623 -0.1699  0.0675
 6853SOL    HW123514   1.622  10.525   5.819  0.6892 -1.7283 -1.6623
 6853SOL    HW223515   1.695  10.656   5.793  0.8409 -1.4835 -0.1130
 6854SOL     OW23516   9.666   4.843   7.436 -0.1185 -0.1326 -0.0706
 6854SOL    HW123517   9.625   4.917   7.480 -0.8630 -0.3183 -0.4292
 6854SOL    HW223518   9.750   4.877   7.404 -0.7205  0.7476 -0.7831
 6855SOL     OW23519   4.754   8.014   3.124 -0.3430 -0.4504 -0.1840
 6855SOL    HW123520   4.687   8.077   3.100  1.1544  2.1684  1.9769
 6855SOL    HW223521   4.712   7.956   3.187 -0.9654  0.2877  0.0873
 6856SOL     OW23522   5.669   7.775   8.646 -0.0386  0.0403 -0.0355
 6856SOL    HW123523   5.731   7.797   8.577  0.0554  1.8074  0.5493
 6856SOL    HW223524   5.713   7.709   8.699  0.9055  0.4756 -0.2595
 6857SOL     OW23525   0.687  10.525   7.437  0.1518 -0.4749  0.3543
 6857SOL    HW123526   0.689  10.515   7.342  1.0376 -0.5156  0.3709
 6857SOL    HW223527   0.755  10.590   7.455 -1.2257  0.9273  0.8089
 6858SOL     OW23528  10.110   4.365   0.335  0.8856  0.5442 -0.5741
 6858SOL    HW123529  10.030   4.416   0.343  0.5644  0.0882 -0.8590
 6858SOL    HW223530  10.173   4.425   0.295 -0.0366  0.1765 -2.6999
 6859SOL     OW23531   5.250   0.675   5.451 -0.4026 -0.0560  0.2315
 6859SOL    HW123532   5.328   0.724   5.427  0.1160 -1.8791 -2.3054
 6859SOL    HW223533   5.253   0.670   5.547  0.5263  3.0358  0.4594
 6860SOL     OW23534   4.879   9.222   9.242  0.0324 -0.1130 -0.0892
 6860SOL    HW123535   4.895   9.139   9.289  1.4341 -0.2973 -0.8326
 6860SOL    HW223536   4.908   9.204   9.153  0.7612  1.3120 -0.1575
 6861SOL     OW23537   0.852   8.178   5.530  0.8479  0.2697  0.2495
 6861SOL    HW123538   0.786   8.227   5.479 -0.5275 -1.3006  0.4333
 6861SOL    HW223539   0.884   8.242   5.594  1.4471  1.8218 -1.5273
 6862SOL     OW23540  10.614   8.258   1.950 -1.0311 -0.4777 -0.0769
 6862SOL    HW123541  10.678   8.212   1.895 -0.7198 -0.3368  0.1678
 6862SOL    HW223542  10.650   8.253   2.038 -1.3743 -0.4238  0.0654
 6863SOL     OW23543   7.126   8.652   4.839 -0.0081 -0.0528 -0.0031
 6863SOL    HW123544   7.053   8.643   4.901  0.4093  1.7954  0.8291
 6863SOL    HW223545   7.089   8.698   4.764  0.5940  2.5087  1.1593
 6864SOL     OW23546   8.245   5.464   1.970  0.3613 -0.0541 -0.1780
 6864SOL    HW123547   8.216   5.463   1.879 -0.1543 -0.2523 -0.0148
 6864SOL    HW223548   8.183   5.523   2.014 -0.3688 -1.1897  0.3504
 6865SOL     OW23549   2.345   3.931   5.702  0.4659 -0.4159 -0.0146
 6865SOL    HW123550   2.399   3.987   5.759 -0.5555 -0.9896  1.5912
 6865SOL    HW223551   2.408   3.871   5.662  1.1981 -0.1901  0.7488
 6866SOL     OW23552  10.525   9.281   3.413  0.1198 -0.2246  0.7337
 6866SOL    HW123553  10.609   9.325   3.396 -0.3616  0.4054 -0.0654
 6866SOL    HW223554  10.550   9.191   3.433  0.9473 -0.3296 -0.5947
 6867SOL     OW23555   7.086   7.312   9.736 -0.1427  0.3519 -0.4110
 6867SOL    HW123556   7.068   7.225   9.701 -0.0041  0.4306 -0.6833
 6867SOL    HW223557   7.181   7.320   9.733 -0.1603  0.5480 -0.4795
 6868SOL     OW23558   6.385   9.141   2.403 -0.1026 -0.2218  0.1737
 6868SOL    HW123559   6.479   9.159   2.410 -0.5268  1.8389  1.0408
 6868SOL    HW223560   6.375   9.052   2.438  1.2769  0.2518  1.9077
 6869SOL     OW23561   7.176   1.699   6.349 -0.0942  0.5443 -0.3246
 6869SOL    HW123562   7.253   1.644   6.337 -0.1402 -0.1485  2.1870
 6869SOL    HW223563   7.208   1.789   6.336  0.9397  0.2070 -0.1624
 6870SOL     OW23564   7.265   3.477   0.343  0.1651 -0.1621 -0.4648
 6870SOL    HW123565   7.328   3.406   0.340  1.2009  0.7415 -0.7445
 6870SOL    HW223566   7.198   3.448   0.405  1.5106 -0.6039  0.8294
 6871SOL     OW23567   7.181   0.622   4.277  0.0826  0.0575  0.2582
 6871SOL    HW123568   7.151   0.553   4.217 -0.2903  3.7899 -4.4296
 6871SOL    HW223569   7.102   0.648   4.325  0.0028 -1.8870  1.2804
 6872SOL     OW23570   5.276   7.113   6.042  0.3530  0.6767 -0.0577
 6872SOL    HW123571   5.289   7.037   6.098  0.3014  0.8817  0.2321
 6872SOL    HW223572   5.337   7.099   5.969 -0.5984 -0.3083 -0.6984
 6873SOL     OW23573   1.902   8.071   0.237  0.4568  0.0042 -0.3446
 6873SOL    HW123574   1.969   8.057   0.304 -0.6983  1.7244  1.2947
 6873SOL    HW223575   1.930   8.151   0.192  1.6889 -1.6089 -2.6229
 6874SOL     OW23576   6.977   9.534   4.176 -0.2008 -0.0637 -0.3079
 6874SOL    HW123577   7.029   9.456   4.160  0.6187  0.4106  0.0042
 6874SOL    HW223578   6.886   9.505   4.167  0.0859 -1.1437  0.2650
 6875SOL     OW23579   1.788   4.037   4.047  0.1704 -0.2312  0.0112
 6875SOL    HW123580   1.856   4.060   3.983 -0.0066 -1.2699 -0.5749
 6875SOL    HW223581   1.742   4.120   4.064 -0.1257 -0.0147 -1.6278
 6876SOL     OW23582   5.098   2.109   6.706  0.0252  0.4145 -0.3071
 6876SOL    HW123583   5.100   2.014   6.712 -1.0418  0.4437  0.9180
 6876SOL    HW223584   5.017   2.129   6.659 -1.3128  0.7601  2.0096
 6877SOL     OW23585   9.993   1.012   5.897  0.0851 -0.2136 -0.0176
 6877SOL    HW123586   9.956   1.030   5.810 -0.0376  0.0148  0.0821
 6877SOL    HW223587   9.990   1.096   5.942  2.1196  0.1770 -0.5282
 6878SOL     OW23588   4.575   7.637   1.343  0.1545 -0.5588 -0.3645
 6878SOL    HW123589   4.519   7.606   1.414 -0.5108  1.1718 -0.0845
 6878SOL    HW223590   4.653   7.672   1.388  0.4475 -0.9046 -0.5995
 6879SOL     OW23591   8.213   2.356   7.826  0.2046  0.4826 -0.3673
 6879SOL    HW123592   8.223   2.420   7.756  2.5685 -0.5395 -1.0428
 6879SOL    HW223593   8.228   2.272   7.784 -0.8053 -0.3756  0.9153
 6880SOL     OW23594   3.076   0.900   4.952 -0.2049  0.4051  0.3750
 6880SOL    HW123595   3.168   0.917   4.936 -0.1863 -0.4837 -0.5346
 6880SOL    HW223596   3.030   0.971   4.907  0.0466  1.5578  1.8627
 6881SOL     OW23597   6.849   3.961   3.059  0.1635 -0.2808  0.3472
 6881SOL    HW123598   6.929   3.916   3.087  0.3268  0.1240  0.5412
 6881SOL    HW223599   6.864   4.052   3.082 -0.0053 -0.0616 -0.3923
 6882SOL     OW23600   7.879   5.669   0.101 -0.0684 -0.5675  0.0747
 6882SOL    HW123601   7.803   5.634   0.055 -0.6597  0.6068  0.1249
 6882SOL    HW223602   7.904   5.747   0.051  0.8470 -0.7027  0.2992
 6883SOL     OW23603   0.372   4.359   4.543 -0.0446  0.0856  0.2989
 6883SOL    HW123604   0.406   4.288   4.597 -0.3620 -0.6370 -0.4229
 6883SOL    HW223605   0.389   4.331   4.453  0.2126  1.1296  0.0093
 6884SOL     OW23606   6.921   9.583   9.633 -0.4776  0.1714 -0.0394
 6884SOL    HW123607   6.906   9.676   9.619  0.2913  0.3404  0.2122
 6884SOL    HW223608   6.964   9.553   9.553 -0.8863 -0.0125 -0.1948
 6885SOL     OW23609  10.299   1.267   4.742 -0.5213  0.0790  0.0142
 6885SOL    HW123610  10.245   1.252   4.820 -0.9075  0.7732 -0.1054
 6885SOL    HW223611  10.286   1.360   4.722 -0.7676 -0.1882 -1.1319
 6886SOL     OW23612   5.897   3.213   8.764  0.4348  0.4017 -0.3850
 6886SOL    HW123613   5.860   3.283   8.817 -0.1994  0.5012 -0.9377
 6886SOL    HW223614   5.988   3.239   8.751  0.9878 -0.2918  1.7286
 6887SOL     OW23615   4.267   2.062   7.522 -0.4054 -0.1979 -0.2450
 6887SOL    HW123616   4.322   2.036   7.448 -0.1524 -0.1785 -0.0663
 6887SOL    HW223617   4.190   2.102   7.482 -0.8256 -1.2578 -0.5298
 6888SOL     OW23618   2.632   2.507   3.001  0.5346 -0.2536 -0.2257
 6888SOL    HW123619   2.617   2.413   2.994 -1.0571  0.0106 -0.9643
 6888SOL    HW223620   2.678   2.530   2.920 -0.1848 -0.2411 -0.6498
 6889SOL     OW23621  10.177   0.436   4.021  0.0653 -0.6819 -0.6468
 6889SOL    HW123622  10.200   0.422   4.113  1.7649 -0.7759 -1.0435
 6889SOL    HW223623  10.259   0.420   3.974 -0.3692  0.9566 -2.0328
 6890SOL     OW23624   3.414   9.084   0.518  0.4171 -0.4251 -0.5490
 6890SOL    HW123625   3.332   9.092   0.470  0.2190 -1.2606 -0.3619
 6890SOL    HW223626   3.410   9.155   0.583 -0.9047 -1.4365  0.5315
 6891SOL     OW23627   2.927   5.598   3.478 -0.0389  0.1333 -0.4600
 6891SOL    HW123628   2.968   5.571   3.397  0.6003 -1.1052  0.2464
 6891SOL    HW223629   2.994   5.649   3.523 -1.1431  2.8293 -1.6595
 6892SOL     OW23630  10.410   6.559   7.398  0.3069 -0.0395 -0.0098
 6892SOL    HW123631  10.328   6.607   7.392  0.4535  0.0750 -1.5245
 6892SOL    HW223632  10.474   6.624   7.428  0.5598  0.8499 -2.2966
 6893SOL     OW23633   9.921   0.310   1.671 -0.0724  0.0105  0.9973
 6893SOL    HW123634   9.963   0.276   1.750  1.0871 -1.4926 -0.2054
 6893SOL    HW223635   9.828   0.309   1.691  0.1262 -1.3363  1.9878
 6894SOL     OW23636   9.113   2.248   5.468  0.3241  0.1856 -0.0242
 6894SOL    HW123637   9.018   2.243   5.469  0.3764 -0.9712  0.0617
 6894SOL    HW223638   9.141   2.215   5.553  0.8188 -0.1506 -0.3068
 6895SOL     OW23639   8.663   4.820   2.537 -0.1289  0.1033 -0.0823
 6895SOL    HW123640   8.679   4.817   2.443  0.4109  0.6678 -0.0134
 6895SOL    HW223641   8.601   4.749   2.553  1.4862 -1.4722 -0.5147
 6896SOL     OW23642   9.437   7.643   3.175 -0.2952  0.1944 -0.4909
 6896SOL    HW123643   9.415   7.736   3.181 -0.3674  0.1485 -0.0364
 6896SOL    HW223644   9.533   7.640   3.180 -0.2614  0.2788 -1.0029
 6897SOL     OW23645   3.199   5.894   6.992 -0.1957 -0.1440 -0.1560
 6897SOL    HW123646   3.268   5.835   6.963  0.9883  0.8155  0.5912
 6897SOL    HW223647   3.205   5.969   6.932  1.5339  1.3487  1.7396
 6898SOL     OW23648  10.593   5.763   3.531 -0.0227  0.2485  0.0346
 6898SOL    HW123649  10.616   5.839   3.477 -0.3968  0.1196 -0.3084
 6898SOL    HW223650  10.671   5.707   3.529 -0.0498  0.2244 -0.4067
 6899SOL     OW23651   6.619  10.298   1.847 -0.6408 -0.2866  0.4609
 6899SOL    HW123652   6.634  10.316   1.940 -2.1656 -0.1578  0.7145
 6899SOL    HW223653   6.573  10.214   1.846  0.2540 -0.7787 -0.2562
 6900SOL     OW23654   9.430   5.612   6.530 -0.1597 -0.0775  0.0166
 6900SOL    HW123655   9.429   5.545   6.461 -0.2406  0.4808 -0.5296
 6900SOL    HW223656   9.346   5.602   6.574 -0.3697 -0.0257 -0.3684
 6901SOL     OW23657   1.646   0.350   4.961 -0.2415  0.1860 -0.0308
 6901SOL    HW123658   1.648   0.416   5.030  0.6689 -0.3623  0.4797
 6901SOL    HW223659   1.572   0.293   4.983 -0.1215  0.1740  0.3355
 6902SOL     OW23660   5.560   9.665   3.897  0.1554  0.2555  0.1819
 6902SOL    HW123661   5.619   9.731   3.861  1.2549 -0.8766 -0.1765
 6902SOL    HW223662   5.570   9.590   3.838  0.3772 -0.9000  1.6254
 6903SOL     OW23663   3.304   6.819   7.038  0.2101 -0.0779 -0.1625
 6903SOL    HW123664   3.349   6.741   7.006 -0.4449 -0.2337 -0.7170
 6903SOL    HW223665   3.370   6.888   7.037  0.5852 -0.4401 -0.4242
 6904SOL     OW23666   5.601   8.332   8.150  0.2287 -0.2858  0.5156
 6904SOL    HW123667   5.599   8.427   8.138  1.5578 -0.1110  1.4062
 6904SOL    HW223668   5.519   8.301   8.113 -0.8136  1.3461  1.3464
 6905SOL     OW23669   2.919   3.442   1.831 -0.4876 -0.0638  0.0178
 6905SOL    HW123670   2.836   3.476   1.865 -1.1542 -1.2540 -0.3323
 6905SOL    HW223671   2.905   3.438   1.736  0.2648  0.4435 -0.1218
 6906SOL     OW23672   4.836   9.505   4.204 -0.0792 -0.3013 -0.3941
 6906SOL    HW123673   4.920   9.501   4.157 -0.3712 -0.7703 -0.8921
 6906SOL    HW223674   4.787   9.574   4.160 -0.1964 -0.4634 -0.5211
 6907SOL     OW23675   2.913   7.986   2.501  0.2588 -0.3139  0.0215
 6907SOL    HW123676   2.959   8.052   2.449 -0.6473  0.2783 -0.0680
 6907SOL    HW223677   2.981   7.942   2.551  0.8001  1.2628  0.7139
 6908SOL     OW23678   0.892   7.187   7.272 -0.6668  0.1848 -0.1281
 6908SOL    HW123679   0.945   7.213   7.197  0.0552  0.9791  0.6293
 6908SOL    HW223680   0.836   7.116   7.239 -0.6470  0.7786 -1.5043
 6909SOL     OW23681   1.069   1.020   5.697  0.1705 -0.0975 -0.2527
 6909SOL    HW123682   1.117   1.093   5.735  0.5725  0.1172 -1.1422
 6909SOL    HW223683   1.009   0.992   5.766 -0.4412  1.4827 -0.1047
 6910SOL     OW23684   5.258   8.450   7.197  0.5240  0.1326 -0.0856
 6910SOL    HW123685   5.235   8.495   7.278 -0.8132  0.8805 -0.8413
 6910SOL    HW223686   5.317   8.380   7.224  1.6761  1.5556  1.2982
 6911SOL     OW23687   6.448   5.048   2.842 -0.5608 -0.7004  0.6029
 6911SOL    HW123688   6.401   4.980   2.891 -0.4519 -0.8705  0.4704
 6911SOL    HW223689   6.380   5.093   2.792 -0.8056  0.0176  1.5359
 6912SOL     OW23690   0.741   5.912   6.560 -0.1686 -0.1036  0.2789
 6912SOL    HW123691   0.747   5.979   6.627  0.2002  1.5603 -1.3405
 6912SOL    HW223692   0.817   5.855   6.576  0.1258  0.4950  1.0211
 6913SOL     OW23693   2.130   0.020   3.675  0.3471 -0.2785  0.3034
 6913SOL    HW123694   2.047  -0.014   3.710  0.1129 -1.6987 -1.4851
 6913SOL    HW223695   2.117   0.020   3.580  1.9856  0.6314  0.0546
 6914SOL     OW23696   2.277   1.451   0.378  0.3497 -0.3231  0.6264
 6914SOL    HW123697   2.346   1.452   0.313  1.2703  0.3552  1.5808
 6914SOL    HW223698   2.196   1.440   0.328  1.1771 -1.7021 -0.4613
 6915SOL     OW23699   1.529   0.512  10.413 -0.5568  0.5908  0.0962
 6915SOL    HW123700   1.434   0.510  10.405 -0.4067 -1.1452 -1.8666
 6915SOL    HW223701   1.561   0.446  10.352  1.8723  0.1084  1.7111
 6916SOL     OW23702   2.252   4.043  10.081 -0.4973  0.1067 -0.2190
 6916SOL    HW123703   2.213   4.127  10.056 -1.3930 -0.3009 -0.2325
 6916SOL    HW223704   2.304   4.063  10.159 -0.9256  0.6253 -0.0613
 6917SOL     OW23705   5.527   3.961   3.295 -0.4082 -0.3916  0.1957
 6917SOL    HW123706   5.479   3.922   3.368 -0.3421  1.1187  1.0765
 6917SOL    HW223707   5.481   4.043   3.277 -0.9903 -1.1262 -2.0892
 6918SOL     OW23708   4.945   0.505   2.558  0.0974 -0.1988  0.5932
 6918SOL    HW123709   4.964   0.475   2.469  0.7839 -1.9593  1.2925
 6918SOL    HW223710   5.028   0.542   2.589 -0.1715  0.5160  0.4731
 6919SOL     OW23711   1.859   0.519   5.808 -0.0677 -0.1379 -0.3659
 6919SOL    HW123712   1.914   0.506   5.886 -0.5921 -0.4362 -0.0369
 6919SOL    HW223713   1.881   0.607   5.778 -0.0978  0.1161  0.3224
 6920SOL     OW23714   0.058   9.441   0.185  0.1443  0.1698 -0.1221
 6920SOL    HW123715  -0.026   9.437   0.138  1.1997 -3.0840 -2.0687
 6920SOL    HW223716   0.106   9.365   0.153  4.1367  2.2198  0.4637
 6921SOL     OW23717   5.535   2.322   1.305 -0.1364 -0.1975  0.2778
 6921SOL    HW123718   5.554   2.228   1.300  0.8891  0.0462 -0.9078
 6921SOL    HW223719   5.555   2.345   1.396  0.9312 -0.8769  0.2319
 6922SOL     OW23720   3.986   6.779   0.320  0.0988 -0.3025 -0.4381
 6922SOL    HW123721   4.076   6.764   0.294 -0.2663  0.0769 -2.0383
 6922SOL    HW223722   3.989   6.859   0.373  0.5440  0.5578 -1.7074
 6923SOL     OW23723   5.756   9.676  10.660  0.6625  0.3023 -0.1264
 6923SOL    HW123724   5.804   9.604  10.621 -0.0704  0.2936 -1.0625
 6923SOL    HW223725   5.707   9.714  10.587  0.4975  1.3039  0.4861
 6924SOL     OW23726   3.299   0.306   9.661 -0.7440  0.1739  0.2423
 6924SOL    HW123727   3.337   0.259   9.735 -0.6945  0.1441  0.1984
 6924SOL    HW223728   3.354   0.384   9.652 -0.3985 -0.1064 -0.1181
 6925SOL     OW23729   7.899   7.223  10.038  0.2759  0.1009  0.0537
 6925SOL    HW123730   7.844   7.174  10.099  1.3265 -0.5511  0.5091
 6925SOL    HW223731   7.848   7.225   9.957 -0.3792 -0.5519  0.4293
 6926SOL     OW23732  10.502   4.867   2.281  0.7945  0.0828 -0.2679
 6926SOL    HW123733  10.429   4.811   2.307  1.1170 -1.8584 -3.0967
 6926SOL    HW223734  10.462   4.949   2.255 -0.0072  0.1897  1.2425
 6927SOL     OW23735   8.227   9.923  10.233 -0.4457 -0.2613  0.1152
 6927SOL    HW123736   8.133   9.943  10.230 -0.7738 -1.7386 -1.5668
 6927SOL    HW223737   8.240   9.882  10.319 -1.0460  1.1306  0.9013
 6928SOL     OW23738   0.545  10.474   7.048  0.5469  0.6213 -0.2711
 6928SOL    HW123739   0.628  10.453   7.006  0.6551 -0.9924  0.6490
 6928SOL    HW223740   0.568  10.535   7.118  1.1318 -0.4656  0.5243
 6929SOL     OW23741   5.637   6.065   1.270  0.1838  0.2241 -0.1305
 6929SOL    HW123742   5.663   6.128   1.338 -1.0952  2.3225 -1.4596
 6929SOL    HW223743   5.695   6.084   1.197  0.1317 -0.5207 -0.3679
 6930SOL     OW23744   8.296   7.628  10.133 -0.3084 -0.6871 -0.2573
 6930SOL    HW123745   8.358   7.649  10.203  0.3239 -1.3550 -0.5993
 6930SOL    HW223746   8.266   7.539  10.153  1.1317 -1.5458 -1.6879
 6931SOL     OW23747   5.395   6.131   4.466 -0.8373 -0.2146 -0.1634
 6931SOL    HW123748   5.317   6.087   4.434 -0.0485 -1.7289 -0.0830
 6931SOL    HW223749   5.463   6.064   4.466 -0.1469  0.3687  2.1546
 6932SOL     OW23750   7.680   7.816   1.050  0.3732 -0.4799  0.3335
 6932SOL    HW123751   7.591   7.780   1.047  0.4612 -1.0014  2.3060
 6932SOL    HW223752   7.671   7.896   1.102  1.1756 -1.0167  1.3360
 6933SOL     OW23753   4.183   1.083   6.476 -0.3725  0.3151 -0.1153
 6933SOL    HW123754   4.106   1.125   6.514  0.7421  0.5609  2.0150
 6933SOL    HW223755   4.147   1.009   6.427 -1.9550  0.0822  1.2933
 6934SOL     OW23756   4.884   9.694   3.111 -0.2316  0.0530 -0.3745
 6934SOL    HW123757   4.830   9.627   3.154  0.1651  0.7107  1.2516
 6934SOL    HW223758   4.874   9.771   3.167 -1.1945  1.5966 -2.5555
 6935SOL     OW23759   3.688   6.739   1.534  0.1639 -0.2824 -0.0540
 6935SOL    HW123760   3.767   6.742   1.587 -0.1942 -0.8531  0.5249
 6935SOL    HW223761   3.717   6.702   1.450  0.1966 -2.2725  0.7833
 6936SOL     OW23762   3.515   6.751   8.225  0.3911 -0.3108 -0.2039
 6936SOL    HW123763   3.565   6.826   8.192  1.2033  0.0646  1.7425
 6936SOL    HW223764   3.568   6.675   8.200  2.3031  0.1067  2.2354
 6937SOL     OW23765   0.316   4.056   3.730  0.5100  0.6792 -0.0232
 6937SOL    HW123766   0.278   3.978   3.770 -0.9125  0.0581 -2.3932
 6937SOL    HW223767   0.371   4.023   3.659  0.2441  1.8106 -0.7759
 6938SOL     OW23768   5.292  10.143   6.929  0.2446  0.0599 -0.3540
 6938SOL    HW123769   5.329  10.229   6.954 -0.7241  0.7245 -1.1547
 6938SOL    HW223770   5.360  10.103   6.875 -0.3087  1.4790 -2.2291
 6939SOL     OW23771   8.580   5.721   7.742 -0.4641 -0.0387  0.5095
 6939SOL    HW123772   8.611   5.739   7.653 -1.0902  0.5578  0.4052
 6939SOL    HW223773   8.544   5.632   7.737 -0.4314 -0.0366  0.1828
 6940SOL     OW23774   3.583   3.681   8.436  0.1825  0.1894 -0.2692
 6940SOL    HW123775   3.529   3.741   8.488 -1.3620 -0.6737 -0.8121
 6940SOL    HW223776   3.621   3.620   8.500 -1.3211 -0.5768 -0.0771
 6941SOL     OW23777   0.381   9.645   1.663 -0.3317  0.0595 -0.2346
 6941SOL    HW123778   0.475   9.655   1.650 -0.1579 -1.3708 -0.2547
 6941SOL    HW223779   0.342   9.719   1.617  0.7980  1.0685  0.3521
 6942SOL     OW23780   0.459   8.362   0.180  0.0418  0.1691  0.6288
 6942SOL    HW123781   0.367   8.341   0.166  0.7894 -3.2736 -0.1291
 6942SOL    HW223782   0.500   8.352   0.094  1.4442 -0.7782  1.3489
 6943SOL     OW23783   9.828   4.152   6.155 -0.3758 -0.5018 -0.0112
 6943SOL    HW123784   9.844   4.095   6.230 -0.0109  0.9017  1.0114
 6943SOL    HW223785   9.756   4.208   6.183  1.0650  1.3773  0.1004
 6944SOL     OW23786   2.666   5.250   9.962  0.3696 -0.3533 -0.0318
 6944SOL    HW123787   2.688   5.207  10.044  2.0040 -0.8062 -0.6791
 6944SOL    HW223788   2.624   5.332   9.989  1.6401 -0.0975  1.2766
 6945SOL     OW23789   9.684   6.162   9.027 -0.5282  0.0823  0.4209
 6945SOL    HW123790   9.684   6.081   8.977  2.4876 -0.9925  1.9415
 6945SOL    HW223791   9.615   6.150   9.092 -0.0439 -1.3268  0.6943
 6946SOL     OW23792   1.277   7.076   5.782  0.3432 -0.0337 -0.0072
 6946SOL    HW123793   1.238   7.065   5.695  0.6873  0.7166 -0.2693
 6946SOL    HW223794   1.333   6.999   5.794  0.0816 -0.2751 -0.3394
 6947SOL     OW23795   5.577  10.330   0.824 -0.4008  0.1832 -0.0299
 6947SOL    HW123796   5.662  10.334   0.779 -0.8887  0.6494 -0.9355
 6947SOL    HW223797   5.571  10.239   0.855  1.3818  0.6863  1.9869
 6948SOL     OW23798   4.095  10.567  10.568 -0.8586 -0.0803  0.2274
 6948SOL    HW123799   4.048  10.492  10.531 -0.9733  0.9895 -1.8879
 6948SOL    HW223800   4.136  10.609  10.493 -0.0202  1.4600  1.5048
 6949SOL     OW23801   6.362  10.414   6.908 -0.0891  0.1902  0.0581
 6949SOL    HW123802   6.364  10.320   6.886 -0.3605  0.4756 -1.3019
 6949SOL    HW223803   6.436  10.426   6.966  0.0700 -0.8406  0.0947
 6950SOL     OW23804   8.656   2.491   5.443 -0.2886 -0.2905  0.4439
 6950SOL    HW123805   8.636   2.410   5.397  0.7798  1.3380 -3.2102
 6950SOL    HW223806   8.581   2.547   5.428  0.0725  0.2875  0.7576
 6951SOL     OW23807   7.238   4.353   8.963 -0.3922  0.2941 -0.3839
 6951SOL    HW123808   7.206   4.441   8.945  0.3456  0.6432 -0.0196
 6951SOL    HW223809   7.274   4.358   9.052 -0.2811 -0.3531 -0.3876
 6952SOL     OW23810   7.135   6.941   8.009  0.6116  0.1814  0.1376
 6952SOL    HW123811   7.185   6.930   8.090  1.1252  2.6550  0.2603
 6952SOL    HW223812   7.194   6.912   7.940  1.5451  1.2539  0.4409
 6953SOL     OW23813   7.212   3.238   3.140 -0.6243 -0.0254 -0.2178
 6953SOL    HW123814   7.159   3.264   3.065 -0.8187  0.6533  0.1465
 6953SOL    HW223815   7.162   3.268   3.216 -0.3749 -0.6060  0.1788
 6954SOL     OW23816   3.829   2.193   7.233  0.2747  0.0480  0.1874
 6954SOL    HW123817   3.854   2.253   7.163  0.3374  2.0994  1.8366
 6954SOL    HW223818   3.735   2.205   7.243  0.3957  0.4705  0.9909
 6955SOL     OW23819   6.533   9.322   3.278  0.3377  0.3964  0.2279
 6955SOL    HW123820   6.583   9.344   3.356  2.0739  3.4270 -1.5224
 6955SOL    HW223821   6.544   9.397   3.220 -0.3132 -1.8957 -3.2225
 6956SOL     OW23822   0.439   8.537   4.778  0.3773 -0.1101  0.5570
 6956SOL    HW123823   0.498   8.464   4.798  1.2842  0.7268  0.9969
 6956SOL    HW223824   0.426   8.581   4.862  0.6519  0.8269  0.1127
 6957SOL     OW23825   5.743   3.975   9.755  0.3166  0.2829  0.4709
 6957SOL    HW123826   5.716   4.008   9.841 -1.9780  0.4163 -0.2439
 6957SOL    HW223827   5.675   3.913   9.730  2.3625 -1.8855 -0.0984
 6958SOL     OW23828  10.080   4.900   6.299  0.7141  0.1084 -0.3752
 6958SOL    HW123829  10.026   4.979   6.297 -0.8417 -0.9032  0.0659
 6958SOL    HW223830  10.067   4.859   6.214 -0.4010 -0.8662  0.2288
 6959SOL     OW23831   3.397   5.730   4.939  0.8520  0.2795 -0.0980
 6959SOL    HW123832   3.332   5.777   4.888  2.1021  1.8803 -0.2897
 6959SOL    HW223833   3.451   5.799   4.978  0.8512 -0.9079  2.2104
 6960SOL     OW23834   2.764   6.284   6.348  0.0312  0.0935  0.2383
 6960SOL    HW123835   2.816   6.207   6.372 -0.4282  0.0352  1.1221
 6960SOL    HW223836   2.828   6.348   6.318  0.3773 -0.7975 -1.0227
 6961SOL     OW23837  10.277   6.000   9.478 -0.0548 -0.0650 -0.1582
 6961SOL    HW123838  10.263   6.005   9.572  0.0585 -0.0424 -0.1420
 6961SOL    HW223839  10.237   5.917   9.452  0.1377 -0.1948 -0.0473
 6962SOL     OW23840   9.622   5.262   5.561 -0.0004  0.2130  0.5453
 6962SOL    HW123841   9.528   5.257   5.581 -0.2096  1.1869 -0.1049
 6962SOL    HW223842   9.657   5.325   5.624 -0.3017  1.8245 -0.8147
 6963SOL     OW23843   6.110   7.074   1.474 -0.1818 -0.3653 -1.0559
 6963SOL    HW123844   6.039   7.063   1.411  0.7685 -2.0280 -1.9198
 6963SOL    HW223845   6.174   7.128   1.428 -1.6317  2.8495  0.4417
 6964SOL     OW23846   4.080   8.484   2.519  0.1819 -0.1169 -0.2031
 6964SOL    HW123847   4.064   8.510   2.610 -0.5332 -0.3375 -0.2609
 6964SOL    HW223848   4.155   8.424   2.524  2.6955  2.7804 -0.1800
 6965SOL     OW23849  10.263   4.798   3.763  0.0878  0.0534  0.2841
 6965SOL    HW123850  10.320   4.859   3.715 -1.8394  1.9219  0.2347
 6965SOL    HW223851  10.176   4.811   3.726 -0.9821 -0.3953  2.4465
 6966SOL     OW23852   6.621   0.399   1.202  0.1309 -0.1687 -0.3811
 6966SOL    HW123853   6.645   0.356   1.120 -2.0358 -1.4740 -0.3799
 6966SOL    HW223854   6.627   0.330   1.268  1.0238  0.6710  0.4543
 6967SOL     OW23855   2.054   4.029   3.567 -0.1879  0.4222  0.2144
 6967SOL    HW123856   2.010   4.022   3.482  0.3831  1.5468 -0.1949
 6967SOL    HW223857   2.066   3.938   3.595  0.1124 -0.0017 -1.1781
 6968SOL     OW23858   9.180   2.487   3.468 -0.2746 -0.0341 -0.7908
 6968SOL    HW123859   9.232   2.413   3.498  2.3239  1.4657 -1.3165
 6968SOL    HW223860   9.146   2.460   3.383 -0.2257 -0.9733 -0.5214
 6969SOL     OW23861   1.943   8.166   4.883  0.0794  0.5208 -0.2977
 6969SOL    HW123862   1.855   8.170   4.845  0.4468  0.0957 -1.2362
 6969SOL    HW223863   1.939   8.095   4.946  0.3286 -1.0675 -1.9855
 6970SOL     OW23864   9.599  10.587   6.607  0.3182 -0.1580 -0.1266
 6970SOL    HW123865   9.606  10.509   6.551  1.1037 -0.7682  0.7834
 6970SOL    HW223866   9.508  10.586   6.637 -0.0371  0.0182 -1.1367
 6971SOL     OW23867   5.136   0.140   4.424 -0.0057  0.4827 -0.1232
 6971SOL    HW123868   5.115   0.231   4.403  0.9723  0.8082  0.2440
 6971SOL    HW223869   5.128   0.093   4.340 -0.9575  0.8079 -0.2232
 6972SOL     OW23870   9.584   0.769   7.516  0.4789  0.0786 -0.0923
 6972SOL    HW123871   9.535   0.803   7.591 -3.1603  2.4177 -3.1242
 6972SOL    HW223872   9.536   0.691   7.489  1.3543 -0.3733 -0.3782
 6973SOL     OW23873   2.673   0.580   1.456  0.2300 -0.1491 -0.4896
 6973SOL    HW123874   2.739   0.514   1.433 -0.1199 -0.2177 -1.3261
 6973SOL    HW223875   2.589   0.537   1.437 -0.1489 -0.5783  1.8854
 6974SOL     OW23876   1.090   2.923   7.668 -0.3439 -0.7168 -0.7909
 6974SOL    HW123877   1.060   2.907   7.757 -1.3863 -4.0685 -1.6026
 6974SOL    HW223878   1.020   2.974   7.628  0.1317  0.8111  0.2546
 6975SOL     OW23879   6.172   5.623   2.488 -0.5842  0.2374  0.0514
 6975SOL    HW123880   6.202   5.704   2.528 -0.5431  0.7006 -0.8787
 6975SOL    HW223881   6.134   5.651   2.404 -1.5875 -0.5791  0.2206
 6976SOL     OW23882   2.464   3.468   4.384  0.0564  0.5805 -0.0624
 6976SOL    HW123883   2.468   3.547   4.437  0.3222  0.2665  0.3986
 6976SOL    HW223884   2.541   3.417   4.411 -0.3351 -0.0168 -0.0482
 6977SOL     OW23885   5.345   5.112   4.964 -0.3923 -0.0685 -0.3120
 6977SOL    HW123886   5.438   5.120   4.945 -0.5775  0.8175 -0.9508
 6977SOL    HW223887   5.302   5.149   4.886 -1.2318  2.7434  1.3367
 6978SOL     OW23888   6.459   4.044   6.899 -0.2800 -0.2638  0.3684
 6978SOL    HW123889   6.365   4.057   6.898 -0.1728  0.5872  0.7959
 6978SOL    HW223890   6.478   4.013   6.988 -0.0575  0.4230  0.5695
 6979SOL     OW23891   6.333   7.890   2.658 -0.4058 -0.5273  0.5530
 6979SOL    HW123892   6.268   7.826   2.630 -0.8250  0.3070 -0.4347
 6979SOL    HW223893   6.283   7.954   2.709 -0.2134 -0.3408  0.5079
 6980SOL     OW23894   8.798   5.168   1.844  0.1855 -0.3642 -0.5332
 6980SOL    HW123895   8.820   5.085   1.802  1.5373 -0.7812  0.8876
 6980SOL    HW223896   8.864   5.229   1.811  0.5748 -0.4224  0.1316
 6981SOL     OW23897   7.722   1.060   7.621  0.0197 -0.9751 -0.1232
 6981SOL    HW123898   7.792   1.039   7.559  0.1680  1.1574 -0.7468
 6981SOL    HW223899   7.764   1.053   7.707  0.9930  0.1772 -0.4803
 6982SOL     OW23900   4.397   1.984   4.603  0.4760  0.1456  0.6714
 6982SOL    HW123901   4.468   1.923   4.585 -0.2105 -0.3838 -0.3666
 6982SOL    HW223902   4.385   2.032   4.521 -2.4888 -2.0326 -0.3357
 6983SOL     OW23903   2.859   2.571   6.081  0.1181  0.0432 -0.0009
 6983SOL    HW123904   2.856   2.508   6.153 -1.4644 -0.4073 -0.4175
 6983SOL    HW223905   2.883   2.518   6.004 -0.4315  0.0815 -0.2054
 6984SOL     OW23906   0.892   8.272   4.271  0.4576 -0.1145  0.1401
 6984SOL    HW123907   0.934   8.347   4.315  3.4368 -2.1802  1.2049
 6984SOL    HW223908   0.874   8.303   4.183  0.6201  2.1550  0.8325
 6985SOL     OW23909   5.260   0.387   9.911  0.3630  0.1674  0.0589
 6985SOL    HW123910   5.292   0.300   9.937  2.0391 -0.5736 -3.7623
 6985SOL    HW223911   5.330   0.446   9.939  1.7356 -0.4947 -1.7362
 6986SOL     OW23912   1.024   6.161   0.804 -0.3739 -0.2160 -0.4903
 6986SOL    HW123913   0.972   6.085   0.830 -0.7371  0.0285 -0.4823
 6986SOL    HW223914   1.079   6.180   0.879 -1.3660  0.4440  0.0998
 6987SOL     OW23915   8.775   7.481   4.616 -0.2939 -0.5596 -0.1850
 6987SOL    HW123916   8.724   7.437   4.684 -0.3561  0.5201  0.4916
 6987SOL    HW223917   8.866   7.464   4.640 -0.3197 -0.4904 -0.0366
 6988SOL     OW23918   7.860   9.426   1.821  0.4801 -0.0615 -0.1092
 6988SOL    HW123919   7.907   9.365   1.878  2.1698  1.3968  0.1431
 6988SOL    HW223920   7.807   9.370   1.764 -1.6067 -1.6188  3.0261
 6989SOL     OW23921   6.067   2.765   3.302 -0.0354 -0.7071  0.1089
 6989SOL    HW123922   6.018   2.832   3.349 -0.4794 -0.9721  0.0230
 6989SOL    HW223923   6.005   2.729   3.239  0.3719 -0.7963 -0.2446
 6990SOL     OW23924   6.847   1.686   9.880 -0.2876 -0.1930 -0.0959
 6990SOL    HW123925   6.920   1.624   9.881 -0.5831 -0.5661 -0.9020
 6990SOL    HW223926   6.882   1.764   9.923  0.1964 -0.7912  0.6242
 6991SOL     OW23927   4.317  10.637   3.943 -0.3529 -0.1486 -0.0106
 6991SOL    HW123928   4.316  10.544   3.967 -0.6556 -0.1686 -0.1017
 6991SOL    HW223929   4.267  10.641   3.861 -0.1176  0.0575 -0.1445
 6992SOL     OW23930   4.440  10.643   2.261 -0.4339 -0.1430 -0.1689
 6992SOL    HW123931   4.514  10.628   2.202 -0.2538 -0.9888  0.2659
 6992SOL    HW223932   4.466  10.721   2.310  1.0873 -1.5256  1.3508
 6993SOL     OW23933   6.157   2.738   5.539  0.2446  0.0537 -0.0473
 6993SOL    HW123934   6.167   2.655   5.586 -2.1122 -1.0535 -1.3423
 6993SOL    HW223935   6.243   2.779   5.545  0.9688 -1.5749  2.2739
 6994SOL     OW23936   2.796   8.315   1.571  0.8146  0.0045  0.5736
 6994SOL    HW123937   2.725   8.251   1.576  1.4814 -1.0386 -1.8585
 6994SOL    HW223938   2.860   8.286   1.636 -0.3109  0.1444  1.7922
 6995SOL     OW23939   2.700   7.658   7.139 -0.0880  0.3140 -0.0728
 6995SOL    HW123940   2.767   7.669   7.206  0.4643  0.8879 -0.7153
 6995SOL    HW223941   2.618   7.678   7.184  0.0752 -1.0335  0.8927
 6996SOL     OW23942   4.906   4.803   1.835 -0.2324 -0.6328 -0.5291
 6996SOL    HW123943   4.954   4.870   1.788  0.1265 -1.7031 -1.7340
 6996SOL    HW223944   4.966   4.774   1.904 -0.3317  0.1521 -0.1040
 6997SOL     OW23945   4.775   3.391   8.710 -0.0715 -0.0904  0.3083
 6997SOL    HW123946   4.867   3.378   8.730 -0.5090 -1.0167  1.9441
 6997SOL    HW223947   4.732   3.394   8.796 -1.7102 -0.9443 -0.4288
 6998SOL     OW23948   8.316   8.545   1.131 -0.3665  0.3945 -0.0290
 6998SOL    HW123949   8.289   8.457   1.102 -0.1098 -0.5743  2.4272
 6998SOL    HW223950   8.408   8.552   1.105 -0.1418 -0.4276  0.5146
 6999SOL     OW23951  10.017   4.011   1.888 -0.4196  0.0798 -0.5049
 6999SOL    HW123952   9.999   4.099   1.921  1.3474 -0.2577  1.5799
 6999SOL    HW223953   9.997   3.953   1.962  0.1701 -1.0937 -1.2418
 7000SOL     OW23954   1.813   9.135   1.094 -0.2559 -0.5754 -0.1003
 7000SOL    HW123955   1.733   9.169   1.055  0.4208  0.2460 -0.8032
 7000SOL    HW223956   1.808   9.040   1.080 -1.5233 -0.6484  0.6927
 7001SOL     OW23957   0.851   9.752   9.358  0.2936 -0.1473 -0.5322
 7001SOL    HW123958   0.799   9.779   9.434 -1.1063 -1.4827 -0.9506
 7001SOL    HW223959   0.920   9.697   9.395  0.3179  0.1475 -0.1280
 7002SOL     OW23960   3.575   3.935   1.237 -0.3433  0.1504 -0.6586
 7002SOL    HW123961   3.572   3.858   1.181 -0.9287  1.9257 -3.2628
 7002SOL    HW223962   3.585   4.009   1.177  2.3905  2.0439  1.7940
 7003SOL     OW23963   6.038   9.321   7.524 -0.1015  0.5180 -0.5486
 7003SOL    HW123964   5.991   9.252   7.478  0.1135 -0.0894  0.1390
 7003SOL    HW223965   5.972   9.364   7.578 -0.6406  2.0499 -2.2951
 7004SOL     OW23966   8.088  10.588   5.874  0.1200  0.1093 -0.2501
 7004SOL    HW123967   8.011  10.578   5.819  0.1567  0.0060 -0.2827
 7004SOL    HW223968   8.082  10.678   5.908  0.3575  0.3450 -0.8117
 7005SOL     OW23969   7.949   8.435   5.714 -0.0682  0.0037 -0.4422
 7005SOL    HW123970   7.938   8.443   5.809  1.0284 -1.1079 -0.2026
 7005SOL    HW223971   7.864   8.461   5.678 -0.8517 -0.6183  0.8920
 7006SOL     OW23972   3.376   6.034   9.246  0.0645 -0.3147  0.1063
 7006SOL    HW123973   3.281   6.032   9.234 -0.1977  1.1234  1.5943
 7006SOL    HW223974   3.391   6.106   9.307  2.1556 -0.2740 -0.3734
 7007SOL     OW23975  10.301   7.243   7.442  0.8384  0.4184 -0.3364
 7007SOL    HW123976  10.271   7.161   7.402  2.1095  0.3554 -1.2385
 7007SOL    HW223977  10.396   7.232   7.449  0.8728  1.2828  0.8178
 7008SOL     OW23978   4.223   4.455   0.255  0.1228 -0.2057 -0.1717
 7008SOL    HW123979   4.196   4.403   0.331 -0.7871  0.0717 -0.2997
 7008SOL    HW223980   4.249   4.390   0.189 -0.2233 -0.4745 -0.0434
 7009SOL     OW23981  10.555   5.359   4.807  0.0417  0.2179 -0.5127
 7009SOL    HW123982  10.580   5.413   4.883 -0.5833  1.3167 -1.0629
 7009SOL    HW223983  10.597   5.402   4.733  1.2867 -1.2969 -0.7316
 7010SOL     OW23984   6.918   5.056   6.051  0.2882 -0.3560  0.2796
 7010SOL    HW123985   6.881   5.121   6.112 -2.3700 -0.2996 -1.2107
 7010SOL    HW223986   6.935   4.979   6.105 -0.9100  0.0754  1.3336
 7011SOL     OW23987   1.798   7.513   5.955 -0.3169 -0.2219  0.2557
 7011SOL    HW123988   1.869   7.484   6.013 -0.0329  1.1672  0.6515
 7011SOL    HW223989   1.806   7.457   5.877 -0.5440 -1.9550  1.4186
 7012SOL     OW23990   5.068   8.376   1.841 -0.0579 -0.0039  0.1980
 7012SOL    HW123991   5.001   8.329   1.792 -0.5378 -0.0010  0.8230
 7012SOL    HW223992   5.135   8.398   1.777 -0.2719 -0.7213 -0.2806
 7013SOL     OW23993   4.921   0.837   2.985 -0.2699 -0.1271 -0.8828
 7013SOL    HW123994   4.980   0.849   3.060 -0.2432 -1.1483 -0.7231
 7013SOL    HW223995   4.833   0.845   3.022 -0.2858 -1.6700 -0.5113
 7014SOL     OW23996   8.309   7.914   3.656  0.5007  0.0272 -0.5086
 7014SOL    HW123997   8.320   7.899   3.562 -0.0341 -0.4157 -0.5103
 7014SOL    HW223998   8.221   7.879   3.675 -0.0080  1.4452 -0.1271
 7015SOL     OW23999  10.628   3.193   7.677  0.2545 -0.5682  0.3357
 7015SOL    HW124000  10.640   3.288   7.684  0.0365 -0.5784  0.8899
 7015SOL    HW224001  10.586   3.168   7.759 -1.5152 -0.8478 -0.5910
 7016SOL     OW24002   5.584   0.535   1.182 -0.4116  0.1150  0.4109
 7016SOL    HW124003   5.515   0.589   1.144  1.1153  1.4967 -0.5722
 7016SOL    HW224004   5.644   0.519   1.109 -0.6207 -2.7125  0.7416
 7017SOL     OW24005   3.785   2.119   7.807  0.4212  0.3188  0.0578
 7017SOL    HW124006   3.829   2.128   7.892  2.3125  1.7530 -0.9944
 7017SOL    HW224007   3.821   2.040   7.769  1.6459  1.1082 -0.4963
 7018SOL     OW24008   9.602  10.535   1.194 -0.2412  0.1277  1.0341
 7018SOL    HW124009   9.644  10.518   1.278 -0.4214 -0.8680  0.9311
 7018SOL    HW224010   9.651  10.482   1.131 -1.0930 -0.3734  0.7742
 7019SOL     OW24011   1.710   4.340   2.420  0.0948  0.3702  0.0167
 7019SOL    HW124012   1.801   4.314   2.425 -0.1207 -0.4134 -0.0480
 7019SOL    HW224013   1.696   4.365   2.329 -0.2651 -1.4738 -0.4680
 7020SOL     OW24014   7.525   4.119   6.731 -0.5526 -0.2314 -0.2188
 7020SOL    HW124015   7.552   4.070   6.653  0.5644 -0.2212  0.1389
 7020SOL    HW224016   7.606   4.129   6.781 -1.2335 -0.1029  0.8686
 7021SOL     OW24017   1.539   4.972   3.565  0.5442  0.3318 -0.0199
 7021SOL    HW124018   1.485   4.901   3.600  1.0364 -0.8568 -1.5922
 7021SOL    HW224019   1.628   4.950   3.591  0.7027  0.3431 -0.5412
 7022SOL     OW24020   2.612   7.854   0.320 -0.3363  0.4869  0.0249
 7022SOL    HW124021   2.580   7.810   0.241 -0.8323 -2.2104  1.5862
 7022SOL    HW224022   2.707   7.840   0.317 -0.0630  2.2497 -1.0652
 7023SOL     OW24023   9.908   5.693  10.652  0.0972  0.1304  0.0051
 7023SOL    HW124024   9.933   5.714  10.742 -0.2577  0.9368 -0.0705
 7023SOL    HW224025   9.813   5.703  10.651  0.0783 -0.0798 -0.4127
 7024SOL     OW24026   0.682   1.955   6.077  0.6941  0.2376  0.0199
 7024SOL    HW124027   0.739   1.914   6.012  0.6994 -0.3375  0.3839
 7024SOL    HW224028   0.610   1.892   6.089  0.4316  0.5671  0.2026
 7025SOL     OW24029   6.904   8.924   4.429  0.0597 -0.3176  0.1929
 7025SOL    HW124030   6.920   8.951   4.338 -3.7023 -1.6745 -1.0604
 7025SOL    HW224031   6.874   9.004   4.472 -1.3183 -0.3120 -0.7160
 7026SOL     OW24032   8.371   3.489  10.587  0.0283  0.2712  0.2837
 7026SOL    HW124033   8.282   3.479  10.621  0.5727 -0.4118  1.5751
 7026SOL    HW224034   8.396   3.579  10.610 -0.5368  0.6609 -0.6116
 7027SOL     OW24035   6.426   1.414   1.758  0.4555 -0.1438 -0.2212
 7027SOL    HW124036   6.508   1.365   1.764  0.5925 -0.0375 -1.0496
 7027SOL    HW224037   6.366   1.357   1.711  0.7213  0.5755 -1.4965
 7028SOL     OW24038   9.667   0.435   6.511  0.3022  0.5065  0.2770
 7028SOL    HW124039   9.705   0.450   6.424  0.9065  1.4153  0.6805
 7028SOL    HW224040   9.738   0.455   6.572  0.1839 -1.0474  0.9753
 7029SOL     OW24041   7.429   1.286   5.619  0.2489  0.4585  0.5170
 7029SOL    HW124042   7.479   1.361   5.649 -0.5727  2.1687 -2.0727
 7029SOL    HW224043   7.479   1.252   5.545 -0.0194 -0.8450  0.8996
 7030SOL     OW24044   7.122   6.332   2.861  0.2507 -0.3024  0.7300
 7030SOL    HW124045   7.059   6.365   2.797  1.1122 -0.7532 -0.3717
 7030SOL    HW224046   7.157   6.410   2.903 -0.3871 -0.0064  0.7199
 7031SOL     OW24047   8.611   1.500   7.604 -0.2874 -1.0897  0.2436
 7031SOL    HW124048   8.554   1.549   7.545 -0.7585 -1.5288  0.3287
 7031SOL    HW224049   8.604   1.410   7.575 -1.6835 -1.5482  1.8667
 7032SOL     OW24050   5.644   5.785   2.411  0.0900 -0.2302 -0.0186
 7032SOL    HW124051   5.625   5.872   2.447  0.2787 -1.0079  2.1267
 7032SOL    HW224052   5.570   5.767   2.353  0.5585  1.7530 -1.3274
 7033SOL     OW24053   3.170   9.867   8.189  0.4591  0.4909 -0.3740
 7033SOL    HW124054   3.143   9.786   8.233  0.1772  0.0560 -1.3184
 7033SOL    HW224055   3.107   9.932   8.219  0.8994  0.4549  0.6667
 7034SOL     OW24056   2.509   2.596   7.300  0.2014  0.2664  0.1867
 7034SOL    HW124057   2.461   2.585   7.218 -1.7286 -0.2844  1.3364
 7034SOL    HW224058   2.450   2.646   7.356  1.2600  0.1740  1.4387
 7035SOL     OW24059   2.800   3.340   6.348 -0.2133 -0.8263  0.1950
 7035SOL    HW124060   2.823   3.363   6.258 -0.1408 -2.2184 -0.1664
 7035SOL    HW224061   2.773   3.423   6.388 -0.1196 -0.1664 -1.0643
 7036SOL     OW24062   0.401  10.437   7.884  0.4342  0.0778  0.3323
 7036SOL    HW124063   0.468  10.416   7.819 -0.1330  0.8910 -0.5449
 7036SOL    HW224064   0.321  10.397   7.851 -0.0993  1.3937 -0.0674
 7037SOL     OW24065   3.275   8.327   5.422 -0.0446  0.2438 -0.2844
 7037SOL    HW124066   3.307   8.390   5.487  1.6864  0.1810 -1.0121
 7037SOL    HW224067   3.305   8.362   5.338 -0.2590 -0.8383 -0.8263
 7038SOL     OW24068   8.475   1.900  10.559  0.1536 -0.1550  0.1209
 7038SOL    HW124069   8.426   1.868  10.635  0.3571  0.2560  0.4366
 7038SOL    HW224070   8.483   1.995  10.575  1.1812 -0.2334  0.1608
 7039SOL     OW24071   1.672  10.215   7.457  0.2780 -0.1753 -0.4276
 7039SOL    HW124072   1.662  10.148   7.525  1.6291  0.3952  0.3801
 7039SOL    HW224073   1.583  10.229   7.424 -0.3438 -0.8256  0.8836
 7040SOL     OW24074   5.920   0.259   4.170 -0.2297  0.4194  0.0904
 7040SOL    HW124075   5.870   0.180   4.150 -0.5328  1.0737 -2.0032
 7040SOL    HW224076   5.945   0.294   4.084 -1.4216  3.4491  0.8345
 7041SOL     OW24077   0.549   5.801   8.604  0.3960  0.1057 -0.4419
 7041SOL    HW124078   0.640   5.794   8.634 -0.6967 -1.0290  3.1280
 7041SOL    HW224079   0.532   5.718   8.560  1.1224  0.4223 -1.3470
 7042SOL     OW24080   3.921   0.037   7.438 -0.3278  0.7960 -0.1616
 7042SOL    HW124081   3.834   0.068   7.462 -1.1323 -0.1226 -1.7397
 7042SOL    HW224082   3.956   0.105   7.381 -0.8275  0.2802 -1.1048
 7043SOL     OW24083   5.813  10.396   3.997 -0.1769 -0.4954  0.0720
 7043SOL    HW124084   5.890  10.366   4.045  0.5961 -0.0292 -0.8403
 7043SOL    HW224085   5.836  10.384   3.905 -0.7180  0.7795 -0.2517
 7044SOL     OW24086   1.485   0.968   3.722 -0.0466  0.0277 -0.3703
 7044SOL    HW124087   1.478   0.918   3.804  0.3563 -0.9162 -0.8936
 7044SOL    HW224088   1.561   1.025   3.735  1.1373 -1.4141 -0.7325
 7045SOL     OW24089   2.252   9.236   1.073 -0.4276 -0.0639  0.2448
 7045SOL    HW124090   2.294   9.268   0.994 -0.4388 -0.1264  0.2132
 7045SOL    HW224091   2.190   9.305   1.097  0.0543  0.2604  0.5803
 7046SOL     OW24092   7.026   7.248   0.109 -0.2818 -0.0203  1.1076
 7046SOL    HW124093   6.962   7.256   0.181 -0.6744 -0.6213  0.8324
 7046SOL    HW224094   6.977   7.206   0.039 -0.3666  2.0102 -0.1215
 7047SOL     OW24095   8.756   1.732   4.144  0.9330  0.4282  0.3157
 7047SOL    HW124096   8.757   1.694   4.056 -1.1670 -1.0587  0.8393
 7047SOL    HW224097   8.848   1.746   4.166  1.5835 -0.7203 -1.4815
 7048SOL     OW24098   2.742   9.543   9.354 -0.2332 -0.2934 -0.1028
 7048SOL    HW124099   2.805   9.512   9.420 -2.0145 -3.1054  0.4712
 7048SOL    HW224100   2.666   9.572   9.406 -0.3335  0.8093 -0.8439
 7049SOL     OW24101   7.910   5.224   9.177 -0.2813  0.2973 -0.2659
 7049SOL    HW124102   7.994   5.197   9.214 -0.2062  1.6205  0.5756
 7049SOL    HW224103   7.892   5.158   9.109  0.7870 -0.7445  0.4231
 7050SOL     OW24104   8.138   0.847   3.008 -0.6308  0.3840  0.5342
 7050SOL    HW124105   8.201   0.867   3.078 -1.7673  0.2545  1.6261
 7050SOL    HW224106   8.193   0.829   2.932  0.6007  2.1673  0.9277
 7051SOL     OW24107   8.037   8.351   2.944 -0.4382 -0.5003  0.0081
 7051SOL    HW124108   8.003   8.326   3.031 -0.7013  0.1290  0.0917
 7051SOL    HW224109   8.120   8.395   2.963  0.2330 -1.6756 -0.1680
 7052SOL     OW24110   6.916   9.288   7.384  0.0874  0.0693  0.4108
 7052SOL    HW124111   6.849   9.221   7.384  0.4349 -0.5373 -3.4954
 7052SOL    HW224112   6.868   9.371   7.381 -0.5400 -0.3102 -0.8299
 7053SOL     OW24113  10.688   8.713   5.751  0.2417 -0.1306  0.2466
 7053SOL    HW124114  10.674   8.686   5.841  1.5258 -0.7993  0.2667
 7053SOL    HW224115  10.623   8.664   5.700  0.0755 -0.3874  0.7072
 7054SOL     OW24116   2.657   3.111   0.388  0.2909  0.4503 -0.1591
 7054SOL    HW124117   2.706   3.046   0.438  1.6114  0.7589 -1.0048
 7054SOL    HW224118   2.566   3.081   0.392  0.0614  1.1950  3.5726
 7055SOL     OW24119   0.130   8.714   6.198  0.4781  0.2924  0.0816
 7055SOL    HW124120   0.213   8.672   6.222  0.6033  0.3027 -0.3307
 7055SOL    HW224121   0.156   8.793   6.150  0.2356  0.5625  0.3895
 7056SOL     OW24122   7.248   1.020   0.493 -0.1816 -0.2939 -0.2646
 7056SOL    HW124123   7.278   0.994   0.580 -0.8423  0.7189  0.2798
 7056SOL    HW224124   7.250   1.115   0.494  0.4686 -0.2706 -1.6080
 7057SOL     OW24125   6.539   2.285   8.165  0.0745  1.1335 -0.0042
 7057SOL    HW124126   6.590   2.363   8.186 -2.2196  2.9211 -0.6746
 7057SOL    HW224127   6.543   2.279   8.069  0.2600  0.3959  0.0465
 7058SOL     OW24128   6.091   6.864   7.383 -0.0394  0.4067 -0.2422
 7058SOL    HW124129   6.073   6.850   7.476  0.5083  0.4237 -0.1344
 7058SOL    HW224130   6.180   6.832   7.371  0.6503  2.2515 -0.3477
 7059SOL     OW24131   6.389   9.553   2.087 -0.0071 -0.7961 -0.0720
 7059SOL    HW124132   6.457   9.520   2.145 -1.3910 -3.0557  0.4012
 7059SOL    HW224133   6.371   9.642   2.118  0.1699 -1.4934  2.1575
 7060SOL     OW24134   7.238   7.852   1.832  1.2782 -0.1745  0.1348
 7060SOL    HW124135   7.251   7.906   1.910  4.0824 -2.0157  1.1140
 7060SOL    HW224136   7.254   7.912   1.759 -0.8402  1.4537  0.8944
 7061SOL     OW24137   3.996   9.817   8.859 -0.4247 -0.4329 -0.3766
 7061SOL    HW124138   3.991   9.725   8.884 -2.1161 -0.3528 -0.3252
 7061SOL    HW224139   3.921   9.831   8.802 -0.3460  0.9748 -0.1746
 7062SOL     OW24140   8.010   7.682   0.489 -0.0163 -0.5925 -0.2637
 7062SOL    HW124141   8.040   7.772   0.477  2.1545 -0.9553  1.6549
 7062SOL    HW224142   7.978   7.680   0.580  0.5516 -1.8955 -0.0804
 7063SOL     OW24143   7.869   2.956   9.314 -1.0956  0.0456 -0.2265
 7063SOL    HW124144   7.823   2.939   9.396  1.3335 -2.7985  0.7431
 7063SOL    HW224145   7.820   2.906   9.249 -0.7913 -0.9912  0.3181
 7064SOL     OW24146   1.803   5.659   3.311  0.4823 -0.2466  0.0819
 7064SOL    HW124147   1.751   5.584   3.281 -1.0973  0.6318  0.4779
 7064SOL    HW224148   1.748   5.700   3.378  1.8852  0.5210  0.7997
 7065SOL     OW24149   4.256   7.607  10.495  0.1921 -0.2406 -0.0523
 7065SOL    HW124150   4.263   7.573  10.405 -4.4894 -0.9485 -0.3862
 7065SOL    HW224151   4.231   7.531  10.547  1.6836  0.4099  1.7031
 7066SOL     OW24152   2.298   5.949   6.388  0.0807 -0.5095  0.3761
 7066SOL    HW124153   2.384   5.961   6.349  0.2297  1.3973  1.1837
 7066SOL    HW224154   2.271   6.036   6.416 -0.9670 -1.4211  2.5060
 7067SOL     OW24155   2.457   8.467   6.330 -0.1313 -0.2663 -0.5827
 7067SOL    HW124156   2.505   8.518   6.395 -0.7603  0.8053 -0.9308
 7067SOL    HW224157   2.481   8.376   6.348  1.1499  0.1580 -0.0549
 7068SOL     OW24158   5.645   8.043   8.788  0.2705 -0.0759  0.0751
 7068SOL    HW124159   5.557   8.066   8.759  0.8903  1.2388 -0.8092
 7068SOL    HW224160   5.654   7.950   8.765 -0.5419  0.0162 -0.6694
 7069SOL     OW24161   9.430   5.991   8.671  0.6593  0.0419 -0.3630
 7069SOL    HW124162   9.392   5.995   8.584 -0.7891  0.4521  0.2511
 7069SOL    HW224163   9.380   5.922   8.716  1.5737 -0.3645  0.0643
 7070SOL     OW24164   2.449   3.173   3.536 -0.1726  0.2208 -0.0665
 7070SOL    HW124165   2.396   3.248   3.509  0.3980 -0.5153 -3.7980
 7070SOL    HW224166   2.438   3.109   3.466  1.1560 -2.3110  1.8603
 7071SOL     OW24167   3.799   5.680   9.760 -0.1227 -0.1803 -0.4519
 7071SOL    HW124168   3.757   5.663   9.676 -0.1575 -1.1527 -0.2447
 7071SOL    HW224169   3.869   5.743   9.740 -0.2277 -0.2951 -1.1763
 7072SOL     OW24170   6.470   3.996   7.164 -0.2721 -0.3945  0.3975
 7072SOL    HW124171   6.395   4.006   7.223 -0.7323  0.3709 -0.2952
 7072SOL    HW224172   6.547   4.012   7.220 -0.7663  2.6512  0.3799
 7073SOL     OW24173   7.528   0.070   3.392 -0.1967  0.1924 -0.3398
 7073SOL    HW124174   7.512  -0.025   3.385  0.3841  0.1370 -0.9353
 7073SOL    HW224175   7.616   0.082   3.358 -0.6664  1.0926 -1.2939
 7074SOL     OW24176   8.198   0.912   1.858 -0.0844 -0.3204  0.4164
 7074SOL    HW124177   8.137   0.951   1.920 -0.5699 -0.9287  0.3294
 7074SOL    HW224178   8.247   0.847   1.909 -1.3666 -1.7354 -0.0962
 7075SOL     OW24179   9.419   1.463   1.341 -0.7725  0.3997 -0.1080
 7075SOL    HW124180   9.491   1.436   1.397 -0.5708  0.2206 -0.4506
 7075SOL    HW224181   9.393   1.383   1.294 -0.1240  0.7982 -1.1895
 7076SOL     OW24182   7.416   9.074   2.320  0.1305 -0.0575  0.2314
 7076SOL    HW124183   7.344   9.128   2.352  0.2283  0.2190 -0.0159
 7076SOL    HW224184   7.373   9.005   2.269  0.1503  1.8036 -2.5012
 7077SOL     OW24185   6.670   2.352   2.297 -0.1178 -0.1429  0.0517
 7077SOL    HW124186   6.653   2.353   2.203  1.4757 -1.2177 -0.3040
 7077SOL    HW224187   6.588   2.323   2.337 -0.3982 -1.0703 -1.1430
 7078SOL     OW24188   8.316   6.763   4.694 -0.2314  0.1699  0.5012
 7078SOL    HW124189   8.292   6.788   4.783  0.4199  2.9559 -0.0025
 7078SOL    HW224190   8.402   6.722   4.702 -0.0843  0.5889  1.1526
 7079SOL     OW24191   1.377   1.130   0.590  0.5369  0.7539  0.4796
 7079SOL    HW124192   1.419   1.070   0.529  0.0799  1.4103 -0.5095
 7079SOL    HW224193   1.363   1.078   0.669 -0.3932 -0.6290 -0.5502
 7080SOL     OW24194   9.237   9.681  10.682  0.2390 -0.3284 -0.2491
 7080SOL    HW124195   9.184   9.672  10.603 -0.4285  0.7969  0.0458
 7080SOL    HW224196   9.226   9.773  10.708  1.5280 -0.3321  0.3910
 7081SOL     OW24197   2.505   0.059   1.825 -0.3739  0.3539  0.0946
 7081SOL    HW124198   2.527   0.076   1.917  1.4608 -0.0020 -0.2353
 7081SOL    HW224199   2.560  -0.017   1.802  0.7759  1.6939 -1.8530
 7082SOL     OW24200   8.868   3.994   3.585  0.2697 -0.0358 -0.2995
 7082SOL    HW124201   8.854   3.967   3.495  2.3801 -2.5782  0.0170
 7082SOL    HW224202   8.852   3.915   3.637 -2.4329  1.7077  1.8346
 7083SOL     OW24203   7.833  10.243   6.305 -0.3892  0.5025 -0.4831
 7083SOL    HW124204   7.793  10.174   6.254 -0.0600 -0.0048 -0.0618
 7083SOL    HW224205   7.803  10.324   6.263  0.3299  0.1034 -1.8187
 7084SOL     OW24206   6.771   2.952   6.129  0.1201  0.1756 -0.2836
 7084SOL    HW124207   6.768   2.910   6.043 -2.2579  1.3437 -0.8740
 7084SOL    HW224208   6.774   2.879   6.191  1.2305 -0.7069 -1.3296
 7085SOL     OW24209   4.731   7.264   2.475  0.4199 -0.3034 -0.3642
 7085SOL    HW124210   4.650   7.289   2.430  1.7843  0.1321 -2.7331
 7085SOL    HW224211   4.749   7.337   2.534 -0.0920  0.3628 -1.0066
 7086SOL     OW24212   8.604   6.259   1.923  0.2690  0.4237  0.4173
 7086SOL    HW124213   8.564   6.277   2.009 -0.6700 -1.7552  0.4973
 7086SOL    HW224214   8.698   6.252   1.942  0.3763  2.3736  0.8023
 7087SOL     OW24215   2.358   9.748   8.066  0.1074  0.1948 -0.8043
 7087SOL    HW124216   2.378   9.655   8.055 -0.8095 -0.0073 -0.8646
 7087SOL    HW224217   2.289   9.750   8.132 -1.2161  0.6797 -2.1592
 7088SOL     OW24218   9.149   7.047   4.494  0.3629 -0.3467  0.2740
 7088SOL    HW124219   9.105   6.990   4.556  1.8226 -2.5196 -0.5773
 7088SOL    HW224220   9.133   7.006   4.408 -0.2347  1.6685 -0.6365
 7089SOL     OW24221   6.130   3.352   6.804  0.1887  0.5314  0.0119
 7089SOL    HW124222   6.082   3.308   6.734 -0.5952  0.1519  0.7735
 7089SOL    HW224223   6.175   3.424   6.760 -0.0651  0.1292 -0.9294
 7090SOL     OW24224   4.365   2.683   8.639  0.2010  0.8736 -0.1834
 7090SOL    HW124225   4.431   2.632   8.592 -0.4210 -0.2986  0.1667
 7090SOL    HW224226   4.358   2.640   8.724 -2.1295 -0.0191 -0.7656
 7091SOL     OW24227   4.569   6.931   2.751 -0.5361 -0.4436 -0.2695
 7091SOL    HW124228   4.511   6.868   2.793 -1.8334  1.1975  0.5107
 7091SOL    HW224229   4.648   6.931   2.805 -1.0174 -0.5039  0.4374
 7092SOL     OW24230   1.714   4.870   7.911  0.1069  0.0107 -0.3689
 7092SOL    HW124231   1.665   4.834   7.985  1.2093  2.9239  1.9779
 7092SOL    HW224232   1.647   4.906   7.853 -0.7716 -2.2784 -0.8677
 7093SOL     OW24233   3.483   0.098   2.700  0.1143  0.1579  0.1421
 7093SOL    HW124234   3.510   0.164   2.636 -0.2495  0.3074  0.1437
 7093SOL    HW224235   3.388   0.097   2.696  0.0032  1.2870  1.7963
 7094SOL     OW24236   4.628   9.389   6.734 -0.1316 -0.2747 -0.0671
 7094SOL    HW124237   4.584   9.385   6.819 -0.1214  1.8460  0.0989
 7094SOL    HW224238   4.721   9.402   6.755  0.0589 -1.0625 -0.4071
 7095SOL     OW24239  10.263   4.281   9.887  0.1792 -0.3374 -0.2922
 7095SOL    HW124240  10.322   4.352   9.912 -0.3071 -0.0404  0.0406
 7095SOL    HW224241  10.188   4.325   9.846 -0.2938 -0.6295  0.2491
 7096SOL     OW24242  10.234  10.569   6.131 -0.4292  0.2533  0.2935
 7096SOL    HW124243  10.329  10.568   6.119 -0.5380 -0.7337 -0.6215
 7096SOL    HW224244  10.214  10.486   6.173 -0.8959  0.4574  0.4811
 7097SOL     OW24245   3.870   0.101   1.301 -0.2247  0.4699 -0.5505
 7097SOL    HW124246   3.840   0.188   1.329 -2.5645 -0.6639  0.7222
 7097SOL    HW224247   3.965   0.109   1.297 -0.3773  3.2764 -1.1790
 7098SOL     OW24248   0.905   2.081   8.944  0.3610 -0.5932 -0.4163
 7098SOL    HW124249   0.957   2.006   8.915  1.2785 -0.7438  1.4558
 7098SOL    HW224250   0.846   2.045   9.010 -1.6307 -0.2731 -1.9610
 7099SOL     OW24251   1.214   0.400   6.567 -0.3192 -0.5259 -0.0373
 7099SOL    HW124252   1.169   0.334   6.514  0.1385  0.4781 -1.7751
 7099SOL    HW224253   1.181   0.484   6.533  0.1691  0.1639  1.1339
 7100SOL     OW24254   0.163   7.495   1.508  0.1656 -0.3350 -0.4393
 7100SOL    HW124255   0.252   7.512   1.478  0.2870  0.9227  0.5662
 7100SOL    HW224256   0.140   7.412   1.467  1.7469 -0.6250 -0.8169
 7101SOL     OW24257   0.638   2.305   6.421  0.4121  0.0011  0.1843
 7101SOL    HW124258   0.726   2.307   6.459  0.7462 -0.3470 -0.5455
 7101SOL    HW224259   0.653   2.305   6.326 -0.3638 -0.6228  0.0525
 7102SOL     OW24260   7.212   5.637   6.673 -0.4826  0.1582 -0.2133
 7102SOL    HW124261   7.146   5.603   6.612 -0.0645  1.1396 -1.2349
 7102SOL    HW224262   7.254   5.558   6.708 -1.4085 -0.4471 -0.4195
 7103SOL     OW24263  10.350   6.763   4.434  0.6470  0.3544 -0.4999
 7103SOL    HW124264  10.368   6.759   4.340  0.8478 -2.2076 -0.4345
 7103SOL    HW224265  10.435   6.749   4.476  0.1904 -1.3776 -0.0440
 7104SOL     OW24266  10.583   5.777   2.883  0.1895  0.1878 -0.0959
 7104SOL    HW124267  10.510   5.734   2.838 -0.6764  0.9468  0.5377
 7104SOL    HW224268  10.611   5.714   2.950  2.1766 -1.3884 -2.2643
 7105SOL     OW24269   8.959   3.308   8.875  0.3877  0.0875  0.2898
 7105SOL    HW124270   8.978   3.356   8.956 -1.3475 -2.5145  2.4212
 7105SOL    HW224271   8.864   3.318   8.863  0.6062  0.3789 -1.4583
 7106SOL     OW24272   3.041   8.113   8.042  0.7546  0.0154  0.5234
 7106SOL    HW124273   3.069   8.093   8.131  1.2672  2.4200  0.9658
 7106SOL    HW224274   2.950   8.085   8.038  0.5495  0.4005  2.0030
 7107SOL     OW24275   7.358   7.580   6.169 -0.8587 -0.2778 -0.4564
 7107SOL    HW124276   7.288   7.603   6.230  0.2614  0.7095  0.5177
 7107SOL    HW224277   7.438   7.587   6.221  0.2314  1.4004 -2.2035
 7108SOL     OW24278  10.302   5.898   3.192 -0.0485 -0.2384  0.3797
 7108SOL    HW124279  10.307   5.893   3.287  0.0036  0.2866  0.4064
 7108SOL    HW224280  10.286   5.808   3.164 -0.1600 -0.3782  0.8899
 7109SOL     OW24281   5.019   3.358   8.032  0.1907 -0.0226 -0.1543
 7109SOL    HW124282   5.043   3.450   8.036  2.2825 -0.5151 -0.2023
 7109SOL    HW224283   4.957   3.346   8.104  0.5675  1.2203  0.3976
 7110SOL     OW24284  10.005   2.077   4.003 -0.2053 -0.2657  0.1602
 7110SOL    HW124285   9.932   2.103   4.058 -1.5121  0.0780 -1.6237
 7110SOL    HW224286  10.065   2.032   4.062  0.8532  4.0945  2.8870
 7111SOL     OW24287   5.300   7.934   7.256 -0.2409  0.1170  0.4858
 7111SOL    HW124288   5.216   7.889   7.257 -0.1838 -0.0010  1.8503
 7111SOL    HW224289   5.344   7.903   7.335 -0.3829  2.8776  1.7414
 7112SOL     OW24290   8.765   6.148   3.352 -0.1858 -0.0818  0.0168
 7112SOL    HW124291   8.834   6.140   3.417  2.2341  4.2898 -1.5482
 7112SOL    HW224292   8.809   6.133   3.268 -2.1953 -1.3105 -0.8872
 7113SOL     OW24293   7.029   0.257   0.587  0.2001 -0.0255 -0.4923
 7113SOL    HW124294   7.062   0.231   0.673 -0.0308 -0.4385 -0.5277
 7113SOL    HW224295   7.104   0.297   0.543 -0.0695  1.6680  0.4949
 7114SOL     OW24296   8.330   9.482   4.296  0.7762 -0.3390  0.4448
 7114SOL    HW124297   8.403   9.538   4.324 -0.1371  0.5516  1.0889
 7114SOL    HW224298   8.330   9.489   4.200  0.4312  1.1052  0.5349
 7115SOL     OW24299   3.838  10.333   4.636  0.1438  0.1616 -0.2433
 7115SOL    HW124300   3.850  10.394   4.709  0.8211 -1.8092  1.3849
 7115SOL    HW224301   3.926  10.320   4.600  0.2797 -1.0141  0.4542
 7116SOL     OW24302   9.112   0.034   6.728 -0.7834  0.2288  0.6044
 7116SOL    HW124303   9.167   0.043   6.650  1.5821 -1.0235  2.0322
 7116SOL    HW224304   9.094   0.124   6.755  0.4143  0.6888 -0.0503
 7117SOL     OW24305   0.150   5.631   4.800 -0.1333  0.1272 -0.1427
 7117SOL    HW124306   0.069   5.681   4.786  0.1151  0.3672 -0.7755
 7117SOL    HW224307   0.185   5.665   4.883  0.4679  1.6404 -0.9690
 7118SOL     OW24308   6.138   9.638   8.645 -0.5575  0.4242 -0.0405
 7118SOL    HW124309   6.109   9.548   8.626  1.4202 -0.3731  0.4354
 7118SOL    HW224310   6.201   9.658   8.577  0.9700  0.4082  1.3008
 7119SOL     OW24311   1.470   8.728   4.175 -0.4920  0.0061  0.3737
 7119SOL    HW124312   1.432   8.653   4.220  0.8964 -1.2318 -0.4174
 7119SOL    HW224313   1.564   8.712   4.178 -0.2408  1.1090 -0.8712
 7120SOL     OW24314   7.153   1.406   7.682 -0.7061  0.1966 -0.1434
 7120SOL    HW124315   7.209   1.445   7.615 -0.4425  0.3501  0.1628
 7120SOL    HW224316   7.172   1.457   7.761  0.8508 -1.5571  0.6992
 7121SOL     OW24317  10.198   6.766   7.486 -0.3404  0.0995  0.1302
 7121SOL    HW124318  10.221   6.855   7.513 -0.7791 -0.0880  1.1578
 7121SOL    HW224319  10.111   6.775   7.447  0.6339  0.5137 -2.1331
 7122SOL     OW24320   2.870   9.356   5.863  0.5115  0.3123  0.0488
 7122SOL    HW124321   2.794   9.368   5.805  0.9591 -1.2528 -0.9301
 7122SOL    HW224322   2.833   9.322   5.944 -0.0949  2.2461  0.6457
 7123SOL     OW24323   8.140   7.858   1.910 -0.0480 -0.0706  0.2774
 7123SOL    HW124324   8.066   7.827   1.857  0.4730  0.0238 -0.5253
 7123SOL    HW224325   8.118   7.949   1.930 -0.5973 -0.3234  0.8674
 7124SOL     OW24326   1.347   0.133   7.116  0.0867  0.0039  0.3007
 7124SOL    HW124327   1.308   0.211   7.155  0.5484  0.6871 -0.5652
 7124SOL    HW224328   1.427   0.164   7.074 -0.1240 -0.7780 -0.7449
 7125SOL     OW24329   0.792   5.865   4.730  0.4782  0.0497 -0.3500
 7125SOL    HW124330   0.741   5.793   4.767  0.2130  0.2011 -0.4241
 7125SOL    HW224331   0.732   5.910   4.671 -0.3866  2.2561  2.0399
 7126SOL     OW24332   4.712   6.016   9.726  0.2441 -0.6049 -0.4223
 7126SOL    HW124333   4.657   6.094   9.718  0.4455 -0.4757 -0.5434
 7126SOL    HW224334   4.714   5.979   9.638 -0.3655 -1.1005 -0.2421
 7127SOL     OW24335   5.507   5.044   6.922  0.6680 -0.1522 -0.2702
 7127SOL    HW124336   5.563   5.122   6.920 -0.0542  0.4245  0.7545
 7127SOL    HW224337   5.541   4.993   6.996 -0.1581  0.2229  0.3852
 7128SOL     OW24338   1.222   6.044   7.224  0.4128  0.2475 -0.1494
 7128SOL    HW124339   1.246   6.079   7.311 -2.4081  2.4263 -0.1094
 7128SOL    HW224340   1.135   6.007   7.236 -0.4896  1.5262 -2.2255
 7129SOL     OW24341   2.982   9.378   1.961 -0.1249  0.0298  0.3986
 7129SOL    HW124342   3.006   9.319   2.033  0.4197  0.5447  0.6449
 7129SOL    HW224343   3.059   9.433   1.949 -0.1314 -0.1783 -0.7136
 7130SOL     OW24344   6.834   9.156   4.593 -0.3606  0.1282  0.9707
 7130SOL    HW124345   6.906   9.195   4.643 -0.6174 -0.5815  1.9381
 7130SOL    HW224346   6.823   9.213   4.517  0.5077  0.8494  1.3691
 7131SOL     OW24347   5.343   9.308   5.579  0.3941 -0.2614  0.2183
 7131SOL    HW124348   5.305   9.255   5.649 -0.1659  0.6678  0.6394
 7131SOL    HW224349   5.394   9.246   5.527 -0.4075 -1.2453  0.5710
 7132SOL     OW24350   4.533   9.888   4.646 -0.3206  0.2177 -0.4874
 7132SOL    HW124351   4.491   9.808   4.677 -0.8965  0.6134 -0.2487
 7132SOL    HW224352   4.622   9.884   4.682 -0.5031 -0.0659 -0.0700
 7133SOL     OW24353   4.567   6.793   3.632 -0.6554 -0.3543  0.6561
 7133SOL    HW124354   4.570   6.775   3.538 -1.1464  1.2154  0.3049
 7133SOL    HW224355   4.483   6.759   3.661 -1.6485  1.3646 -0.0274
 7134SOL     OW24356   8.544  10.146   7.520  0.5695 -0.3198 -0.3010
 7134SOL    HW124357   8.563  10.106   7.435  3.4532  0.3365 -0.0651
 7134SOL    HW224358   8.628  10.148   7.565 -1.1190 -2.2810  3.3604
 7135SOL     OW24359   3.106  10.515   7.270 -0.1905 -0.4691  0.0455
 7135SOL    HW124360   3.084  10.423   7.261  0.6990 -0.6068 -0.8801
 7135SOL    HW224361   3.197  10.521   7.241  0.1357  0.5179  1.1800
 7136SOL     OW24362   4.468   7.199   7.783  0.2584  0.0380 -0.5498
 7136SOL    HW124363   4.478   7.219   7.690 -0.8417  0.8693 -0.5191
 7136SOL    HW224364   4.482   7.283   7.827 -0.0659 -0.1693 -0.0377
 7137SOL     OW24365   6.839   0.152   3.432  0.3245  0.1608  0.3259
 7137SOL    HW124366   6.913   0.162   3.372 -0.0867 -2.7835 -0.8468
 7137SOL    HW224367   6.874   0.099   3.504 -0.1233  0.5525  0.8349
 7138SOL     OW24368   5.900   5.917   6.229 -0.0247  0.0882 -0.8228
 7138SOL    HW124369   5.929   5.899   6.139  2.3776  1.7585 -0.4753
 7138SOL    HW224370   5.918   6.010   6.242 -1.3012  0.1265  1.0857
 7139SOL     OW24371   9.355   8.564   1.990  0.3663 -0.2007  0.4115
 7139SOL    HW124372   9.266   8.527   1.984  0.0481  0.7255 -0.9330
 7139SOL    HW224373   9.412   8.488   1.981 -0.2884 -0.5294 -1.5333
 7140SOL     OW24374   4.758   5.692   0.633  0.1070  0.1661 -0.2568
 7140SOL    HW124375   4.690   5.672   0.697  1.1097 -1.6871  0.2740
 7140SOL    HW224376   4.837   5.652   0.668  0.6879 -0.9757 -2.6514
 7141SOL     OW24377   8.977   6.283   9.581 -0.6246  0.4300  0.0047
 7141SOL    HW124378   8.906   6.327   9.629 -0.4456  1.1703 -0.3893
 7141SOL    HW224379   9.020   6.354   9.533 -0.6750 -0.2664 -1.1007
 7142SOL     OW24380   3.710   0.462   9.934 -0.4521  0.0885 -0.2529
 7142SOL    HW124381   3.765   0.436  10.007 -0.2523 -0.1098 -0.4741
 7142SOL    HW224382   3.710   0.558   9.937 -1.0668  0.0699  0.4662
 7143SOL     OW24383   7.710   1.888   1.025  0.0560 -0.6514  0.3950
 7143SOL    HW124384   7.701   1.793   1.014  1.3728 -0.5206 -2.6311
 7143SOL    HW224385   7.739   1.898   1.116  0.5233 -3.2011  0.6111
 7144SOL     OW24386   1.893   5.526   4.752 -0.0025  0.0059 -0.1969
 7144SOL    HW124387   1.822   5.492   4.697  0.8992 -0.9998 -0.7764
 7144SOL    HW224388   1.969   5.529   4.694  0.1420  2.4189  0.0230
 7145SOL     OW24389   2.559   5.375   3.642  0.1163  0.1447  0.3666
 7145SOL    HW124390   2.464   5.383   3.643  0.1877  1.0804  1.4808
 7145SOL    HW224391   2.589   5.451   3.591  0.2672 -0.2510 -0.1433
 7146SOL     OW24392   3.038  10.344  10.554  0.0637 -0.4761 -0.3997
 7146SOL    HW124393   3.060  10.437  10.556 -0.6375 -0.2837 -1.3179
 7146SOL    HW224394   2.998  10.330  10.469  0.8349 -1.7880 -0.5737
 7147SOL     OW24395   9.902   5.286   2.917  0.2030 -0.2777  0.3281
 7147SOL    HW124396   9.822   5.269   2.967  0.2585  0.4968  0.6896
 7147SOL    HW224397   9.959   5.212   2.938  0.9200  0.8713  2.8659
 7148SOL     OW24398  10.035   9.609   9.919 -0.3879  0.7815  0.3553
 7148SOL    HW124399  10.020   9.685   9.975 -0.7868  2.4889 -1.9522
 7148SOL    HW224400   9.948   9.585   9.887 -0.1054  0.2044  0.0093
 7149SOL     OW24401  10.552  10.601   4.658 -0.1080  0.0036  0.1381
 7149SOL    HW124402  10.493  10.588   4.584 -2.0004 -0.1386  1.5811
 7149SOL    HW224403  10.531  10.529   4.718  0.6839  0.6565  1.2322
 7150SOL     OW24404   7.614   7.788   7.679  0.3521  0.2465  0.0786
 7150SOL    HW124405   7.644   7.827   7.762  0.2024  0.8322 -0.1401
 7150SOL    HW224406   7.548   7.848   7.647 -0.2913 -0.4849  0.0091
 7151SOL     OW24407   9.311   4.131   0.126 -0.6513 -0.1967  0.1352
 7151SOL    HW124408   9.280   4.188   0.197 -2.2666  0.3401 -0.9606
 7151SOL    HW224409   9.374   4.073   0.169 -1.3066  0.3438  1.9361
 7152SOL     OW24410   1.062   1.189   3.520 -0.1639 -0.6008  0.0692
 7152SOL    HW124411   0.971   1.217   3.528  0.6504  2.1646  0.7809
 7152SOL    HW224412   1.101   1.210   3.605  2.0976  2.5385 -1.5003
 7153SOL     OW24413   3.794   9.767   7.816  0.1333  0.7027 -1.3267
 7153SOL    HW124414   3.816   9.697   7.754 -2.3131 -0.1595 -1.3353
 7153SOL    HW224415   3.849   9.749   7.893 -1.5958 -2.4031 -0.6259
 7154SOL     OW24416   1.821   6.018   6.898 -0.0101 -0.0679 -0.3758
 7154SOL    HW124417   1.750   5.957   6.917  0.6174 -1.1365 -1.3306
 7154SOL    HW224418   1.806   6.045   6.808  0.6322 -0.0913 -0.4960
 7155SOL     OW24419  10.090   3.150   0.646 -0.8896  0.0379  0.4714
 7155SOL    HW124420  10.144   3.096   0.704  1.4897  0.2974 -1.3475
 7155SOL    HW224421  10.140   3.154   0.565 -1.7447  3.6350 -0.0224
 7156SOL     OW24422  10.361   5.670   5.668 -0.0042  0.0075 -0.0451
 7156SOL    HW124423  10.438   5.615   5.681  0.3507  0.7572  1.2059
 7156SOL    HW224424  10.346   5.711   5.753 -0.6093  1.3854 -0.7777
 7157SOL     OW24425   6.023   9.260   8.312  0.2054  0.2832 -0.2106
 7157SOL    HW124426   6.030   9.276   8.218  1.0269 -1.1810 -0.4213
 7157SOL    HW224427   5.941   9.302   8.338 -0.4152  0.0521 -1.7196
 7158SOL     OW24428   4.771   8.055   4.743 -1.0855  0.4571  0.0787
 7158SOL    HW124429   4.721   8.134   4.723 -0.6949  0.9709  1.0369
 7158SOL    HW224430   4.841   8.086   4.801  0.9527 -0.0453 -1.9827
 7159SOL     OW24431   7.892   4.257   8.066 -0.3900  0.0226 -0.3220
 7159SOL    HW124432   7.937   4.304   8.136 -1.1120 -1.3804  1.1215
 7159SOL    HW224433   7.890   4.320   7.993  1.8652  0.9262  0.2977
 7160SOL     OW24434   3.466   0.269   4.682  0.1487 -0.6744 -0.1119
 7160SOL    HW124435   3.370   0.266   4.686  0.1322 -0.9401 -0.5793
 7160SOL    HW224436   3.494   0.281   4.773 -0.2793 -2.0058  0.2215
 7161SOL     OW24437   9.682   6.100   3.314 -0.0549 -0.5085 -0.2052
 7161SOL    HW124438   9.741   6.112   3.389 -0.0684 -1.7435  0.0318
 7161SOL    HW224439   9.734   6.124   3.238 -0.3033  1.5979  0.2272
 7162SOL     OW24440   3.733   9.577   0.420 -0.6541 -0.0535 -0.1947
 7162SOL    HW124441   3.785   9.656   0.439 -0.8798  0.3119 -1.0566
 7162SOL    HW224442   3.742   9.566   0.325 -2.4420  0.2237 -0.4212
 7163SOL     OW24443   3.952   6.682  10.319  0.5310 -0.2084 -0.3420
 7163SOL    HW124444   3.911   6.742  10.381  1.1088 -1.0416  0.8801
 7163SOL    HW224445   3.947   6.596  10.361  2.0680 -0.5960 -0.8904
 7164SOL     OW24446   3.220   9.211   0.173 -0.3730 -0.4400 -0.3239
 7164SOL    HW124447   3.150   9.151   0.146 -1.1621 -0.4260  1.5569
 7164SOL    HW224448   3.254   9.174   0.253  1.3144 -0.0342 -0.8147
 7165SOL     OW24449  10.204   4.380   0.610  0.7889  0.5406 -0.3398
 7165SOL    HW124450  10.183   4.381   0.516 -1.5333  1.7153  0.1283
 7165SOL    HW224451  10.179   4.467   0.641  0.2161 -0.2818  1.6403
 7166SOL     OW24452   6.913   0.332   9.882 -0.6098  0.3947  0.6292
 7166SOL    HW124453   6.907   0.418   9.923 -0.4605  0.0861  1.3234
 7166SOL    HW224454   6.906   0.349   9.788 -0.6545  1.1521  0.7633
 7167SOL     OW24455   4.376   7.883  10.250  0.0224  0.3101 -0.3037
 7167SOL    HW124456   4.437   7.810  10.257 -0.4106  0.0517  1.0304
 7167SOL    HW224457   4.365   7.914  10.340  0.0558  1.9153 -0.8047
 7168SOL     OW24458   6.415   1.432   3.419 -0.4953 -0.7541 -0.0599
 7168SOL    HW124459   6.469   1.403   3.492  0.4778 -1.2930 -0.9759
 7168SOL    HW224460   6.441   1.523   3.405 -1.9763 -0.0489  1.3876
 7169SOL     OW24461   6.017   8.035   5.830 -0.1904 -0.0202 -0.0590
 7169SOL    HW124462   6.040   8.123   5.862 -0.4109 -0.4354  1.2986
 7169SOL    HW224463   5.969   8.051   5.749  1.7706  1.0124 -1.1054
 7170SOL     OW24464   9.157   8.721   6.651  0.1461  0.4614  0.2090
 7170SOL    HW124465   9.080   8.735   6.597  0.6550  3.3448  0.1087
 7170SOL    HW224466   9.126   8.734   6.741 -0.0417 -1.2610  0.4260
 7171SOL     OW24467   4.542   2.315   1.593 -0.2720  0.3160  1.1053
 7171SOL    HW124468   4.606   2.303   1.663  0.7552  0.7957  0.2796
 7171SOL    HW224469   4.587   2.286   1.514 -1.8490 -1.4218  0.7840
 7172SOL     OW24470   5.505  10.332   8.072  0.2626 -0.5295  0.2061
 7172SOL    HW124471   5.438  10.334   8.139 -0.3745 -1.6767 -0.3675
 7172SOL    HW224472   5.549  10.417   8.079 -0.4557 -0.2369  1.3760
 7173SOL     OW24473   0.719   5.728   9.109 -0.1165  0.4501 -0.9871
 7173SOL    HW124474   0.659   5.702   9.179  0.3667  0.8788 -0.3998
 7173SOL    HW224475   0.805   5.697   9.139 -0.0540 -0.3171 -1.8972
 7174SOL     OW24476  10.645   6.563   9.580 -0.4669 -0.1120  0.7267
 7174SOL    HW124477  10.678   6.644   9.620 -1.2661  0.1322  0.9206
 7174SOL    HW224478  10.717   6.532   9.526 -0.5717  1.4354 -0.3702
 7175SOL     OW24479   5.123   1.090   7.630  0.2594 -0.5387  0.1981
 7175SOL    HW124480   5.182   1.130   7.566 -0.1898 -1.1861 -0.6263
 7175SOL    HW224481   5.093   1.009   7.589 -2.0616  0.2862  0.1228
 7176SOL     OW24482   7.293   8.856   2.180  0.7336  0.0430 -0.4432
 7176SOL    HW124483   7.215   8.833   2.128 -0.2907 -0.0224  1.0759
 7176SOL    HW224484   7.329   8.771   2.206  0.9142  0.0846 -0.5562
 7177SOL     OW24485   6.007   8.042   1.122  0.8413 -0.5747  0.0523
 7177SOL    HW124486   5.918   8.063   1.150  0.5179 -1.0827 -0.5671
 7177SOL    HW224487   6.052   8.127   1.116 -0.3156 -0.0513 -2.0467
 7178SOL     OW24488   8.545   3.207   1.351 -0.0901 -0.2861 -0.3496
 7178SOL    HW124489   8.593   3.211   1.434 -0.8721  1.6923  0.0794
 7178SOL    HW224490   8.602   3.158   1.292  2.6223  2.0692  0.0717
 7179SOL     OW24491   6.773   2.951   6.488  0.2821  0.1841  0.4479
 7179SOL    HW124492   6.811   3.036   6.508 -0.1172  1.1775 -2.4980
 7179SOL    HW224493   6.843   2.904   6.443 -0.9329  0.9429 -2.4246
 7180SOL     OW24494   7.489   0.026   6.938  0.1788  0.1859 -0.1137
 7180SOL    HW124495   7.530   0.094   6.990 -1.3906  0.1758  1.2562
 7180SOL    HW224496   7.492   0.058   6.848 -0.4233  2.0414  0.4750
 7181SOL     OW24497   9.508   7.061   1.823  0.5256 -0.6976  0.0646
 7181SOL    HW124498   9.427   7.016   1.799 -0.5944 -0.1734  2.5451
 7181SOL    HW224499   9.489   7.103   1.907  1.7632  3.7006 -1.5495
 7182SOL     OW24500   7.490   3.134   8.262  0.0434 -0.3361 -0.1903
 7182SOL    HW124501   7.578   3.136   8.300  0.8153  0.0907 -1.9045
 7182SOL    HW224502   7.504   3.107   8.171 -2.0012 -3.9064  0.3811
 7183SOL     OW24503   1.048   5.565   5.994 -0.1577 -0.5036 -0.1993
 7183SOL    HW124504   1.025   5.520   5.913  0.5949  1.0946 -1.3401
 7183SOL    HW224505   1.110   5.506   6.037 -1.9859 -2.2495  0.1977
 7184SOL     OW24506   9.158   0.871   7.622 -0.6057 -0.0550 -0.5073
 7184SOL    HW124507   9.146   0.818   7.543 -0.2418 -0.7564 -0.1001
 7184SOL    HW224508   9.253   0.869   7.637 -0.8477 -1.5044  1.0199
 7185SOL     OW24509   7.923   9.955   9.095 -0.2530 -0.3480 -0.4719
 7185SOL    HW124510   7.993  10.002   9.050 -1.8460  0.8236 -1.8477
 7185SOL    HW224511   7.924   9.867   9.056 -0.8603  0.2995 -2.0248
 7186SOL     OW24512   7.347   1.452   3.126 -0.4783 -0.2949 -0.3546
 7186SOL    HW124513   7.397   1.380   3.087  1.3281  0.1703  0.9750
 7186SOL    HW224514   7.283   1.408   3.182 -1.5055 -0.8975 -1.9230
 7187SOL     OW24515   5.363   7.847   5.008 -0.4839  0.5837 -0.4255
 7187SOL    HW124516   5.388   7.898   5.085  1.2010 -1.1223  0.2378
 7187SOL    HW224517   5.319   7.770   5.045 -0.7055  0.3106 -1.2475
 7188SOL     OW24518   7.465   7.347   2.270  0.5771  0.7130  0.7193
 7188SOL    HW124519   7.372   7.323   2.272  0.3553  1.5709  1.3041
 7188SOL    HW224520   7.487   7.349   2.177 -0.5858  2.6792  0.4403
 7189SOL     OW24521   6.238  10.377   4.456 -0.1107 -0.3571  0.3104
 7189SOL    HW124522   6.199  10.457   4.490  0.7360  0.1904  0.0215
 7189SOL    HW224523   6.200  10.307   4.510 -0.1109  0.3266  1.2173
 7190SOL     OW24524   5.308   3.974   0.134 -0.9953 -0.3142  0.0977
 7190SOL    HW124525   5.217   3.945   0.133 -1.3553  0.5923 -2.3316
 7190SOL    HW224526   5.313   4.036   0.060  0.5177  3.1220  2.7839
 7191SOL     OW24527   2.870   3.296   3.589  0.3554 -0.1737  0.3577
 7191SOL    HW124528   2.812   3.352   3.538 -0.0802 -1.5929 -0.7915
 7191SOL    HW224529   2.891   3.223   3.530  3.0016  0.0702  0.8518
 7192SOL     OW24530   7.753  10.518   6.535  0.2038 -0.3415 -0.1140
 7192SOL    HW124531   7.716  10.498   6.449 -0.7158  1.1030 -0.0893
 7192SOL    HW224532   7.716  10.451   6.593  2.4290 -2.6192 -1.1279
 7193SOL     OW24533  10.063   0.552   1.148  0.0483  0.0749  0.4995
 7193SOL    HW124534  10.035   0.521   1.235 -0.0953 -2.9446 -0.4942
 7193SOL    HW224535  10.061   0.647   1.155  0.3739 -0.0247  3.9107
 7194SOL     OW24536   9.808   8.246   1.486 -0.3504 -0.6410 -0.4621
 7194SOL    HW124537   9.734   8.303   1.468  0.1964  0.9314  1.8061
 7194SOL    HW224538   9.774   8.181   1.547 -0.2671 -0.9783 -0.7700
 7195SOL     OW24539  10.559   8.902   9.587 -0.1223  0.0697 -0.4731
 7195SOL    HW124540  10.534   8.817   9.624  2.1702 -0.3347  0.3274
 7195SOL    HW224541  10.607   8.880   9.507  0.8496  0.5486 -0.0402
 7196SOL     OW24542   1.335   8.443   1.042  0.1156 -0.3466 -0.7977
 7196SOL    HW124543   1.268   8.432   1.110  1.6324  1.5069  1.1264
 7196SOL    HW224544   1.411   8.394   1.075  0.1226 -1.5264 -2.4350
 7197SOL     OW24545   6.147   4.363   3.423  0.4011 -0.0681 -0.1357
 7197SOL    HW124546   6.090   4.378   3.348  0.7406 -0.1599 -0.4127
 7197SOL    HW224547   6.108   4.289   3.469  0.5468 -0.4269 -0.5792
 7198SOL     OW24548   1.466   4.055   5.675 -0.3201 -0.5017 -0.0868
 7198SOL    HW124549   1.497   4.014   5.594 -0.4229 -0.7835  0.0172
 7198SOL    HW224550   1.405   4.123   5.644 -0.0057 -0.2962 -0.2642
 7199SOL     OW24551   2.379  10.187   1.742 -0.0606  0.0627  0.0334
 7199SOL    HW124552   2.463  10.209   1.784 -0.2885  0.6344  0.2071
 7199SOL    HW224553   2.398  10.188   1.648 -0.3123  2.2480 -0.0469
 7200SOL     OW24554   5.511   3.880   8.784  0.4026  0.1333 -0.2950
 7200SOL    HW124555   5.421   3.904   8.807  1.2770  3.1715  0.4609
 7200SOL    HW224556   5.542   3.829   8.858 -0.3897 -0.0492 -0.0769
 7201SOL     OW24557   6.576   9.006   6.938  0.0817 -0.9590  0.1340
 7201SOL    HW124558   6.603   9.093   6.969 -0.2337 -1.0404  0.6477
 7201SOL    HW224559   6.542   8.962   7.016 -0.9794 -1.0692 -0.3663
 7202SOL     OW24560   6.075   5.338   5.669 -0.3245  0.2979  0.4833
 7202SOL    HW124561   5.997   5.304   5.713 -1.4483  2.2008  0.0877
 7202SOL    HW224562   6.148   5.293   5.712 -1.4566  0.6990  3.0303
 7203SOL     OW24563   8.657   8.257   4.072 -0.8308 -0.1198  0.5691
 7203SOL    HW124564   8.742   8.287   4.039 -0.7413 -0.8220  0.1251
 7203SOL    HW224565   8.640   8.312   4.148  0.1871 -0.2018  0.8690
 7204SOL     OW24566   1.886  10.548   9.356  0.5608  0.2582 -0.6448
 7204SOL    HW124567   1.887  10.535   9.450  0.1815 -0.6302 -0.7529
 7204SOL    HW224568   1.951  10.617   9.340 -0.5458  1.6071  0.4267
 7205SOL     OW24569   5.607   8.792   8.493  0.3106  0.3803 -0.8768
 7205SOL    HW124570   5.560   8.777   8.576  1.0007  0.5654 -0.4432
 7205SOL    HW224571   5.588   8.714   8.441 -0.4842  0.4522 -0.7174
 7206SOL     OW24572   5.561   1.442   2.340 -0.0479 -0.7049 -0.0243
 7206SOL    HW124573   5.487   1.502   2.329  0.8219  0.4587  0.2604
 7206SOL    HW224574   5.634   1.499   2.365  0.4130 -2.0898  1.9316
 7207SOL     OW24575   2.116  10.435   2.163  0.5986  0.1026 -0.0794
 7207SOL    HW124576   2.051  10.473   2.104 -1.6610 -0.7525  1.6869
 7207SOL    HW224577   2.065  10.378   2.221  3.1492 -1.6644  0.5843
 7208SOL     OW24578   3.768   8.443   6.470  0.0156  0.1988 -0.0982
 7208SOL    HW124579   3.821   8.492   6.408  1.4786  0.3232  1.1972
 7208SOL    HW224580   3.709   8.391   6.415  1.5530 -0.0369 -1.6045
 7209SOL     OW24581  10.272   1.025   1.303  0.2938 -0.7042 -0.1476
 7209SOL    HW124582  10.182   1.034   1.273  0.8107 -2.7401 -2.6257
 7209SOL    HW224583  10.316   1.104   1.271 -0.2018 -0.6222 -0.6360
 7210SOL     OW24584   0.926   8.910   9.806 -0.2690  0.3622 -0.0103
 7210SOL    HW124585   0.834   8.892   9.820  0.1311 -2.2051 -0.2470
 7210SOL    HW224586   0.971   8.831   9.836  1.6869  0.7170 -1.7841
 7211SOL     OW24587   0.333   5.290   1.721 -0.3436 -0.1206 -0.0310
 7211SOL    HW124588   0.321   5.382   1.697  0.9114  0.3280  0.9130
 7211SOL    HW224589   0.394   5.293   1.795  0.4140 -1.7622 -0.5499
 7212SOL     OW24590   1.106   9.067   5.124 -0.6002  0.2125  0.0381
 7212SOL    HW124591   1.061   9.146   5.154  0.9197 -0.0384  3.5250
 7212SOL    HW224592   1.066   8.996   5.175 -0.3233 -0.9457 -1.2841
 7213SOL     OW24593   4.705  10.072   0.122  0.3727  0.3594  0.0308
 7213SOL    HW124594   4.656  10.120   0.055  1.2511 -0.0413 -0.9349
 7213SOL    HW224595   4.793  10.064   0.086  0.6025 -0.7660  0.7884
 7214SOL     OW24596   8.607   6.206   8.909 -0.2197 -0.0353 -0.0294
 7214SOL    HW124597   8.556   6.276   8.866  0.2056 -0.4535 -1.2680
 7214SOL    HW224598   8.664   6.173   8.839  1.7535  0.3930  1.3071
 7215SOL     OW24599   7.128   1.455   4.597  0.2787 -0.1965 -0.1470
 7215SOL    HW124600   7.123   1.366   4.633  0.1506  0.1380  0.6866
 7215SOL    HW224601   7.075   1.451   4.518  0.3285 -0.8813 -0.1595
 7216SOL     OW24602   9.159   6.431   3.913 -0.3957  0.1052  0.3234
 7216SOL    HW124603   9.138   6.512   3.867 -3.4891 -0.8589 -0.1486
 7216SOL    HW224604   9.212   6.381   3.851 -0.9543  0.5490 -0.5234
 7217SOL     OW24605   2.493   0.846   3.062  0.1468  0.3710 -0.2955
 7217SOL    HW124606   2.531   0.763   3.033 -1.2225 -0.5274  0.3832
 7217SOL    HW224607   2.451   0.882   2.984 -1.5032 -0.8852 -0.0444
 7218SOL     OW24608   1.357   5.816   6.704  0.4010  0.5407  0.4039
 7218SOL    HW124609   1.353   5.909   6.683  1.6009  0.8463  1.4456
 7218SOL    HW224610   1.315   5.808   6.790  0.0842  0.0647  0.2151
 7219SOL     OW24611   6.063   7.696   8.532  0.0290  0.5454 -0.2348
 7219SOL    HW124612   6.154   7.708   8.559 -0.3368  0.3125  1.1748
 7219SOL    HW224613   6.017   7.671   8.612 -1.5137  1.8780 -0.6482
 7220SOL     OW24614   7.519   4.997   5.613 -0.0306 -0.2569  0.3286
 7220SOL    HW124615   7.582   4.969   5.680  2.3824 -0.2420 -1.7854
 7220SOL    HW224616   7.564   5.066   5.565 -2.7983  1.7305  0.3837
 7221SOL     OW24617   0.853   5.943   3.865 -0.4817  0.5642  0.1474
 7221SOL    HW124618   0.775   5.936   3.809  0.4010 -1.4157 -0.9225
 7221SOL    HW224619   0.866   5.854   3.899  0.3867  1.2183  1.6369
 7222SOL     OW24620   9.963   9.527   5.718  0.6538 -0.0917 -0.4489
 7222SOL    HW124621   9.921   9.609   5.692 -0.6546 -0.6865 -0.2827
 7222SOL    HW224622   9.900   9.459   5.694  1.1093 -0.9505  0.6873
 7223SOL     OW24623   1.889   8.330   2.811 -0.1909  0.0420 -0.0466
 7223SOL    HW124624   1.906   8.267   2.741  0.2131  0.0039  0.0820
 7223SOL    HW224625   1.820   8.387   2.776  0.1994  0.1935 -0.5808
 7224SOL     OW24626   6.622   9.741   4.118 -0.9237  0.2809 -0.2502
 7224SOL    HW124627   6.656   9.715   4.204 -1.6727 -0.3007 -0.1201
 7224SOL    HW224628   6.650   9.832   4.108 -0.9204  0.3863  0.6551
 7225SOL     OW24629   1.729   5.442   3.110 -0.0901 -0.6454  0.4532
 7225SOL    HW124630   1.660   5.401   3.058 -1.2410  0.2274  1.2449
 7225SOL    HW224631   1.795   5.373   3.120  0.3790 -0.7101 -2.4525
 7226SOL     OW24632   9.847   3.644   6.944  0.0996 -0.4123  0.1404
 7226SOL    HW124633   9.876   3.622   7.033  1.0586 -0.2966 -0.1301
 7226SOL    HW224634   9.926   3.677   6.901  0.1093 -2.2418 -1.3537
 7227SOL     OW24635   7.160   8.108   5.026 -0.2733  0.6483  0.6215
 7227SOL    HW124636   7.203   8.044   4.969 -3.5022 -1.7245  0.5651
 7227SOL    HW224637   7.140   8.182   4.968 -0.3652 -0.1964 -0.4613
 7228SOL     OW24638   2.440   3.587   9.692 -0.3753 -0.5504 -0.1783
 7228SOL    HW124639   2.506   3.519   9.701  1.0346  0.9012  1.0515
 7228SOL    HW224640   2.447   3.615   9.601 -2.4082 -3.3202 -1.3473
 7229SOL     OW24641   7.496  10.310   6.282 -0.6699 -0.1003  0.1648
 7229SOL    HW124642   7.452  10.257   6.215  0.3587 -1.6310  0.6424
 7229SOL    HW224643   7.564  10.358   6.234 -0.6910 -0.3060 -0.0750
 7230SOL     OW24644   0.032   5.577   3.951 -0.2757 -0.3663  0.1733
 7230SOL    HW124645   0.111   5.524   3.953  0.1096  0.1997  0.1485
 7230SOL    HW224646   0.040   5.635   4.027 -1.6740 -1.7335  1.4194
 7231SOL     OW24647   0.845   1.466   1.595  0.0689  0.7113  0.4036
 7231SOL    HW124648   0.801   1.541   1.557  0.1315  0.6865  0.2844
 7231SOL    HW224649   0.795   1.448   1.675  0.3648  1.1966  0.7035
 7232SOL     OW24650   3.456   3.931   9.504  0.1477  0.5533 -0.0512
 7232SOL    HW124651   3.397   3.962   9.573  0.6966 -2.1989  1.8197
 7232SOL    HW224652   3.402   3.932   9.425 -0.8241  2.8093  0.5695
 7233SOL     OW24653   9.484   2.753   8.266  0.3258  0.7074 -0.4803
 7233SOL    HW124654   9.470   2.670   8.221  2.2106 -0.2558  0.6046
 7233SOL    HW224655   9.422   2.751   8.339  2.3325 -1.2140  1.3270
 7234SOL     OW24656   7.612   7.051   3.340  0.0838 -0.2043  0.4363
 7234SOL    HW124657   7.685   7.012   3.291  0.7603  0.4570  0.8851
 7234SOL    HW224658   7.626   7.145   3.333 -2.0745  0.0591 -1.4544
 7235SOL     OW24659   8.007   3.597   5.707  0.6500 -0.2178 -0.4109
 7235SOL    HW124660   7.938   3.663   5.702 -2.5262 -3.1818  0.1177
 7235SOL    HW224661   8.022   3.571   5.617  1.0255  0.3570 -0.5194
 7236SOL     OW24662   1.060   9.992   3.942 -0.1984 -0.1444  0.7083
 7236SOL    HW124663   1.101   9.920   3.893 -1.8009 -0.7436  0.2095
 7236SOL    HW224664   1.102  10.071   3.908 -1.0177 -0.5668 -1.4122
 7237SOL     OW24665   6.102   1.895   2.188  0.7234 -0.4150 -0.5141
 7237SOL    HW124666   6.061   1.866   2.269  1.8508  1.5175  0.8431
 7237SOL    HW224667   6.131   1.815   2.145 -0.8242 -1.5465  0.4713
 7238SOL     OW24668   2.398   1.337   7.464 -0.0406  0.1630 -0.1783
 7238SOL    HW124669   2.313   1.293   7.454  0.3123 -0.7897  0.7947
 7238SOL    HW224670   2.432   1.344   7.375 -0.2229 -1.3187 -0.3885
 7239SOL     OW24671   8.265   2.519   7.619 -0.1488 -0.0783 -0.1587
 7239SOL    HW124672   8.184   2.530   7.569  0.3479  0.4815 -0.8632
 7239SOL    HW224673   8.331   2.498   7.553  0.3429 -0.2212  0.3735
 7240SOL     OW24674  10.095   9.788   7.731 -0.0123  0.4463 -0.7795
 7240SOL    HW124675  10.009   9.804   7.692  0.0068 -0.5165 -1.2403
 7240SOL    HW224676  10.077   9.762   7.821 -0.3876 -2.1275 -1.5364
 7241SOL     OW24677   9.630   6.063   4.319 -0.3023  0.1793  0.2523
 7241SOL    HW124678   9.643   6.081   4.413 -1.8035  0.4166  0.4400
 7241SOL    HW224679   9.707   6.101   4.277 -0.3045  1.3881  1.2662
 7242SOL     OW24680   9.460   6.553   4.800  0.0676 -0.5458 -0.0454
 7242SOL    HW124681   9.466   6.504   4.881 -0.0643 -1.4263 -0.5567
 7242SOL    HW224682   9.407   6.498   4.742  1.1038 -0.4689 -1.1037
 7243SOL     OW24683   9.325   0.684   5.147  0.0906  0.0792 -0.1817
 7243SOL    HW124684   9.390   0.736   5.101  1.0598 -0.0605  0.9821
 7243SOL    HW224685   9.273   0.643   5.078  0.8870  0.6379 -1.1215
 7244SOL     OW24686   2.038   2.208   8.844  0.0582 -0.3772  0.8219
 7244SOL    HW124687   2.013   2.136   8.901 -2.4837  0.0975  0.4230
 7244SOL    HW224688   2.092   2.264   8.899  0.1389 -1.4111  1.8356
 7245SOL     OW24689  10.157   3.696   9.743 -0.3841 -0.1606  0.1751
 7245SOL    HW124690  10.171   3.764   9.809  1.4359  0.2800 -0.5835
 7245SOL    HW224691  10.156   3.744   9.660  1.0508 -1.0248 -0.3806
 7246SOL     OW24692   6.181   4.922   1.527 -0.2747  0.4893 -0.9508
 7246SOL    HW124693   6.175   4.875   1.444  0.3697 -0.3574 -0.5375
 7246SOL    HW224694   6.090   4.930   1.556 -0.3732 -1.2609 -0.6434
 7247SOL     OW24695   6.975   4.731   8.358 -0.0475 -0.1851 -0.6345
 7247SOL    HW124696   6.923   4.800   8.317  0.7755  0.1746 -1.0881
 7247SOL    HW224697   6.923   4.704   8.434 -1.4185 -0.5962 -1.6752
 7248SOL     OW24698   4.785   9.884   9.494 -0.0278  0.6913  0.3280
 7248SOL    HW124699   4.708   9.836   9.463 -0.9864  0.3518  3.0180
 7248SOL    HW224700   4.854   9.818   9.499 -0.2796  0.4311  0.3546
 7249SOL     OW24701   4.050   2.963   5.873 -1.1366 -0.1266 -0.4357
 7249SOL    HW124702   4.121   2.967   5.936 -1.2205  0.1643 -0.3583
 7249SOL    HW224703   4.000   2.886   5.898 -0.5221 -0.6726 -0.8456
 7250SOL     OW24704   8.499   4.143   7.844  0.3619  0.6749  0.2196
 7250SOL    HW124705   8.569   4.080   7.857  1.1075  1.4265 -0.0646
 7250SOL    HW224706   8.469   4.127   7.754 -0.7686 -0.5461  0.7816
 7251SOL     OW24707   7.752   5.039   6.236 -0.0911 -0.4116 -0.1433
 7251SOL    HW124708   7.829   5.007   6.282  0.4521  2.4603  1.1561
 7251SOL    HW224709   7.778   5.125   6.203 -2.3853  0.1400 -0.6935
 7252SOL     OW24710   6.403   4.036   9.335  0.2380 -0.1805 -0.8006
 7252SOL    HW124711   6.310   4.058   9.335 -0.0583 -1.3265  0.6517
 7252SOL    HW224712   6.439   4.082   9.410  0.7283 -0.2317 -0.9988
 7253SOL     OW24713   1.708   8.600   0.210  0.1477  0.4230 -0.1249
 7253SOL    HW124714   1.635   8.550   0.174  0.0012  1.2660 -1.0656
 7253SOL    HW224715   1.702   8.589   0.305 -0.7308 -0.1453 -0.2416
 7254SOL     OW24716   7.073   2.002   4.442 -0.4400 -0.1150 -0.0881
 7254SOL    HW124717   7.141   2.055   4.400  0.3996  0.1516  1.5033
 7254SOL    HW224718   6.996   2.058   4.442  0.4753  1.2587  1.7180
 7255SOL     OW24719   5.585   2.142   3.856 -0.6232 -0.3285 -0.0035
 7255SOL    HW124720   5.634   2.168   3.778 -2.3598  0.6403 -0.8089
 7255SOL    HW224721   5.630   2.063   3.886  0.6070 -0.2390 -1.4649
 7256SOL     OW24722   6.935   9.115   5.772 -0.0170 -0.8985  0.8742
 7256SOL    HW124723   6.988   9.192   5.793  0.8857 -1.3812  0.3848
 7256SOL    HW224724   6.848   9.151   5.752  0.8851  0.2052 -1.2994
 7257SOL     OW24725   9.863  10.058   8.208 -0.5415  0.4261  0.8699
 7257SOL    HW124726   9.953  10.025   8.218 -1.1975 -1.1308  2.2109
 7257SOL    HW224727   9.867  10.148   8.242  0.3759  0.1433  1.5570
 7258SOL     OW24728   8.476   4.518   8.504 -0.4614  0.8432 -0.4021
 7258SOL    HW124729   8.393   4.505   8.458  0.4883 -2.3100 -1.5043
 7258SOL    HW224730   8.543   4.490   8.442  1.1014 -0.7165  1.8062
 7259SOL     OW24731   5.059   2.263   6.211 -0.4869 -0.4360 -0.6727
 7259SOL    HW124732   5.082   2.171   6.215  0.4964 -0.2220 -1.1037
 7259SOL    HW224733   5.032   2.286   6.300  1.7392 -0.5311  0.0923
 7260SOL     OW24734   0.236   0.671   5.996 -0.5323  0.4889  0.1171
 7260SOL    HW124735   0.265   0.610   5.928  1.0180  3.1826 -1.8179
 7260SOL    HW224736   0.301   0.663   6.065  0.7836  1.2409 -0.9798
 7261SOL     OW24737   2.120   3.151   5.401  0.3490 -0.6343  0.2508
 7261SOL    HW124738   2.112   3.246   5.399 -0.1315 -0.6733 -0.8689
 7261SOL    HW224739   2.210   3.133   5.374  0.4589 -0.4926  0.5261
 7262SOL     OW24740  10.069   8.869   6.502 -0.3514 -0.0020 -0.3805
 7262SOL    HW124741  10.040   8.944   6.553  1.4635  1.2322 -1.0515
 7262SOL    HW224742  10.155   8.847   6.538  0.3534  0.0277 -1.9717
 7263SOL     OW24743   9.969   2.884   4.777  0.0916 -0.4682 -0.0162
 7263SOL    HW124744   9.957   2.796   4.741 -1.0890 -0.9690  1.4490
 7263SOL    HW224745  10.014   2.869   4.860  0.4857  0.3834 -0.0722
 7264SOL     OW24746   1.911   9.417   2.566  0.1060  0.3001  0.0831
 7264SOL    HW124747   1.948   9.331   2.586 -1.9074 -0.4139  0.9983
 7264SOL    HW224748   1.987   9.476   2.567  1.4704 -1.3578 -0.0896
 7265SOL     OW24749   5.238   0.693   3.790  0.1560  0.0592  0.2877
 7265SOL    HW124750   5.253   0.652   3.704 -1.3617  2.4420 -1.2467
 7265SOL    HW224751   5.311   0.754   3.801  0.5769 -0.5439  0.9347
 7266SOL     OW24752  10.285   2.210   8.924  0.2672  0.2833  0.5438
 7266SOL    HW124753  10.319   2.251   8.845 -1.0241 -0.1853 -0.2852
 7266SOL    HW224754  10.248   2.283   8.974 -0.4340  0.3706 -0.0935
 7267SOL     OW24755   8.145   3.907   5.279  0.0977 -0.6705 -0.4505
 7267SOL    HW124756   8.158   3.843   5.209 -0.8913  0.0901 -1.3520
 7267SOL    HW224757   8.157   3.992   5.237  0.1232 -0.2095  0.4540
 7268SOL     OW24758   8.466   2.953   0.107  0.3530 -0.3138  0.1692
 7268SOL    HW124759   8.473   2.992   0.020 -0.3052 -0.8702 -0.1435
 7268SOL    HW224760   8.530   3.001   0.160 -0.2321  0.9821 -0.2677
 7269SOL     OW24761   4.614   3.201   5.715 -0.5241 -0.1446  0.4850
 7269SOL    HW124762   4.575   3.283   5.684 -0.2964 -0.2361 -0.0597
 7269SOL    HW224763   4.540   3.150   5.749 -0.9822 -0.5271 -1.0042
 7270SOL     OW24764  10.608   1.868   6.273 -0.0274 -0.1216 -0.5191
 7270SOL    HW124765  10.548   1.822   6.332 -0.2632 -0.0609 -0.7076
 7270SOL    HW224766  10.691   1.822   6.282 -0.1391 -0.2963 -0.3618
 7271SOL     OW24767   6.436  10.276   3.112  0.1806  0.1447 -0.2301
 7271SOL    HW124768   6.427  10.356   3.061 -1.3092  1.3754  1.8230
 7271SOL    HW224769   6.526  10.278   3.145  0.1017  1.0883 -0.0492
 7272SOL     OW24770   5.956   5.605   9.610 -0.2382 -0.0979  0.3880
 7272SOL    HW124771   6.029   5.561   9.653  0.5308 -1.1983 -1.8668
 7272SOL    HW224772   5.893   5.536   9.592 -0.3915  0.2540 -0.4914
 7273SOL     OW24773   8.999   8.518   0.698 -0.3070 -0.0815 -0.2166
 7273SOL    HW124774   8.967   8.485   0.615 -0.0812  1.5499 -1.0025
 7273SOL    HW224775   8.946   8.596   0.716 -0.6991 -0.6795  1.4412
 7274SOL     OW24776   3.390  10.574   7.907  0.1256  0.5669 -0.0034
 7274SOL    HW124777   3.343  10.534   7.979 -0.9661 -0.1392 -1.0779
 7274SOL    HW224778   3.481  10.578   7.937 -0.1647 -0.4494  1.0808
 7275SOL     OW24779   0.625   8.612   2.370 -0.4912  0.2357  0.1068
 7275SOL    HW124780   0.688   8.540   2.379 -0.6136  0.2918  1.5733
 7275SOL    HW224781   0.676   8.691   2.390 -0.7382  0.3977  0.1007
 7276SOL     OW24782   5.700  10.508   7.458  0.2411 -0.1111  0.1364
 7276SOL    HW124783   5.696  10.452   7.535  0.8647 -1.6843 -0.9249
 7276SOL    HW224784   5.790  10.499   7.426  0.1049  0.8305 -0.5400
 7277SOL     OW24785   4.195   9.306   0.414  0.3148 -0.0584  0.1933
 7277SOL    HW124786   4.276   9.266   0.383  0.9755  0.5430  1.1115
 7277SOL    HW224787   4.198   9.396   0.379 -0.2341 -0.2041 -0.2462
 7278SOL     OW24788   2.847   9.632   1.630 -0.0980 -0.1809  0.3148
 7278SOL    HW124789   2.832   9.605   1.539  0.5861 -1.1768  0.4836
 7278SOL    HW224790   2.885   9.719   1.623 -2.7670  1.0477 -0.2373
 7279SOL     OW24791   4.473   1.018   3.826 -0.2711  0.1751  0.5402
 7279SOL    HW124792   4.378   1.006   3.813 -0.0382 -0.8549 -0.3501
 7279SOL    HW224793   4.493   1.100   3.781 -0.8621  0.8231  1.4191
 7280SOL     OW24794   5.504   7.123   4.378 -0.1434  0.5851  0.2121
 7280SOL    HW124795   5.535   7.202   4.422  1.1442  1.2242 -1.6755
 7280SOL    HW224796   5.412   7.139   4.361 -0.0540  1.4013  0.4614
 7281SOL     OW24797   0.276   9.386   5.387  0.1189  0.3527 -0.6067
 7281SOL    HW124798   0.189   9.411   5.417  0.7619  0.7470  1.0984
 7281SOL    HW224799   0.323   9.469   5.378  0.8536  0.0621  0.3572
 7282SOL     OW24800   8.182  10.486   8.215 -0.4132 -0.1045 -0.0914
 7282SOL    HW124801   8.194  10.460   8.124 -0.9645  1.0360 -0.5106
 7282SOL    HW224802   8.186  10.582   8.214 -1.6672  0.0005  0.8739
 7283SOL     OW24803   7.778  10.039   8.686 -0.6601  0.4539 -0.6607
 7283SOL    HW124804   7.762  10.039   8.780  1.0073  0.2013 -0.3461
 7283SOL    HW224805   7.717  10.104   8.652 -1.4479  0.3892  0.5602
 7284SOL     OW24806   4.734   7.991   7.276  0.3416  0.2574 -0.1562
 7284SOL    HW124807   4.813   7.939   7.276  0.9634  0.9312  3.2369
 7284SOL    HW224808   4.662   7.927   7.279  0.8983 -0.3777 -0.3093
 7285SOL     OW24809   4.664   0.453   7.016  0.5649  0.0775  0.2468
 7285SOL    HW124810   4.653   0.441   7.111  1.2729 -1.2041  0.1867
 7285SOL    HW224811   4.742   0.507   7.008  0.9224 -0.4141  0.3835
 7286SOL     OW24812  10.236   5.815   7.356  0.0058 -0.0835  0.3838
 7286SOL    HW124813  10.313   5.787   7.405 -0.5563 -1.0317  0.7437
 7286SOL    HW224814  10.245   5.911   7.350  2.2250 -0.3135 -1.3228
 7287SOL     OW24815   7.137   9.222   7.564 -0.0298  0.1602 -0.3697
 7287SOL    HW124816   7.110   9.167   7.637 -0.7930  0.7061 -0.2230
 7287SOL    HW224817   7.060   9.224   7.506  0.3577  0.2192 -0.8903
 7288SOL     OW24818  10.171   0.884   5.276  0.3777 -0.1437  0.2406
 7288SOL    HW124819  10.172   0.811   5.215 -3.2091  0.8700 -1.3075
 7288SOL    HW224820  10.250   0.934   5.255  1.5089 -2.1372 -0.4870
 7289SOL     OW24821   4.993   5.456   3.383 -0.1764 -0.4014  0.5589
 7289SOL    HW124822   5.033   5.394   3.445  0.6888  0.3589  0.7767
 7289SOL    HW224823   5.059   5.468   3.315  0.0397  0.9525  0.9765
 7290SOL     OW24824   2.109   4.484  10.509  0.1387  0.1498  0.2538
 7290SOL    HW124825   2.161   4.555  10.546  1.1858 -0.3981 -0.1467
 7290SOL    HW224826   2.025   4.525  10.488  0.7057  1.2602  0.0613
 7291SOL     OW24827   0.093   2.904   7.355  0.2910 -0.1977  0.0132
 7291SOL    HW124828   0.084   2.955   7.435 -0.9347 -1.8957  1.0291
 7291SOL    HW224829   0.172   2.937   7.313 -0.5599  2.6485  0.4874
 7292SOL     OW24830   7.256   9.474   7.613  0.0915 -0.3229 -0.6689
 7292SOL    HW124831   7.197   9.406   7.578 -3.3680  0.5123  2.8745
 7292SOL    HW224832   7.304   9.431   7.683 -0.5730  0.2951  0.1966
 7293SOL     OW24833   1.886   5.054   0.544 -0.1205 -0.0075 -0.2312
 7293SOL    HW124834   1.913   5.101   0.465  0.6417 -1.9655 -1.2114
 7293SOL    HW224835   1.885   5.121   0.613  0.0135  1.5890 -1.7095
 7294SOL     OW24836   2.277   7.443   4.697 -0.1205 -0.0611 -0.0367
 7294SOL    HW124837   2.334   7.487   4.634  0.3670 -2.3409 -1.2900
 7294SOL    HW224838   2.189   7.471   4.673  0.2449  1.6311  0.4041
 7295SOL     OW24839   7.491   4.441   7.499  0.5157 -0.3950  0.5721
 7295SOL    HW124840   7.554   4.372   7.482  1.5416  0.9777 -1.6910
 7295SOL    HW224841   7.473   4.479   7.413  0.6623  2.6687  1.7507
 7296SOL     OW24842   1.412   6.006   0.205  0.4436 -0.1520  0.5314
 7296SOL    HW124843   1.361   5.952   0.144 -0.5151  0.8756  0.3931
 7296SOL    HW224844   1.446   6.078   0.151 -1.1101  1.2431  1.3012
 7297SOL     OW24845   9.646   7.934   6.009  0.5861  0.4748 -0.1864
 7297SOL    HW124846   9.716   7.868   6.001  0.2618  0.0145  0.6501
 7297SOL    HW224847   9.587   7.898   6.075  0.3203  1.5416  0.1703
 7298SOL     OW24848   4.298   5.937   3.965  0.8586 -0.4192 -0.4889
 7298SOL    HW124849   4.333   5.991   3.895  0.3668 -0.2672 -0.6231
 7298SOL    HW224850   4.203   5.950   3.961  0.8118 -0.5113  0.1173
 7299SOL     OW24851  10.127   9.219   0.241 -0.4455 -0.2799  0.2488
 7299SOL    HW124852  10.200   9.279   0.256  1.4704 -2.4802  0.2681
 7299SOL    HW224853  10.075   9.224   0.321 -0.1927  1.1348  0.3475
 7300SOL     OW24854   0.146   1.689   8.112  0.1088 -0.0774 -0.4017
 7300SOL    HW124855   0.142   1.620   8.178 -0.2982  2.0114  1.8938
 7300SOL    HW224856   0.230   1.733   8.128 -0.4249  1.0564 -0.5836
 7301SOL     OW24857   5.557   5.418   0.176 -0.1343  0.1726  0.3588
 7301SOL    HW124858   5.538   5.332   0.139  0.5760 -0.0838  0.5595
 7301SOL    HW224859   5.643   5.407   0.217  0.3721  1.2241 -0.3792
 7302SOL     OW24860   3.671  10.074   9.716 -0.0613  0.3128 -0.4234
 7302SOL    HW124861   3.751  10.093   9.765 -0.3744  0.3315  0.0836
 7302SOL    HW224862   3.647  10.158   9.676 -0.2232  0.4795  0.0146
 7303SOL     OW24863   0.335   6.874   2.531  0.4116 -0.0791  0.4021
 7303SOL    HW124864   0.363   6.943   2.591  1.6330  2.1761 -2.5356
 7303SOL    HW224865   0.239   6.872   2.540  0.3847  1.7082  0.8420
 7304SOL     OW24866   1.013   2.147   4.445 -0.1476 -0.4317  0.4078
 7304SOL    HW124867   0.987   2.155   4.353 -0.7262 -0.4486  0.5647
 7304SOL    HW224868   0.979   2.226   4.487 -1.3337 -1.1896  0.9276
 7305SOL     OW24869   7.609   7.169   5.930 -0.1675  0.1941 -0.4627
 7305SOL    HW124870   7.689   7.121   5.952 -0.9407 -0.6418  0.6836
 7305SOL    HW224871   7.543   7.135   5.992 -1.5080  0.5647 -1.6253
 7306SOL     OW24872  10.526   2.925   2.499 -0.2113 -0.2887  0.3443
 7306SOL    HW124873  10.452   2.929   2.438  0.3238 -0.2351 -0.3074
 7306SOL    HW224874  10.560   2.836   2.490  2.5769  0.8802 -2.7391
 7307SOL     OW24875   2.704   9.139   4.437  0.4559  0.2258  0.2767
 7307SOL    HW124876   2.741   9.088   4.509 -2.2259  0.7728  2.2053
 7307SOL    HW224877   2.616   9.161   4.466 -1.9721 -1.8876 -4.2653
 7308SOL     OW24878   9.820   1.391   9.011 -0.2550 -0.4232 -0.2713
 7308SOL    HW124879   9.848   1.375   9.102  1.6086  0.5190 -0.6321
 7308SOL    HW224880   9.800   1.304   8.977  1.6803 -1.1327  0.2441
 7309SOL     OW24881   8.337   9.939   7.845  0.6060 -0.1495 -0.2295
 7309SOL    HW124882   8.262   9.926   7.903  1.7550  0.2336  1.3814
 7309SOL    HW224883   8.341   9.859   7.793 -1.6628  0.3197 -1.2883
 7310SOL     OW24884   5.796   6.507   7.113 -0.2899 -0.4250 -0.2316
 7310SOL    HW124885   5.882   6.467   7.126 -0.0113  0.4975  1.0165
 7310SOL    HW224886   5.808   6.567   7.039  1.3523  2.6895  2.2754
 7311SOL     OW24887   6.977   8.673   4.225  0.0051  0.1297  0.0481
 7311SOL    HW124888   6.911   8.742   4.222  1.9073  2.0442 -1.3637
 7311SOL    HW224889   6.973   8.639   4.314 -1.9983  1.0202  0.3477
 7312SOL     OW24890   7.721   3.528   5.737  0.0658  0.5730  0.0855
 7312SOL    HW124891   7.717   3.619   5.764 -0.1247  0.3481  0.8306
 7312SOL    HW224892   7.815   3.509   5.729  0.0942  1.0172 -0.7322
 7313SOL     OW24893   1.628   0.643   4.452 -0.1932  0.2345 -0.2216
 7313SOL    HW124894   1.716   0.605   4.445 -0.8219 -1.5257  0.8195
 7313SOL    HW224895   1.614   0.687   4.368  1.5162  0.2083 -0.5574
 7314SOL     OW24896   9.926   8.378   1.263 -0.0772  0.0183 -0.0158
 7314SOL    HW124897   9.906   8.302   1.317 -1.1570 -0.1902 -0.6621
 7314SOL    HW224898   9.920   8.452   1.322 -1.0632 -0.2233  0.2028
 7315SOL     OW24899   3.238   3.820   3.793  0.3300 -0.3941 -0.0093
 7315SOL    HW124900   3.241   3.799   3.886  0.2539  0.9129  0.3149
 7315SOL    HW224901   3.165   3.882   3.785  0.8144  0.0946 -0.8078
 7316SOL     OW24902   4.948   3.082   0.807 -0.1580 -0.0171 -0.0380
 7316SOL    HW124903   4.981   3.167   0.839 -0.1562  0.3955 -1.0985
 7316SOL    HW224904   4.862   3.073   0.848  0.2772 -0.0033  0.9111
 7317SOL     OW24905   0.701   0.859   4.515 -0.4842 -0.1563 -0.5865
 7317SOL    HW124906   0.681   0.805   4.439 -1.2516 -1.3492  0.4190
 7317SOL    HW224907   0.616   0.889   4.547 -0.2320 -0.1994  0.1613
 7318SOL     OW24908   4.975   8.045   1.488  0.2068 -0.7361  0.0392
 7318SOL    HW124909   4.938   8.073   1.404  0.9577 -0.6611 -0.2732
 7318SOL    HW224910   5.066   8.022   1.468  0.8289  0.6914  1.1162
 7319SOL     OW24911   4.586   6.982   1.364 -0.3736  0.2882  0.7202
 7319SOL    HW124912   4.540   7.066   1.362 -1.0428 -0.0485  1.2659
 7319SOL    HW224913   4.547   6.933   1.291  0.9497  0.9029 -0.4388
 7320SOL     OW24914   4.576   7.528   2.434 -0.1207 -0.3656 -0.1909
 7320SOL    HW124915   4.593   7.521   2.528 -0.5978 -0.1787 -0.0890
 7320SOL    HW224916   4.484   7.551   2.427  0.2344  1.0362 -0.6539
 7321SOL     OW24917   7.052   4.593   4.992  0.5347 -0.5031  0.7820
 7321SOL    HW124918   7.124   4.647   4.958  0.7814 -0.8753  0.7094
 7321SOL    HW224919   6.985   4.657   5.016  0.1140 -0.2539 -0.9273
 7322SOL     OW24920   6.091   1.660   8.754 -0.2710  0.5030 -0.0336
 7322SOL    HW124921   6.152   1.618   8.814  2.5723  2.4822 -1.2743
 7322SOL    HW224922   6.047   1.727   8.806 -2.7830 -1.9232  1.2574
 7323SOL     OW24923   4.633   0.640   9.947  0.2698  0.7802  0.1575
 7323SOL    HW124924   4.555   0.690   9.969  1.0235  1.3350  1.6968
 7323SOL    HW224925   4.654   0.666   9.857 -1.5420  0.2805 -0.4496
 7324SOL     OW24926   7.250   7.279   7.819 -0.4329  0.1846  0.0193
 7324SOL    HW124927   7.173   7.223   7.818 -1.0926  0.9493  2.1770
 7324SOL    HW224928   7.218   7.365   7.795  0.2647  0.0133 -1.6247
 7325SOL     OW24929   2.840   5.459   9.496 -1.1336  0.2519  0.5409
 7325SOL    HW124930   2.933   5.450   9.475 -1.5460 -3.6893 -0.4398
 7325SOL    HW224931   2.833   5.433   9.587 -1.4455 -1.9484 -0.0527
 7326SOL     OW24932   2.958   7.935   1.870  0.0732  0.2523 -0.3410
 7326SOL    HW124933   2.940   7.850   1.830 -2.8389  0.4276  0.3581
 7326SOL    HW224934   2.876   7.984   1.859  1.8463  3.2565 -1.2942
 7327SOL     OW24935  10.529   0.537   3.501  0.0947  0.1554 -0.1944
 7327SOL    HW124936  10.495   0.449   3.515 -1.7837  0.6530 -1.2720
 7327SOL    HW224937  10.557   0.566   3.587 -1.5716 -0.5879  0.6341
 7328SOL     OW24938   8.739   1.807   7.560 -0.3512 -0.5040 -0.0192
 7328SOL    HW124939   8.788   1.879   7.600 -1.4171  0.2558 -0.0574
 7328SOL    HW224940   8.750   1.734   7.621 -0.3695  0.0834  0.7070
 7329SOL     OW24941   7.681   9.032   2.274  0.2670  0.5779  0.2695
 7329SOL    HW124942   7.664   8.938   2.282  1.1258  0.5566  2.6517
 7329SOL    HW224943   7.605   9.074   2.315 -0.2918  0.9787 -1.1137
 7330SOL     OW24944   3.393   6.521   5.426  0.2985  0.1971 -0.2473
 7330SOL    HW124945   3.374   6.435   5.465 -0.3710  0.4597  0.0172
 7330SOL    HW224946   3.477   6.509   5.381  0.5539 -0.4078  0.3756
 7331SOL     OW24947   0.094   7.568   5.679 -0.0134 -0.0522  0.4748
 7331SOL    HW124948   0.144   7.612   5.610 -0.7986 -1.3289 -0.9678
 7331SOL    HW224949   0.161   7.531   5.737  0.6707  0.4469  0.0182
 7332SOL     OW24950   0.894   3.232   0.995  0.5263  1.1009  0.4724
 7332SOL    HW124951   0.855   3.176   0.928  0.8937  0.8196  0.4885
 7332SOL    HW224952   0.820   3.279   1.034 -0.0868 -0.8961  1.8986
 7333SOL     OW24953  10.169   7.265   9.394 -0.3028 -0.0825  0.2935
 7333SOL    HW124954  10.152   7.212   9.316  1.4917 -0.4451  0.1038
 7333SOL    HW224955  10.226   7.335   9.363  0.3071 -0.1394  1.2437
 7334SOL     OW24956   1.495   0.954  10.398  0.7458 -0.0389 -0.2293
 7334SOL    HW124957   1.412   1.000  10.409  1.5501  1.9292 -1.7701
 7334SOL    HW224958   1.502   0.897  10.475 -1.8773 -0.0926  0.0563
 7335SOL     OW24959   3.025   3.569   2.053 -0.2359  0.6246 -0.5898
 7335SOL    HW124960   3.018   3.529   1.967 -1.4239 -0.3914 -0.0522
 7335SOL    HW224961   2.937   3.563   2.090  0.8746 -2.0045  1.9966
 7336SOL     OW24962   3.471   4.947   4.283  0.1238 -0.6169  0.3200
 7336SOL    HW124963   3.554   4.975   4.242  0.8980 -1.2255  1.4161
 7336SOL    HW224964   3.457   5.011   4.352 -0.1773 -0.6835  0.3198
 7337SOL     OW24965   7.841   9.812   4.537  0.3084 -0.1206  0.0200
 7337SOL    HW124966   7.887   9.780   4.459  0.1724  0.1942 -0.1898
 7337SOL    HW224967   7.911   9.844   4.594  0.3688  0.1451 -0.2004
 7338SOL     OW24968   4.742   5.487   0.096 -0.2519  0.0010 -0.2791
 7338SOL    HW124969   4.650   5.487   0.069 -0.1811  0.2548 -0.5254
 7338SOL    HW224970   4.790   5.464   0.016 -0.2624 -3.1740  0.4649
 7339SOL     OW24971   2.105   6.799   1.546  0.1255 -0.1553 -0.3444
 7339SOL    HW124972   2.178   6.811   1.485  0.1318 -1.9981 -0.7350
 7339SOL    HW224973   2.029   6.784   1.490 -0.5432  1.4348  0.0721
 7340SOL     OW24974   7.439   6.285   2.097 -0.1937 -1.2472  0.5395
 7340SOL    HW124975   7.463   6.359   2.152  0.1000  1.1691 -2.6029
 7340SOL    HW224976   7.521   6.239   2.082  0.7670  1.0311 -1.8287
 7341SOL     OW24977   5.319   8.614   8.311 -0.3779  0.3051 -1.0215
 7341SOL    HW124978   5.348   8.625   8.220  0.0157  1.0155 -0.8214
 7341SOL    HW224979   5.238   8.664   8.316 -0.7192 -0.2280 -1.1279
 7342SOL     OW24980   6.170   7.095   3.856 -0.0068 -0.3996 -0.0334
 7342SOL    HW124981   6.240   7.049   3.903  0.6670 -0.1891 -0.7990
 7342SOL    HW224982   6.199   7.094   3.764 -0.5158  0.5913 -0.2122
 7343SOL     OW24983   4.955  10.357   0.151  0.1915  0.1931 -0.3350
 7343SOL    HW124984   4.903  10.285   0.115  0.7432 -1.5395  2.1365
 7343SOL    HW224985   4.928  10.433   0.099 -1.6178 -1.4426 -1.9666
 7344SOL     OW24986   1.800   3.425   2.811 -0.0707  0.3637 -0.0158
 7344SOL    HW124987   1.802   3.346   2.756 -2.6335  0.1913  0.0071
 7344SOL    HW224988   1.883   3.424   2.858  2.7448  0.9664 -4.3739
 7345SOL     OW24989   5.099   5.673   0.084 -0.3712  0.3500 -0.8822
 7345SOL    HW124990   5.082   5.605   0.149  1.7535  0.9313  0.3826
 7345SOL    HW224991   5.129   5.625   0.007  2.6480 -0.1961  0.5110
 7346SOL     OW24992   7.021   8.184   7.147  0.2761  0.2099  0.2860
 7346SOL    HW124993   6.931   8.151   7.153  0.1619  0.3876 -0.4317
 7346SOL    HW224994   7.055   8.145   7.067  0.8013  0.2462  0.4906
 7347SOL     OW24995   6.174   5.334   2.220  0.1574  0.2587 -0.1687
 7347SOL    HW124996   6.226   5.350   2.141  0.6589  1.0124  0.3049
 7347SOL    HW224997   6.144   5.243   2.211 -0.2809  0.5129 -1.5000
 7348SOL     OW24998   6.804   1.895   6.585  0.4232  0.3961 -0.4133
 7348SOL    HW124999   6.816   1.917   6.493 -0.4076  1.3753 -0.3019
 7348SOL    HW225000   6.805   1.979   6.630  0.3532 -0.0391  0.4150
 7349SOL     OW25001   1.069   8.156  10.439 -0.2022  0.2381 -0.0826
 7349SOL    HW125002   1.070   8.144  10.534  1.9320 -0.0169 -0.0869
 7349SOL    HW225003   0.987   8.115  10.410 -2.2202  2.6253  1.8628
 7350SOL     OW25004   6.823   1.268   1.030  0.2592 -0.5417  0.5302
 7350SOL    HW125005   6.746   1.321   1.052  1.1660  0.7997  0.6101
 7350SOL    HW225006   6.799   1.225   0.948 -0.2211  0.6708 -0.0017
 7351SOL     OW25007   9.527   1.313   3.915 -0.0793  0.6995  0.0582
 7351SOL    HW125008   9.566   1.391   3.877  1.6069  0.3916  1.0622
 7351SOL    HW225009   9.479   1.272   3.843  1.2034  1.2766 -1.1721
 7352SOL     OW25010   5.919   7.153   2.657  0.0658  0.1194 -0.3035
 7352SOL    HW125011   5.972   7.090   2.705  1.4411 -0.0371 -1.9343
 7352SOL    HW225012   5.908   7.226   2.717  1.1469 -0.3494  0.4958
 7353SOL     OW25013   3.163   6.677   1.719 -0.3285 -0.6119  0.0806
 7353SOL    HW125014   3.116   6.606   1.675 -1.5504  0.5631 -0.5599
 7353SOL    HW225015   3.172   6.745   1.653  0.5854 -0.0355  0.7679
 7354SOL     OW25016   6.943   7.741   0.394 -0.3574 -0.0121 -0.2762
 7354SOL    HW125017   7.015   7.706   0.342 -0.2945  0.7321 -0.7093
 7354SOL    HW225018   6.869   7.743   0.334 -0.4495  0.2475 -0.1577
 7355SOL     OW25019   4.484   4.466   8.336  0.2258 -0.4377 -0.0867
 7355SOL    HW125020   4.505   4.383   8.293 -0.7637 -0.1268 -1.2423
 7355SOL    HW225021   4.398   4.452   8.376  0.1618 -0.0552 -0.0779
 7356SOL     OW25022   9.046   6.748   9.493  0.8122 -0.4811  0.4354
 7356SOL    HW125023   9.073   6.810   9.425 -2.8324 -0.1516 -0.9989
 7356SOL    HW225024   9.006   6.802   9.561  0.7195 -1.0592  0.8488
 7357SOL     OW25025  10.393   5.591   8.361 -0.2246  0.0998 -0.1080
 7357SOL    HW125026  10.434   5.649   8.425 -0.5635 -0.0356  0.2362
 7357SOL    HW225027  10.443   5.510   8.367 -0.6314 -0.1232  0.4329
 7358SOL     OW25028   9.920   7.161   1.384  0.7874  0.3057  0.3450
 7358SOL    HW125029   9.866   7.084   1.401  0.7482  0.6184  1.7857
 7358SOL    HW225030   9.986   7.160   1.454  1.8344  0.6535 -0.6175
 7359SOL     OW25031   8.436   8.933   4.682 -0.5705 -0.0729  0.3850
 7359SOL    HW125032   8.483   8.934   4.598 -1.4234  1.4104 -0.1010
 7359SOL    HW225033   8.480   9.000   4.734 -0.7777 -0.2026  0.7297
 7360SOL     OW25034   1.690   7.273   3.709 -0.2821 -0.1965  0.1862
 7360SOL    HW125035   1.673   7.195   3.656 -2.4621  1.9195 -2.5515
 7360SOL    HW225036   1.743   7.329   3.652 -3.4142  2.5347 -0.3567
 7361SOL     OW25037   4.092   6.411   9.757 -0.1370  0.0339 -0.6405
 7361SOL    HW125038   4.020   6.473   9.751  0.5694  0.8947 -0.4996
 7361SOL    HW225039   4.099   6.392   9.851 -0.2229 -0.0925 -0.6602
 7362SOL     OW25040   6.679   7.523   1.535  0.6943  0.0992 -0.4783
 7362SOL    HW125041   6.759   7.477   1.509  1.6020  0.7880  0.9359
 7362SOL    HW225042   6.708   7.583   1.605 -1.2841 -0.5430  0.9732
 7363SOL     OW25043   8.021   3.157   4.527 -0.2614 -0.5281 -0.0870
 7363SOL    HW125044   8.019   3.245   4.489 -1.5828 -0.5980 -0.2122
 7363SOL    HW225045   8.052   3.170   4.616  0.9552 -0.1257 -0.5447
 7364SOL     OW25046   2.705   9.769   7.720 -0.1269  0.5264  0.1833
 7364SOL    HW125047   2.658   9.716   7.655  0.4296 -0.0034  0.2065
 7364SOL    HW225048   2.795   9.736   7.716  0.2714  1.6011  0.0599
 7365SOL     OW25049   1.350   3.474   6.166 -0.2362 -0.4013 -0.6790
 7365SOL    HW125050   1.310   3.536   6.104 -0.7340 -1.2941 -1.2813
 7365SOL    HW225051   1.430   3.517   6.194  0.3593 -0.2418 -2.4721
 7366SOL     OW25052   7.028   2.498   8.983  0.1247 -0.3325 -0.8213
 7366SOL    HW125053   6.979   2.533   9.057 -0.6587 -1.4437 -0.7811
 7366SOL    HW225054   6.970   2.510   8.908  0.4152 -0.3052 -1.0439
 7367SOL     OW25055   0.958   2.922   2.680  0.2210  0.0287  0.1285
 7367SOL    HW125056   0.993   2.951   2.764  0.0398  0.1712  0.1559
 7367SOL    HW225057   0.919   3.001   2.642  0.7662  0.0890 -0.3279
 7368SOL     OW25058  10.355   0.540   8.946  0.3754  0.3226 -0.0859
 7368SOL    HW125059  10.383   0.457   8.907 -1.8348 -1.5744  2.0292
 7368SOL    HW225060  10.318   0.590   8.874 -3.0548 -2.7829 -0.7323
 7369SOL     OW25061   3.060   8.242   6.972  0.2941  0.6726 -0.1326
 7369SOL    HW125062   2.985   8.247   7.031 -0.7231 -2.9480 -0.8438
 7369SOL    HW225063   3.134   8.274   7.023 -0.8259 -0.7667  2.5941
 7370SOL     OW25064   1.213   6.400  10.538 -0.5692 -0.0632 -0.1957
 7370SOL    HW125065   1.161   6.466  10.493 -0.6401  0.1107  0.1374
 7370SOL    HW225066   1.299   6.439  10.549 -1.1474  0.8125  1.8044
 7371SOL     OW25067   8.068   2.829   5.460  0.0398  0.2923 -0.3021
 7371SOL    HW125068   8.158   2.844   5.487  1.0387 -4.2669 -0.2428
 7371SOL    HW225069   8.069   2.838   5.365  0.7692 -0.3826 -0.3671
 7372SOL     OW25070   6.676   3.227   6.606  0.0368 -0.1439 -0.5008
 7372SOL    HW125071   6.602   3.275   6.566 -0.6819 -0.8275 -0.0095
 7372SOL    HW225072   6.662   3.236   6.700  1.0333  0.3821 -0.3855
 7373SOL     OW25073   0.743   0.027   3.353 -0.0786 -0.6602 -0.5747
 7373SOL    HW125074   0.824   0.008   3.305 -0.5586  1.3132 -2.3389
 7373SOL    HW225075   0.683  -0.043   3.328  0.7584 -1.6223  0.0141
 7374SOL     OW25076   5.707   8.659   2.075  0.2232 -0.1159  0.3258
 7374SOL    HW125077   5.762   8.667   2.153 -1.7928 -2.0517  2.0811
 7374SOL    HW225078   5.670   8.571   2.082  0.7935 -0.8066 -3.4447
 7375SOL     OW25079   4.982   5.964   0.634  0.1247  0.8344 -0.2634
 7375SOL    HW125080   4.954   5.885   0.680  2.3849  0.1552  0.0557
 7375SOL    HW225081   4.903   5.993   0.588 -1.1545 -0.7485  0.7953
 7376SOL     OW25082   4.631   1.880   4.562 -0.2166 -0.1917 -0.1319
 7376SOL    HW125083   4.684   1.958   4.546  0.9711 -0.4744  2.0907
 7376SOL    HW225084   4.675   1.835   4.633 -1.6948 -2.1576 -0.3774
 7377SOL     OW25085   1.530   2.099   6.558  0.0295  0.3202 -0.7503
 7377SOL    HW125086   1.624   2.100   6.536  0.4963 -0.6418  1.0278
 7377SOL    HW225087   1.525   2.139   6.645 -0.8647 -1.7351  0.2216
 7378SOL     OW25088   4.881  10.626   0.098  0.4148 -0.0739 -0.5446
 7378SOL    HW125089   4.907  10.703   0.149  1.0739 -0.5371 -0.1593
 7378SOL    HW225090   4.787  10.636   0.086  0.2628  0.1023  0.6731
 7379SOL     OW25091   5.769  10.100   8.295  0.4334  0.2432 -0.1873
 7379SOL    HW125092   5.728  10.155   8.228  0.1396 -0.3801 -0.5241
 7379SOL    HW225093   5.862  10.098   8.271  0.8369  2.2176  0.9619
 7380SOL     OW25094   5.528   4.949   8.354 -0.2478  0.3269  0.1044
 7380SOL    HW125095   5.469   5.020   8.381 -0.3646  0.0844  0.4971
 7380SOL    HW225096   5.473   4.871   8.353  0.0570  0.1038  0.4416
 7381SOL     OW25097  10.248   7.665   9.947 -0.3410 -0.4761 -0.2428
 7381SOL    HW125098  10.327   7.656   9.893 -1.2490 -0.1841 -1.6560
 7381SOL    HW225099  10.251   7.589  10.006  0.0737 -1.4623 -1.4904
 7382SOL     OW25100   5.210   8.331   4.829  0.1292  0.0317 -0.5443
 7382SOL    HW125101   5.260   8.255   4.800  0.5494  0.9975 -2.5745
 7382SOL    HW225102   5.195   8.381   4.748 -1.4462  1.3343  0.4943
 7383SOL     OW25103   2.377   0.165   5.600 -0.0255 -0.2350 -0.0885
 7383SOL    HW125104   2.443   0.232   5.614 -0.2829 -0.0553  0.3261
 7383SOL    HW225105   2.328   0.194   5.523 -0.5231  0.3794  0.4486
 7384SOL     OW25106   9.384   1.129   1.864 -0.0014  0.5586 -0.4357
 7384SOL    HW125107   9.327   1.112   1.789 -0.5261  1.4644 -0.2586
 7384SOL    HW225108   9.459   1.174   1.826  1.3603 -1.9072 -0.8964
 7385SOL     OW25109   6.533   3.868   1.840 -0.3327  0.2832  0.3604
 7385SOL    HW125110   6.608   3.912   1.800 -0.0926 -1.4927 -1.2879
 7385SOL    HW225111   6.513   3.796   1.780 -4.0053  1.2523  0.2325
 7386SOL     OW25112   6.754   5.921   7.556 -0.1340 -0.2228  0.0083
 7386SOL    HW125113   6.765   5.929   7.651  1.0659 -1.4833  0.0028
 7386SOL    HW225114   6.716   5.834   7.543 -0.3452 -0.0385 -0.6694
 7387SOL     OW25115   4.959   3.234   2.832 -0.5510 -0.0884  0.3469
 7387SOL    HW125116   4.959   3.143   2.860  0.0812  0.0532  0.8469
 7387SOL    HW225117   4.886   3.241   2.772 -0.0645 -1.1493 -0.4046
 7388SOL     OW25118   0.391   8.912   8.536 -0.2551  0.2690  0.6428
 7388SOL    HW125119   0.369   9.000   8.568 -0.3265  0.9062 -1.0370
 7388SOL    HW225120   0.387   8.920   8.441 -0.5067 -1.6327  0.4556
 7389SOL     OW25121   3.569   8.716   6.362  0.1083  0.1450 -0.2113
 7389SOL    HW125122   3.663   8.702   6.371  0.5128  2.2529 -0.6760
 7389SOL    HW225123   3.546   8.776   6.433 -1.0880 -1.0074  0.4304
 7390SOL     OW25124   1.170   4.779   7.041 -0.0397 -0.4578  0.3814
 7390SOL    HW125125   1.139   4.700   7.086 -0.1971 -1.0339 -0.7141
 7390SOL    HW225126   1.108   4.848   7.068  1.4029 -0.1218  3.1588
 7391SOL     OW25127  10.519   9.484   8.963 -0.6475  0.3591  0.0230
 7391SOL    HW125128  10.550   9.394   8.959  0.2938  0.6284  0.8740
 7391SOL    HW225129  10.424   9.476   8.972 -0.5688 -0.5500  0.1512
 7392SOL     OW25130   6.564   8.139   8.603 -0.2064  0.5450 -0.2361
 7392SOL    HW125131   6.548   8.085   8.526 -0.6880  0.4330 -0.0576
 7392SOL    HW225132   6.642   8.101   8.643 -1.7621 -1.4153  1.1194
 7393SOL     OW25133   5.072   0.092   2.247 -0.0392  0.3797 -0.0105
 7393SOL    HW125134   5.110   0.027   2.307 -0.6757 -0.2042 -0.2213
 7393SOL    HW225135   5.093   0.176   2.286  0.6650  0.0427  0.3584
 7394SOL     OW25136   6.828   9.911   3.680 -0.0357 -0.3477 -0.1777
 7394SOL    HW125137   6.739   9.943   3.697 -0.0928 -0.1043 -0.9025
 7394SOL    HW225138   6.883   9.989   3.686  0.3836 -0.7319  1.8568
 7395SOL     OW25139   5.051   3.858   4.715 -0.3346  0.1247  0.2538
 7395SOL    HW125140   5.022   3.786   4.658 -0.4860 -0.3752  0.9441
 7395SOL    HW225141   5.146   3.846   4.722 -0.5558 -1.0239  1.6932
 7396SOL     OW25142  10.040   4.046   7.694 -0.4725 -0.2066  0.4804
 7396SOL    HW125143  10.105   4.116   7.690 -0.4820 -0.1943  0.5362
 7396SOL    HW225144  10.079   3.973   7.647 -0.0294 -0.5185  1.3105
 7397SOL     OW25145  10.437  10.019   7.816 -0.4931 -0.4192 -0.3778
 7397SOL    HW125146  10.413   9.941   7.866  0.0992 -0.4989 -0.2024
 7397SOL    HW225147  10.525  10.000   7.783  1.2064  1.5110  2.5770
 7398SOL     OW25148   6.607   0.279   1.903 -0.3626  0.1160 -0.0114
 7398SOL    HW125149   6.651   0.239   1.829  0.4910 -0.0566  0.5743
 7398SOL    HW225150   6.677   0.302   1.964 -0.8261  2.1922 -0.1617
 7399SOL     OW25151   6.243   8.898   3.186 -0.4003  0.0296  0.5482
 7399SOL    HW125152   6.226   8.897   3.092 -0.1136  0.6239  0.4775
 7399SOL    HW225153   6.339   8.905   3.193 -0.3528 -0.8348  0.8954
 7400SOL     OW25154  10.346   6.132   7.617  0.5458  0.3087 -0.2744
 7400SOL    HW125155  10.255   6.161   7.611  0.8208  1.4593  0.7309
 7400SOL    HW225156  10.374   6.123   7.526  0.2882  2.8545 -0.6938
 7401SOL     OW25157   3.693   9.367   5.195 -0.0904  0.6477  0.6597
 7401SOL    HW125158   3.701   9.427   5.269  1.1667  1.8148 -0.3537
 7401SOL    HW225159   3.646   9.417   5.129 -0.1483  0.0612  0.2486
 7402SOL     OW25160   1.071   2.182   0.559  0.2953  0.0266 -0.2801
 7402SOL    HW125161   1.152   2.131   0.552  0.9964  1.1299 -0.4215
 7402SOL    HW225162   1.044   2.197   0.468 -0.4897 -0.9584 -0.2288
 7403SOL     OW25163   1.052   1.310   1.936  0.3972 -0.2844 -0.1947
 7403SOL    HW125164   0.965   1.310   1.976  0.2851 -1.2003 -0.4058
 7403SOL    HW225165   1.077   1.218   1.934  1.5207  0.0026  0.1615
 7404SOL     OW25166  10.349   3.713   5.194  0.6072 -0.2628 -0.3263
 7404SOL    HW125167  10.410   3.755   5.254  2.2325  0.8121 -2.5960
 7404SOL    HW225168  10.385   3.625   5.181 -2.0845 -2.2057  3.4008
 7405SOL     OW25169   6.758   2.771   3.748 -0.1021 -0.1352 -0.1067
 7405SOL    HW125170   6.664   2.768   3.765  0.1658 -0.2684  1.4537
 7405SOL    HW225171   6.770   2.850   3.695 -1.3040 -1.0943 -1.9108
 7406SOL     OW25172   4.520   5.898   4.780  0.2164  0.2789  0.1520
 7406SOL    HW125173   4.518   5.908   4.875 -0.0172  0.7831  0.0999
 7406SOL    HW225174   4.608   5.863   4.761 -0.1644 -1.0008  0.6460
 7407SOL     OW25175   3.061   6.220   2.789 -0.7968  0.3283  0.4839
 7407SOL    HW125176   3.135   6.165   2.762 -0.5076  0.2763  1.3531
 7407SOL    HW225177   3.005   6.161   2.839 -0.6512  0.7291  1.1338
 7408SOL     OW25178   5.805   7.708   6.745  0.3361 -0.3688 -0.0938
 7408SOL    HW125179   5.864   7.750   6.807  1.0327 -0.5505 -0.6160
 7408SOL    HW225180   5.732   7.769   6.736  0.5474 -0.0374  0.3975
 7409SOL     OW25181   4.626   5.105   8.411  0.7613 -0.2096 -0.1852
 7409SOL    HW125182   4.675   5.024   8.394 -1.2359 -1.8476  1.4211
 7409SOL    HW225183   4.558   5.106   8.344  0.1276 -0.4596  0.4395
 7410SOL     OW25184   1.899   3.980   7.420 -0.1306 -0.2234  0.5143
 7410SOL    HW125185   1.995   3.983   7.416  0.0014 -1.7270  1.7501
 7410SOL    HW225186   1.873   3.960   7.330  0.7562 -0.4798  0.2998
 7411SOL     OW25187   0.800   3.575   0.460 -0.1861 -0.0780 -0.1228
 7411SOL    HW125188   0.763   3.660   0.485 -1.2638 -0.0662 -1.6117
 7411SOL    HW225189   0.868   3.558   0.525 -1.0506  1.1622  1.1570
 7412SOL     OW25190   1.988   7.647   3.686  0.3681 -0.2233 -0.3154
 7412SOL    HW125191   2.030   7.698   3.755 -0.3261  0.4810 -0.3997
 7412SOL    HW225192   2.030   7.562   3.691 -0.0102 -0.3564  1.3128
 7413SOL     OW25193   1.210   4.687   9.533 -0.0182 -0.4598  0.1536
 7413SOL    HW125194   1.236   4.599   9.507  0.0392  0.4324 -3.3087
 7413SOL    HW225195   1.126   4.701   9.490 -0.0295  1.1770  0.6379
 7414SOL     OW25196   4.927   4.158   0.595  0.0962  0.2782 -0.3131
 7414SOL    HW125197   5.002   4.182   0.541 -0.7168  1.2177 -1.0743
 7414SOL    HW225198   4.852   4.165   0.536 -0.6715  0.0375  0.6083
 7415SOL     OW25199   8.818   9.957   3.569  0.1693 -0.1729  0.2146
 7415SOL    HW125200   8.793   9.886   3.511 -1.2908  1.0848 -0.7719
 7415SOL    HW225201   8.895   9.996   3.527  0.6428 -0.8089  0.4744
 7416SOL     OW25202   1.962   3.138   8.940 -0.0670 -0.4392  0.8272
 7416SOL    HW125203   1.965   3.233   8.929 -1.0411 -0.5273 -0.3429
 7416SOL    HW225204   2.010   3.103   8.865  0.8825 -0.8836  1.6089
 7417SOL     OW25205   6.188   1.200   6.425  0.0374 -0.4890  0.2378
 7417SOL    HW125206   6.206   1.245   6.342 -3.7391  0.0952 -0.4460
 7417SOL    HW225207   6.256   1.132   6.430  0.8388 -0.1181 -3.0004
 7418SOL     OW25208   2.017   6.985   2.949  0.0942 -0.5067  0.2215
 7418SOL    HW125209   2.004   6.954   3.039  2.7875 -0.3094  0.7709
 7418SOL    HW225210   2.011   7.081   2.956  1.2283 -0.4329  0.4203
 7419SOL     OW25211   8.220   3.391   0.872 -0.1126 -0.2930  0.1326
 7419SOL    HW125212   8.244   3.299   0.877  0.4412 -0.1306  0.5441
 7419SOL    HW225213   8.282   3.428   0.809 -0.9154 -0.3749 -0.7391
 7420SOL     OW25214   4.943   0.487   1.561  0.1005  0.3737 -0.4276
 7420SOL    HW125215   4.850   0.479   1.581  0.0276 -0.3298 -1.0130
 7420SOL    HW225216   4.986   0.434   1.628  0.1073  0.9071  0.0001
 7421SOL     OW25217  10.587   4.142   4.593  0.2163 -0.6023 -0.2236
 7421SOL    HW125218  10.637   4.096   4.526  0.2693 -0.3940 -0.3285
 7421SOL    HW225219  10.653   4.171   4.657  0.0128 -2.1010  0.7081
 7422SOL     OW25220   3.246  10.229   6.258 -0.2680 -0.0548 -0.8113
 7422SOL    HW125221   3.316  10.237   6.323 -2.0362 -0.0416  1.1916
 7422SOL    HW225222   3.276  10.160   6.199  0.4444 -1.6724  1.3213
 7423SOL     OW25223   8.321  10.008   9.588  0.1249  0.4049  0.4424
 7423SOL    HW125224   8.244   9.952   9.602  1.0989 -1.0145  0.2709
 7423SOL    HW225225   8.394   9.959   9.625  1.0921  1.3301 -0.1860
 7424SOL     OW25226   0.224   5.414   0.184  0.5164 -0.2906 -0.2022
 7424SOL    HW125227   0.215   5.371   0.269 -2.1011 -0.2616 -0.4023
 7424SOL    HW225228   0.198   5.347   0.120 -2.6689  1.1128 -0.5786
 7425SOL     OW25229   8.258   8.685   6.269 -0.3412  0.0518  0.0348
 7425SOL    HW125230   8.292   8.602   6.302 -0.8320 -0.4080 -0.5843
 7425SOL    HW225231   8.258   8.675   6.174  0.1298  0.9813 -0.0759
 7426SOL     OW25232   3.540   2.445   1.436 -0.0312 -0.4730 -0.4158
 7426SOL    HW125233   3.494   2.526   1.411  1.1352 -0.4178 -2.5976
 7426SOL    HW225234   3.615   2.476   1.486  0.0285 -0.2456 -0.6401
 7427SOL     OW25235   6.553   5.655   3.162  0.1067  0.2741 -0.5134
 7427SOL    HW125236   6.576   5.574   3.207  0.3383 -0.4080 -1.7848
 7427SOL    HW225237   6.610   5.655   3.084  0.7699  2.1268 -0.0655
 7428SOL     OW25238   1.219   9.261   2.048  0.0231  0.0297 -0.3051
 7428SOL    HW125239   1.258   9.250   2.135 -0.6370  2.6713  0.4379
 7428SOL    HW225240   1.124   9.261   2.064 -0.1055  0.4717 -1.0116
 7429SOL     OW25241   8.812   1.833   6.796 -0.6104  0.0761  0.2850
 7429SOL    HW125242   8.855   1.747   6.794  0.1876  0.4793 -1.1350
 7429SOL    HW225243   8.877   1.891   6.835  0.4093  0.7851 -2.3001
 7430SOL     OW25244   7.695   8.521   2.641 -0.4139 -0.2236  0.3166
 7430SOL    HW125245   7.730   8.515   2.729 -1.0787 -0.9498  0.5451
 7430SOL    HW225246   7.620   8.580   2.649  0.3371  0.7882 -0.0347
 7431SOL     OW25247  10.468   4.285   3.706 -0.1619 -0.3108  0.2949
 7431SOL    HW125248  10.533   4.273   3.776  2.0497  0.2559 -1.5210
 7431SOL    HW225249  10.411   4.355   3.738  0.2227 -0.6817  1.8878
 7432SOL     OW25250   8.673   8.306   1.480 -0.4197  0.1783  0.0462
 7432SOL    HW125251   8.581   8.298   1.456 -0.6575  1.0114  0.6752
 7432SOL    HW225252   8.673   8.339   1.570  0.4948  0.4682 -0.0433
 7433SOL     OW25253   3.359   1.892   6.595  0.0020  0.8089  0.1494
 7433SOL    HW125254   3.347   1.984   6.571  0.1305  0.8788  0.3549
 7433SOL    HW225255   3.338   1.844   6.515 -0.8235  0.9755  0.2476
 7434SOL     OW25256   1.970  10.252   2.292 -0.1817  0.6094  0.1116
 7434SOL    HW125257   1.877  10.233   2.299 -0.1860  0.5020 -0.2290
 7434SOL    HW225258   2.012  10.166   2.299 -0.0445  0.7562  1.3075
 7435SOL     OW25259  10.045   0.498   0.853 -0.0334 -0.8422 -0.2837
 7435SOL    HW125260  10.024   0.540   0.936  1.6366  0.8068 -0.6305
 7435SOL    HW225261  10.067   0.408   0.877  0.7350 -0.3076  1.1243
 7436SOL     OW25262   9.299   9.173   3.900 -0.4064  0.3584 -0.3131
 7436SOL    HW125263   9.297   9.085   3.937 -1.0439  0.6169  0.2847
 7436SOL    HW225264   9.218   9.214   3.930 -0.1818  1.1054 -0.6949
 7437SOL     OW25265   5.370   5.318   6.004  0.1227 -0.2495  0.1103
 7437SOL    HW125266   5.393   5.334   5.913 -1.7479  2.0188 -0.0754
 7437SOL    HW225267   5.454   5.297   6.047  1.1781 -0.3887 -1.9091
 7438SOL     OW25268   1.250   7.607   9.417  0.3264 -0.5842 -0.1693
 7438SOL    HW125269   1.317   7.675   9.425 -0.1931  0.0031 -0.7644
 7438SOL    HW225270   1.255   7.559   9.499  0.6729  0.1967  0.2729
 7439SOL     OW25271  10.029   8.029   5.513  0.5525  0.6571 -0.4169
 7439SOL    HW125272  10.122   8.014   5.528  0.8180  0.5053 -1.9946
 7439SOL    HW225273   9.989   8.019   5.599  1.7430 -1.2283 -0.0147
 7440SOL     OW25274   7.785   4.556   9.654  0.7207  0.2124  0.1335
 7440SOL    HW125275   7.809   4.640   9.616 -1.0203  1.2826  1.2632
 7440SOL    HW225276   7.803   4.492   9.584  2.1731  1.4729 -0.6989
 7441SOL     OW25277   6.420   7.995   8.942  0.7411  0.1388 -0.6579
 7441SOL    HW125278   6.324   8.000   8.944  0.7997  1.3184 -0.5032
 7441SOL    HW225279   6.438   7.918   8.887 -0.3007 -1.5881  1.2714
 7442SOL     OW25280   9.864   7.315   4.587  0.3087  0.1424  0.0321
 7442SOL    HW125281   9.834   7.403   4.609 -4.5897 -1.0157 -1.0206
 7442SOL    HW225282   9.831   7.260   4.658  2.0004 -1.1526 -0.1097
 7443SOL     OW25283   6.018   0.162   5.097  0.2088 -0.7269 -0.0698
 7443SOL    HW125284   5.959   0.117   5.158  0.5690 -0.9317  0.1393
 7443SOL    HW225285   6.009   0.113   5.015 -0.5114 -0.2576 -0.2761
 7444SOL     OW25286   2.886   4.994   0.070  0.1608 -0.1208  0.0043
 7444SOL    HW125287   2.952   4.931   0.041  0.4850 -0.0969  0.6620
 7444SOL    HW225288   2.936   5.063   0.114 -0.3288 -0.4016  1.0526
 7445SOL     OW25289   1.721   8.624   6.276  0.4405  0.1884  0.2659
 7445SOL    HW125290   1.735   8.706   6.324 -0.1075 -0.3172  1.2961
 7445SOL    HW225291   1.775   8.634   6.197  1.6454  0.8806  1.1387
 7446SOL     OW25292   4.594   4.901   0.654  0.2676 -0.2312  0.6171
 7446SOL    HW125293   4.654   4.856   0.594  1.3101  0.3443  1.2119
 7446SOL    HW225294   4.579   4.986   0.614  0.1219 -0.2453  0.6420
 7447SOL     OW25295   1.819   9.411   3.877 -0.4160  0.2292 -0.0135
 7447SOL    HW125296   1.731   9.392   3.908 -0.2983 -0.3562 -0.0238
 7447SOL    HW225297   1.837   9.500   3.908 -1.1032  0.4481 -0.2374
 7448SOL     OW25298   8.489   4.401   0.566 -0.0427  0.0895 -0.0127
 7448SOL    HW125299   8.431   4.329   0.543 -0.1293 -0.0186  0.5373
 7448SOL    HW225300   8.440   4.480   0.545 -0.4213 -0.0000  0.5175
 7449SOL     OW25301   3.394   8.377   9.737  0.2322  0.3052 -0.1171
 7449SOL    HW125302   3.404   8.377   9.642  1.4585 -1.9761 -0.0900
 7449SOL    HW225303   3.303   8.354   9.752  0.3914 -0.8858 -0.8113
 7450SOL     OW25304   4.698   8.479   1.141 -0.3352 -0.1295 -0.2542
 7450SOL    HW125305   4.620   8.459   1.090 -0.2017  1.5215 -1.1723
 7450SOL    HW225306   4.695   8.573   1.154  0.6220 -0.2615  1.2114
 7451SOL     OW25307   2.719   6.522   5.799 -0.0548 -0.3542  0.0562
 7451SOL    HW125308   2.773   6.524   5.720  1.0572  1.4792  0.7827
 7451SOL    HW225309   2.630   6.542   5.768  0.3239  0.1235 -0.7549
 7452SOL     OW25310   7.268   3.868   0.959 -0.2902  0.1181  0.4184
 7452SOL    HW125311   7.233   3.901   1.041 -1.1255  4.3987 -1.3870
 7452SOL    HW225312   7.192   3.837   0.910  0.1478 -1.9658  0.9388
 7453SOL     OW25313   9.277   3.407   4.163  0.2877  0.6200  0.1074
 7453SOL    HW125314   9.219   3.467   4.210  0.5295  1.2999 -0.4429
 7453SOL    HW225315   9.259   3.423   4.070 -0.1326 -0.6563 -0.0428
 7454SOL     OW25316   5.703   9.905   3.876 -0.0230  0.5901  0.3906
 7454SOL    HW125317   5.796   9.891   3.894 -0.0129  0.8869  0.5765
 7454SOL    HW225318   5.701   9.978   3.814 -0.1328  0.6247  0.4331
 7455SOL     OW25319   4.085   9.076   5.092 -0.1344 -0.5259  0.0634
 7455SOL    HW125320   4.155   9.011   5.085 -0.5384 -0.9536 -0.0466
 7455SOL    HW225321   4.017   9.033   5.144 -0.4926 -0.2667 -0.1811
 7456SOL     OW25322   2.792   4.878  10.263  0.4823  0.3155 -0.4858
 7456SOL    HW125323   2.848   4.889  10.340 -1.4145  0.2054  0.9989
 7456SOL    HW225324   2.846   4.833  10.199  1.6170 -1.1733  1.4327
 7457SOL     OW25325   0.193   5.027  10.414  0.0187 -0.4160  0.0204
 7457SOL    HW125326   0.225   4.945  10.452 -0.1218 -0.3669  0.2497
 7457SOL    HW225327   0.199   5.090  10.486  0.6781 -0.0842 -0.3253
 7458SOL     OW25328   5.914   6.527   3.450  0.0782 -0.2841  0.0540
 7458SOL    HW125329   5.888   6.561   3.536  0.2624  1.8116 -0.6530
 7458SOL    HW225330   5.899   6.433   3.455  0.5831 -0.2848  2.5593
 7459SOL     OW25331   3.359   6.520   3.300 -0.3087 -0.2009  0.4233
 7459SOL    HW125332   3.422   6.513   3.372 -1.2848 -1.0628  1.2201
 7459SOL    HW225333   3.413   6.524   3.222  0.7729  0.4344  1.1694
 7460SOL     OW25334   1.107   4.219   3.106 -0.1619 -0.2746  0.1453
 7460SOL    HW125335   1.184   4.174   3.140 -1.2576 -2.4129  0.0038
 7460SOL    HW225336   1.081   4.168   3.029 -2.7083 -0.7251  1.1927
 7461SOL     OW25337   9.745   6.908   4.561 -0.1648  0.1468  0.3342
 7461SOL    HW125338   9.672   6.850   4.540  0.0091 -0.2954  0.9299
 7461SOL    HW225339   9.823   6.859   4.536 -0.0757  0.8061 -0.7436
 7462SOL     OW25340   6.648   9.239   2.466  0.3854  0.1305 -0.7548
 7462SOL    HW125341   6.665   9.233   2.560 -0.8570  1.6047 -0.3936
 7462SOL    HW225342   6.735   9.234   2.426  1.0763  0.8280  0.5758
 7463SOL     OW25343   6.438   1.545   8.724  0.4995 -0.4425 -0.4321
 7463SOL    HW125344   6.488   1.625   8.740  0.6862 -0.7513  0.5380
 7463SOL    HW225345   6.357   1.556   8.774  0.7315 -1.0585  0.0981
 7464SOL     OW25346   6.926   2.816   6.848  0.9110 -0.2542  0.3484
 7464SOL    HW125347   6.985   2.837   6.776  0.0000 -2.6464 -1.2246
 7464SOL    HW225348   6.889   2.900   6.875  1.4906  0.7447 -1.7913
 7465SOL     OW25349   0.197   4.029   5.232 -0.3015 -0.0152  0.7742
 7465SOL    HW125350   0.208   3.969   5.158 -1.0251 -0.0946  0.7207
 7465SOL    HW225351   0.113   4.072   5.215  1.4423  3.1957 -0.7466
 7466SOL     OW25352   4.740   9.549  10.497 -0.1519  0.7746 -0.8662
 7466SOL    HW125353   4.830   9.522  10.478 -0.9517 -0.3348 -3.4777
 7466SOL    HW225354   4.701   9.473  10.540  0.3216  1.5666  1.0816
 7467SOL     OW25355   6.345   8.212   8.015  0.5534 -0.7173  0.3012
 7467SOL    HW125356   6.358   8.227   7.921 -2.4881  0.4642 -0.0261
 7467SOL    HW225357   6.280   8.143   8.020 -0.0265 -0.1128  1.5226
 7468SOL     OW25358   9.002   4.245   3.661  0.3251 -0.0512  0.2406
 7468SOL    HW125359   8.973   4.156   3.645 -0.4222  0.5198 -1.9542
 7468SOL    HW225360   9.091   4.236   3.695 -0.2522 -1.6407  1.4640
 7469SOL     OW25361  10.124   8.003   2.162 -0.3984  0.5630 -0.1559
 7469SOL    HW125362  10.070   8.069   2.204  0.6752  1.9031 -0.8166
 7469SOL    HW225363  10.210   8.043   2.153  0.1277 -0.6798 -1.1581
 7470SOL     OW25364   9.881   6.932   1.034 -0.0136 -0.3756 -0.8383
 7470SOL    HW125365   9.976   6.940   1.032 -0.1256  1.8056 -0.2091
 7470SOL    HW225366   9.853   6.963   0.948 -0.1978  0.5938 -0.4480
 7471SOL     OW25367   3.366   0.194   2.036 -0.1126  0.0642  0.7265
 7471SOL    HW125368   3.345   0.110   1.995 -1.0231  0.1319  1.0347
 7471SOL    HW225369   3.324   0.190   2.122 -0.8284  1.1210  0.4518
 7472SOL     OW25370   2.958   0.686  10.434  0.4351 -0.4268 -0.0252
 7472SOL    HW125371   2.921   0.770  10.407 -0.9186 -1.1220 -0.4449
 7472SOL    HW225372   3.052   0.701  10.436  0.4500  0.3751 -2.7526
 7473SOL     OW25373   2.908   6.668   5.039  0.2290  0.5134  0.4770
 7473SOL    HW125374   2.918   6.719   4.958  2.9170  1.6258  1.3826
 7473SOL    HW225375   2.940   6.581   5.016  3.4690  1.4697  0.8143
 7474SOL     OW25376   7.205   4.295   3.886  0.5653 -0.2473 -0.1707
 7474SOL    HW125377   7.110   4.294   3.893  0.6711 -0.6934  1.6269
 7474SOL    HW225378   7.222   4.284   3.792 -1.1310 -1.0716 -0.4226
 7475SOL     OW25379   7.130   7.487   9.493 -0.3206  0.2588  0.1182
 7475SOL    HW125380   7.131   7.436   9.574 -0.7613  0.0347 -0.0146
 7475SOL    HW225381   7.202   7.451   9.441  0.3911  0.8441  0.6713
 7476SOL     OW25382   8.798   1.321   5.483  0.2501  0.1632  0.7273
 7476SOL    HW125383   8.887   1.287   5.467  0.4065 -0.1031  2.0471
 7476SOL    HW225384   8.797   1.406   5.440  0.7780 -0.2925 -0.2392
 7477SOL     OW25385   3.202  10.257   5.054  0.4519 -0.1565  0.6340
 7477SOL    HW125386   3.191  10.222   5.143  0.1726  1.0459  1.0877
 7477SOL    HW225387   3.121  10.232   5.009  1.6231 -3.0044 -0.1121
 7478SOL     OW25388   3.232   6.840   6.457  0.2085 -0.0207  0.5028
 7478SOL    HW125389   3.237   6.915   6.516  1.1395  0.0195  0.3824
 7478SOL    HW225390   3.316   6.840   6.411 -0.0860 -0.6861 -0.0496
 7479SOL     OW25391   2.700   8.298   5.327 -0.0829 -0.1625  0.1914
 7479SOL    HW125392   2.766   8.313   5.259 -0.6415  0.5494 -0.2080
 7479SOL    HW225393   2.679   8.205   5.320 -0.5460  0.0238 -0.9910
 7480SOL     OW25394   3.861   7.838   7.798 -0.2512  0.0871  0.4888
 7480SOL    HW125395   3.852   7.785   7.877 -0.2910 -0.2806  0.2375
 7480SOL    HW225396   3.919   7.787   7.742  0.7103  0.8771  0.7432
 7481SOL     OW25397   6.683   4.544   2.375 -0.3149  0.3745 -0.2232
 7481SOL    HW125398   6.768   4.576   2.345  1.0176 -1.4101  1.3969
 7481SOL    HW225399   6.653   4.485   2.305 -0.9367  2.0027 -1.4091
 7482SOL     OW25400   4.032   2.220   9.638  0.0566  0.0480 -0.4926
 7482SOL    HW125401   3.939   2.234   9.652  0.1134  0.2543 -0.3053
 7482SOL    HW225402   4.074   2.293   9.683  0.3496 -0.4904  0.1306
 7483SOL     OW25403   7.712   4.661   0.373  0.0443 -0.1136 -0.7612
 7483SOL    HW125404   7.735   4.596   0.307 -0.6508  0.9322 -2.0953
 7483SOL    HW225405   7.639   4.710   0.334 -1.3042 -0.3083  1.3470
 7484SOL     OW25406  10.247   5.898   1.782  0.0524 -0.0856 -0.1173
 7484SOL    HW125407  10.190   5.918   1.856  2.0595  0.2332  1.4038
 7484SOL    HW225408  10.267   5.984   1.744 -1.2946 -0.2738 -1.3490
 7485SOL     OW25409   7.724   5.584   4.695  0.4386 -0.2364  0.5413
 7485SOL    HW125410   7.766   5.662   4.658 -0.0474  0.6545  1.7809
 7485SOL    HW225411   7.638   5.615   4.722 -0.0477 -1.4093  0.3662
 7486SOL     OW25412   5.039   1.445   8.964 -0.6459  0.1833  0.1512
 7486SOL    HW125413   5.004   1.532   8.948 -1.0740  0.5648  2.7289
 7486SOL    HW225414   4.998   1.390   8.897 -0.6648  1.8685 -1.2754
 7487SOL     OW25415   8.813   7.590   1.872  0.8790 -0.3220 -0.0114
 7487SOL    HW125416   8.786   7.559   1.785  2.4564  0.2549 -0.7423
 7487SOL    HW225417   8.763   7.671   1.886 -0.4820 -1.1948  0.2872
 7488SOL     OW25418  10.009   3.421   0.380 -0.2132  0.1415  0.9215
 7488SOL    HW125419  10.061   3.479   0.324 -1.7722  0.5969 -0.1089
 7488SOL    HW225420  10.068   3.347   0.398  0.2948 -0.1730 -1.5653
 7489SOL     OW25421   2.101   5.925   5.341  0.0091 -0.2661  0.3056
 7489SOL    HW125422   2.013   5.908   5.307 -0.6334 -0.4619  2.0011
 7489SOL    HW225423   2.123   5.848   5.392  0.5044  0.4419  1.2009
 7490SOL     OW25424   0.412   9.410   8.051  0.0867  0.0006  0.0191
 7490SOL    HW125425   0.421   9.485   8.110  0.2957  0.0827 -0.1160
 7490SOL    HW225426   0.493   9.410   7.999 -0.0759 -0.0941 -0.2395
 7491SOL     OW25427   4.037   4.477   2.889 -0.3294 -0.6782  0.6994
 7491SOL    HW125428   4.039   4.390   2.928 -0.1327 -0.8116  0.3925
 7491SOL    HW225429   4.087   4.469   2.808 -0.3322 -0.2866  0.6551
 7492SOL     OW25430   1.107   7.578   6.824 -0.5186  0.1547 -0.2850
 7492SOL    HW125431   1.163   7.591   6.899 -0.5633 -0.9333 -0.0410
 7492SOL    HW225432   1.025   7.543   6.860 -1.0814  1.0084 -0.7009
 7493SOL     OW25433   0.886   7.116   7.747  0.0978  0.1400  0.3473
 7493SOL    HW125434   0.804   7.097   7.702 -1.1444  0.8184  2.2268
 7493SOL    HW225435   0.943   7.152   7.678 -1.4577  0.4968 -0.8213
 7494SOL     OW25436   8.657   0.594   9.868  0.6031  0.1649  0.2615
 7494SOL    HW125437   8.570   0.619   9.838  0.3867  0.3292  1.0269
 7494SOL    HW225438   8.664   0.629   9.957  1.1367 -0.5691  0.5187
 7495SOL     OW25439   0.659   0.511   5.720 -0.2748 -0.6112  0.0392
 7495SOL    HW125440   0.720   0.545   5.785  1.3859 -2.6573 -0.3075
 7495SOL    HW225441   0.607   0.447   5.768 -0.1277 -0.9705 -0.2695
 7496SOL     OW25442   8.360   5.207   5.277 -0.3591  0.5904 -0.0200
 7496SOL    HW125443   8.432   5.187   5.217 -1.5763  0.2512 -1.4425
 7496SOL    HW225444   8.348   5.126   5.327  0.2190  0.6366  0.1965
 7497SOL     OW25445   7.401   5.685   6.339 -0.0921 -0.0657  0.3813
 7497SOL    HW125446   7.316   5.724   6.358 -0.1502 -0.2599  0.5292
 7497SOL    HW225447   7.432   5.730   6.261  0.4308  1.2016  1.2766
 7498SOL     OW25448   6.102   9.217   6.094 -0.4927 -0.1985  0.5112
 7498SOL    HW125449   6.083   9.308   6.116  1.6936  0.3954  0.1976
 7498SOL    HW225450   6.054   9.201   6.013 -2.0321  0.1821  1.3045
 7499SOL     OW25451   0.338   7.301   5.025 -0.3963  0.3595  0.3197
 7499SOL    HW125452   0.244   7.317   5.020 -0.6962 -1.1295  0.6887
 7499SOL    HW225453   0.374   7.345   4.949 -1.1778  2.2950  1.0186
 7500SOL     OW25454   7.108   8.097   5.423  0.0820  0.0742  0.5564
 7500SOL    HW125455   7.099   8.155   5.347 -2.5051  0.3368  0.9825
 7500SOL    HW225456   7.148   8.153   5.491 -1.2047  1.0307  0.5679
 7501SOL     OW25457   1.782   0.454   8.796  0.0033  0.3763  0.3953
 7501SOL    HW125458   1.687   0.466   8.789  0.1087  1.0295 -0.0434
 7501SOL    HW225459   1.815   0.539   8.824  0.3189 -0.2889  2.1603
 7502SOL     OW25460   9.576   6.293   1.355  0.1596 -0.5349  1.1654
 7502SOL    HW125461   9.635   6.270   1.426  1.9953  4.1246  1.4788
 7502SOL    HW225462   9.634   6.319   1.283 -1.5546  0.4912  0.0778
 7503SOL     OW25463  10.400   7.416   9.834 -0.0473  0.0682  0.3846
 7503SOL    HW125464  10.408   7.423   9.739  2.6865 -1.0346  0.4572
 7503SOL    HW225465  10.307   7.398   9.848 -0.7885  1.6062 -1.9354
 7504SOL     OW25466   0.508   4.872   4.478  0.0295 -0.0519  0.1804
 7504SOL    HW125467   0.433   4.931   4.473 -0.7233 -0.9775  0.2935
 7504SOL    HW225468   0.470   4.784   4.474  0.7991 -0.6500  3.2417
 7505SOL     OW25469   2.535   5.863   0.639 -0.0235  0.7238  0.2803
 7505SOL    HW125470   2.557   5.926   0.571  0.6744  1.6057  1.2927
 7505SOL    HW225471   2.619   5.823   0.663 -0.3758 -0.1736  0.0745
 7506SOL     OW25472   0.386   0.536   5.017 -0.0769  0.6861 -0.5770
 7506SOL    HW125473   0.418   0.447   5.000 -3.3886 -0.7258 -0.1184
 7506SOL    HW225474   0.446   0.592   4.968  0.8360 -1.9340 -2.7161
 7507SOL     OW25475   2.578   1.321   7.054 -0.2049  0.4270 -0.1242
 7507SOL    HW125476   2.586   1.339   7.147 -0.4641  0.0207 -0.0258
 7507SOL    HW225477   2.659   1.274   7.032 -0.2618  0.2953 -0.0517
 7508SOL     OW25478   5.928   1.254   1.271 -0.4901  0.1885  0.4612
 7508SOL    HW125479   5.949   1.211   1.354  0.2666  1.3681  0.8976
 7508SOL    HW225480   6.013   1.263   1.226 -0.8127  0.1067 -0.1831
 7509SOL     OW25481   7.308   0.176   3.278  0.6161  0.3898  0.0752
 7509SOL    HW125482   7.394   0.157   3.316  0.6593 -1.1254 -0.7057
 7509SOL    HW225483   7.308   0.129   3.195 -0.4332  1.5601 -0.6253
 7510SOL     OW25484   2.785   5.407   0.250  1.0007  0.0543  0.3952
 7510SOL    HW125485   2.876   5.399   0.277  1.3429 -1.5655 -1.0341
 7510SOL    HW225486   2.745   5.323   0.274  1.0687 -1.0560 -2.8354
 7511SOL     OW25487   6.912   0.242   8.540 -0.0886  0.4861  0.2586
 7511SOL    HW125488   6.907   0.166   8.482 -0.0415  0.3110  0.4841
 7511SOL    HW225489   6.826   0.245   8.583  0.9142 -1.3307  2.6263
 7512SOL     OW25490   6.120   4.097   1.172 -0.4774  0.2320  0.2254
 7512SOL    HW125491   6.159   4.183   1.156  0.1623 -0.1746 -0.4275
 7512SOL    HW225492   6.108   4.059   1.085 -0.4572 -0.4689  0.5245
 7513SOL     OW25493   2.130   8.318   1.057 -0.1398  0.7134 -0.3842
 7513SOL    HW125494   2.139   8.226   1.082 -0.7571  0.2495 -1.7940
 7513SOL    HW225495   2.185   8.327   0.979 -1.1813  1.1912 -1.0771
 7514SOL     OW25496   2.159   4.137   3.211  0.1243 -0.1874 -0.5244
 7514SOL    HW125497   2.235   4.078   3.212  0.0702 -0.2589 -0.6439
 7514SOL    HW225498   2.177   4.197   3.139  1.4908  1.6641  1.2513
 7515SOL     OW25499   3.946   6.754   7.242  0.5781 -0.3495  0.3880
 7515SOL    HW125500   3.910   6.680   7.290 -1.8881  0.8052  0.5108
 7515SOL    HW225501   3.937   6.828   7.302  2.4935  0.1793  0.0801
 7516SOL     OW25502   0.688   6.036   5.173  0.3325 -0.5338  0.0156
 7516SOL    HW125503   0.660   6.103   5.111  1.0067  0.8962  1.1853
 7516SOL    HW225504   0.774   6.007   5.141  1.1601  0.9540  0.7953
 7517SOL     OW25505   2.507   5.144   8.220 -0.3249 -1.0671  0.5551
 7517SOL    HW125506   2.455   5.209   8.268  1.9024  2.9234 -1.8326
 7517SOL    HW225507   2.471   5.146   8.131  0.0438 -2.9296  0.3412
 7518SOL     OW25508   4.627   3.443   8.932 -0.0333  0.0446 -0.6220
 7518SOL    HW125509   4.636   3.527   8.977  1.4829 -0.2075 -0.3972
 7518SOL    HW225510   4.534   3.423   8.938 -0.4554  1.7789 -0.8259
 7519SOL     OW25511   8.682   9.778  10.177 -0.3796 -0.0566  0.0188
 7519SOL    HW125512   8.621   9.734  10.237  1.3255  1.7122  3.3267
 7519SOL    HW225513   8.647   9.866  10.168  0.8926  0.5693  0.8751
 7520SOL     OW25514   2.565   1.573   5.214  0.2542 -0.3940 -0.2252
 7520SOL    HW125515   2.651   1.587   5.175 -0.1453  1.0761 -0.6429
 7520SOL    HW225516   2.504   1.579   5.141 -0.2838 -0.4000  0.2200
 7521SOL     OW25517   8.772   3.467   3.419 -0.1200 -0.1069 -0.1584
 7521SOL    HW125518   8.803   3.377   3.407  0.0596 -0.1974  0.8844
 7521SOL    HW225519   8.822   3.499   3.494 -0.2663  0.8277 -0.4562
 7522SOL     OW25520   8.917   2.096   4.936  0.8175  0.9046 -0.0771
 7522SOL    HW125521   8.948   2.090   4.846 -0.1326 -0.9726 -0.3191
 7522SOL    HW225522   8.830   2.135   4.930  0.2448 -0.3423 -0.1196
 7523SOL     OW25523   7.566   3.843   0.592  0.2619  0.4694  0.4974
 7523SOL    HW125524   7.583   3.761   0.546  0.7232  0.1384  1.2403
 7523SOL    HW225525   7.543   3.905   0.523  0.4084 -0.1539 -0.1212
 7524SOL     OW25526   6.714   3.116  10.313 -0.1536 -0.0873  0.0453
 7524SOL    HW125527   6.728   3.159  10.229  0.1138 -0.2271  0.0168
 7524SOL    HW225528   6.646   3.168  10.356 -0.1590  0.0920 -0.1789
 7525SOL     OW25529   0.830   8.558   0.720 -0.1061 -0.2800  0.2025
 7525SOL    HW125530   0.773   8.502   0.772 -0.9765  0.7804  0.4156
 7525SOL    HW225531   0.898   8.586   0.781 -0.2553 -0.2720  0.3654
 7526SOL     OW25532   1.864   0.709   7.167 -0.6764 -0.2694  0.1411
 7526SOL    HW125533   1.877   0.802   7.149  1.3983 -0.6849 -0.7345
 7526SOL    HW225534   1.952   0.674   7.183 -1.4294 -2.0316  0.8242
 7527SOL     OW25535   1.469   8.280   5.390  0.5547  0.4479 -0.4525
 7527SOL    HW125536   1.397   8.340   5.406  0.5287  0.4924 -0.7272
 7527SOL    HW225537   1.445   8.235   5.308  1.1732  0.9787 -0.9387
 7528SOL     OW25538   6.075   7.116   7.823 -0.0977  0.3548  0.1040
 7528SOL    HW125539   5.981   7.103   7.839 -0.0691  0.8715  0.7465
 7528SOL    HW225540   6.114   7.030   7.837 -0.8149 -0.6275 -3.0790
 7529SOL     OW25541   1.357   7.382   7.399  0.2163  0.3877  0.3539
 7529SOL    HW125542   1.289   7.396   7.335 -0.4438  1.5470  1.2795
 7529SOL    HW225543   1.418   7.454   7.387  0.0014  0.7107  1.1173
 7530SOL     OW25544   7.177   4.626   6.194  0.0352  0.4873 -0.3524
 7530SOL    HW125545   7.115   4.584   6.254  1.0748 -0.2713  0.2160
 7530SOL    HW225546   7.143   4.714   6.183 -0.8028  0.2823  0.4531
 7531SOL     OW25547   8.875   5.013   7.818  0.3991 -0.1143  0.0891
 7531SOL    HW125548   8.955   5.057   7.844  0.4869 -0.4197  0.3458
 7531SOL    HW225549   8.828   4.997   7.900  1.7680 -3.2422  0.4145
 7532SOL     OW25550   9.755   4.061   5.587 -0.1220 -0.9047  0.0965
 7532SOL    HW125551   9.714   3.981   5.555 -0.7714 -0.3065 -0.5886
 7532SOL    HW225552   9.687   4.105   5.638  0.7832 -1.6656  2.0565
 7533SOL     OW25553   8.755   0.264   4.379 -0.3503 -0.6168  0.3903
 7533SOL    HW125554   8.847   0.264   4.407  0.6655 -2.6480 -2.4478
 7533SOL    HW225555   8.749   0.337   4.316 -0.1851 -1.4745 -0.6513
 7534SOL     OW25556  10.235   0.389   7.029  0.1720 -0.1401 -0.1118
 7534SOL    HW125557  10.157   0.357   6.984 -0.6865  1.3717  0.2471
 7534SOL    HW225558  10.263   0.465   6.977  0.2441  0.5088  0.8646
 7535SOL     OW25559   3.467   3.168   1.481  0.4248  0.6482 -0.4429
 7535SOL    HW125560   3.391   3.136   1.529  0.2487  0.7738 -0.6397
 7535SOL    HW225561   3.542   3.140   1.534  0.2142  1.2643  0.1921
 7536SOL     OW25562   3.785   0.981   3.614 -0.3815 -0.3635 -0.0470
 7536SOL    HW125563   3.811   0.906   3.560 -0.9533  0.4631 -1.5075
 7536SOL    HW225564   3.808   0.954   3.704  0.6734 -1.7284 -0.6811
 7537SOL     OW25565   3.592   1.781   0.383  0.6515  0.1554 -0.7349
 7537SOL    HW125566   3.526   1.737   0.437  2.1578 -0.8247  0.3773
 7537SOL    HW225567   3.629   1.712   0.328  1.3311  0.5279 -0.7592
 7538SOL     OW25568   1.969   4.475   7.815  0.1094 -0.4985  0.3782
 7538SOL    HW125569   1.894   4.487   7.757  1.5317 -2.8795 -2.2123
 7538SOL    HW225570   2.003   4.563   7.830 -2.1387  0.4569  0.2034
 7539SOL     OW25571   3.639  10.370   7.056 -0.5685 -0.2740 -0.0534
 7539SOL    HW125572   3.645  10.278   7.032  3.6482 -0.3138  0.3394
 7539SOL    HW225573   3.640  10.417   6.972 -0.8871 -0.5553 -0.2155
 7540SOL     OW25574   2.314   4.782   3.972  0.6174 -0.5166  0.6839
 7540SOL    HW125575   2.250   4.835   4.018  1.2528  1.6928 -0.7854
 7540SOL    HW225576   2.365   4.740   4.041 -0.3909  0.2184  1.9122
 7541SOL     OW25577   1.380   9.345   9.896  0.0819 -0.0352  0.2517
 7541SOL    HW125578   1.471   9.342   9.926  0.4630 -0.0523 -0.8406
 7541SOL    HW225579   1.387   9.359   9.801 -1.0817  1.2792  0.3293
 7542SOL     OW25580   2.129   2.974   9.557  0.4032  0.8547 -0.3772
 7542SOL    HW125581   2.151   3.067   9.567 -0.3966  1.2484 -1.9788
 7542SOL    HW225582   2.048   2.963   9.605  0.6104  0.9294 -0.0057
 7543SOL     OW25583  10.151   2.363   3.350  0.5225  0.0129  0.7265
 7543SOL    HW125584  10.173   2.283   3.398 -0.6522  0.9127  2.8802
 7543SOL    HW225585  10.236   2.403   3.330  1.0531 -0.4939  1.9048
 7544SOL     OW25586   1.096  10.399   2.481 -0.2862  0.1027 -0.6117
 7544SOL    HW125587   1.006  10.381   2.507 -0.5454  2.2440  0.1729
 7544SOL    HW225588   1.150  10.363   2.552 -0.5178 -0.9434 -0.9531
 7545SOL     OW25589   6.285   8.451   3.957  0.2655  0.3254 -0.2932
 7545SOL    HW125590   6.224   8.419   3.890  2.0305 -1.5151 -1.1208
 7545SOL    HW225591   6.278   8.546   3.952  1.0390  0.3441 -3.8871
 7546SOL     OW25592  10.289  10.217   9.059  0.3356  0.1765 -0.1703
 7546SOL    HW125593  10.299  10.175   9.144  0.4407  0.1207 -0.2118
 7546SOL    HW225594  10.205  10.184   9.025  1.2681 -1.4296 -1.0206
 7547SOL     OW25595   0.886   8.903   2.879  0.0316  0.1399 -0.2929
 7547SOL    HW125596   0.818   8.858   2.928 -0.6279  0.8370 -0.5512
 7547SOL    HW225597   0.943   8.833   2.846 -0.0589 -0.3872  0.6476
 7548SOL     OW25598   8.140   9.701   7.984 -0.3466  0.3184 -0.0080
 7548SOL    HW125599   8.104   9.777   8.031 -1.3521 -0.0192 -0.2051
 7548SOL    HW225600   8.082   9.629   8.008  0.2631 -0.2656 -0.2780
 7549SOL     OW25601   9.280   6.223   6.212 -0.2441  0.4699  0.0974
 7549SOL    HW125602   9.296   6.135   6.179 -0.6823 -0.1987  1.5676
 7549SOL    HW225603   9.210   6.212   6.276  0.6804  1.6171  1.3761
 7550SOL     OW25604   3.940   6.445   1.767  0.0373  0.0828 -0.1857
 7550SOL    HW125605   3.927   6.351   1.783 -1.5880  0.5051  1.3187
 7550SOL    HW225606   3.887   6.464   1.690 -2.6288  0.3839  1.6168
 7551SOL     OW25607   7.892   8.022   3.188  0.0706 -0.2203  0.1096
 7551SOL    HW125608   7.927   8.109   3.207  0.7698 -0.5533  0.3832
 7551SOL    HW225609   7.809   8.017   3.235  0.5039 -0.0598  0.8970
 7552SOL     OW25610   7.233   3.497   9.705  0.3586 -0.4413 -0.1484
 7552SOL    HW125611   7.257   3.571   9.761 -1.0500 -0.1068  0.0709
 7552SOL    HW225612   7.309   3.440   9.706  1.3001  0.7772  0.0631
 7553SOL     OW25613   4.094   8.282   1.308  0.3244 -0.1817 -0.3531
 7553SOL    HW125614   4.093   8.224   1.383  0.6849  0.8666  0.4895
 7553SOL    HW225615   4.078   8.225   1.233  0.3263 -1.3000  0.4753
 7554SOL     OW25616   5.274   6.358   3.432 -0.4395 -0.1230 -0.2056
 7554SOL    HW125617   5.269   6.348   3.337 -1.1476  0.7614 -0.2797
 7554SOL    HW225618   5.281   6.452   3.446  2.0332 -0.3435  0.5580
 7555SOL     OW25619   7.242   0.772   1.654  0.3990 -0.3123  0.0975
 7555SOL    HW125620   7.229   0.797   1.746 -0.2606 -1.7511  0.4315
 7555SOL    HW225621   7.324   0.813   1.629 -0.9939  2.8669  0.2819
 7556SOL     OW25622   0.466   6.549   4.192 -0.2468 -0.2409 -0.0294
 7556SOL    HW125623   0.428   6.542   4.280  0.2973 -0.9735  0.1604
 7556SOL    HW225624   0.392   6.535   4.133 -0.4331 -0.7981  0.3251
 7557SOL     OW25625   4.003   0.932   7.695  0.6565 -0.3675 -0.3703
 7557SOL    HW125626   4.036   0.890   7.775 -0.6222  1.2644  1.0886
 7557SOL    HW225627   4.059   1.008   7.684 -0.2558  0.3762  0.0097
 7558SOL     OW25628   6.755   0.889  10.603 -0.1605  0.5426  0.5089
 7558SOL    HW125629   6.797   0.831  10.539  1.9367  1.3887  1.0493
 7558SOL    HW225630   6.772   0.848  10.688 -0.1496  1.0679  0.7644
 7559SOL     OW25631   5.909   4.716   5.792 -0.1354 -0.4691 -0.5191
 7559SOL    HW125632   5.846   4.661   5.747  1.1191  0.7520 -4.1039
 7559SOL    HW225633   5.867   4.802   5.797 -0.5737 -0.7496  1.5530
 7560SOL     OW25634   5.746   1.637   9.608 -0.1939 -0.5439  0.3548
 7560SOL    HW125635   5.685   1.574   9.647  0.2676 -0.1378  1.7802
 7560SOL    HW225636   5.770   1.598   9.524 -1.6514 -1.1786  0.1958
 7561SOL     OW25637   1.328   6.252   9.537  0.1415 -0.0277  0.1649
 7561SOL    HW125638   1.349   6.214   9.623 -2.4507 -0.3479  0.7243
 7561SOL    HW225639   1.292   6.179   9.487 -1.1137  0.7698 -0.1458
 7562SOL     OW25640  10.657   7.175   4.467  0.2728  0.0380  0.4727
 7562SOL    HW125641  10.746   7.209   4.464  0.6192 -0.7096  1.6001
 7562SOL    HW225642  10.609   7.228   4.404  1.5402  0.3628 -0.2496
 7563SOL     OW25643   4.597   2.582   3.089 -0.0522 -0.2275  0.1519
 7563SOL    HW125644   4.599   2.631   3.171  0.1812 -0.5170  0.3228
 7563SOL    HW225645   4.546   2.503   3.110 -1.3498  0.4303 -0.4019
 7564SOL     OW25646   6.136   3.404   2.676 -0.0564 -0.4753  1.1436
 7564SOL    HW125647   6.064   3.455   2.641  0.0715 -0.5828  0.7132
 7564SOL    HW225648   6.148   3.436   2.765 -1.2845 -1.1359  1.5728
 7565SOL     OW25649   4.095   2.359   8.257  0.6097  0.2311 -0.2925
 7565SOL    HW125650   4.091   2.408   8.174  0.5969  1.2328  0.2854
 7565SOL    HW225651   4.140   2.418   8.317 -1.3512  0.4596  1.0348
 7566SOL     OW25652   1.361   9.627   5.221  0.5560  0.0012  0.8341
 7566SOL    HW125653   1.406   9.709   5.199 -1.4634  0.7175 -1.0129
 7566SOL    HW225654   1.371   9.573   5.142 -1.8158  0.2484  0.2869
 7567SOL     OW25655   2.448   4.439   4.907  0.8124  0.3951 -0.2006
 7567SOL    HW125656   2.481   4.476   4.989  0.2350 -0.6371  0.5269
 7567SOL    HW225657   2.510   4.467   4.840  0.7113  2.1743  0.3941
 7568SOL     OW25658   1.011   6.041   6.384  0.5416  0.2436 -0.1708
 7568SOL    HW125659   0.955   6.112   6.416  0.1247 -0.7746  1.4720
 7568SOL    HW225660   0.951   5.986   6.333  0.9883  1.3298 -1.9362
 7569SOL     OW25661   4.020   1.139   8.468  0.9172  0.4474  0.0045
 7569SOL    HW125662   4.097   1.119   8.415  0.5957  1.8044 -1.0274
 7569SOL    HW225663   3.963   1.063   8.457 -0.2793  1.6546 -3.7657
 7570SOL     OW25664   0.417   0.577   3.883 -0.2718 -0.0143 -0.2119
 7570SOL    HW125665   0.482   0.631   3.839  2.0066  0.6606  3.5237
 7570SOL    HW225666   0.459   0.491   3.892 -0.9618 -0.3365  0.0289
 7571SOL     OW25667   2.347   3.703   9.449  0.0008 -0.2106  0.2864
 7571SOL    HW125668   2.280   3.761   9.484  0.7091 -0.5792  2.4205
 7571SOL    HW225669   2.374   3.744   9.367  0.5066  2.5383  1.7023
 7572SOL     OW25670   9.922   3.628  10.635  0.1394 -0.0150  0.0200
 7572SOL    HW125671   9.974   3.555  10.602 -0.3428 -0.2418 -0.2456
 7572SOL    HW225672   9.910   3.686  10.560  2.2152  1.3682  0.6841
 7573SOL     OW25673   1.985   8.766   6.631 -0.6642 -0.0677 -0.3273
 7573SOL    HW125674   2.017   8.687   6.589 -0.8555  0.6005 -1.7739
 7573SOL    HW225675   2.064   8.806   6.669 -0.4678 -0.5955 -0.1674
 7574SOL     OW25676  10.258   2.735   8.259 -0.4276 -0.2802 -0.7911
 7574SOL    HW125677  10.261   2.817   8.209 -1.8363  0.3582  0.0904
 7574SOL    HW225678  10.197   2.680   8.211 -1.3462  0.1220 -0.1208
 7575SOL     OW25679   1.722   1.281   8.782 -0.4676 -0.2403 -0.1729
 7575SOL    HW125680   1.746   1.207   8.727 -1.6971 -1.5039  0.9271
 7575SOL    HW225681   1.802   1.304   8.829  0.0379 -0.5412 -0.8803
 7576SOL     OW25682   4.043   5.977   9.899 -0.3595 -0.2017  0.0482
 7576SOL    HW125683   4.023   5.893   9.940  0.2315 -0.4677 -0.2032
 7576SOL    HW225684   4.085   5.954   9.816  0.2399  0.3383  0.1955
 7577SOL     OW25685   2.097  10.069   1.734 -0.6300 -0.2099  0.4156
 7577SOL    HW125686   2.190  10.083   1.752 -0.7988  1.0795  0.3637
 7577SOL    HW225687   2.083  10.104   1.646 -1.1485 -0.4721  0.3865
 7578SOL     OW25688   4.116   8.518   1.114 -0.1109  0.1525 -0.5867
 7578SOL    HW125689   4.134   8.436   1.158 -0.5478 -0.3579 -1.3365
 7578SOL    HW225690   4.162   8.511   1.030 -1.4404  0.0047 -1.3267
 7579SOL     OW25691   6.964   3.806   4.756 -0.3350 -0.7978  0.2083
 7579SOL    HW125692   7.024   3.880   4.744 -0.4465 -0.8388 -0.6824
 7579SOL    HW225693   6.990   3.767   4.839  0.9355 -0.8694 -0.2067
 7580SOL     OW25694  10.619   8.892   1.496 -0.6489  0.6052  0.2027
 7580SOL    HW125695  10.542   8.937   1.463 -0.5569  0.0324 -0.8474
 7580SOL    HW225696  10.671   8.873   1.418 -0.5892 -1.1145  0.6159
 7581SOL     OW25697   0.565   7.625   7.488  0.6402 -0.2302  0.2763
 7581SOL    HW125698   0.551   7.539   7.526 -0.1459 -0.1119  0.2660
 7581SOL    HW225699   0.510   7.626   7.409  0.6219  0.2896  0.2919
 7582SOL     OW25700  10.342   4.496   1.678 -0.6856  0.3830  0.0982
 7582SOL    HW125701  10.352   4.439   1.755 -0.4858 -1.1796 -1.0199
 7582SOL    HW225702  10.423   4.482   1.628 -1.8099 -0.5962 -1.5917
 7583SOL     OW25703   2.859   1.562   4.027 -0.0393 -0.0646 -0.5865
 7583SOL    HW125704   2.794   1.493   4.019  0.1226 -0.1750 -0.9656
 7583SOL    HW225705   2.943   1.517   4.013  0.0340  0.2881 -1.2999
 7584SOL     OW25706   2.490   0.798   6.688 -0.2434 -0.0607  0.1796
 7584SOL    HW125707   2.418   0.860   6.704  1.0893  1.3884  0.8441
 7584SOL    HW225708   2.489   0.741   6.766 -1.8708 -1.3748 -0.7201
 7585SOL     OW25709   2.980   3.627   5.387 -0.3606  0.3623  0.0190
 7585SOL    HW125710   2.938   3.670   5.312 -1.5860 -1.0848 -0.1837
 7585SOL    HW225711   3.060   3.589   5.351  0.6869  2.3067  0.1834
 7586SOL     OW25712   1.731   1.243   1.618 -0.0171 -0.3357 -0.4543
 7586SOL    HW125713   1.822   1.236   1.588 -0.2526 -3.0120 -0.8126
 7586SOL    HW225714   1.737   1.241   1.714  0.2956 -2.3895 -0.4615
 7587SOL     OW25715   7.641   2.222   8.373  0.2723 -0.4689 -0.1377
 7587SOL    HW125716   7.647   2.224   8.277 -0.4604 -0.2100 -0.1820
 7587SOL    HW225717   7.731   2.206   8.402  0.7131  0.6040 -0.8366
 7588SOL     OW25718   6.606   8.787   5.354 -0.0451 -0.4869 -0.6000
 7588SOL    HW125719   6.546   8.860   5.363  1.5223  0.6108  2.0446
 7588SOL    HW225720   6.557   8.711   5.387 -0.8591 -0.1783 -1.0702
 7589SOL     OW25721   6.900   3.964   6.624 -0.5098 -0.2990  0.2037
 7589SOL    HW125722   6.928   3.875   6.648 -2.2869 -0.5156  1.6765
 7589SOL    HW225723   6.828   3.984   6.684 -1.4760  1.3771 -1.4013
 7590SOL     OW25724   2.011   1.426   7.484  0.0382 -0.1606  0.4300
 7590SOL    HW125725   2.040   1.335   7.475 -0.4398 -0.3634  0.8588
 7590SOL    HW225726   2.078   1.468   7.538  0.9644  0.1016 -0.8650
 7591SOL     OW25727   9.640   7.944   7.829 -0.1687  0.1202 -0.3382
 7591SOL    HW125728   9.647   8.000   7.751 -0.6522  0.2927 -0.2593
 7591SOL    HW225729   9.615   8.004   7.899 -1.3917 -0.2997 -0.3941
 7592SOL     OW25730   2.770   7.114   3.601 -0.1242  0.7533 -0.2602
 7592SOL    HW125731   2.706   7.117   3.530 -0.0140 -1.1944 -0.4715
 7592SOL    HW225732   2.747   7.036   3.652  1.5560  0.4998  0.1532
 7593SOL     OW25733   2.302   7.733   8.811  0.0591 -0.0368  0.1475
 7593SOL    HW125734   2.310   7.655   8.866 -0.1223  1.4634  2.4158
 7593SOL    HW225735   2.222   7.717   8.759 -0.9140 -0.6827  1.7566
 7594SOL     OW25736   8.287   6.482   1.800  0.7173  0.3914  0.1214
 7594SOL    HW125737   8.373   6.524   1.802  0.6132  0.6020  0.3870
 7594SOL    HW225738   8.232   6.542   1.750  0.4744  0.7692  0.8208
 7595SOL     OW25739   7.885   4.123   7.579  0.2650  0.2154 -0.5115
 7595SOL    HW125740   7.979   4.131   7.562  0.1128 -0.3332 -1.7400
 7595SOL    HW225741   7.878   4.049   7.639  0.6784  0.9221  0.4359
 7596SOL     OW25742   1.275   0.151   5.250 -0.7774 -0.0471 -0.2272
 7596SOL    HW125743   1.299   0.106   5.331  0.7181 -0.8107 -1.0402
 7596SOL    HW225744   1.254   0.240   5.278  1.4057  0.2079  0.8624
 7597SOL     OW25745   2.639   0.925   6.483 -0.0347  0.4566  0.4756
 7597SOL    HW125746   2.579   0.938   6.410  0.4839 -0.1262 -0.0680
 7597SOL    HW225747   2.587   0.882   6.550 -0.1373 -0.3929 -0.1366
 7598SOL     OW25748   2.344   6.873   5.739  0.4538 -0.0601  0.1194
 7598SOL    HW125749   2.287   6.806   5.703 -0.3287  0.2987  0.6511
 7598SOL    HW225750   2.429   6.858   5.698 -0.0465 -0.5462 -0.7657
 7599SOL     OW25751   2.332   2.353   7.075  0.0013  0.0050  0.2883
 7599SOL    HW125752   2.304   2.443   7.089 -0.2677  0.0548 -0.5157
 7599SOL    HW225753   2.367   2.352   6.986  1.3306 -0.3668  0.7951
 7600SOL     OW25754  10.221   0.576  10.658 -0.1769  0.1025  0.0305
 7600SOL    HW125755  10.240   0.486  10.685  1.0045  0.0057 -1.0559
 7600SOL    HW225756  10.285   0.629  10.704 -1.2391  0.4881  1.1259
 7601SOL     OW25757   2.062   4.833   0.300  0.7574 -0.0890  0.3094
 7601SOL    HW125758   2.079   4.925   0.281  0.6876 -0.0551  0.4079
 7601SOL    HW225759   2.117   4.784   0.238  0.1696  0.0205 -0.3141
 7602SOL     OW25760   7.739   7.212   0.955 -0.5786  0.4312 -0.8092
 7602SOL    HW125761   7.812   7.233   1.014 -2.0961  0.3135  1.1954
 7602SOL    HW225762   7.762   7.125   0.920  0.1737  0.3194 -0.0736
 7603SOL     OW25763   3.124  10.040   3.482 -0.0513 -0.1865 -1.0292
 7603SOL    HW125764   3.149   9.948   3.494 -1.8389 -0.6514 -0.5515
 7603SOL    HW225765   3.126  10.053   3.388  0.3911 -0.6714 -1.0931
 7604SOL     OW25766   8.799   2.920   1.640 -0.1686  0.2312 -0.1580
 7604SOL    HW125767   8.704   2.915   1.628 -0.0824 -3.6003 -0.5506
 7604SOL    HW225768   8.833   2.946   1.555 -0.7963 -0.0799 -0.5094
 7605SOL     OW25769   3.239   3.725   2.635  0.3291 -0.0484 -0.2379
 7605SOL    HW125770   3.326   3.739   2.599 -0.1473 -0.7200 -1.7616
 7605SOL    HW225771   3.253   3.703   2.726  1.7104  0.3197 -0.3457
 7606SOL     OW25772   7.869   5.364   1.227  0.3571 -0.5046  0.0695
 7606SOL    HW125773   7.831   5.307   1.294 -1.5703  0.5604 -0.0515
 7606SOL    HW225774   7.888   5.305   1.154 -0.6900 -1.1558  0.3039
 7607SOL     OW25775   2.858   4.673   3.751  0.4197 -0.3699 -0.3645
 7607SOL    HW125776   2.901   4.631   3.677  2.0147 -1.4120  1.0662
 7607SOL    HW225777   2.924   4.730   3.789 -0.2538 -0.0878  0.4328
 7608SOL     OW25778   3.783  10.233   5.478  0.2365  0.3163 -0.0353
 7608SOL    HW125779   3.745  10.171   5.540  0.6801  1.9297  1.9994
 7608SOL    HW225780   3.809  10.180   5.403 -1.5150 -1.5569  0.5742
 7609SOL     OW25781   5.487   4.023   2.517  0.2790  0.1523  0.3313
 7609SOL    HW125782   5.409   4.070   2.487  0.5119  0.6394  0.4795
 7609SOL    HW225783   5.481   4.024   2.612  0.0704 -0.4907  0.3299
 7610SOL     OW25784   6.423   3.737   8.643 -0.7188  0.1546  0.0754
 7610SOL    HW125785   6.363   3.664   8.652 -0.5043 -0.2290 -1.3537
 7610SOL    HW225786   6.441   3.765   8.733 -0.5939 -1.7143  0.6780
 7611SOL     OW25787   8.432   2.570   3.933  0.2939 -0.6862 -0.3450
 7611SOL    HW125788   8.518   2.529   3.927  0.6038 -0.1480  0.3178
 7611SOL    HW225789   8.445   2.656   3.892  0.7289  0.3833  1.8780
 7612SOL     OW25790   0.550   2.694   0.259  0.2646  0.3189 -0.3353
 7612SOL    HW125791   0.610   2.752   0.212 -0.4301  1.7748  0.5339
 7612SOL    HW225792   0.467   2.701   0.213  0.5074 -1.0593 -1.0379
 7613SOL     OW25793   3.581   3.879   2.065  0.2653  0.0418 -0.2218
 7613SOL    HW125794   3.622   3.945   2.009  1.9758 -0.5893  0.1948
 7613SOL    HW225795   3.496   3.915   2.087  1.0230  1.9694 -0.2556
 7614SOL     OW25796   9.638   6.107   0.514 -0.3135 -0.3568  0.4346
 7614SOL    HW125797   9.714   6.120   0.457 -0.7946 -1.8447 -0.6093
 7614SOL    HW225798   9.574   6.171   0.482  0.5504  1.1311  1.5279
 7615SOL     OW25799   8.051   6.603   8.160 -0.6211  0.1828  0.8457
 7615SOL    HW125800   8.072   6.541   8.090 -0.3692  0.1448  0.9551
 7615SOL    HW225801   7.971   6.568   8.199  0.0985 -0.6529  1.5949
 7616SOL     OW25802   0.263   6.664  10.535 -0.9329 -0.0377  0.1254
 7616SOL    HW125803   0.190   6.679  10.595 -0.6079 -0.2000  0.5645
 7616SOL    HW225804   0.221   6.647  10.451 -1.4625 -1.3546  0.6277
 7617SOL     OW25805   5.527   8.907   2.216 -0.2985 -0.0545  0.0528
 7617SOL    HW125806   5.621   8.911   2.236 -0.3927 -0.5775  0.6019
 7617SOL    HW225807   5.503   8.815   2.226 -0.6952 -0.0802 -0.9464
 7618SOL     OW25808   5.622   8.819   5.586 -0.3461  0.0292 -0.0096
 7618SOL    HW125809   5.646   8.841   5.495  0.9222 -0.8910  0.0729
 7618SOL    HW225810   5.701   8.838   5.636 -0.6091 -0.7107  0.7010
 7619SOL     OW25811   3.209   4.819   7.269 -0.4723 -0.0509  0.5235
 7619SOL    HW125812   3.184   4.905   7.234 -0.6490 -0.0731  0.5909
 7619SOL    HW225813   3.167   4.756   7.210  0.4493 -0.1026 -0.0904
 7620SOL     OW25814   0.849   4.932   0.869  0.1025 -0.7817  0.1675
 7620SOL    HW125815   0.882   4.876   0.798 -2.8158 -0.4724 -1.5888
 7620SOL    HW225816   0.788   4.991   0.826  0.3749  1.3799  2.5725
 7621SOL     OW25817   5.097   6.230   7.444  0.2623 -0.1610 -0.1265
 7621SOL    HW125818   5.056   6.177   7.375 -2.0515  0.3737  0.7681
 7621SOL    HW225819   5.161   6.171   7.483 -0.6282 -1.5449 -0.6619
 7622SOL     OW25820   0.533   4.735   2.794  0.3070 -1.0564 -0.9352
 7622SOL    HW125821   0.514   4.798   2.726 -0.3694 -1.0708 -0.7641
 7622SOL    HW225822   0.558   4.788   2.870 -0.4895 -0.9767 -0.7199
 7623SOL     OW25823   5.310   4.857   1.092 -0.1237  0.0355 -0.5634
 7623SOL    HW125824   5.328   4.881   1.001  0.4449 -2.0934 -1.0701
 7623SOL    HW225825   5.214   4.861   1.099 -0.2003 -0.2393 -1.3886
 7624SOL     OW25826  10.600   9.178   6.948 -0.3120 -0.2040  0.2096
 7624SOL    HW125827  10.552   9.169   7.030  1.4518 -1.1731  1.1942
 7624SOL    HW225828  10.543   9.232   6.893 -1.7986 -0.0005  1.8502
 7625SOL     OW25829  10.195   1.867   2.302 -0.5085 -0.2644 -0.1427
 7625SOL    HW125830  10.118   1.906   2.261 -0.2889  0.8227  0.4458
 7625SOL    HW225831  10.159   1.804   2.365 -0.8756 -0.6342 -0.7151
 7626SOL     OW25832   7.937   0.075   4.702 -0.3200 -0.2301  0.3910
 7626SOL    HW125833   7.938   0.139   4.772 -0.0858  0.3505 -0.1368
 7626SOL    HW225834   7.989   0.002   4.735  2.3812  1.2654 -0.2863
 7627SOL     OW25835   1.211   3.398   4.306  0.1640  0.9287 -0.2036
 7627SOL    HW125836   1.214   3.493   4.316  0.0963  0.8648  0.5341
 7627SOL    HW225837   1.251   3.381   4.221  0.3886  1.5976 -0.2397
 7628SOL     OW25838   2.404   0.390   6.274  0.4079  0.2001  0.8805
 7628SOL    HW125839   2.393   0.477   6.312  2.5129  1.1465 -0.5069
 7628SOL    HW225840   2.486   0.395   6.225 -0.9781 -1.5810 -1.9247
 7629SOL     OW25841   7.707   2.008   7.212 -0.4394  0.4885 -0.5821
 7629SOL    HW125842   7.746   2.011   7.299  0.7305 -0.8594 -1.0072
 7629SOL    HW225843   7.742   2.086   7.167  1.9829 -0.7220 -0.9786
 7630SOL     OW25844   3.560  10.176  10.379  0.1476 -0.2185 -0.1042
 7630SOL    HW125845   3.586  10.166  10.288 -0.1247 -0.9994 -0.1049
 7630SOL    HW225846   3.641  10.201  10.424  0.6931 -1.5696 -0.2795
 7631SOL     OW25847   7.897   8.690   7.441 -0.8231  0.2674 -0.1279
 7631SOL    HW125848   7.971   8.632   7.421 -1.9061 -1.1621 -0.1912
 7631SOL    HW225849   7.937   8.773   7.467  0.8000 -0.5628  0.1424
 7632SOL     OW25850   0.685   7.066   9.511  0.2714 -0.4686 -0.6591
 7632SOL    HW125851   0.687   7.062   9.607 -0.1071 -2.9558 -0.7030
 7632SOL    HW225852   0.596   7.094   9.490  1.0225  2.4886 -0.3240
 7633SOL     OW25853   1.208   5.067   2.762  0.0456  0.0648  0.0308
 7633SOL    HW125854   1.174   5.082   2.850 -0.2690 -0.9326  0.0896
 7633SOL    HW225855   1.133   5.084   2.704  0.2287  0.6337 -0.0495
 7634SOL     OW25856   8.358   8.971   1.334 -0.2661 -0.5581  0.0683
 7634SOL    HW125857   8.333   9.062   1.319 -0.0938 -0.0618  2.3597
 7634SOL    HW225858   8.279   8.931   1.372  0.0910 -0.9719  0.3811
 7635SOL     OW25859  10.432   5.066   8.765  0.6385  0.2752 -0.1412
 7635SOL    HW125860  10.510   5.085   8.818  0.8714 -0.8503 -0.0441
 7635SOL    HW225861  10.370   5.028   8.828  0.4356  0.1341 -0.4250
 7636SOL     OW25862   9.634   3.233   2.228 -0.1991 -0.5716 -0.1068
 7636SOL    HW125863   9.724   3.202   2.244 -0.1155 -0.2591  0.0310
 7636SOL    HW225864   9.579   3.170   2.275 -0.0553 -0.8027 -0.2454
 7637SOL     OW25865   6.624   5.734  10.290  0.3563 -0.4203  0.2328
 7637SOL    HW125866   6.679   5.669  10.246  0.8468 -0.8035  1.3743
 7637SOL    HW225867   6.553   5.682  10.329  0.6116 -0.2402  0.9365
 7638SOL     OW25868  10.347   7.353   6.068 -0.0396 -0.3015 -0.4546
 7638SOL    HW125869  10.438   7.327   6.051  0.4203  0.8880  0.0771
 7638SOL    HW225870  10.309   7.279   6.115  0.6862 -0.7721 -0.6008
 7639SOL     OW25871   5.087   9.578   2.218  0.2755  0.0265  0.2388
 7639SOL    HW125872   5.024   9.517   2.256 -0.7832  1.5406  1.0282
 7639SOL    HW225873   5.033   9.650   2.184  1.1769 -0.9107 -3.7020
 7640SOL     OW25874   4.530   4.574   9.935  0.0434 -0.0336 -0.3520
 7640SOL    HW125875   4.528   4.663   9.970  0.0320  0.0076 -0.4564
 7640SOL    HW225876   4.472   4.576   9.859 -0.7368 -0.3822  0.2208
 7641SOL     OW25877   4.989   6.103   6.446 -0.6413  0.3019 -0.3570
 7641SOL    HW125878   5.052   6.163   6.405 -0.1386  0.8581  1.1730
 7641SOL    HW225879   4.943   6.157   6.510  0.2818 -1.0393  1.5431
 7642SOL     OW25880  10.338   6.321   9.675 -0.6037  0.0491  0.0290
 7642SOL    HW125881  10.252   6.361   9.677 -0.2086  0.9147  2.2104
 7642SOL    HW225882  10.323   6.230   9.701 -0.9990 -0.1686 -0.9262
 7643SOL     OW25883   1.121   4.408   7.986 -0.1046 -0.4457 -0.5864
 7643SOL    HW125884   1.178   4.478   8.020 -1.3134  0.6525 -0.7489
 7643SOL    HW225885   1.120   4.422   7.891  0.3755 -1.2790 -0.7294
 7644SOL     OW25886   6.680   1.551   3.760 -0.1429  0.1489  0.0600
 7644SOL    HW125887   6.650   1.641   3.766  0.2543  0.2931 -0.0800
 7644SOL    HW225888   6.770   1.553   3.793  0.6858  0.2324 -2.0587
 7645SOL     OW25889   6.214   1.341   6.208 -0.0363  0.4121  0.3191
 7645SOL    HW125890   6.169   1.412   6.164 -1.6411 -0.1903  0.9177
 7645SOL    HW225891   6.299   1.336   6.165 -0.5260  1.5969 -0.8421
 7646SOL     OW25892   8.384   3.315   5.483  0.4688  0.0849 -0.2264
 7646SOL    HW125893   8.404   3.334   5.575  0.8571 -1.7671  0.1087
 7646SOL    HW225894   8.353   3.398   5.447  0.6349  0.9193  1.4889
 7647SOL     OW25895   8.069   4.991   2.863 -0.8540  0.0977  0.2746
 7647SOL    HW125896   8.078   4.962   2.954 -0.8232 -0.3163  0.1445
 7647SOL    HW225897   8.157   4.981   2.826 -0.8719  0.2373  0.1926
 7648SOL     OW25898  10.354   5.164   5.396 -0.1309  0.3499  0.5704
 7648SOL    HW125899  10.346   5.252   5.431 -1.8163 -1.0041  4.0272
 7648SOL    HW225900  10.296   5.162   5.320 -0.0015  2.1912  0.4001
 7649SOL     OW25901   8.419   0.712   7.792 -0.3454 -0.3899 -0.4340
 7649SOL    HW125902   8.331   0.733   7.825 -0.0096 -0.9156  0.8525
 7649SOL    HW225903   8.440   0.628   7.831  0.9703 -0.0063 -0.2629
 7650SOL     OW25904   7.679   3.601   0.490  0.1528  0.2596 -0.3681
 7650SOL    HW125905   7.647   3.511   0.503  1.1300 -0.0193  0.2558
 7650SOL    HW225906   7.753   3.591   0.431  0.1593  0.6805 -0.4291
 7651SOL     OW25907   8.534   3.803   0.661  0.9876  0.3837  0.4396
 7651SOL    HW125908   8.550   3.782   0.569 -0.5644  0.7184  0.0603
 7651SOL    HW225909   8.573   3.731   0.710 -0.1867 -1.0339 -0.6152
 7652SOL     OW25910   0.891   1.102  10.289 -0.1593  0.3921 -0.7473
 7652SOL    HW125911   0.949   1.142  10.225 -0.3684  0.1709 -1.0741
 7652SOL    HW225912   0.906   1.152  10.369  0.0694  0.6970 -0.9790
 7653SOL     OW25913   0.923   4.349   1.422 -0.0268 -0.4533 -0.3119
 7653SOL    HW125914   0.927   4.260   1.386  0.8822 -1.1066  1.2907
 7653SOL    HW225915   0.997   4.353   1.483 -1.7383  0.4072  1.8109
 7654SOL     OW25916   7.977   7.309   9.664 -0.2360 -0.3305 -0.1566
 7654SOL    HW125917   7.974   7.402   9.642  0.2153 -0.2411  0.1360
 7654SOL    HW225918   8.060   7.298   9.710 -0.6732 -0.7126  0.5701
 7655SOL     OW25919   2.894   1.504   4.759 -0.6893  0.8860  0.3250
 7655SOL    HW125920   2.964   1.529   4.820 -0.0943 -1.0858  0.5263
 7655SOL    HW225921   2.940   1.482   4.678 -1.4512  3.2012 -0.8367
 7656SOL     OW25922   3.070   9.642   1.825  0.6832  0.5199 -0.2934
 7656SOL    HW125923   2.977   9.620   1.825  1.0145 -0.9734 -0.3624
 7656SOL    HW225924   3.093   9.647   1.918  0.7360 -0.0603 -0.2712
 7657SOL     OW25925   1.610   9.522   1.056 -0.0147  0.2566 -0.2409
 7657SOL    HW125926   1.686   9.487   1.103 -0.2440  0.4454  0.2749
 7657SOL    HW225927   1.537   9.508   1.115 -0.4661 -0.3348 -0.9218
 7658SOL     OW25928   7.432   3.998   1.253 -0.0463 -0.2119 -0.3784
 7658SOL    HW125929   7.371   4.050   1.305  0.2841 -1.5842  1.4657
 7658SOL    HW225930   7.502   3.974   1.314  0.8824 -1.0447 -1.7174
 7659SOL     OW25931   2.810   0.108   3.606 -0.3585  0.0272 -0.4371
 7659SOL    HW125932   2.791   0.166   3.533 -0.7275 -0.5148 -0.7808
 7659SOL    HW225933   2.740   0.124   3.669 -0.7393 -0.4031 -0.7505
 7660SOL     OW25934   2.314   7.738   6.132 -0.3722 -0.5954  0.1182
 7660SOL    HW125935   2.393   7.791   6.128 -0.7101  0.0660  1.6290
 7660SOL    HW225936   2.302   7.705   6.043  1.7056 -0.8705 -0.0918
 7661SOL     OW25937   7.310   3.991   3.879  0.4834 -0.0856 -0.5627
 7661SOL    HW125938   7.226   4.029   3.903  1.4524  1.4825  0.4943
 7661SOL    HW225939   7.345   4.051   3.813  0.9223 -0.5406 -0.7489
 7662SOL     OW25940   5.078   2.279   3.202  0.0600  0.1573  0.8678
 7662SOL    HW125941   5.109   2.369   3.206  0.4089  0.1117 -0.3396
 7662SOL    HW225942   5.085   2.255   3.109 -2.2916 -0.3239  0.7401
 7663SOL     OW25943   4.050   2.927   8.654  1.0106  0.3713  0.3900
 7663SOL    HW125944   3.994   2.857   8.685  0.6678  1.0727  1.3944
 7663SOL    HW225945   4.079   2.973   8.733 -0.4034  2.5857 -0.2612
 7664SOL     OW25946   4.693   4.562  10.298 -0.1178 -0.3658  0.2061
 7664SOL    HW125947   4.600   4.545  10.283  0.2944 -1.9659 -0.7014
 7664SOL    HW225948   4.701   4.566  10.393 -1.2362  0.6355  0.2838
 7665SOL     OW25949   6.602   0.552   2.876  1.0288  0.0324 -0.2319
 7665SOL    HW125950   6.573   0.548   2.785  0.6441  1.6638 -0.2119
 7665SOL    HW225951   6.552   0.485   2.921  0.1279  0.2079 -0.9511
 7666SOL     OW25952   9.928   7.005  10.018  0.2852  0.4843  0.4722
 7666SOL    HW125953   9.860   6.947   9.984  0.1338  1.0923 -0.2796
 7666SOL    HW225954   9.881   7.067  10.074  0.0103  1.7036 -1.0571
 7667SOL     OW25955  10.123   4.438   3.895 -0.0043 -0.0989 -0.2581
 7667SOL    HW125956  10.098   4.363   3.950 -0.7945  0.7188  0.5463
 7667SOL    HW225957  10.081   4.513   3.937  0.7425  0.7994 -1.0627
 7668SOL     OW25958   6.274   6.086   7.238  0.0468  0.4713 -0.4730
 7668SOL    HW125959   6.264   6.112   7.329  0.2181  2.3482 -0.9456
 7668SOL    HW225960   6.271   5.991   7.240  1.2724  0.4093  1.6338
 7669SOL     OW25961   0.959   1.344   4.770  0.2682  0.3298 -0.2100
 7669SOL    HW125962   0.980   1.282   4.839  1.4233 -0.2894 -1.0878
 7669SOL    HW225963   1.004   1.425   4.795  0.3966  0.2112 -0.0590
 7670SOL     OW25964   0.495   3.530   0.768  0.0243  0.5495  0.3733
 7670SOL    HW125965   0.442   3.473   0.823  1.7933 -0.5267  1.0430
 7670SOL    HW225966   0.517   3.605   0.824  1.8968 -0.5852  1.2579
 7671SOL     OW25967   6.773   8.044   7.698  0.2732  0.8746  0.0023
 7671SOL    HW125968   6.752   7.952   7.685  0.1183  0.9878 -0.5610
 7671SOL    HW225969   6.869   8.045   7.708  0.0657  0.2378  3.5506
 7672SOL     OW25970   5.997   7.433   6.842 -0.3431  0.0086  0.0549
 7672SOL    HW125971   5.932   7.363   6.847  0.2535 -0.4788  3.3271
 7672SOL    HW225972   5.960   7.503   6.896  0.6462  0.8009 -0.2691
 7673SOL     OW25973   5.269   8.292   8.659  0.3849 -0.4637 -0.8832
 7673SOL    HW125974   5.356   8.333   8.664  0.6717 -1.0723 -0.8394
 7673SOL    HW225975   5.228   8.332   8.582 -0.4687  2.0650  0.7502
 7674SOL     OW25976   8.961   3.479   9.155  0.1480 -0.4562 -0.2095
 7674SOL    HW125977   8.914   3.424   9.217  1.9884  0.0980  1.7697
 7674SOL    HW225978   8.912   3.561   9.153 -0.3521 -0.7481 -0.0881
 7675SOL     OW25979   9.059   5.556   2.620  0.3207 -0.2066 -0.3975
 7675SOL    HW125980   9.091   5.632   2.570 -1.4282  0.5301 -0.4637
 7675SOL    HW225981   9.122   5.487   2.601  1.4979  0.9824 -1.0136
 7676SOL     OW25982   6.244   9.481   9.049 -0.2152  0.9930  0.4378
 7676SOL    HW125983   6.276   9.447   8.966 -1.0480  1.6996 -0.1811
 7676SOL    HW225984   6.237   9.404   9.106  0.3161  0.5047 -0.1497
 7677SOL     OW25985   2.054   3.837   5.065  0.1163  0.0906 -0.2027
 7677SOL    HW125986   2.052   3.776   4.991  0.1642 -0.0160 -0.1179
 7677SOL    HW225987   1.993   3.906   5.041 -0.1189 -0.1139 -0.2002
 7678SOL     OW25988   3.210   7.045   0.553 -0.1430 -0.0022  0.0115
 7678SOL    HW125989   3.160   7.126   0.561 -0.4635 -0.2429  0.4572
 7678SOL    HW225990   3.300   7.070   0.577 -0.3625  0.0923  0.7653
 7679SOL     OW25991   2.764   5.609   2.738 -0.5683 -0.5046  0.0174
 7679SOL    HW125992   2.707   5.557   2.795 -1.7795  0.2310 -0.4855
 7679SOL    HW225993   2.718   5.612   2.654  0.3065 -0.0370 -0.4669
 7680SOL     OW25994   3.034   1.666   4.355 -0.1407  0.4077 -0.0840
 7680SOL    HW125995   3.109   1.675   4.296 -1.1018 -0.2582 -1.4442
 7680SOL    HW225996   3.015   1.756   4.382 -2.1624  1.3759 -4.0367
 7681SOL     OW25997   0.981   9.058   7.312 -0.1364  0.3088  0.4958
 7681SOL    HW125998   0.894   9.098   7.311  0.6354  2.0662 -1.3109
 7681SOL    HW225999   1.038   9.125   7.348  0.8552  0.0891 -0.6017
 7682SOL     OW26000   4.759   3.772   4.515  0.2644 -0.1176 -0.1328
 7682SOL    HW126001   4.691   3.710   4.544  0.1791  0.8752  1.9792
 7682SOL    HW226002   4.710   3.848   4.485  0.3073  1.2219  2.8117
 7683SOL     OW26003   0.834   1.852   7.439 -0.1692 -0.1927 -0.1107
 7683SOL    HW126004   0.837   1.888   7.350  0.2320  0.4389  0.1488
 7683SOL    HW226005   0.870   1.764   7.430  1.0575  0.3110 -0.3802
 7684SOL     OW26006   7.360   7.727   8.502  0.3837 -0.2774 -0.5918
 7684SOL    HW126007   7.360   7.697   8.411 -0.5770 -0.9206 -0.4009
 7684SOL    HW226008   7.285   7.786   8.508  0.8155  0.2504 -0.3669
 7685SOL     OW26009   8.619   7.876   0.582 -0.1805  0.5565  0.0007
 7685SOL    HW126010   8.541   7.836   0.543  1.2799 -1.2702 -1.2307
 7685SOL    HW226011   8.629   7.832   0.667  0.3945 -0.4159 -0.5552
 7686SOL     OW26012   2.815  10.024   0.528  0.0298  0.2513 -0.2093
 7686SOL    HW126013   2.891   9.991   0.576  0.6321  0.2453 -1.1570
 7686SOL    HW226014   2.761   9.947   0.513 -0.2905  0.2882  0.6513
 7687SOL     OW26015   5.901   1.274   5.089  0.5182 -0.5561 -0.4080
 7687SOL    HW126016   5.865   1.299   5.004  1.1918  1.0706 -0.2623
 7687SOL    HW226017   5.827   1.235   5.136 -0.4798  0.6073 -0.9415
 7688SOL     OW26018   1.840   8.443   8.688  0.1927 -0.0599  0.3073
 7688SOL    HW126019   1.799   8.357   8.698 -1.2958  0.7394  1.3813
 7688SOL    HW226020   1.925   8.434   8.730 -0.8221 -0.4356  2.4068
 7689SOL     OW26021   1.428  10.099   5.266  0.5184  0.3455 -0.3191
 7689SOL    HW126022   1.463  10.169   5.209 -1.0212  1.3725 -0.0549
 7689SOL    HW226023   1.367  10.144   5.324  0.9469 -0.9348  1.1747
 7690SOL     OW26024   0.111   0.906   7.734  0.0430 -0.2141  0.9016
 7690SOL    HW126025   0.066   0.962   7.671  0.3149  0.1985  1.0726
 7690SOL    HW226026   0.045   0.886   7.799  0.3902  1.3721  1.8007
 7691SOL     OW26027   7.839   3.801   3.412  0.3659 -0.0575 -0.2734
 7691SOL    HW126028   7.897   3.875   3.394 -0.0818  0.2877 -0.3316
 7691SOL    HW226029   7.840   3.792   3.507 -0.0529  0.4240 -0.2157
 7692SOL     OW26030   1.654   1.365   6.624  0.4206  0.2575  0.3130
 7692SOL    HW126031   1.719   1.434   6.637  0.3554  0.6088 -1.0350
 7692SOL    HW226032   1.676   1.298   6.688  2.3423  0.2182 -0.3361
 7693SOL     OW26033   4.801   1.217  10.469  0.0151  0.6552  0.4764
 7693SOL    HW126034   4.786   1.198  10.561  0.9020 -0.0506  0.4907
 7693SOL    HW226035   4.714   1.240  10.435 -0.8832 -1.7703  0.8809
 7694SOL     OW26036   0.609   3.815   1.776 -0.5528 -1.0161  0.1598
 7694SOL    HW126037   0.514   3.820   1.786 -0.5071  0.2174  0.0883
 7694SOL    HW226038   0.641   3.797   1.864 -0.8934 -2.2738  0.0409
 7695SOL     OW26039   7.262   7.711   8.095  0.1324  0.6930  0.4299
 7695SOL    HW126040   7.181   7.661   8.110  1.3457 -1.1458  1.2055
 7695SOL    HW226041   7.255   7.786   8.154 -1.9014  1.7350 -1.0165
 7696SOL     OW26042   1.311   1.392   2.015 -0.8650 -0.4755  0.9317
 7696SOL    HW126043   1.362   1.334   1.958 -1.3429 -0.8692  0.9025
 7696SOL    HW226044   1.220   1.379   1.987 -0.7864  2.8981 -1.5422
 7697SOL     OW26045  10.574   2.318   0.869  0.5335  0.0590 -0.5912
 7697SOL    HW126046  10.502   2.281   0.921  1.0410 -0.6352 -0.3659
 7697SOL    HW226047  10.599   2.247   0.810  0.3300  0.6567 -1.4121
 7698SOL     OW26048   9.523   5.471   3.073 -0.3585 -0.3646  0.2345
 7698SOL    HW126049   9.435   5.479   3.110  0.3115  1.7220  1.5252
 7698SOL    HW226050   9.531   5.545   3.013  1.3763  1.0902  2.1307
 7699SOL     OW26051   8.233   8.860   3.202 -0.2831 -0.1369  0.2077
 7699SOL    HW126052   8.287   8.896   3.272 -1.3858 -0.0146  1.0332
 7699SOL    HW226053   8.238   8.765   3.213  0.1569 -0.1459 -0.0398
 7700SOL     OW26054   2.621   6.270   8.227 -0.3813 -0.0650 -0.7850
 7700SOL    HW126055   2.700   6.318   8.254 -1.8128  2.5269 -0.8417
 7700SOL    HW226056   2.605   6.298   8.137 -1.6239 -0.1144 -0.6059
 7701SOL     OW26057   4.987   3.523   3.225  0.0571 -0.0032  0.4819
 7701SOL    HW126058   4.939   3.604   3.239  0.1496  0.4189 -1.3844
 7701SOL    HW226059   4.984   3.509   3.130  0.4994 -1.9025  0.7001
 7702SOL     OW26060  10.540   7.582   1.306 -0.4658  0.0756  0.2065
 7702SOL    HW126061  10.519   7.659   1.252  0.7944  0.5643  0.3724
 7702SOL    HW226062  10.579   7.520   1.245 -1.8727 -0.6276 -0.0087
 7703SOL     OW26063   3.681   0.254   5.807  0.2895  0.2067  0.6059
 7703SOL    HW126064   3.774   0.275   5.802 -0.0729  2.0850  1.2078
 7703SOL    HW226065   3.661   0.254   5.901 -0.5579  0.9744  0.4387
 7704SOL     OW26066   2.031  10.686   6.274  0.6030 -0.2481  0.2395
 7704SOL    HW126067   2.000  10.772   6.303  1.1130  0.5600 -1.4333
 7704SOL    HW226068   2.126  10.688   6.288  0.5605 -0.7374  0.6370
 7705SOL     OW26069   8.161   7.301   2.287 -0.4259 -0.0568  0.1260
 7705SOL    HW126070   8.231   7.280   2.350 -0.8829  1.1884  1.0704
 7705SOL    HW226071   8.148   7.395   2.295 -0.4627  0.1566 -1.9014
 7706SOL     OW26072   6.357   3.182   2.769  0.0937 -0.6475  0.2271
 7706SOL    HW126073   6.355   3.099   2.721  0.8685 -3.3396  4.2722
 7706SOL    HW226074   6.439   3.178   2.819 -0.1534  2.3091  1.0672
 7707SOL     OW26075   0.062   4.727   4.112 -0.4414  0.3757 -0.0124
 7707SOL    HW126076   0.087   4.781   4.037  2.1175  0.1688  0.5931
 7707SOL    HW226077   0.127   4.657   4.114 -0.7486  0.0769  2.0956
 7708SOL     OW26078   3.190   2.295   7.300 -0.5978 -0.3305  0.0283
 7708SOL    HW126079   3.251   2.257   7.362  0.3681 -1.7516 -1.7051
 7708SOL    HW226080   3.173   2.383   7.333  1.1140 -0.4857  1.4246
 7709SOL     OW26081   6.852   4.955   8.210  0.0435  0.1093 -0.4700
 7709SOL    HW126082   6.778   4.983   8.263 -2.0475  0.4032 -3.3470
 7709SOL    HW226083   6.895   5.036   8.183 -0.4814  0.1200 -1.3098
 7710SOL     OW26084   7.955   3.910   1.329 -0.7099 -0.0055  0.2250
 7710SOL    HW126085   7.962   4.005   1.328 -0.6630  0.0030 -1.2754
 7710SOL    HW226086   7.951   3.886   1.236  3.3694 -1.7392  0.2619
 7711SOL     OW26087   0.416   9.325   5.636  0.6079  0.1525  0.6859
 7711SOL    HW126088   0.347   9.262   5.658 -0.6159  1.2123  0.0997
 7711SOL    HW226089   0.382   9.370   5.559  1.4161  1.5324  1.1031
 7712SOL     OW26090   1.617   2.571   7.273 -0.1468 -0.0061 -0.3573
 7712SOL    HW126091   1.632   2.512   7.199 -0.6527 -0.6239  0.0118
 7712SOL    HW226092   1.704   2.588   7.308 -0.0443 -1.3096  0.0908
 7713SOL     OW26093   0.662   4.203   2.264 -0.2913  0.3791 -0.2737
 7713SOL    HW126094   0.634   4.290   2.292  0.1183  0.4207  0.0207
 7713SOL    HW226095   0.649   4.202   2.170  0.7260  1.1512 -0.4471
 7714SOL     OW26096   2.967   7.826   5.799 -0.1353 -0.1653  0.1598
 7714SOL    HW126097   2.933   7.743   5.765 -0.0033 -0.0382 -0.2877
 7714SOL    HW226098   3.049   7.839   5.752  0.9792 -0.8823  1.8268
 7715SOL     OW26099   8.107   4.279   7.262  0.7282 -0.1524  0.3663
 7715SOL    HW126100   8.079   4.234   7.182 -0.4296 -0.3987  0.8835
 7715SOL    HW226101   8.036   4.341   7.280  1.6442  0.8906  0.4374
 7716SOL     OW26102   9.408   2.610   0.817 -0.0181 -0.3926  0.2437
 7716SOL    HW126103   9.415   2.584   0.725  2.2088  0.5378  0.0744
 7716SOL    HW226104   9.442   2.699   0.819  0.3057 -0.5143  2.0153
 7717SOL     OW26105   8.029  10.513   1.945 -0.0400 -0.2476  0.0513
 7717SOL    HW126106   8.079  10.436   1.917  1.8149  0.5700  0.9638
 7717SOL    HW226107   8.048  10.580   1.880  0.1931  0.1283  0.5022
 7718SOL     OW26108   3.751   2.281   5.399 -0.1710  0.0555  0.0974
 7718SOL    HW126109   3.823   2.335   5.366 -0.1316 -0.6181 -0.9371
 7718SOL    HW226110   3.794   2.209   5.445  0.0773 -2.5175 -3.7222
 7719SOL     OW26111   8.191  10.604   4.791  0.4394 -0.4336  0.1963
 7719SOL    HW126112   8.212  10.654   4.712  0.3752 -1.3231 -0.3959
 7719SOL    HW226113   8.260  10.627   4.853 -0.2971  1.3882  0.4142
 7720SOL     OW26114   2.161   9.610   1.334 -0.0100  0.1823 -0.2922
 7720SOL    HW126115   2.148   9.696   1.374 -0.4884 -0.3841  0.8329
 7720SOL    HW226116   2.169   9.628   1.240 -2.7374  1.2380 -0.4169
 7721SOL     OW26117   4.953   1.641   3.374  0.2524 -0.1050 -0.3531
 7721SOL    HW126118   4.871   1.661   3.419 -0.0871 -1.6727 -0.2431
 7721SOL    HW226119   4.997   1.726   3.367 -0.4333  0.4517  1.4572
 7722SOL     OW26120   6.955   9.881   1.866 -0.2664  0.0887 -0.3440
 7722SOL    HW126121   7.009   9.922   1.933 -0.6052  0.0870 -0.0638
 7722SOL    HW226122   6.965   9.937   1.789 -0.8173  0.7843  0.0701
 7723SOL     OW26123  10.381   7.983   3.100  0.1626 -0.5288  0.6264
 7723SOL    HW126124  10.298   7.985   3.148 -1.0171 -0.2275 -1.3236
 7723SOL    HW226125  10.437   8.045   3.146 -0.8492 -0.3994  1.7233
 7724SOL     OW26126   1.647   8.895  10.345  0.2117 -0.0210  0.2844
 7724SOL    HW126127   1.741   8.892  10.331  0.2456 -0.1348  0.5392
 7724SOL    HW226128   1.615   8.813  10.306  0.6238 -1.7209  3.2447
 7725SOL     OW26129   0.591   2.125   2.322 -0.4934  0.6773 -0.2325
 7725SOL    HW126130   0.545   2.042   2.308 -0.7255  0.7333  0.1676
 7725SOL    HW226131   0.620   2.121   2.413 -1.8449  1.6656  0.2841
 7726SOL     OW26132   5.655   5.227  10.156 -0.1178  0.1201  0.1469
 7726SOL    HW126133   5.717   5.255  10.088 -0.9927 -0.6808 -1.0247
 7726SOL    HW226134   5.710   5.202  10.230  0.9720 -0.4860 -0.8275
 7727SOL     OW26135   8.204   7.852   0.821  0.6874  0.8423 -0.5842
 7727SOL    HW126136   8.137   7.824   0.884  0.6244 -0.0512 -1.0184
 7727SOL    HW226137   8.241   7.769   0.788  0.5233  1.2748 -1.9157
 7728SOL     OW26138   9.879   9.145   9.391 -0.3017  0.0351 -0.1269
 7728SOL    HW126139   9.831   9.179   9.316  0.1177  1.0202  0.0360
 7728SOL    HW226140   9.820   9.157   9.465  1.2154  4.2879  0.6862
 7729SOL     OW26141   3.410   1.528   4.751  0.0104  0.6346  0.5756
 7729SOL    HW126142   3.501   1.556   4.765 -0.1491  0.6821  1.5744
 7729SOL    HW226143   3.417   1.436   4.727  0.4438  1.1354 -1.3248
 7730SOL     OW26144   9.277   8.063   4.870  0.2483 -0.4939 -0.0634
 7730SOL    HW126145   9.277   8.057   4.775 -1.3873 -0.5181 -0.0802
 7730SOL    HW226146   9.367   8.089   4.892  0.9709 -1.6217 -1.5119
 7731SOL     OW26147   5.873   3.317   1.933  0.3288  0.2382  0.1027
 7731SOL    HW126148   5.884   3.410   1.953  0.1702  0.1992  0.3741
 7731SOL    HW226149   5.779   3.304   1.928  0.2747  0.9332 -3.9696
 7732SOL     OW26150   7.136   1.745   1.306 -0.1465 -0.0771 -0.3554
 7732SOL    HW126151   7.137   1.651   1.287 -0.9556  0.2384 -2.2167
 7732SOL    HW226152   7.057   1.759   1.357 -0.2729 -0.3431 -0.4771
 7733SOL     OW26153   8.209   4.061   4.186  0.3950 -0.1253  0.0089
 7733SOL    HW126154   8.124   4.105   4.189 -0.2704 -1.2843 -1.0383
 7733SOL    HW226155   8.271   4.128   4.213 -0.6056  1.4287 -1.3229
 7734SOL     OW26156   5.521   3.765  10.464 -0.6569 -0.1086 -0.6562
 7734SOL    HW126157   5.566   3.812  10.534 -0.2346 -0.4222 -0.7077
 7734SOL    HW226158   5.577   3.689  10.447 -1.7934 -1.1565  0.0902
 7735SOL     OW26159   8.478   2.064   6.474  0.4271 -0.1252 -0.2879
 7735SOL    HW126160   8.402   2.104   6.518  0.7119  0.6510 -0.4847
 7735SOL    HW226161   8.532   2.030   6.546  0.8572  1.0847 -0.0178
 7736SOL     OW26162   5.375  10.441   7.808  0.1861  0.1200  0.6935
 7736SOL    HW126163   5.314  10.498   7.856 -1.5147 -1.5702  0.6684
 7736SOL    HW226164   5.438  10.413   7.874 -0.4450  0.0824  1.2921
 7737SOL     OW26165   1.661   6.548   0.144  0.1563  0.5701 -0.4906
 7737SOL    HW126166   1.687   6.523   0.233 -0.4792 -0.6050 -0.6117
 7737SOL    HW226167   1.629   6.638   0.152  0.1300  0.4825  0.4628
 7738SOL     OW26168   8.093   7.926   5.290  0.0347 -0.0291  0.0723
 7738SOL    HW126169   8.120   8.013   5.320  1.8953 -0.1996 -0.9857
 7738SOL    HW226170   8.006   7.939   5.251  0.7964  1.5962 -1.1626
 7739SOL     OW26171   4.692   5.146   2.630 -0.5604 -0.0865  0.5134
 7739SOL    HW126172   4.708   5.223   2.576 -2.2357 -0.1099 -0.0821
 7739SOL    HW226173   4.678   5.180   2.718  1.2049  0.0373  0.7777
 7740SOL     OW26174   9.220   9.311   4.187  0.2872  0.1646  0.2821
 7740SOL    HW126175   9.187   9.397   4.160  0.5895  0.3961  0.6225
 7740SOL    HW226176   9.293   9.332   4.246 -0.4157 -0.3139  1.3459
 7741SOL     OW26177   0.476   4.702   8.230  0.9331  0.3845  0.4706
 7741SOL    HW126178   0.518   4.699   8.316  1.2159  0.5401  0.3413
 7741SOL    HW226179   0.396   4.752   8.244  1.4220  1.1789  0.4617
 7742SOL     OW26180   6.242   1.864   5.734 -0.6470  0.4765  0.4686
 7742SOL    HW126181   6.178   1.876   5.664  0.2795  0.3954 -0.4122
 7742SOL    HW226182   6.208   1.790   5.785 -2.8614  2.3194  1.9120
 7743SOL     OW26183   7.587   5.976   3.479 -0.0820 -0.1030 -0.0135
 7743SOL    HW126184   7.505   5.956   3.433  1.0579  1.0110 -2.7204
 7743SOL    HW226185   7.571   6.060   3.521 -0.5350 -0.1907 -0.0045
 7744SOL     OW26186   3.992   4.283   8.669 -0.0559  0.1078  0.1981
 7744SOL    HW126187   3.938   4.282   8.591 -0.4197  0.6913  0.4387
 7744SOL    HW226188   3.974   4.367   8.711  0.0111 -0.2609  0.9939
 7745SOL     OW26189   9.715  10.692   6.876 -0.1282 -0.2523  0.0669
 7745SOL    HW126190   9.714  10.634   6.800  0.9662 -2.2771  1.4922
 7745SOL    HW226191   9.628  10.681   6.916 -0.4745  0.3216 -0.5106
 7746SOL     OW26192   9.055  10.029   8.137 -0.1001  0.5866 -0.3178
 7746SOL    HW126193   8.961  10.018   8.129 -0.4445  2.9014 -0.0323
 7746SOL    HW226194   9.068  10.123   8.144  2.3286  0.3981 -1.3581
 7747SOL     OW26195  10.465   1.045   2.479 -0.1369 -0.0607  1.1895
 7747SOL    HW126196  10.501   1.095   2.553 -2.3827  2.4011  0.7557
 7747SOL    HW226197  10.382   1.010   2.511 -0.3249 -0.4215  0.3401
 7748SOL     OW26198   6.414   7.849  10.670  0.0190 -0.1255 -0.4790
 7748SOL    HW126199   6.391   7.929  10.717 -0.1329 -0.9833  0.9613
 7748SOL    HW226200   6.382   7.778  10.725 -0.2144 -1.1914 -1.9208
 7749SOL     OW26201   6.225   1.940   6.850  0.6726 -0.1914  0.1319
 7749SOL    HW126202   6.165   1.941   6.924 -0.1922  1.0762 -0.5640
 7749SOL    HW226203   6.196   2.011   6.794  1.9527 -0.4671 -0.9310
 7750SOL     OW26204   5.296   6.452   9.337 -0.5766  0.4705  0.8691
 7750SOL    HW126205   5.247   6.521   9.293 -0.5098 -0.4492 -0.6914
 7750SOL    HW226206   5.362   6.499   9.388 -0.8753  1.5785  0.2646
 7751SOL     OW26207   1.344   6.174  10.674  0.4334  0.4514 -0.5750
 7751SOL    HW126208   1.293   6.249  10.643  0.1974  0.1010 -1.0528
 7751SOL    HW226209   1.290   6.098  10.654  0.0158  0.2217  1.2224
 7752SOL     OW26210   6.498   1.220   0.133 -0.2826 -0.4264 -0.0383
 7752SOL    HW126211   6.403   1.231   0.136 -0.2107  0.0062  0.9514
 7752SOL    HW226212   6.532   1.280   0.199  0.7617  0.1690 -1.0600
 7753SOL     OW26213   8.901   0.493   1.796  0.0177 -0.3186  0.2139
 7753SOL    HW126214   8.806   0.485   1.782 -0.0061 -0.9705  0.7097
 7753SOL    HW226215   8.909   0.571   1.851 -0.2833 -0.5922  0.6541
 7754SOL     OW26216  10.201   4.062   3.151 -0.0208 -0.4809  0.0829
 7754SOL    HW126217  10.287   4.077   3.190  1.0485 -0.4679 -2.1576
 7754SOL    HW226218  10.161   3.996   3.208 -0.1844  2.2089  3.3944
 7755SOL     OW26219   3.028   2.750   3.745  0.4827  0.5521  0.1454
 7755SOL    HW126220   3.016   2.780   3.655  1.0606 -0.2293 -0.1972
 7755SOL    HW226221   2.944   2.767   3.788 -0.5759 -1.2050 -1.1515
 7756SOL     OW26222   8.997   1.949   0.669  0.0770 -0.1851 -0.4920
 7756SOL    HW126223   8.982   1.983   0.581  0.9093 -1.0495 -0.9900
 7756SOL    HW226224   9.088   1.972   0.689 -0.7180  1.8772  1.0350
 7757SOL     OW26225   6.505   5.251   1.722 -0.6686 -0.3524  0.1108
 7757SOL    HW126226   6.438   5.208   1.670 -0.0883 -0.9041 -0.1956
 7757SOL    HW226227   6.587   5.215   1.690 -0.2547 -0.1197  0.8806
 7758SOL     OW26228   7.096   1.961   7.803 -0.6622 -0.2749 -0.6089
 7758SOL    HW126229   7.019   2.003   7.841 -1.6721 -0.6544 -2.1853
 7758SOL    HW226230   7.142   2.032   7.758 -0.4676 -0.1889 -0.2783
 7759SOL     OW26231   5.484   0.541   2.703  0.4108 -0.3113 -0.4107
 7759SOL    HW126232   5.574   0.553   2.672 -0.0724  1.4563 -1.2345
 7759SOL    HW226233   5.494   0.498   2.788  2.2155  2.1438  0.7626
 7760SOL     OW26234   7.778   7.024  10.203 -0.1772  0.6356  0.8001
 7760SOL    HW126235   7.800   6.944  10.155 -1.5139  0.8877 -0.2939
 7760SOL    HW226236   7.738   6.993  10.284  2.1739  0.2026  1.8645
 7761SOL     OW26237  10.327   6.072   3.474 -0.0045 -0.2339  0.0499
 7761SOL    HW126238  10.386   6.136   3.435  0.8371 -1.7767 -1.3057
 7761SOL    HW226239  10.255   6.125   3.510  0.5466  1.4434 -1.2074
 7762SOL     OW26240   2.759   9.541   7.327  0.4981  0.2891  0.1401
 7762SOL    HW126241   2.839   9.563   7.279  0.2833  1.2735  0.2239
 7762SOL    HW226242   2.691   9.542   7.260  0.2078  1.6025  0.4307
 7763SOL     OW26243   1.996   6.389   3.416  0.3068 -0.1330  0.1014
 7763SOL    HW126244   1.923   6.443   3.448  0.7856  0.2282  0.5949
 7763SOL    HW226245   2.006   6.321   3.482  1.4543  0.7535  0.8589
 7764SOL     OW26246   2.936   9.085   7.092  0.2103 -0.3208  0.4541
 7764SOL    HW126247   2.949   9.091   6.998  2.3105  0.2838  0.7195
 7764SOL    HW226248   2.946   9.175   7.123  0.8568 -0.6920  1.3697
 7765SOL     OW26249   8.618  10.172   6.287 -0.2481  0.2926 -0.2322
 7765SOL    HW126250   8.668  10.253   6.296 -1.0953  0.9140 -0.8710
 7765SOL    HW226251   8.594  10.169   6.194  0.3170 -1.0332 -0.3470
 7766SOL     OW26252   0.571   7.302   3.487  0.4002  0.9328  0.2889
 7766SOL    HW126253   0.480   7.281   3.507  0.1604  2.0373  0.4321
 7766SOL    HW226254   0.601   7.230   3.431  0.9935 -2.1103  4.1283
 7767SOL     OW26255  10.190   9.410  10.026 -0.2104 -0.4029 -0.0608
 7767SOL    HW126256  10.149   9.486   9.985  0.0411 -0.5905 -0.6709
 7767SOL    HW226257  10.246   9.373   9.957  0.3515 -0.6219  0.5019
 7768SOL     OW26258   7.044   0.476   8.033  0.6569  0.2251 -0.2575
 7768SOL    HW126259   7.051   0.476   8.128  0.4678 -1.3527 -0.2155
 7768SOL    HW226260   6.950   0.481   8.015  0.5304 -1.5603 -0.2804
 7769SOL     OW26261   0.563   7.704   7.897  0.6736  0.1596  0.1280
 7769SOL    HW126262   0.508   7.628   7.879  0.3663  0.1910  0.8603
 7769SOL    HW226263   0.527   7.773   7.841  1.8069 -0.5591 -1.5521
 7770SOL     OW26264   4.666   3.561   1.161 -0.2062 -0.4880 -0.0906
 7770SOL    HW126265   4.732   3.620   1.126 -0.9892  0.9263  0.7022
 7770SOL    HW226266   4.656   3.587   1.253 -2.2892 -0.1992 -0.3367
 7771SOL     OW26267   7.614   8.156   5.714  0.1162 -0.0781  0.2624
 7771SOL    HW126268   7.614   8.202   5.630  0.0474 -0.1102  0.2454
 7771SOL    HW226269   7.701   8.117   5.719 -0.0370 -0.4505  0.0012
 7772SOL     OW26270   0.449   1.209   8.799  0.1097  0.3325 -0.0150
 7772SOL    HW126271   0.537   1.211   8.763  0.9565 -1.6422  1.7205
 7772SOL    HW226272   0.407   1.134   8.757 -0.0024 -0.0131  0.7007
 7773SOL     OW26273   1.112   2.800   0.118 -0.6932  0.1635  0.1339
 7773SOL    HW126274   1.079   2.852   0.044  1.3608  0.5395 -0.6074
 7773SOL    HW226275   1.035   2.784   0.172 -1.6662  3.0367 -0.1817
 7774SOL     OW26276   3.217   9.586   8.739 -0.1463  0.0471 -0.6076
 7774SOL    HW126277   3.205   9.607   8.832 -0.7056 -1.6345 -0.2798
 7774SOL    HW226278   3.225   9.672   8.697  0.2097  0.8483  0.9901
 7775SOL     OW26279   1.891   8.684   3.921 -0.6566  0.3872 -0.1843
 7775SOL    HW126280   1.942   8.606   3.903 -0.7454  0.4638 -0.8051
 7775SOL    HW226281   1.954   8.756   3.914 -0.8560  0.4895 -1.0345
 7776SOL     OW26282   5.793   5.881   9.376 -0.8433  0.1998 -0.0642
 7776SOL    HW126283   5.880   5.843   9.361 -1.6708 -2.5340  1.2228
 7776SOL    HW226284   5.810   5.964   9.420  1.1358  0.0285 -0.4347
 7777SOL     OW26285   4.666   6.128   6.027 -0.0796 -0.0720 -0.3833
 7777SOL    HW126286   4.616   6.052   5.998 -0.1551 -0.0815 -0.2293
 7777SOL    HW226287   4.711   6.097   6.106 -1.5342  0.5728  0.7493
 7778SOL     OW26288   4.688   6.809   7.211 -0.3114 -0.3116  0.0762
 7778SOL    HW126289   4.661   6.781   7.298  1.6865  1.2794  1.3221
 7778SOL    HW226290   4.608   6.840   7.170 -1.0188  0.9390  2.2219
 7779SOL     OW26291   2.928   7.305  10.285  0.0086 -0.1430 -0.2870
 7779SOL    HW126292   2.958   7.217  10.263 -0.7454 -0.5356  0.2543
 7779SOL    HW226293   2.898   7.342  10.202 -2.6786 -1.5653 -0.0250
 7780SOL     OW26294   5.562   5.850   6.185 -0.1812  0.4735  0.5143
 7780SOL    HW126295   5.569   5.827   6.093  0.3603  0.3406  0.5835
 7780SOL    HW226296   5.593   5.772   6.232  2.2762  1.4979  0.7477
 7781SOL     OW26297   2.748   5.124  10.187  0.3880  0.0269  1.1263
 7781SOL    HW126298   2.717   5.178  10.260  2.4544  0.9885  1.3568
 7781SOL    HW226299   2.767   5.039  10.228  1.4049  0.5190  1.7099
 7782SOL     OW26300   9.675   5.226   3.080  0.2989 -0.2657 -0.6477
 7782SOL    HW126301   9.591   5.238   3.036 -1.1646 -0.2974  1.9412
 7782SOL    HW226302   9.685   5.131   3.086  0.2265 -0.2552 -0.3881
 7783SOL     OW26303   1.573   2.445   9.145  0.2808 -0.0689 -0.0917
 7783SOL    HW126304   1.490   2.425   9.101  0.6613 -1.9432 -0.0608
 7783SOL    HW226305   1.640   2.402   9.091  1.0140 -0.3261  0.9734
 7784SOL     OW26306   0.564   7.677   0.661  0.3334 -0.1648  0.1923
 7784SOL    HW126307   0.623   7.615   0.705 -0.4172 -0.3853  0.9089
 7784SOL    HW226308   0.484   7.627   0.646 -0.2151  0.5698  0.6092
 7785SOL     OW26309   3.162   9.864   5.120  0.2491  0.3753  0.2805
 7785SOL    HW126310   3.193   9.900   5.036  1.2346  1.0336  0.8984
 7785SOL    HW226311   3.086   9.917   5.142 -0.0496  0.1619 -0.2236
 7786SOL     OW26312   9.645   7.466   5.391 -0.4155 -0.1890  0.3245
 7786SOL    HW126313   9.581   7.537   5.391 -1.4279 -1.0220 -1.5952
 7786SOL    HW226314   9.667   7.453   5.483 -2.1928  0.8601  0.9487
 7787SOL     OW26315   0.403   1.510   5.855  0.2260 -0.8114  0.3851
 7787SOL    HW126316   0.428   1.451   5.927 -0.6835  0.5359  1.8570
 7787SOL    HW226317   0.415   1.457   5.776  2.2267 -2.0241  1.4170
 7788SOL     OW26318   4.336   2.571   2.714  0.0426 -0.1427  0.3928
 7788SOL    HW126319   4.272   2.620   2.662 -0.5111 -2.1433 -0.9064
 7788SOL    HW226320   4.391   2.639   2.754 -1.3764  1.5526 -0.3956
 7789SOL     OW26321   9.702   9.752   0.915 -0.5482 -0.0497 -0.0922
 7789SOL    HW126322   9.617   9.783   0.945 -0.6617 -0.5328  0.1003
 7789SOL    HW226323   9.681   9.685   0.850 -0.3118  0.1708 -0.3975
 7790SOL     OW26324   1.939   8.309   0.030 -0.3059  0.1374 -0.0094
 7790SOL    HW126325   1.867   8.300  -0.033 -0.0688  0.5366 -0.3416
 7790SOL    HW226326   1.974   8.396   0.014  1.1329 -0.5534 -0.7860
 7791SOL     OW26327   7.476   4.450   5.583 -0.7207 -0.5231  0.1577
 7791SOL    HW126328   7.394   4.447   5.534 -0.8955  0.0842  0.4020
 7791SOL    HW226329   7.460   4.395   5.660 -0.3786 -1.6394 -0.5450
 7792SOL     OW26330   9.596   0.607   4.298  0.2229 -0.4919 -0.0749
 7792SOL    HW126331   9.617   0.530   4.246 -1.1224 -1.3910  0.6538
 7792SOL    HW226332   9.576   0.572   4.385 -2.5226  0.3992 -0.2543
 7793SOL     OW26333   2.022   2.230   9.908  0.3879 -0.5439  0.7319
 7793SOL    HW126334   2.099   2.258   9.956  0.7067 -1.6375  0.8794
 7793SOL    HW226335   1.993   2.309   9.861  1.3180 -0.0112  1.0309
 7794SOL     OW26336   1.417   0.965   6.665  0.2544  0.2090  0.2787
 7794SOL    HW126337   1.327   0.940   6.686  0.2267  0.2508  0.2107
 7794SOL    HW226338   1.421   1.059   6.682  0.7520 -0.0729  1.9103
 7795SOL     OW26339   5.941   7.642   2.173 -0.5553 -0.2359 -0.3092
 7795SOL    HW126340   5.917   7.550   2.162 -2.3517  0.2111 -0.4651
 7795SOL    HW226341   5.919   7.683   2.090 -0.4754  0.4772  0.0127
 7796SOL     OW26342   4.115   6.607   1.584  0.1663 -0.8895  0.1811
 7796SOL    HW126343   4.199   6.609   1.538  0.7985  1.0337  1.3014
 7796SOL    HW226344   4.118   6.527   1.637  0.1934 -2.1532 -1.6530
 7797SOL     OW26345   9.844   9.005  10.023  0.9758 -0.3260 -0.0655
 7797SOL    HW126346   9.918   8.989  10.081  0.4475  0.7548  0.9607
 7797SOL    HW226347   9.787   8.929  10.033  2.0936 -1.3428 -1.1523
 7798SOL     OW26348   5.676   2.368   2.162 -0.1943 -0.4934  0.0483
 7798SOL    HW126349   5.635   2.281   2.161  0.4937 -0.8356  0.8780
 7798SOL    HW226350   5.672   2.395   2.253  0.1054  0.1102 -0.1175
 7799SOL     OW26351   6.721   4.427  10.688  0.7251  0.6516 -0.4930
 7799SOL    HW126352   6.713   4.332  10.680 -1.0331  0.7028  0.2033
 7799SOL    HW226353   6.712   4.443  10.782 -2.5488  1.7028 -0.8549
 7800SOL     OW26354   4.411   0.066   8.831  0.3212 -0.0752 -0.7064
 7800SOL    HW126355   4.470   0.133   8.867  1.0554 -0.6356 -0.8343
 7800SOL    HW226356   4.378   0.019   8.907 -0.8076  0.9067 -0.5582
 7801SOL     OW26357   6.142   8.522   4.276  0.2898  0.0069 -0.0078
 7801SOL    HW126358   6.232   8.488   4.279  0.0623 -0.6186  3.3676
 7801SOL    HW226359   6.092   8.460   4.329 -2.0537  0.7284 -1.2463
 7802SOL     OW26360   3.055   8.494   9.392 -0.6628 -0.0053  0.1560
 7802SOL    HW126361   3.087   8.411   9.355 -0.3316  0.0299  0.3652
 7802SOL    HW226362   2.961   8.478   9.406 -0.7558 -0.0766 -0.5359
 7803SOL     OW26363   2.064   0.533   3.984  0.0781 -0.0101  0.4713
 7803SOL    HW126364   2.103   0.533   4.072 -2.4042 -1.4332  1.6975
 7803SOL    HW226365   2.069   0.442   3.956  0.5284  0.3760 -0.7424
 7804SOL     OW26366   7.354   9.759   9.547  0.0141 -0.0016 -0.3864
 7804SOL    HW126367   7.446   9.735   9.555  0.2685  0.9195 -0.4596
 7804SOL    HW226368   7.307   9.676   9.554  0.7392 -0.2931  1.3923
 7805SOL     OW26369   6.042   2.334   0.862 -0.0518 -0.4275  0.1017
 7805SOL    HW126370   6.129   2.357   0.895 -0.0268 -0.0269 -0.2363
 7805SOL    HW226371   6.056   2.314   0.770 -0.2264 -0.9108  0.1816
 7806SOL     OW26372   5.549   3.946   0.229 -0.2937  0.0942 -0.0478
 7806SOL    HW126373   5.592   4.031   0.218 -1.0768  0.8272  2.0691
 7806SOL    HW226374   5.463   3.958   0.189 -0.3956  0.2962  0.2290
 7807SOL     OW26375   8.388   4.770   5.261  0.3927 -0.2220 -0.1038
 7807SOL    HW126376   8.359   4.857   5.289  1.8949  0.6252 -1.0454
 7807SOL    HW226377   8.461   4.749   5.320 -0.8674 -1.5317  1.0726
 7808SOL     OW26378   5.788   8.286   8.767 -0.6206 -0.3229  0.1527
 7808SOL    HW126379   5.770   8.192   8.768 -0.5823 -0.3316  0.0701
 7808SOL    HW226380   5.727   8.324   8.830  1.4946 -0.7942  2.6583
 7809SOL     OW26381   5.890   7.080   3.825  0.3172  0.4520 -0.1103
 7809SOL    HW126382   5.978   7.111   3.805 -0.3210  0.5693 -3.3306
 7809SOL    HW226383   5.832   7.150   3.793 -0.9797  0.2739  1.7097
 7810SOL     OW26384   5.945   3.287   8.024 -0.0469 -0.4052  0.5265
 7810SOL    HW126385   5.902   3.349   8.082 -0.5279  1.5092 -1.7217
 7810SOL    HW226386   6.039   3.303   8.037 -0.1423 -0.2928  1.0753
 7811SOL     OW26387   0.554   9.016   9.626 -0.4852  0.2715  0.5820
 7811SOL    HW126388   0.614   8.949   9.596  0.8819  1.5810  0.2540
 7811SOL    HW226389   0.608   9.095   9.632 -1.8930  1.2097  1.5163
 7812SOL     OW26390   5.299   8.077   6.394 -0.3106  0.5833  0.5328
 7812SOL    HW126391   5.235   8.026   6.346 -0.6336  0.7064  0.8244
 7812SOL    HW226392   5.258   8.092   6.480  0.6659 -0.4995  1.2157
 7813SOL     OW26393   0.942   7.230   0.183  0.5497 -0.7185 -0.0568
 7813SOL    HW126394   0.878   7.229   0.254 -1.2783 -2.2840 -1.6172
 7813SOL    HW226395   0.909   7.296   0.122  2.0750  0.5760  0.4517
 7814SOL     OW26396   3.085   5.219   9.357  0.4262 -0.3762 -0.3658
 7814SOL    HW126397   3.109   5.311   9.363 -1.5658  0.1506  0.4945
 7814SOL    HW226398   3.066   5.194   9.448  1.3248 -1.7796 -0.5260
 7815SOL     OW26399   5.003   4.431   7.362  0.2507  0.1035 -0.2020
 7815SOL    HW126400   5.091   4.467   7.368  0.8780 -1.0284 -1.6572
 7815SOL    HW226401   5.010   4.365   7.292 -1.9541  0.5989 -0.9652
 7816SOL     OW26402   9.117   3.207  10.181 -0.1826 -0.3823  0.4277
 7816SOL    HW126403   9.157   3.294  10.193  1.2193 -0.9874  0.4188
 7816SOL    HW226404   9.045   3.221  10.120  0.1818  0.7392  0.2323
 7817SOL     OW26405   2.121  10.353   9.460  0.3721 -0.1214  0.2179
 7817SOL    HW126406   2.167  10.432   9.486  0.5201  0.2752 -1.1845
 7817SOL    HW226407   2.035  10.360   9.501 -0.3590  1.7833 -1.4776
 7818SOL     OW26408   8.980   2.023  10.235  0.1003  0.6176 -0.3426
 7818SOL    HW126409   9.055   2.082  10.242  0.1103  0.5603  0.0848
 7818SOL    HW226410   8.906   2.075  10.268 -0.1213  0.8055 -1.1265
 7819SOL     OW26411   9.408   3.001   4.775  0.8790 -0.1125 -0.0146
 7819SOL    HW126412   9.438   3.026   4.688 -1.0300  0.2603 -0.6161
 7819SOL    HW226413   9.440   2.912   4.788 -0.3889 -0.8947 -1.9167
 7820SOL     OW26414   6.536   2.650   6.699 -0.2083 -0.2709 -0.7596
 7820SOL    HW126415   6.543   2.745   6.692 -0.2114 -0.1749  0.3621
 7820SOL    HW226416   6.620   2.623   6.736 -0.3106 -0.6854 -0.8220
 7821SOL     OW26417   7.315   7.518   1.601  0.0064  0.0187 -0.8602
 7821SOL    HW126418   7.345   7.521   1.510 -1.3277 -0.3363 -1.3311
 7821SOL    HW226419   7.241   7.578   1.604 -0.3684 -0.4736 -0.1650
 7822SOL     OW26420   0.256  10.099   0.978 -0.2002  0.2931  0.4658
 7822SOL    HW126421   0.253  10.009   0.947 -0.7915 -0.2024  1.8819
 7822SOL    HW226422   0.174  10.138   0.946 -0.9184 -0.2833  1.5380
 7823SOL     OW26423   2.199   6.401   5.463 -0.0722 -0.7539 -0.3682
 7823SOL    HW126424   2.188   6.350   5.383  0.7436 -1.3503 -0.1133
 7823SOL    HW226425   2.114   6.399   5.506 -0.5809 -0.2352 -1.3226
 7824SOL     OW26426   3.724   0.968   9.226 -0.2837  0.4620  0.3051
 7824SOL    HW126427   3.723   0.913   9.304 -0.3630  0.8572  0.5818
 7824SOL    HW226428   3.772   0.916   9.161  0.9554  0.6756  1.0176
 7825SOL     OW26429   9.931   4.952   7.400 -0.0305 -0.0998  0.3049
 7825SOL    HW126430   9.957   4.995   7.481  0.2423 -0.5699  0.4732
 7825SOL    HW226431  10.014   4.924   7.360  0.0266  2.0871 -1.2707
 7826SOL     OW26432   4.900   1.339   9.971  0.2078  0.3289 -0.2240
 7826SOL    HW126433   4.910   1.434   9.966  1.8572  0.3149  1.7084
 7826SOL    HW226434   4.867   1.323  10.059  0.6986 -0.9340 -0.2568
 7827SOL     OW26435   1.197   8.828   0.688 -0.0397 -0.0245 -0.6513
 7827SOL    HW126436   1.166   8.887   0.756  0.9220  0.8400 -0.9412
 7827SOL    HW226437   1.229   8.751   0.736 -2.0250 -0.6979 -0.3189
 7828SOL     OW26438   1.832   8.610   2.410  0.7202 -0.1992  0.0646
 7828SOL    HW126439   1.887   8.582   2.337  0.6973  1.2095 -0.5207
 7828SOL    HW226440   1.791   8.529   2.441  2.2548 -1.1105 -0.1829
 7829SOL     OW26441   0.396   0.594   0.683  0.6804 -0.2109 -0.6218
 7829SOL    HW126442   0.446   0.561   0.608  1.8262 -0.0720  0.0497
 7829SOL    HW226443   0.392   0.519   0.743 -1.2504 -0.6946 -1.2703
 7830SOL     OW26444   0.370   8.059   9.649  0.1022  0.1873 -0.2024
 7830SOL    HW126445   0.368   8.154   9.661  1.0041  0.1583  0.2945
 7830SOL    HW226446   0.326   8.024   9.726 -1.5715  0.2199 -1.0936
 7831SOL     OW26447   5.414   6.534   7.852 -0.6916  0.3395  1.0597
 7831SOL    HW126448   5.429   6.625   7.826 -0.4038  0.0846  0.2714
 7831SOL    HW226449   5.329   6.512   7.813  1.1110 -1.0106 -2.6285
 7832SOL     OW26450   9.233   8.045   0.531 -0.0199 -0.1272 -0.0117
 7832SOL    HW126451   9.310   8.094   0.503  1.2004 -1.4967  0.8095
 7832SOL    HW226452   9.264   7.992   0.605 -1.8551 -0.4234  0.6021
 7833SOL     OW26453   5.652   9.429   5.562 -0.2797 -0.7796 -0.4540
 7833SOL    HW126454   5.636   9.337   5.541 -0.1523 -0.6269 -1.2593
 7833SOL    HW226455   5.598   9.478   5.500 -0.1556 -0.3053 -0.1989
 7834SOL     OW26456   1.750   2.797   6.152 -0.2929  0.2767 -0.0887
 7834SOL    HW126457   1.844   2.798   6.167 -0.1517 -0.2662 -0.8472
 7834SOL    HW226458   1.725   2.705   6.159 -0.8078  0.4401  0.3190
 7835SOL     OW26459  10.076   2.504   0.738 -1.0127 -0.4180 -0.6681
 7835SOL    HW126460   9.991   2.464   0.724 -1.6504  1.2668 -2.0392
 7835SOL    HW226461  10.056   2.593   0.768  0.1802  0.4385 -2.2398
 7836SOL     OW26462   9.667   9.620   0.013 -0.2129 -0.0711 -0.1181
 7836SOL    HW126463   9.733   9.551   0.001  0.2853  0.3560  0.1397
 7836SOL    HW226464   9.710   9.684   0.069 -1.3414 -0.4530  1.2078
 7837SOL     OW26465   5.823   2.660   3.152 -0.3715  0.3942  0.5228
 7837SOL    HW126466   5.822   2.629   3.062 -2.0284 -1.0449  0.9878
 7837SOL    HW226467   5.753   2.725   3.156 -1.7641 -1.0940  1.2312
 7838SOL     OW26468   4.002   8.074   3.208  0.2549 -0.6916  0.0463
 7838SOL    HW126469   3.935   8.079   3.277  0.8149  1.9595  0.4954
 7838SOL    HW226470   4.085   8.077   3.255  0.6463  1.1621 -0.6619
 7839SOL     OW26471   3.151   0.726   0.005 -0.6689  0.1076 -0.6803
 7839SOL    HW126472   3.211   0.774   0.063 -0.4848  1.6612 -2.0762
 7839SOL    HW226473   3.208   0.689  -0.063 -0.9097 -1.4941 -0.0668
 7840SOL     OW26474   0.860   4.117   1.750 -0.0108  0.0390  0.0284
 7840SOL    HW126475   0.913   4.135   1.828  0.8026  2.2526 -0.9677
 7840SOL    HW226476   0.891   4.032   1.719  0.0526 -0.6112  1.7672
 7841SOL     OW26477   2.350   4.956   9.774 -0.2035  0.2236 -0.0977
 7841SOL    HW126478   2.256   4.972   9.770 -0.1561  0.5414  0.0738
 7841SOL    HW226479   2.389   5.041   9.793  0.1752  0.2284 -0.8525
 7842SOL     OW26480   2.340   3.235   0.083 -0.2342  0.1988  0.4389
 7842SOL    HW126481   2.366   3.307   0.141  0.2109 -0.4344  1.0492
 7842SOL    HW226482   2.273   3.188   0.132  0.6406 -0.7533  0.7700
 7843SOL     OW26483   8.384   8.146   6.837 -0.1665 -0.0970 -0.3565
 7843SOL    HW126484   8.415   8.056   6.850  2.1421  0.9280  2.0526
 7843SOL    HW226485   8.294   8.136   6.808 -0.1081 -3.1862  0.1979
 7844SOL     OW26486   2.005   2.248   8.404  0.7876  0.3292  0.2785
 7844SOL    HW126487   2.001   2.188   8.329 -2.5281  0.0818  0.5300
 7844SOL    HW226488   1.931   2.307   8.391  0.5690  0.7528  2.9982
 7845SOL     OW26489   6.489   6.515   3.953 -0.5040 -0.4569 -0.2181
 7845SOL    HW126490   6.433   6.582   3.991  0.7250  1.1627 -1.1323
 7845SOL    HW226491   6.566   6.513   4.010  1.8829  2.8000 -2.9367
 7846SOL     OW26492   3.115   1.733   1.530  0.3218 -0.1491  0.4800
 7846SOL    HW126493   3.188   1.717   1.471  2.4366 -0.5054  3.0490
 7846SOL    HW226494   3.121   1.826   1.550 -1.2246  0.2808 -0.8010
 7847SOL     OW26495   5.355   6.535   9.738 -0.3337 -0.7337 -0.5674
 7847SOL    HW126496   5.446   6.539   9.766 -0.5968 -2.4138  0.6944
 7847SOL    HW226497   5.320   6.621   9.759  0.4360 -0.7592  0.9838
 7848SOL     OW26498   5.483   8.170   2.268  0.0808  0.5462 -0.4658
 7848SOL    HW126499   5.571   8.137   2.283 -0.0872  0.2333 -0.1301
 7848SOL    HW226500   5.460   8.138   2.181  0.4390  0.9563 -0.7147
 7849SOL     OW26501   1.674   2.910   9.464 -0.1662 -0.1106  0.3353
 7849SOL    HW126502   1.592   2.958   9.476  0.7844  1.3090  1.3151
 7849SOL    HW226503   1.689   2.912   9.369 -0.0869  1.6507  0.3624
 7850SOL     OW26504  10.265   3.090   3.788 -0.0229  0.1939  0.1866
 7850SOL    HW126505  10.354   3.090   3.822 -0.9816  2.1894  3.1179
 7850SOL    HW226506  10.219   3.025   3.841 -0.5414 -0.1409 -0.6496
 7851SOL     OW26507   7.647   3.399  10.264 -0.5335 -0.3124  0.1985
 7851SOL    HW126508   7.728   3.443  10.292 -1.2190  1.1051  0.0516
 7851SOL    HW226509   7.580   3.433  10.323 -1.2779 -0.3655 -0.5938
 7852SOL     OW26510   4.676   2.897   5.450 -0.7050 -0.4617  0.4845
 7852SOL    HW126511   4.621   2.972   5.470 -0.8561 -0.7942  1.3376
 7852SOL    HW226512   4.635   2.824   5.497  0.6988 -0.6366  1.4769
 7853SOL     OW26513   9.274   0.506   4.393  0.0589 -0.0393  0.0730
 7853SOL    HW126514   9.269   0.462   4.308 -1.8630  1.3559 -0.6033
 7853SOL    HW226515   9.309   0.440   4.452  0.4591 -1.3764 -1.5873
 7854SOL     OW26516   2.850   7.912   3.139 -0.0076  0.1604  0.3443
 7854SOL    HW126517   2.868   7.846   3.206  1.2422 -0.4349 -0.5595
 7854SOL    HW226518   2.806   7.864   3.069 -0.0237  0.4942  0.1217
 7855SOL     OW26519   7.467   5.482   3.622 -0.4230  0.0127  0.2351
 7855SOL    HW126520   7.515   5.564   3.636 -1.4371  0.3714  1.8725
 7855SOL    HW226521   7.532   5.413   3.635 -0.1892  0.5011  1.8760
 7856SOL     OW26522   0.351   0.702   6.926 -0.3146  0.1698  1.0009
 7856SOL    HW126523   0.379   0.789   6.896 -3.4636  0.7680 -0.6964
 7856SOL    HW226524   0.358   0.647   6.849 -0.3683 -0.5395  1.4973
 7857SOL     OW26525   2.043   7.902  10.501 -0.2551 -0.1066 -0.2583
 7857SOL    HW126526   2.078   7.985  10.535 -3.0396  0.3319  1.9745
 7857SOL    HW226527   2.085   7.835  10.554  1.3916 -0.1131 -1.5134
 7858SOL     OW26528   4.936   8.480   7.152  0.4319  0.2026 -0.1683
 7858SOL    HW126529   4.869   8.414   7.135  0.9357 -0.3511 -0.0233
 7858SOL    HW226530   4.984   8.447   7.228  1.3054  0.2386 -0.6868
 7859SOL     OW26531   4.223   1.809   2.138  0.5747  0.3148  0.0428
 7859SOL    HW126532   4.138   1.795   2.179  1.5987 -2.5455  1.5199
 7859SOL    HW226533   4.216   1.767   2.052  0.1616  1.1486 -0.3388
 7860SOL     OW26534   8.814   1.015   4.864 -0.0012 -0.2096 -0.3009
 7860SOL    HW126535   8.867   0.939   4.838 -0.8053 -0.5368 -1.0147
 7860SOL    HW226536   8.830   1.024   4.958  1.8668  0.1263 -0.6055
 7861SOL     OW26537   5.198  10.335   0.864  0.2869  0.0572 -0.2167
 7861SOL    HW126538   5.168  10.392   0.794 -0.3021 -1.2407 -1.0479
 7861SOL    HW226539   5.155  10.368   0.943 -1.0577 -0.0146 -0.9025
 7862SOL     OW26540   3.636   4.143   1.063 -0.0191 -0.6915 -0.3081
 7862SOL    HW126541   3.690   4.209   1.107 -0.9840  0.0027 -0.1527
 7862SOL    HW226542   3.636   4.170   0.971  0.0842 -0.8329 -0.3510
 7863SOL     OW26543   1.358   5.337   2.082  0.4782  0.3558  0.8109
 7863SOL    HW126544   1.396   5.414   2.039  0.9335  0.3797  1.2406
 7863SOL    HW226545   1.354   5.362   2.175 -0.7364  0.4114  0.7538
 7864SOL     OW26546   4.584   1.615   4.759  0.0501 -0.1102  0.4823
 7864SOL    HW126547   4.666   1.568   4.744 -0.7434 -0.9146 -1.7330
 7864SOL    HW226548   4.607   1.683   4.822  2.2994 -0.6270  0.3126
 7865SOL     OW26549   2.948   8.281   8.878  0.2656 -0.6507 -0.0788
 7865SOL    HW126550   2.978   8.332   8.803 -0.7685 -1.3366 -1.0015
 7865SOL    HW226551   3.019   8.287   8.942  0.3764  1.5357 -0.3281
 7866SOL     OW26552   0.209   3.189   0.524  0.0680  0.0188 -0.3934
 7866SOL    HW126553   0.239   3.180   0.615 -0.3436 -0.6877 -0.3212
 7866SOL    HW226554   0.154   3.267   0.524  0.4532  0.2959 -0.1429
 7867SOL     OW26555   7.074   1.190   1.492  0.0333  0.0377 -0.9187
 7867SOL    HW126556   7.152   1.245   1.487  0.1439 -0.1486 -1.3097
 7867SOL    HW226557   7.106   1.101   1.480  0.1256 -0.3667  1.7058
 7868SOL     OW26558   6.379  10.677   0.117  0.1224  0.4436  0.5725
 7868SOL    HW126559   6.422  10.592   0.126 -1.1136 -0.1129  1.6181
 7868SOL    HW226560   6.449  10.740   0.129  0.9888 -0.4339  0.2459
 7869SOL     OW26561   2.688   9.079   3.345  0.2488 -0.0420  0.5982
 7869SOL    HW126562   2.782   9.093   3.355  0.5017 -0.7782 -0.5338
 7869SOL    HW226563   2.659   9.050   3.431  1.1689 -0.3695  0.8150
 7870SOL     OW26564   0.851   3.507   8.648 -0.0417  0.4082 -0.6289
 7870SOL    HW126565   0.922   3.508   8.583  0.4551  2.3396 -0.1168
 7870SOL    HW226566   0.861   3.423   8.693  2.0603  0.7128 -0.4412
 7871SOL     OW26567   3.186   2.215   5.354 -0.5251  0.2413 -1.1267
 7871SOL    HW126568   3.169   2.262   5.436  0.5085  0.8874 -1.2548
 7871SOL    HW226569   3.230   2.279   5.299 -1.2178 -0.1870 -2.2064
 7872SOL     OW26570   5.509   3.013   8.269 -0.0329  0.6174  0.6166
 7872SOL    HW126571   5.531   2.972   8.353  1.1734  1.4200  0.7233
 7872SOL    HW226572   5.463   2.945   8.220 -0.0293 -0.1324  1.6185
 7873SOL     OW26573  10.584   9.979   6.272  0.0755 -0.6587 -0.5126
 7873SOL    HW126574  10.499   9.948   6.241 -0.2430 -0.3410  0.0286
 7873SOL    HW226575  10.629  10.009   6.193 -0.4260 -0.5651 -0.7677
 7874SOL     OW26576   7.256  10.488   6.348 -0.4646  0.4424 -0.6406
 7874SOL    HW126577   7.214  10.413   6.306  0.0212 -0.7078  0.8333
 7874SOL    HW226578   7.304  10.532   6.278 -0.5062 -0.8190 -1.4773
 7875SOL     OW26579   6.533  10.272   2.415  0.1550 -0.1304 -0.1716
 7875SOL    HW126580   6.625  10.253   2.395 -0.1935 -1.3630 -0.6911
 7875SOL    HW226581   6.516  10.226   2.497 -0.1085 -0.2701 -0.3024
 7876SOL     OW26582   8.010   1.959   8.626  0.6214 -0.9759  0.0709
 7876SOL    HW126583   8.090   2.011   8.619 -0.5919  0.8653 -0.8697
 7876SOL    HW226584   7.991   1.956   8.719 -0.4393  2.2525  0.0660
 7877SOL     OW26585   2.623   9.782   3.986 -0.1287 -0.0071 -0.3288
 7877SOL    HW126586   2.626   9.733   3.904 -2.3389 -1.4792  0.3660
 7877SOL    HW226587   2.566   9.856   3.967 -0.2959 -0.1141 -0.2505
 7878SOL     OW26588  10.099   6.276   8.652  0.0137  0.1859  0.3507
 7878SOL    HW126589  10.157   6.328   8.708 -1.1408  0.7511  1.0463
 7878SOL    HW226590  10.025   6.334   8.633 -1.5578 -1.3472  1.5540
 7879SOL     OW26591   7.590   5.971   9.121 -0.8699 -0.1756 -0.9184
 7879SOL    HW126592   7.641   6.047   9.093  0.0466  0.1344  1.3640
 7879SOL    HW226593   7.514   6.008   9.166 -1.7928 -0.6579 -1.9994
 7880SOL     OW26594   4.605   6.012   7.432  0.6692  0.0467 -0.8180
 7880SOL    HW126595   4.631   5.967   7.351  0.9570  2.1533 -1.9451
 7880SOL    HW226596   4.674   6.076   7.448  0.7004 -0.4134  1.2395
 7881SOL     OW26597   0.681   6.255   7.922 -0.1414 -0.1652 -0.1057
 7881SOL    HW126598   0.631   6.325   7.964  0.4455 -1.4648  3.0911
 7881SOL    HW226599   0.769   6.263   7.959  1.0546 -0.2565 -2.7161
 7882SOL     OW26600  10.531   1.795   4.923 -0.4594  0.1218  0.6836
 7882SOL    HW126601  10.547   1.708   4.958  0.9706  0.1118  0.0822
 7882SOL    HW226602  10.586   1.800   4.844  0.0220  1.7868  1.0745
 7883SOL     OW26603   1.112   2.710   5.764  0.3421 -0.4132  0.1883
 7883SOL    HW126604   1.154   2.663   5.692  0.6876 -2.6835  1.7560
 7883SOL    HW226605   1.019   2.707   5.743  0.3060 -2.2441  0.4239
 7884SOL     OW26606   2.520   8.116   7.363 -0.1865 -0.5452  0.0975
 7884SOL    HW126607   2.434   8.090   7.393 -0.5505 -0.7320 -1.0555
 7884SOL    HW226608   2.581   8.079   7.427 -0.9272 -0.8802  0.6101
 7885SOL     OW26609   0.903   9.412   3.184 -0.1858 -0.2128  0.1064
 7885SOL    HW126610   0.896   9.371   3.270  0.0784 -1.8732 -0.6140
 7885SOL    HW226611   0.919   9.339   3.124 -1.2248  0.7848 -1.4749
 7886SOL     OW26612   0.935   1.823   1.564  0.5449 -0.6605 -0.4807
 7886SOL    HW126613   0.866   1.887   1.581  1.7688  0.5313  0.2792
 7886SOL    HW226614   0.894   1.758   1.508 -0.9393  0.4615 -0.7768
 7887SOL     OW26615   3.740   9.622   9.850 -0.0394 -0.7930 -0.2832
 7887SOL    HW126616   3.786   9.705   9.861 -0.1250 -0.7336 -0.3619
 7887SOL    HW226617   3.698   9.606   9.934 -0.5860 -0.4097 -0.4753
 7888SOL     OW26618  10.433   2.259   1.683 -0.8605  0.2518 -0.0872
 7888SOL    HW126619  10.505   2.201   1.658 -1.0738 -0.2171  0.3806
 7888SOL    HW226620  10.359   2.228   1.631 -0.5038  1.3631 -1.3278
 7889SOL     OW26621  10.080   5.697   6.793  1.1365  0.2831 -0.2980
 7889SOL    HW126622  10.007   5.682   6.853  2.7828  2.0566  2.3547
 7889SOL    HW226623  10.058   5.780   6.750  0.5201 -0.3876 -1.3145
 7890SOL     OW26624   9.331   2.960   8.731  1.3003 -0.0660  0.3083
 7890SOL    HW126625   9.354   3.032   8.790  0.1599  2.8367 -2.4855
 7890SOL    HW226626   9.264   2.911   8.777 -0.4906  2.8505  1.0766
 7891SOL     OW26627   5.447   0.937   6.944 -0.0353  0.2304 -0.0331
 7891SOL    HW126628   5.499   0.952   6.865 -1.0592  1.1849 -0.5476
 7891SOL    HW226629   5.511   0.909   7.009  0.8733 -0.2877 -1.1117
 7892SOL     OW26630   5.368   1.670   3.204 -0.1598 -0.3411 -0.9946
 7892SOL    HW126631   5.415   1.692   3.124 -1.8601  0.3688 -1.8503
 7892SOL    HW226632   5.290   1.623   3.174 -1.4176  0.9494  0.1047
 7893SOL     OW26633   9.325   3.567   2.661 -0.3454 -0.5123  0.0225
 7893SOL    HW126634   9.341   3.657   2.689  0.1210 -0.6632  0.2443
 7893SOL    HW226635   9.412   3.526   2.658 -0.5737 -1.0234  0.1569
 7894SOL     OW26636   1.169   9.689   7.662  0.2627 -0.7921  0.3397
 7894SOL    HW126637   1.130   9.613   7.706  1.0169 -0.7745  1.0783
 7894SOL    HW226638   1.189   9.750   7.733 -0.2528  0.0704 -0.2371
 7895SOL     OW26639   1.634   6.992   4.108 -0.0478 -0.4493 -0.1713
 7895SOL    HW126640   1.583   6.984   4.188 -0.0478  0.4130 -0.0818
 7895SOL    HW226641   1.579   7.041   4.047  0.2387 -0.4607 -0.4502
 7896SOL     OW26642   8.420   7.596   8.789  0.0349  0.1279  0.1326
 7896SOL    HW126643   8.416   7.502   8.806  0.4680  0.0990  0.0833
 7896SOL    HW226644   8.330   7.620   8.766  0.0386 -0.3972 -0.4702
 7897SOL     OW26645   2.293   2.990   0.548 -0.4929 -0.7379 -0.5346
 7897SOL    HW126646   2.227   2.924   0.568  0.7414 -1.5635  1.0351
 7897SOL    HW226647   2.355   2.946   0.490  1.3777 -1.7091  2.0241
 7898SOL     OW26648   3.589   7.900   3.871  0.2647 -0.4040  0.1901
 7898SOL    HW126649   3.520   7.878   3.808  0.8729  1.2547 -1.1437
 7898SOL    HW226650   3.669   7.863   3.833  0.5654  0.2104  0.2117
 7899SOL     OW26651   6.230   9.700   0.249  0.1459 -0.3799 -0.3490
 7899SOL    HW126652   6.190   9.624   0.208 -0.7366 -0.3217  0.3667
 7899SOL    HW226653   6.165   9.730   0.313  0.6407  0.7376 -0.3419
 7900SOL     OW26654   1.125   4.462   2.067  0.3909  0.6809  0.4367
 7900SOL    HW126655   1.126   4.531   2.133  0.0918  1.2540 -0.1457
 7900SOL    HW226656   1.074   4.392   2.107  2.3374 -0.0158  1.8143
 7901SOL     OW26657   4.929   7.500   3.636 -0.1368 -0.4318  0.4634
 7901SOL    HW126658   4.981   7.459   3.704  1.0062 -0.1744 -0.2342
 7901SOL    HW226659   4.874   7.429   3.602  0.9048 -1.0927  0.1316
 7902SOL     OW26660   4.744   0.672  10.198  0.4387 -0.1205  0.2513
 7902SOL    HW126661   4.670   0.659  10.139 -0.9529 -2.3375  2.2584
 7902SOL    HW226662   4.797   0.593  10.189  1.8334  0.8014 -0.0908
 7903SOL     OW26663   3.002   7.554   7.500 -0.4004  0.1014 -0.0712
 7903SOL    HW126664   2.956   7.575   7.582  0.9307 -1.6500  1.1910
 7903SOL    HW226665   3.082   7.510   7.528 -0.8521 -2.3989 -2.3392
 7904SOL     OW26666   8.589   9.250   0.941  0.2190  0.0397  0.0221
 7904SOL    HW126667   8.500   9.258   0.978 -0.2687 -1.9308 -0.6421
 7904SOL    HW226668   8.623   9.169   0.978  0.7894 -0.5217 -1.6826
 7905SOL     OW26669   8.369   2.174   3.506  0.4038 -0.2665 -0.8335
 7905SOL    HW126670   8.328   2.153   3.589  0.3356 -1.4147 -1.1427
 7905SOL    HW226671   8.340   2.263   3.486  0.3662 -0.0134  0.3244
 7906SOL     OW26672   5.681   4.907   9.631 -0.2168  0.2317  0.0274
 7906SOL    HW126673   5.672   4.812   9.627 -1.3428  0.3036  0.4497
 7906SOL    HW226674   5.716   4.925   9.718  0.8729  0.1550 -0.3874
 7907SOL     OW26675   6.432   8.253   8.293  0.3654  0.0337  0.4391
 7907SOL    HW126676   6.406   8.286   8.207 -0.8363 -1.5621  0.1428
 7907SOL    HW226677   6.504   8.193   8.276  1.6694  1.4131  0.8394
 7908SOL     OW26678  10.510   6.006   5.039 -0.1892  0.4639 -0.3795
 7908SOL    HW126679  10.533   5.965   4.955 -0.6467 -0.6433  0.0102
 7908SOL    HW226680  10.443   5.948   5.076  1.2611 -0.0633  1.5600
 7909SOL     OW26681   5.811   0.723   2.159 -0.0704  0.0572 -0.0218
 7909SOL    HW126682   5.813   0.684   2.246  1.4609  0.4025  0.1305
 7909SOL    HW226683   5.855   0.808   2.170  2.4418 -0.9247 -1.5742
 7910SOL     OW26684  10.159   4.336  10.422  0.4000  0.7900  0.1633
 7910SOL    HW126685  10.254   4.345  10.430  0.4025  0.7227  0.2164
 7910SOL    HW226686  10.125   4.371  10.504  0.4664 -0.6493  0.8355
 7911SOL     OW26687   0.995   9.686   2.184 -0.2606  0.0173  0.4963
 7911SOL    HW126688   1.018   9.778   2.172  2.7202 -0.8951 -1.9554
 7911SOL    HW226689   0.973   9.655   2.096  0.4756 -1.9803  0.9687
 7912SOL     OW26690   8.674   9.113   7.815 -0.5518 -0.2571 -0.3112
 7912SOL    HW126691   8.625   9.138   7.893  0.0190 -0.0719 -0.0051
 7912SOL    HW226692   8.760   9.086   7.848 -0.0338  0.5860 -0.9353
 7913SOL     OW26693   0.192   6.532   2.671 -0.7941  0.2964 -0.1700
 7913SOL    HW126694   0.198   6.568   2.759 -2.0282  2.4128 -0.8694
 7913SOL    HW226695   0.107   6.487   2.670 -0.1529 -0.9526  0.1063
 7914SOL     OW26696  10.525   2.169   6.735  0.5598  0.2357 -0.6453
 7914SOL    HW126697  10.453   2.109   6.714  1.3993 -1.0913  0.1763
 7914SOL    HW226698  10.519   2.237   6.667 -3.2504  1.8746  0.9840
 7915SOL     OW26699   5.504   6.127   3.837  0.0476 -0.1044 -0.6843
 7915SOL    HW126700   5.468   6.216   3.832  0.8490  0.2115 -0.8676
 7915SOL    HW226701   5.585   6.136   3.887 -0.6931 -1.0047  0.7652
 7916SOL     OW26702   1.292   5.150   7.739 -0.5043 -0.1500 -0.0609
 7916SOL    HW126703   1.316   5.204   7.814  0.6816 -0.6566 -0.0574
 7916SOL    HW226704   1.358   5.169   7.673 -0.4099 -1.1481 -0.2720
 7917SOL     OW26705   0.937   2.696   7.187 -0.3831 -0.2012  0.1871
 7917SOL    HW126706   0.937   2.612   7.232  2.8053  0.2116  1.2632
 7917SOL    HW226707   0.932   2.761   7.257 -0.4256  0.4762 -0.4343
 7918SOL     OW26708   7.483   6.384   6.760  0.1401 -0.5204  0.0492
 7918SOL    HW126709   7.447   6.420   6.679 -0.7118 -0.2340  0.5405
 7918SOL    HW226710   7.535   6.456   6.797  0.3400 -0.5743 -0.1292
 7919SOL     OW26711   1.981   3.656   8.535  0.5569 -0.4287  0.1232
 7919SOL    HW126712   2.076   3.655   8.532  0.5728 -0.6379  0.4966
 7919SOL    HW226713   1.959   3.582   8.592  0.2028  0.0958  0.6819
 7920SOL     OW26714   4.674   7.553   9.226  0.6855 -0.0176 -0.0415
 7920SOL    HW126715   4.723   7.502   9.290  3.2057  2.0822 -0.1197
 7920SOL    HW226716   4.624   7.615   9.279  1.3602  0.5226 -0.0160
 7921SOL     OW26717   9.569   8.405   1.961 -0.2264  0.3508 -0.3495
 7921SOL    HW126718   9.610   8.326   1.926 -0.4211  0.4557 -0.8279
 7921SOL    HW226719   9.642   8.464   1.979 -0.1351  0.4118 -0.8810
 7922SOL     OW26720   1.123   8.448   1.604  0.0175 -0.1279  0.1771
 7922SOL    HW126721   1.103   8.538   1.631  3.7095  0.4864  1.4117
 7922SOL    HW226722   1.122   8.398   1.686  1.4446 -0.4058  0.0506
 7923SOL     OW26723   1.921   1.301   6.470  0.4995 -0.6258 -0.2509
 7923SOL    HW126724   1.929   1.261   6.384 -0.7477  0.3923 -0.8665
 7923SOL    HW226725   1.829   1.327   6.477  0.6730 -0.2705  1.2015
 7924SOL     OW26726   8.093   8.030   6.337  0.5839 -0.1281 -0.2057
 7924SOL    HW126727   8.127   7.944   6.364  1.3538  0.2992  0.2367
 7924SOL    HW226728   8.044   8.013   6.257 -0.8647 -1.2857  0.8617
 7925SOL     OW26729   4.894   8.393   4.898 -0.0287 -0.6587 -0.1849
 7925SOL    HW126730   4.902   8.411   4.804  1.7569 -0.1993  0.0243
 7925SOL    HW226731   4.919   8.301   4.906  1.7810 -0.1902  0.0301
 7926SOL     OW26732   3.171   5.545   4.174 -0.0204  0.1465 -0.1673
 7926SOL    HW126733   3.103   5.512   4.232  0.2778 -0.9909 -0.4479
 7926SOL    HW226734   3.132   5.542   4.086  0.1311  0.1994 -0.2375
 7927SOL     OW26735   7.512   5.373   1.173 -0.4972 -0.4217  0.0147
 7927SOL    HW126736   7.516   5.295   1.118 -1.2088 -1.9415  2.0073
 7927SOL    HW226737   7.563   5.351   1.251  0.4862  1.6649  0.0422
 7928SOL     OW26738   3.210   3.546   4.661 -0.2342 -0.1267  0.0395
 7928SOL    HW126739   3.211   3.460   4.704  0.5577 -0.9759 -1.5750
 7928SOL    HW226740   3.117   3.565   4.648 -0.4120 -1.0421 -0.1184
 7929SOL     OW26741   1.978   6.189   3.594  0.6240 -0.7983  0.0989
 7929SOL    HW126742   1.892   6.165   3.628 -0.3302  2.5239  0.3618
 7929SOL    HW226743   2.040   6.145   3.653 -0.9031 -1.5212  1.2259
 7930SOL     OW26744   1.050   1.321   1.003 -0.3500 -0.4887  0.1122
 7930SOL    HW126745   1.066   1.409   0.969  0.5370 -0.7488 -0.2027
 7930SOL    HW226746   1.073   1.326   1.095  1.7322 -0.8457 -0.3269
 7931SOL     OW26747   9.281   4.373   1.555  0.6105 -0.3734 -0.4281
 7931SOL    HW126748   9.217   4.319   1.600  0.9802  0.8785  1.7247
 7931SOL    HW226749   9.237   4.457   1.540  1.2962  0.0436 -0.1753
 7932SOL     OW26750  10.075   7.164   3.311  0.4506  0.0199  0.1113
 7932SOL    HW126751  10.131   7.225   3.358 -0.6930  1.7787 -0.6985
 7932SOL    HW226752  10.020   7.220   3.256 -0.5218 -1.7678 -0.8115
 7933SOL     OW26753   6.196   1.137   0.857  0.1840  0.0860  0.1427
 7933SOL    HW126754   6.153   1.221   0.869 -1.9403 -0.9379  0.1724
 7933SOL    HW226755   6.144   1.094   0.788  1.7183 -0.8922 -0.4536
 7934SOL     OW26756   6.919   9.238   3.720  0.9210 -0.1358  0.1914
 7934SOL    HW126757   6.849   9.206   3.777  1.9992 -0.9854  1.0859
 7934SOL    HW226758   6.987   9.171   3.725  2.0111  0.8853 -0.2847
 7935SOL     OW26759   7.451   1.546   0.237 -0.0281  0.5884  0.1674
 7935SOL    HW126760   7.404   1.590   0.307  0.0106  2.1427 -0.7586
 7935SOL    HW226761   7.537   1.588   0.236  0.2735 -0.0247 -0.2570
 7936SOL     OW26762   4.783   6.311   9.453  0.4429 -0.4144  0.0859
 7936SOL    HW126763   4.869   6.295   9.415  0.3597  2.0692 -1.3326
 7936SOL    HW226764   4.722   6.277   9.388  0.2846 -1.6760  0.8480
 7937SOL     OW26765   8.551  10.538   1.610  0.6202 -0.3394 -0.6349
 7937SOL    HW126766   8.619  10.472   1.622  1.1521  0.1785 -0.7511
 7937SOL    HW226767   8.598  10.621   1.611  0.2111 -0.0455 -2.2984
 7938SOL     OW26768   2.041   5.249   2.652  0.2582 -0.6911 -0.5004
 7938SOL    HW126769   2.032   5.293   2.736  0.5484 -0.0603 -0.7900
 7938SOL    HW226770   2.054   5.157   2.674 -1.0096 -0.7539  0.0998
 7939SOL     OW26771   7.591   2.024   0.104 -0.2908  0.2384  0.2937
 7939SOL    HW126772   7.646   2.097   0.133  0.5180 -0.7928  1.4667
 7939SOL    HW226773   7.507   2.037   0.148  0.4607 -0.5175  2.0333
 7940SOL     OW26774   2.334   1.594   4.397 -0.1017  0.1071 -0.4991
 7940SOL    HW126775   2.419   1.629   4.422 -0.5864  0.2215  1.0769
 7940SOL    HW226776   2.282   1.595   4.477 -0.8958 -2.0633 -0.9265
 7941SOL     OW26777   3.200   2.939   9.869  0.3881  0.3652 -0.3863
 7941SOL    HW126778   3.115   2.981   9.856 -0.4020 -1.1826 -0.4818
 7941SOL    HW226779   3.242   2.990   9.939  0.0659  2.0877 -1.3848
 7942SOL     OW26780   8.094   5.043   5.354  0.2851 -0.4011  0.4459
 7942SOL    HW126781   8.168   4.997   5.393  0.7059 -0.2439 -0.1537
 7942SOL    HW226782   8.092   5.014   5.263  1.1219  1.3951 -0.2085
 7943SOL     OW26783   5.507   0.329   4.798  0.6472 -0.3717  0.0158
 7943SOL    HW126784   5.541   0.320   4.709  2.2313  0.4410  0.4966
 7943SOL    HW226785   5.584   0.350   4.851 -0.6491  2.3126  1.0541
 7944SOL     OW26786   2.931   1.242   3.145 -0.1190  0.9266  0.6314
 7944SOL    HW126787   2.888   1.326   3.125 -0.6306  0.9620  1.7785
 7944SOL    HW226788   3.017   1.249   3.104 -0.3125  1.8515  0.3464
 7945SOL     OW26789   5.644   9.310   1.160 -0.1037  0.2457  0.0199
 7945SOL    HW126790   5.728   9.353   1.143  0.4936  0.1237  2.3793
 7945SOL    HW226791   5.647   9.230   1.108  0.8676  0.6484 -0.5801
 7946SOL     OW26792   9.773   5.670   2.766  0.2393 -0.0268  0.0636
 7946SOL    HW126793   9.862   5.650   2.794  0.8281 -0.4322 -1.9433
 7946SOL    HW226794   9.783   5.735   2.696 -1.2684  2.3481  1.8568
 7947SOL     OW26795   5.449   0.820   2.782 -0.2618 -0.0593  0.8195
 7947SOL    HW126796   5.497   0.798   2.861  0.5166  0.6825  0.5651
 7947SOL    HW226797   5.373   0.761   2.783 -0.2148 -0.1232  2.0594
 7948SOL     OW26798   0.500   4.129   6.657  0.5471  0.0207  0.5573
 7948SOL    HW126799   0.494   4.116   6.562  2.1667 -0.7283  0.5325
 7948SOL    HW226800   0.581   4.179   6.669  0.1854  0.3913  1.5279
 7949SOL     OW26801   9.078   9.750   0.987  0.7303  0.8368 -0.0274
 7949SOL    HW126802   9.136   9.674   0.996  0.5246  0.7394  0.5750
 7949SOL    HW226803   9.073   9.786   1.076 -0.4156  0.6293  0.0112
 7950SOL     OW26804   2.372   2.888  10.585 -0.5670  0.4006  0.1239
 7950SOL    HW126805   2.353   2.797  10.606  1.9403 -0.4650 -0.8789
 7950SOL    HW226806   2.417   2.884  10.501 -0.5139  2.5927 -0.0144
 7951SOL     OW26807   0.024   3.959   3.990  0.1216 -0.0065  0.2223
 7951SOL    HW126808   0.023   3.939   3.896 -0.1799  2.1613 -0.2787
 7951SOL    HW226809  -0.057   3.921   4.023 -0.1913 -0.0404 -0.5674
 7952SOL     OW26810   0.927   3.069   7.484 -0.5336 -0.5985 -0.2886
 7952SOL    HW126811   0.889   3.155   7.505  0.6966 -0.6215  2.4433
 7952SOL    HW226812   0.998   3.088   7.424 -0.6931  0.2182 -0.2286
 7953SOL     OW26813   2.853   2.983   2.015  0.0170 -0.3492  0.3555
 7953SOL    HW126814   2.938   2.941   2.009  0.2927  0.4026 -1.6308
 7953SOL    HW226815   2.870   3.065   2.061  0.2566 -0.4530  0.4544
 7954SOL     OW26816   5.386   5.927   3.626  0.5902 -0.1992 -0.3725
 7954SOL    HW126817   5.410   6.010   3.665  0.4897 -0.1694 -0.3719
 7954SOL    HW226818   5.403   5.862   3.695  3.1452 -0.5309 -1.2067
 7955SOL     OW26819   9.981   3.836   2.517  0.7516  1.0431  0.1444
 7955SOL    HW126820  10.055   3.879   2.476  2.1844 -1.7366 -0.4126
 7955SOL    HW226821   9.955   3.767   2.456 -0.3175  0.0055  1.6652
 7956SOL     OW26822  10.457   1.413   5.979  0.1443 -0.0733 -0.3041
 7956SOL    HW126823  10.409   1.458   5.910 -0.3970  2.4058  1.5511
 7956SOL    HW226824  10.530   1.472   6.000 -0.4320 -0.0766  2.0595
 7957SOL     OW26825   8.055   2.446   9.741 -0.1589 -0.0030  0.1385
 7957SOL    HW126826   8.023   2.488   9.661 -2.6563  2.6299  2.2911
 7957SOL    HW226827   8.100   2.516   9.789  0.9502 -1.4035  1.2597
 7958SOL     OW26828   1.992   9.195   1.283 -0.2246  0.7477 -0.4570
 7958SOL    HW126829   2.058   9.257   1.250 -1.7542  2.2415 -0.8238
 7958SOL    HW226830   1.931   9.185   1.211  0.3559 -1.8453 -0.6830
 7959SOL     OW26831   3.997   4.079   0.868 -0.1368  0.1559 -0.5514
 7959SOL    HW126832   3.904   4.091   0.846 -0.6657 -2.5081 -0.1273
 7959SOL    HW226833   4.031   4.025   0.796  1.3464  1.8161 -1.1491
 7960SOL     OW26834   6.017   0.921   1.260  0.2391  0.0435 -0.1280
 7960SOL    HW126835   5.947   0.871   1.218  0.2857  0.6569 -0.9798
 7960SOL    HW226836   6.090   0.915   1.198 -0.1191  2.0823 -0.8188
 7961SOL     OW26837   1.999   8.979   0.421  0.1585 -0.5331 -0.4208
 7961SOL    HW126838   2.017   9.048   0.484 -0.4616 -0.7253 -0.0248
 7961SOL    HW226839   1.929   9.015   0.366  0.1808 -0.6560 -0.5305
 7962SOL     OW26840   2.213   7.550   7.555 -0.0239 -0.5341 -0.2960
 7962SOL    HW126841   2.167   7.532   7.473 -0.0213 -2.1379  0.0178
 7962SOL    HW226842   2.202   7.470   7.607  0.6376  0.1522  0.9621
 7963SOL     OW26843   3.767   2.575   2.316  0.1412  0.7921 -0.6792
 7963SOL    HW126844   3.817   2.493   2.320 -2.2983 -0.7671  0.5382
 7963SOL    HW226845   3.833   2.644   2.325  2.2041 -1.0537 -0.7848
 7964SOL     OW26846   1.635   2.365   0.244 -0.5789 -0.4169  0.0621
 7964SOL    HW126847   1.701   2.386   0.310  0.1514  0.3814 -0.8901
 7964SOL    HW226848   1.678   2.301   0.187 -1.3282 -1.3755  0.5327
 7965SOL     OW26849   0.997   2.901   9.352 -0.0235  0.0241  0.2235
 7965SOL    HW126850   0.963   2.839   9.287 -1.7211 -0.5119  1.5647
 7965SOL    HW226851   0.935   2.898   9.424  1.0953  1.5990  1.3366
 7966SOL     OW26852   2.139   4.239   7.596  0.2830  0.1140  0.2564
 7966SOL    HW126853   2.150   4.334   7.588 -0.9625  0.2471 -0.1324
 7966SOL    HW226854   2.044   4.226   7.594  0.4026 -1.0566  1.4132
 7967SOL     OW26855   2.124   5.927   8.739 -0.2110  0.3960 -0.0349
 7967SOL    HW126856   2.064   5.859   8.770 -0.2961  0.5560  0.1526
 7967SOL    HW226857   2.180   5.947   8.815  0.6057 -0.3204 -0.4407
 7968SOL     OW26858   2.496   2.683   9.933 -0.3879  0.2023 -0.3313
 7968SOL    HW126859   2.410   2.683   9.973  0.4236  0.3798  1.4893
 7968SOL    HW226860   2.555   2.652  10.001  1.0087  0.1094 -1.5183
 7969SOL     OW26861   1.540   7.679   6.630 -0.2015  0.4459 -0.0237
 7969SOL    HW126862   1.548   7.583   6.630 -0.9967  0.3536  1.0925
 7969SOL    HW226863   1.627   7.711   6.608 -0.1495 -0.5368 -1.3783
 7970SOL     OW26864   8.526   8.494   8.251  0.1345  0.2528  0.5429
 7970SOL    HW126865   8.504   8.420   8.307  1.9852 -2.9033 -2.4452
 7970SOL    HW226866   8.442   8.522   8.215 -0.4902 -2.1119 -0.0676
 7971SOL     OW26867   8.005   6.756   4.124  0.1339 -0.0831  0.4497
 7971SOL    HW126868   7.999   6.838   4.075  0.1134 -0.3171  0.0619
 7971SOL    HW226869   8.098   6.747   4.145  0.0384  0.4004  1.1134
 7972SOL     OW26870   0.573   3.520   8.585  0.3392  0.1121  0.2271
 7972SOL    HW126871   0.667   3.513   8.602 -0.1888 -0.6709  3.4769
 7972SOL    HW226872   0.535   3.442   8.625 -1.8053  0.9781  0.0136
 7973SOL     OW26873   3.511   2.900   2.391  0.7956  0.5111  0.2809
 7973SOL    HW126874   3.538   2.914   2.301  2.1668 -1.4678  0.3159
 7973SOL    HW226875   3.587   2.926   2.443  2.0141 -3.0450  0.5130
 7974SOL     OW26876   6.712   9.006   9.885  0.3094 -0.0626 -0.2556
 7974SOL    HW126877   6.731   9.091   9.847 -0.3692  0.1901 -0.0458
 7974SOL    HW226878   6.788   8.986   9.940  0.4147  0.4679 -0.2082
 7975SOL     OW26879   7.922   8.647   0.997 -0.0342  0.6682  0.6308
 7975SOL    HW126880   7.907   8.552   0.999 -0.9331  0.7828  0.0622
 7975SOL    HW226881   7.943   8.670   1.087  0.9787 -0.1840  0.6353
 7976SOL     OW26882   8.253   1.770   7.608 -0.0269 -0.0842  0.0690
 7976SOL    HW126883   8.302   1.732   7.681 -2.1764 -3.2259  0.0581
 7976SOL    HW226884   8.313   1.833   7.569  3.1033 -2.0354  1.3951
 7977SOL     OW26885   1.819   2.409   4.549 -0.5137 -0.5597 -0.1174
 7977SOL    HW126886   1.834   2.330   4.497 -0.5572 -0.6840  0.0590
 7977SOL    HW226887   1.778   2.378   4.629 -0.7335 -0.3359 -0.1392
 7978SOL     OW26888   2.078   6.896   8.226  0.2110 -0.2448  0.2983
 7978SOL    HW126889   2.096   6.810   8.263  1.4094 -0.1637 -0.0508
 7978SOL    HW226890   2.018   6.937   8.288 -1.2937 -1.7345 -0.0972
 7979SOL     OW26891   4.770   3.209   3.093  0.0493 -0.5363 -0.4646
 7979SOL    HW126892   4.786   3.198   3.187  1.7362 -2.7035 -0.9237
 7979SOL    HW226893   4.832   3.277   3.066 -1.1945  0.8838  0.1312
 7980SOL     OW26894   9.952   6.844   6.230 -0.4157  0.2704  0.0894
 7980SOL    HW126895  10.038   6.847   6.187 -0.0778  1.7784  0.7983
 7980SOL    HW226896   9.902   6.913   6.186 -0.6736  0.5738  0.8539
 7981SOL     OW26897   1.402   1.626   3.679 -0.6937 -0.3360  0.1179
 7981SOL    HW126898   1.329   1.585   3.727 -0.4599 -1.1313 -0.1956
 7981SOL    HW226899   1.470   1.559   3.677 -0.6558 -0.2895 -1.2298
 7982SOL     OW26900   6.113   1.658   2.678 -0.0013 -0.2509 -0.3231
 7982SOL    HW126901   6.131   1.568   2.707  2.8227  0.9321  2.1163
 7982SOL    HW226902   6.140   1.659   2.587  5.4867 -0.7834  0.9179
 7983SOL     OW26903   3.396   1.120   0.288 -0.5727  0.0280 -0.1845
 7983SOL    HW126904   3.350   1.185   0.235 -3.7206 -2.3131 -0.6599
 7983SOL    HW226905   3.340   1.042   0.284  1.3203 -1.7243  2.9315
 7984SOL     OW26906   3.473   8.442   1.169 -0.0299  0.0932  0.2580
 7984SOL    HW126907   3.396   8.446   1.112  0.5160  0.9912 -0.4437
 7984SOL    HW226908   3.514   8.528   1.160 -0.0639  0.3591  2.2234
 7985SOL     OW26909   1.959   1.148   4.410 -0.1917  0.0644 -0.1090
 7985SOL    HW126910   1.877   1.187   4.379 -2.5732 -3.3460  1.2106
 7985SOL    HW226911   1.983   1.086   4.342  0.5684  0.0918  0.1243
 7986SOL     OW26912   9.713   6.982   1.493  0.1695 -0.0044 -0.2646
 7986SOL    HW126913   9.788   6.932   1.526  1.9485  2.6716 -0.0003
 7986SOL    HW226914   9.636   6.935   1.527  1.7810 -0.8591  2.4539
 7987SOL     OW26915   2.964   6.790   8.338 -0.0952  0.2318 -0.0770
 7987SOL    HW126916   3.057   6.770   8.326  0.0200  0.1215  0.9699
 7987SOL    HW226917   2.950   6.868   8.285  0.5591  0.1777 -0.3448
 7988SOL     OW26918   4.751   8.656   9.979 -0.1314  0.2627  0.0267
 7988SOL    HW126919   4.827   8.657   9.921  0.0843  0.0364  0.3009
 7988SOL    HW226920   4.771   8.588  10.043 -0.3172  0.5933  0.4362
 7989SOL     OW26921   5.385   5.414   0.492  0.5024 -0.3858  0.2244
 7989SOL    HW126922   5.388   5.466   0.412  0.5482 -0.6003  0.0848
 7989SOL    HW226923   5.333   5.466   0.553  0.4331 -0.2402  0.0408
 7990SOL     OW26924   1.990   7.977   8.744 -0.5454 -0.6674 -0.0331
 7990SOL    HW126925   2.032   8.033   8.678  0.1455 -0.6910  0.3712
 7990SOL    HW226926   1.980   8.034   8.821 -1.9339 -0.4524 -0.3450
 7991SOL     OW26927   7.108   5.709   0.256  0.0214 -0.0024  0.3425
 7991SOL    HW126928   7.182   5.760   0.289 -0.4128  0.4955  0.5737
 7991SOL    HW226929   7.046   5.775   0.223  0.2251 -0.4740 -1.0145
 7992SOL     OW26930   6.275   4.282   7.318 -0.0084 -0.1834 -0.1869
 7992SOL    HW126931   6.251   4.189   7.313 -1.2240  0.1270 -0.4404
 7992SOL    HW226932   6.265   4.304   7.411  0.2605 -0.3036 -0.1299
 7993SOL     OW26933   5.670   1.779   7.191  0.2607  0.4470  0.2477
 7993SOL    HW126934   5.645   1.861   7.149 -0.5723 -0.8260 -1.9163
 7993SOL    HW226935   5.607   1.768   7.262 -1.0493  0.6253 -0.8582
 7994SOL     OW26936   1.464   4.770   8.102  0.5623  0.2500 -0.1553
 7994SOL    HW126937   1.466   4.842   8.166  0.9415  0.3111 -0.2312
 7994SOL    HW226938   1.372   4.747   8.094  0.6285 -1.1023  1.9366
 7995SOL     OW26939   6.047   3.164   3.237 -0.6989  0.3229 -0.1347
 7995SOL    HW126940   6.142   3.174   3.226 -0.6336  0.3135  0.3850
 7995SOL    HW226941   6.023   3.094   3.176 -0.0643 -0.9778  1.0532
 7996SOL     OW26942   5.900   7.838   4.148  0.1003 -0.4553 -0.2946
 7996SOL    HW126943   5.876   7.889   4.071  1.4309  0.4053 -0.1877
 7996SOL    HW226944   5.883   7.747   4.123 -1.9157 -0.0174 -0.6489
 7997SOL     OW26945   9.189   5.840   7.900  0.1011 -0.2334 -0.2980
 7997SOL    HW126946   9.136   5.841   7.979 -0.1842 -2.7611 -0.3828
 7997SOL    HW226947   9.267   5.791   7.924  0.0003 -1.0604 -1.5791
 7998SOL     OW26948   9.118   9.166   9.894 -0.1004  0.4373  0.0610
 7998SOL    HW126949   9.134   9.082   9.851 -0.9199  0.3054 -0.0089
 7998SOL    HW226950   9.106   9.144   9.986 -1.0245  0.3707 -0.0602
 7999SOL     OW26951   0.194   2.183   2.216 -0.1441 -0.7791  0.4443
 7999SOL    HW126952   0.271   2.170   2.159  2.0923 -1.0975  3.3227
 7999SOL    HW226953   0.182   2.278   2.218  0.6028 -0.6771  0.4553
 8000SOL     OW26954   8.721   7.448   7.249  0.3975  0.0907 -0.1125
 8000SOL    HW126955   8.707   7.353   7.249 -1.7720  0.3645 -0.6817
 8000SOL    HW226956   8.633   7.485   7.244  1.0811  2.1903  1.8878
 8001SOL     OW26957   6.754   9.888   6.393  0.1593 -0.0469  0.2691
 8001SOL    HW126958   6.727   9.806   6.351 -1.3739  0.3337  0.4180
 8001SOL    HW226959   6.818   9.926   6.333 -0.7537 -0.3162 -0.9171
 8002SOL     OW26960   1.308   3.679   0.697  0.6392 -0.7053  0.2296
 8002SOL    HW126961   1.336   3.591   0.719 -1.2327 -1.2091  0.8430
 8002SOL    HW226962   1.214   3.671   0.682  0.1385  1.4117  1.7317
 8003SOL     OW26963   0.086   9.904   9.755  0.0090 -0.5713  0.0711
 8003SOL    HW126964   0.027   9.967   9.713  1.0276 -1.2766 -2.5722
 8003SOL    HW226965   0.029   9.834   9.786 -0.9106  0.6228  1.2454
 8004SOL     OW26966   3.310   6.757   0.163 -0.0211 -0.5797 -0.4382
 8004SOL    HW126967   3.262   6.763   0.246 -1.4294  0.3937 -1.2899
 8004SOL    HW226968   3.376   6.827   0.169  0.7548 -1.3511  0.3694
 8005SOL     OW26969  10.435   9.275  10.290  0.1441  0.1479  0.4470
 8005SOL    HW126970  10.374   9.212  10.251  1.2175 -0.4599 -0.3112
 8005SOL    HW226971  10.519   9.254  10.250  0.7186  1.4296  0.9386
 8006SOL     OW26972   5.882   5.151   9.686  0.2115 -0.6840  0.2547
 8006SOL    HW126973   5.823   5.099   9.740  0.1358  0.3876  1.2121
 8006SOL    HW226974   5.859   5.126   9.596 -2.0753  0.0960  0.5639
 8007SOL     OW26975   2.564   4.648   5.254 -0.2228 -0.9229  0.6067
 8007SOL    HW126976   2.585   4.555   5.263 -1.4176 -1.2285  0.4871
 8007SOL    HW226977   2.598   4.688   5.334  0.0232 -1.5248  0.8095
 8008SOL     OW26978   1.329   9.526   0.480 -0.5629 -0.5074  0.5984
 8008SOL    HW126979   1.389   9.597   0.503  0.6519 -1.5251  0.7008
 8008SOL    HW226980   1.272   9.563   0.414  0.3457  0.4358  0.3156
 8009SOL     OW26981  10.347   0.526   9.523 -0.0252 -0.3135  0.8359
 8009SOL    HW126982  10.370   0.613   9.554  1.5696 -0.6200  0.6064
 8009SOL    HW226983  10.305   0.541   9.438 -1.7484  0.3337  1.7477
 8010SOL     OW26984  10.258   7.346   4.885 -0.2550 -0.8348 -0.3611
 8010SOL    HW126985  10.168   7.365   4.859  0.2004  0.6451 -0.9221
 8010SOL    HW226986  10.297   7.302   4.809 -0.8896 -2.8111  0.4081
 8011SOL     OW26987   4.928   7.914   8.715  0.3770  0.2363 -0.1024
 8011SOL    HW126988   4.915   7.907   8.621  1.6033  1.8087 -0.4373
 8011SOL    HW226989   5.015   7.877   8.730  0.4386  0.5347  0.3129
 8012SOL     OW26990   6.539   3.016   0.529 -0.7235  0.1327  0.0712
 8012SOL    HW126991   6.521   3.099   0.574 -2.5744 -0.4081  0.3862
 8012SOL    HW226992   6.503   3.028   0.441 -0.6168 -0.1967 -0.0181
 8013SOL     OW26993   9.803  10.216   8.606 -0.5119  0.3779 -0.2890
 8013SOL    HW126994   9.835  10.279   8.670  0.5756 -0.4899  0.0416
 8013SOL    HW226995   9.837  10.247   8.522  0.3224  0.0420 -0.0787
 8014SOL     OW26996   0.091   8.686   0.619 -0.3029 -0.5122  0.0659
 8014SOL    HW126997   0.175   8.664   0.579 -0.8647 -0.3396 -1.2749
 8014SOL    HW226998   0.041   8.604   0.616 -0.9768 -0.0964 -1.2854
 8015SOL     OW26999   2.739   5.988   5.597  0.5129 -0.3166 -0.6984
 8015SOL    HW127000   2.811   6.002   5.659  0.7038 -1.1057 -0.7369
 8015SOL    HW227001   2.724   6.074   5.558  2.7613 -0.4981 -2.1494
 8016SOL     OW27002   1.494   0.830  10.632  0.0068  0.1695 -0.9170
 8016SOL    HW127003   1.408   0.792  10.648 -0.4927  1.2069 -1.0537
 8016SOL    HW227004   1.528   0.851  10.719 -0.3874  0.8262 -0.9136
 8017SOL     OW27005   6.769   4.784   2.016 -0.1537  0.0471  0.1558
 8017SOL    HW127006   6.796   4.692   2.020 -0.4716 -0.1115 -0.9437
 8017SOL    HW227007   6.687   4.786   2.064  0.0530 -0.1689  0.5226
 8018SOL     OW27008   6.070   8.185   2.453 -0.7409 -0.1267 -0.4241
 8018SOL    HW127009   5.994   8.209   2.506  0.0952  1.6108  0.0536
 8018SOL    HW227010   6.139   8.169   2.517 -0.1549  0.3677 -0.9275
 8019SOL     OW27011   9.058   1.720   5.539 -0.1540  0.3919  0.2932
 8019SOL    HW127012   9.036   1.743   5.448  0.2854  1.2757  0.3950
 8019SOL    HW227013   9.104   1.636   5.532  1.0553  1.0796 -0.4667
 8020SOL     OW27014   5.394   3.099   0.051 -0.2606  0.2146  0.2245
 8020SOL    HW127015   5.359   3.160  -0.013 -1.3380  0.0618  0.6437
 8020SOL    HW227016   5.340   3.020   0.041  1.1546 -0.7066 -0.3562
 8021SOL     OW27017   9.909   1.211   0.086  0.3843 -0.5694 -0.1308
 8021SOL    HW127018   9.860   1.152   0.143  1.8562 -0.4270  1.3766
 8021SOL    HW227019   9.944   1.277   0.146  1.5529 -0.1098 -1.2895
 8022SOL     OW27020   7.239   1.789   9.076 -0.4027  0.1620 -0.0929
 8022SOL    HW127021   7.227   1.802   9.170 -0.7394 -0.9335  0.0278
 8022SOL    HW227022   7.225   1.695   9.063 -0.8687  0.3906 -1.3164
 8023SOL     OW27023  10.595   7.568   9.979 -0.4763  0.1231 -0.7582
 8023SOL    HW127024  10.516   7.516   9.963  0.0590 -0.8527 -0.3119
 8023SOL    HW227025  10.638   7.572   9.893 -1.1762  0.9642 -1.0820
 8024SOL     OW27026   4.806   9.286   0.265 -0.2084  0.1845 -0.4569
 8024SOL    HW127027   4.771   9.200   0.289  2.2908 -1.2708 -1.5913
 8024SOL    HW227028   4.816   9.332   0.348  0.7786 -1.6470  0.5062
 8025SOL     OW27029   0.207   8.129   0.897  0.1071  0.4488  0.1966
 8025SOL    HW127030   0.144   8.097   0.833  0.7394 -1.0423  0.2736
 8025SOL    HW227031   0.257   8.051   0.921 -0.7096  0.7542  3.2134
 8026SOL     OW27032   0.785   5.905   7.811 -0.1529  0.0275 -0.0342
 8026SOL    HW127033   0.801   5.968   7.741  1.3035  1.1662  1.2502
 8026SOL    HW227034   0.738   5.956   7.878 -2.0047 -1.1692 -0.3378
 8027SOL     OW27035   8.032   9.086   3.206  0.3424  0.5476  0.4308
 8027SOL    HW127036   8.111   9.139   3.202  0.4927  0.2313 -1.2399
 8027SOL    HW227037   8.055   9.003   3.165 -1.3581  1.1643 -1.9912
 8028SOL     OW27038   9.781  10.506   9.360  0.4579 -0.3109  0.0545
 8028SOL    HW127039   9.858  10.506   9.302  2.0519 -2.0124  1.9901
 8028SOL    HW227040   9.757  10.598   9.368  4.5419  0.8351  2.0336
 8029SOL     OW27041  10.180   6.374   4.544  0.5940  0.0778  0.4921
 8029SOL    HW127042  10.129   6.424   4.608 -0.8103  0.1954 -0.6634
 8029SOL    HW227043  10.191   6.288   4.584 -1.2544 -0.2145  0.4439
 8030SOL     OW27044   5.483   7.985  10.156 -0.0600 -0.7235 -0.8854
 8030SOL    HW127045   5.533   7.974  10.237 -1.0532  0.0716 -0.1381
 8030SOL    HW227046   5.522   7.922  10.095  0.7921 -1.2457  0.1622
 8031SOL     OW27047   3.461  10.148   2.427 -0.1421 -0.2554 -0.1027
 8031SOL    HW127048   3.528  10.217   2.426  0.8957 -1.2298  0.6641
 8031SOL    HW227049   3.494  10.083   2.489 -0.4563 -2.0731 -1.7477
 8032SOL     OW27050   5.552   3.138   3.780 -0.0895  0.2735  0.7242
 8032SOL    HW127051   5.615   3.140   3.852  1.9894 -1.2667 -0.9479
 8032SOL    HW227052   5.596   3.184   3.708 -1.1919 -0.1599 -0.2544
 8033SOL     OW27053   2.861   7.763  10.535 -0.0467  0.3721 -0.0948
 8033SOL    HW127054   2.808   7.694  10.573 -0.5055  0.9212  0.2837
 8033SOL    HW227055   2.946   7.723  10.518 -0.7844 -0.7361 -1.3936
 8034SOL     OW27056   7.055   9.754   3.608 -0.6878  0.1138  0.4481
 8034SOL    HW127057   7.058   9.680   3.670  0.4768 -0.6177 -0.4328
 8034SOL    HW227058   6.974   9.800   3.629 -0.3318 -0.1149  2.5145
 8035SOL     OW27059   1.082   1.912   4.606 -0.1431  0.0733 -0.2001
 8035SOL    HW127060   1.116   1.997   4.632  1.1886 -0.6526  0.4884
 8035SOL    HW227061   1.118   1.898   4.518  0.2601 -0.1126 -0.0059
 8036SOL     OW27062   5.764   8.944   5.098 -1.0247 -0.0239 -0.1407
 8036SOL    HW127063   5.858   8.925   5.102 -0.9680  0.4035  0.7830
 8036SOL    HW227064   5.741   8.932   5.005 -0.1301 -0.4287 -0.3216
 8037SOL     OW27065   4.093   7.288   3.854 -0.2482 -0.0606  0.0486
 8037SOL    HW127066   4.000   7.270   3.863 -0.2872  0.4001  0.6384
 8037SOL    HW227067   4.111   7.356   3.919  0.5166 -0.2022 -0.0021
 8038SOL     OW27068   0.247   8.870   3.553  0.1720 -0.1119  0.0045
 8038SOL    HW127069   0.192   8.921   3.613 -1.2688 -0.7077 -0.7782
 8038SOL    HW227070   0.195   8.862   3.473  0.0748 -3.2766  0.2696
 8039SOL     OW27071   8.526   8.950   1.952  0.0112  0.1495  0.0232
 8039SOL    HW127072   8.469   8.927   1.878 -1.7727  0.4160  1.2381
 8039SOL    HW227073   8.597   8.887   1.948 -0.6700 -0.5815 -1.2329
 8040SOL     OW27074   8.683   4.179   0.546  0.0879 -0.3929 -0.3546
 8040SOL    HW127075   8.717   4.145   0.463 -0.2483 -0.7172 -0.3598
 8040SOL    HW227076   8.703   4.110   0.609  1.2611  0.2780  0.0411
 8041SOL     OW27077   8.777   5.518   2.699 -0.1494 -0.1645  0.3550
 8041SOL    HW127078   8.810   5.523   2.788 -0.3107 -0.1564  0.4148
 8041SOL    HW227079   8.855   5.510   2.644 -0.1106 -1.5842  0.5997
 8042SOL     OW27080   2.510   5.264   3.284 -0.1844 -0.4884 -0.1744
 8042SOL    HW127081   2.597   5.225   3.290 -0.5937 -1.2641  2.7933
 8042SOL    HW227082   2.516   5.344   3.336 -1.2825 -0.7598  0.4092
 8043SOL     OW27083   4.915   1.049   0.609  0.3271  0.2615 -0.1814
 8043SOL    HW127084   4.932   1.071   0.517 -0.2644  2.1493  0.1285
 8043SOL    HW227085   4.998   1.062   0.653  0.6096 -0.6360 -0.4256
 8044SOL     OW27086  10.576   3.776   0.227 -0.0342 -0.5592  0.6236
 8044SOL    HW127087  10.617   3.690   0.236 -0.4140 -0.8344 -0.1145
 8044SOL    HW227088  10.603   3.806   0.140 -0.7781 -0.4182  0.4294
 8045SOL     OW27089   6.841   5.563   9.551 -0.6779  0.5202 -0.1838
 8045SOL    HW127090   6.884   5.479   9.536  2.8723  2.3174 -1.2185
 8045SOL    HW227091   6.873   5.620   9.481 -0.1513  3.6335  2.3485
 8046SOL     OW27092   3.939   2.480   9.910  0.0779 -0.1625  0.2980
 8046SOL    HW127093   3.968   2.537   9.981  0.2903 -2.0779  1.8064
 8046SOL    HW227094   3.844   2.475   9.920  0.2306 -1.4068  1.2309
 8047SOL     OW27095   7.300   5.344  10.608 -0.0177  0.0411  0.2754
 8047SOL    HW127096   7.347   5.336  10.525  0.1969 -2.4266  0.5566
 8047SOL    HW227097   7.215   5.302  10.592 -0.1777  0.0015  1.1647
 8048SOL     OW27098   9.011   7.220   5.907  0.1863  0.0301 -0.4787
 8048SOL    HW127099   8.924   7.232   5.946 -0.1012 -4.6087  0.9437
 8048SOL    HW227100   8.995   7.220   5.813 -1.2532 -0.0927 -0.2565
 8049SOL     OW27101   0.397   1.500   2.947 -0.4277  0.6599 -0.0198
 8049SOL    HW127102   0.473   1.528   2.998 -1.2086  0.8154  1.0973
 8049SOL    HW227103   0.420   1.414   2.913  0.0602  0.4963  0.7188
 8050SOL     OW27104   2.680   1.868   1.589  0.1830  0.0893 -0.3996
 8050SOL    HW127105   2.710   1.958   1.576  1.2923 -0.4796 -2.1080
 8050SOL    HW227106   2.730   1.836   1.664 -0.5393  1.0043  0.4975
 8051SOL     OW27107   9.030   4.876   3.115 -0.0413  1.0091  0.4435
 8051SOL    HW127108   8.958   4.930   3.147 -1.6492 -0.3372 -0.7483
 8051SOL    HW227109   9.038   4.898   3.023  1.3692  1.4130  0.6329
 8052SOL     OW27110   2.947  10.029   5.150 -0.2555 -0.1848 -0.7117
 8052SOL    HW127111   2.988  10.094   5.208  1.1337  0.1365 -1.9951
 8052SOL    HW227112   2.882   9.986   5.205 -1.2782  2.3114  0.1916
 8053SOL     OW27113   5.656   6.705   4.040  0.4488  0.0334  0.5310
 8053SOL    HW127114   5.641   6.692   4.134 -0.6907  1.8643  0.6405
 8053SOL    HW227115   5.596   6.643   3.998  0.9012 -0.7368  0.9970
 8054SOL     OW27116   1.294   0.967   8.882  0.6618 -0.1335  0.3007
 8054SOL    HW127117   1.230   1.017   8.832  1.1951  0.9926  0.7156
 8054SOL    HW227118   1.244   0.925   8.952  0.1027 -0.7529 -0.4583
 8055SOL     OW27119   3.818   4.876  10.015  0.2351 -0.0361  0.2249
 8055SOL    HW127120   3.775   4.957   9.988 -0.2214 -0.1267  0.6657
 8055SOL    HW227121   3.887   4.904  10.076 -0.0834  0.0076  0.5711
 8056SOL     OW27122   3.977   4.682   5.086 -0.6370 -0.5259  0.1716
 8056SOL    HW127123   3.921   4.740   5.137 -2.1455 -1.6583 -0.1238
 8056SOL    HW227124   4.012   4.620   5.149  0.1655  0.0588  0.3230
 8057SOL     OW27125   5.800   3.944   8.858  0.2834  0.0530  0.0806
 8057SOL    HW127126   5.813   4.034   8.831  1.0117 -0.2158 -0.4821
 8057SOL    HW227127   5.722   3.947   8.915  0.8066  1.1560  0.7693
 8058SOL     OW27128   7.416   1.697   3.151  0.3122  0.5696 -0.7346
 8058SOL    HW127129   7.383   1.608   3.139  0.3114  0.0196  2.4342
 8058SOL    HW227130   7.510   1.685   3.167  0.0586  0.8942  1.2522
 8059SOL     OW27131   6.667  10.693   5.120  0.0701  0.0439 -0.0666
 8059SOL    HW127132   6.694  10.614   5.167 -2.2119 -0.1772  1.0306
 8059SOL    HW227133   6.740  10.754   5.130  1.9518 -1.9208 -1.0721
 8060SOL     OW27134  10.464   1.557   6.680 -0.5648  0.0995 -0.2487
 8060SOL    HW127135  10.463   1.466   6.710 -0.9490 -0.2399 -1.2688
 8060SOL    HW227136  10.557   1.578   6.671 -0.4577  0.0438  0.6762
 8061SOL     OW27137   0.938   4.684   5.218  0.0233  0.2342 -0.0012
 8061SOL    HW127138   0.867   4.743   5.192  1.1514  1.2907 -0.7811
 8061SOL    HW227139   0.917   4.661   5.309 -0.1049  2.4047  0.5835
 8062SOL     OW27140   1.652  10.032   5.989  0.0499  0.1491 -0.1563
 8062SOL    HW127141   1.710  10.086   5.935  1.5184 -1.8789 -0.7061
 8062SOL    HW227142   1.631   9.957   5.934  0.1224 -1.0974  1.4425
 8063SOL     OW27143  10.467   0.247   3.212 -0.0221 -0.3716  0.7106
 8063SOL    HW127144  10.444   0.259   3.120 -2.5616 -0.0999  1.2933
 8063SOL    HW227145  10.518   0.166   3.214 -0.7577 -0.9110 -0.8278
 8064SOL     OW27146   8.888   7.459   2.340 -0.9369  0.2774  0.2969
 8064SOL    HW127147   8.983   7.460   2.328 -0.9375  1.0563  0.3201
 8064SOL    HW227148   8.870   7.375   2.382 -0.6143 -1.3215 -2.4994
 8065SOL     OW27149   0.464   0.839   1.446  0.1572 -0.0767  0.2834
 8065SOL    HW127150   0.507   0.812   1.365 -1.4050 -0.1446 -0.5720
 8065SOL    HW227151   0.425   0.759   1.480 -0.6790  0.2560  0.1401
 8066SOL     OW27152   2.967   4.118   8.784 -0.2361  0.3384 -0.1502
 8066SOL    HW127153   3.026   4.044   8.798 -0.3593  0.1787 -0.4685
 8066SOL    HW227154   2.883   4.077   8.762 -0.5922  0.5556  0.7867
 8067SOL     OW27155   3.945   1.243   9.008 -0.5855  0.0226  0.0802
 8067SOL    HW127156   3.936   1.307   8.938  2.3985 -0.6866 -1.0838
 8067SOL    HW227157   3.989   1.168   8.968  1.9838 -0.1351  2.7658
 8068SOL     OW27158   2.297   1.314   7.157 -0.0608  0.2045 -0.2075
 8068SOL    HW127159   2.208   1.282   7.142 -0.8075  3.0379 -2.9296
 8068SOL    HW227160   2.353   1.253   7.110 -0.3751 -1.8780  1.9074
 8069SOL     OW27161   7.482   6.934   6.696  0.6610  0.5950  0.3586
 8069SOL    HW127162   7.508   6.915   6.786 -0.7608 -0.3407  0.6049
 8069SOL    HW227163   7.504   7.026   6.684  1.6552  0.5205  1.3684
 8070SOL     OW27164   3.791   7.798   3.710 -0.4572  0.1357  0.2049
 8070SOL    HW127165   3.829   7.881   3.682 -1.0409 -0.0649 -1.2694
 8070SOL    HW227166   3.857   7.733   3.687  0.0125  0.1645  1.3863
 8071SOL     OW27167   6.449   0.985   8.186  0.1556  0.4188  0.0506
 8071SOL    HW127168   6.418   0.909   8.138 -3.7877  1.4601  0.6152
 8071SOL    HW227169   6.413   1.060   8.139  2.5122  1.9222  0.4633
 8072SOL     OW27170   3.624   3.537   6.554 -0.0599  0.3067 -0.0019
 8072SOL    HW127171   3.571   3.544   6.633 -1.1215 -2.9088 -0.2858
 8072SOL    HW227172   3.562   3.547   6.482  0.3206  0.0973 -0.3675
 8073SOL     OW27173   1.439  10.353   6.599  0.2766  0.2289 -0.4535
 8073SOL    HW127174   1.418  10.385   6.687  0.5539  0.3037 -0.4156
 8073SOL    HW227175   1.387  10.273   6.591  1.9216 -1.0140  0.6364
 8074SOL     OW27176   6.250   7.309   9.598  0.2612  0.5087 -0.2565
 8074SOL    HW127177   6.194   7.240   9.634 -0.3903  1.0207 -0.2577
 8074SOL    HW227178   6.226   7.387   9.647  1.0136  0.7361 -0.2381
 8075SOL     OW27179   6.279   7.480   1.221 -0.0688  0.2185  0.0528
 8075SOL    HW127180   6.366   7.514   1.197  0.2079  0.3429  1.1666
 8075SOL    HW227181   6.220   7.518   1.156  0.7936 -0.4498 -1.1746
 8076SOL     OW27182   6.705   8.365   8.087  0.4308  0.2884 -0.1485
 8076SOL    HW127183   6.650   8.296   8.124 -0.2032  0.5582 -0.5741
 8076SOL    HW227184   6.679   8.445   8.134  0.3783  0.4360 -0.4248
 8077SOL     OW27185   9.654   2.846   9.611  0.0446  0.1169 -0.0185
 8077SOL    HW127186   9.641   2.765   9.659 -0.9570 -0.1592 -0.7257
 8077SOL    HW227187   9.745   2.871   9.629  0.0763 -0.6632  0.9445
 8078SOL     OW27188   2.727   0.257   3.377  0.0612  0.3078 -0.3473
 8078SOL    HW127189   2.661   0.319   3.408 -0.5193 -0.6793  0.4407
 8078SOL    HW227190   2.683   0.206   3.309 -0.0170 -0.4201  0.2495
 8079SOL     OW27191   7.916   4.335   0.333 -0.0728 -0.4512 -0.0747
 8079SOL    HW127192   7.852   4.365   0.269 -0.3995 -0.1816  0.3677
 8079SOL    HW227193   7.917   4.240   0.324  0.2059 -0.3844 -0.7743
 8080SOL     OW27194   8.835   6.020   4.921  0.2025 -0.7688 -0.5059
 8080SOL    HW127195   8.754   6.050   4.963 -0.2388 -2.0125 -0.4217
 8080SOL    HW227196   8.807   5.989   4.835  0.5834 -1.2070 -0.4743
 8081SOL     OW27197   5.193   6.450   7.683 -0.4073 -0.2838  0.5735
 8081SOL    HW127198   5.202   6.355   7.684  0.0560 -0.2402  0.9876
 8081SOL    HW227199   5.225   6.476   7.597 -0.7443 -0.5193  0.3738
 8082SOL     OW27200   6.567   5.443   2.448 -0.3038 -0.2810  0.5478
 8082SOL    HW127201   6.567   5.536   2.471  1.8088 -0.4698  1.5214
 8082SOL    HW227202   6.563   5.397   2.533 -0.3570 -1.0703  0.1321
 8083SOL     OW27203   4.116   9.197   9.243  0.1920  0.0566 -0.1118
 8083SOL    HW127204   4.113   9.107   9.275 -1.7490 -0.1781 -0.7950
 8083SOL    HW227205   4.109   9.251   9.321 -0.1719 -0.4261  0.1987
 8084SOL     OW27206   1.120   8.356   1.182 -0.4645 -0.4634 -0.0092
 8084SOL    HW127207   1.136   8.439   1.228  0.1379 -0.1948 -0.6788
 8084SOL    HW227208   1.070   8.303   1.244 -0.9376  0.4343  0.3979
 8085SOL     OW27209   7.184   8.493   1.908 -0.5460  0.1519 -0.1136
 8085SOL    HW127210   7.198   8.497   2.003  3.1178  1.7348 -0.5512
 8085SOL    HW227211   7.183   8.584   1.880  1.9968 -0.2738 -1.9037
 8086SOL     OW27212   8.930   5.268  10.105 -0.2854 -0.2790  0.4259
 8086SOL    HW127213   8.945   5.363  10.102 -0.1753 -0.2667  1.1601
 8086SOL    HW227214   8.865   5.252  10.037 -1.2305  0.5143  1.1027
 8087SOL     OW27215   4.758   6.629   5.603 -0.0352  0.1572  0.6503
 8087SOL    HW127216   4.852   6.612   5.610  0.0260  0.3598  0.3801
 8087SOL    HW227217   4.734   6.598   5.516 -0.5149 -1.1838  1.2451
 8088SOL     OW27218   2.336   5.635   7.988 -1.1047  0.1167  0.1017
 8088SOL    HW127219   2.258   5.601   8.032 -0.9614  0.4820  0.6379
 8088SOL    HW227220   2.339   5.586   7.905 -1.5129 -0.3956  0.3809
 8089SOL     OW27221   6.512   6.416   5.160 -0.8560 -0.5809 -0.0850
 8089SOL    HW127222   6.529   6.509   5.171 -0.3072 -0.4825 -1.5455
 8089SOL    HW227223   6.420   6.410   5.138 -1.0728 -0.4682  0.7502
 8090SOL     OW27224   2.405   4.829   5.664  0.0181 -0.8139  0.2661
 8090SOL    HW127225   2.342   4.849   5.733  0.9053 -0.6840  1.0632
 8090SOL    HW227226   2.411   4.734   5.664  0.7829 -0.7749  1.0921
 8091SOL     OW27227   0.009   5.823   4.421  0.1668  0.5706  0.2592
 8091SOL    HW127228  -0.023   5.821   4.511  0.0181 -1.0915  0.1948
 8091SOL    HW227229   0.103   5.839   4.430  0.8303 -2.9658  0.9836
 8092SOL     OW27230   7.409   4.672   8.647  0.2869  0.9108  0.1146
 8092SOL    HW127231   7.487   4.626   8.614  0.3745  0.6993  0.6041
 8092SOL    HW227232   7.370   4.610   8.708  1.3283  2.1171  2.0774
 8093SOL     OW27233   5.479   7.633   4.793  0.2113 -0.1369  0.2720
 8093SOL    HW127234   5.464   7.551   4.840 -0.2901  0.2684  0.8364
 8093SOL    HW227235   5.551   7.674   4.841 -0.1613  0.1809  0.5642
 8094SOL     OW27236   7.138   7.538   2.311  0.1955 -0.4918  0.1470
 8094SOL    HW127237   7.103   7.453   2.337 -0.5965 -0.1086  0.3510
 8094SOL    HW227238   7.080   7.602   2.351  0.3871  0.1433 -0.5529
 8095SOL     OW27239   9.809   6.727   3.636 -0.1360  0.1207  0.5545
 8095SOL    HW127240   9.752   6.787   3.588  0.6138  0.9076  0.6356
 8095SOL    HW227241   9.838   6.664   3.570 -1.9081 -0.9403  0.7129
 8096SOL     OW27242   3.996   9.364   5.046 -0.5657 -0.0125  0.2185
 8096SOL    HW127243   4.033   9.277   5.031 -0.1972 -0.0407  1.2172
 8096SOL    HW227244   4.058   9.424   5.005 -1.0085 -0.2191 -0.8032
 8097SOL     OW27245   9.862   6.206   4.215  0.6398  0.5455 -0.6117
 8097SOL    HW127246   9.943   6.229   4.261 -0.4482 -1.1665  2.4714
 8097SOL    HW227247   9.891   6.160   4.136  2.7036  0.1217  0.3334
 8098SOL     OW27248   1.592   1.165   3.270  0.0854  0.8676  0.2786
 8098SOL    HW127249   1.638   1.082   3.279 -1.3510 -0.3331 -2.3862
 8098SOL    HW227250   1.521   1.161   3.334 -0.4199 -0.3163 -0.3339
 8099SOL     OW27251   2.336   4.983   9.465  0.3897 -0.5363  0.0719
 8099SOL    HW127252   2.431   4.968   9.458  0.4490 -0.2522  0.2371
 8099SOL    HW227253   2.317   4.966   9.557  0.5289  0.7517  0.3640
 8100SOL     OW27254   3.959   7.968   1.814  1.0561 -0.2213 -0.2228
 8100SOL    HW127255   3.997   8.032   1.874 -1.1934  0.3447  0.6949
 8100SOL    HW227256   3.886   7.930   1.862 -0.8550  0.2599 -2.5657
 8101SOL     OW27257   6.623   5.128   2.425 -0.5528  0.5548 -0.0306
 8101SOL    HW127258   6.550   5.138   2.487 -1.2593  0.0752 -0.7582
 8101SOL    HW227259   6.585   5.150   2.340 -0.2048 -0.9515 -0.6020
 8102SOL     OW27260   4.216   6.962   9.014  0.0214 -0.4005 -0.6931
 8102SOL    HW127261   4.280   6.948   8.944  0.1418 -1.9156 -0.3222
 8102SOL    HW227262   4.269   6.969   9.094 -0.2424 -1.2332 -0.4378
 8103SOL     OW27263   3.905   8.188   6.508  0.3252  0.1301 -0.6888
 8103SOL    HW127264   3.987   8.226   6.539 -0.1939 -1.0258  2.4551
 8103SOL    HW227265   3.838   8.253   6.533 -0.2062 -1.2379  1.7909
 8104SOL     OW27266   6.396   9.731   7.618  0.8729  0.1362 -0.0817
 8104SOL    HW127267   6.486   9.721   7.649  1.4276  2.9793 -0.4866
 8104SOL    HW227268   6.373   9.645   7.584  2.5272 -1.3600  2.2496
 8105SOL     OW27269   2.517   3.013   0.111 -0.4741 -0.1612  0.1042
 8105SOL    HW127270   2.442   3.005   0.051 -2.5283  1.0771  2.3304
 8105SOL    HW227271   2.555   3.098   0.092  0.6378 -0.9284 -1.2533
 8106SOL     OW27272   0.670   8.910   6.359  0.5154 -0.2641 -0.6644
 8106SOL    HW127273   0.706   8.910   6.270  1.0575  0.8829 -0.4553
 8106SOL    HW227274   0.742   8.939   6.415 -0.6172  1.8833 -0.2112
 8107SOL     OW27275   5.464   0.477   6.176  0.2024  0.6121 -0.2386
 8107SOL    HW127276   5.555   0.448   6.178  0.0041 -0.0578 -0.5324
 8107SOL    HW227277   5.465   0.564   6.216  1.8019  2.9458 -4.6525
 8108SOL     OW27278   3.403   1.544   2.544  0.6362 -0.5807 -0.6548
 8108SOL    HW127279   3.464   1.516   2.612  1.0359 -0.0682 -0.7872
 8108SOL    HW227280   3.335   1.592   2.592  1.2155  0.2767 -0.6479
 8109SOL     OW27281   1.056   5.246  10.654 -0.3274  0.2271  0.3228
 8109SOL    HW127282   1.083   5.212  10.569  2.3641  2.1089  0.2639
 8109SOL    HW227283   1.096   5.187  10.718  0.1323  0.4385  0.2367
 8110SOL     OW27284   2.463   9.344   6.445 -0.3824  0.3492  0.3977
 8110SOL    HW127285   2.391   9.369   6.386 -0.9681 -1.5526  0.2433
 8110SOL    HW227286   2.541   9.348   6.390 -0.3623  2.1654  0.4923
 8111SOL     OW27287   0.362   8.057   7.983  0.1922 -0.0345  0.0499
 8111SOL    HW127288   0.358   7.980   7.928 -0.6941 -0.9244  1.2948
 8111SOL    HW227289   0.328   8.128   7.928 -2.1857 -1.1964 -0.0887
 8112SOL     OW27290   8.648   2.005   2.283  0.1448 -0.0068 -0.1409
 8112SOL    HW127291   8.626   1.957   2.363 -1.4610 -1.0312 -1.1399
 8112SOL    HW227292   8.592   2.083   2.287  0.2117  0.0437 -0.1801
 8113SOL     OW27293   2.211   0.813  10.518 -0.1797 -0.7692  0.3331
 8113SOL    HW127294   2.173   0.882  10.572  1.3896 -0.1151  0.6747
 8113SOL    HW227295   2.165   0.820  10.435 -1.0579 -0.2777  0.8410
 8114SOL     OW27296   3.245   0.049   9.958 -0.1898 -0.2864 -0.0727
 8114SOL    HW127297   3.323   0.054  10.014 -0.4908 -1.9695  0.5296
 8114SOL    HW227298   3.172   0.050  10.018 -0.5895 -0.1961 -0.5543
 8115SOL     OW27299   9.036   9.232   2.449  0.2382 -0.0937  0.1622
 8115SOL    HW127300   8.973   9.165   2.475  1.7290 -1.2078  1.0578
 8115SOL    HW227301   8.984   9.297   2.402 -1.7216 -0.5045  1.6457
 8116SOL     OW27302   2.625   9.082   2.310  0.4092 -0.1382  0.5177
 8116SOL    HW127303   2.583   9.152   2.261  1.1654 -0.8373 -1.1880
 8116SOL    HW227304   2.557   9.051   2.370 -0.4740  0.8664  0.0669
 8117SOL     OW27305   8.217   0.393   1.326  0.6354 -0.6197 -0.1931
 8117SOL    HW127306   8.129   0.394   1.361  0.8764 -0.1257  0.4175
 8117SOL    HW227307   8.207   0.420   1.234  0.1093 -1.0302 -0.2597
 8118SOL     OW27308   4.228   7.376   2.474  0.3206  0.2317 -0.0912
 8118SOL    HW127309   4.310   7.333   2.450  0.4372  0.3293  0.1297
 8118SOL    HW227310   4.250   7.469   2.479  0.0483  0.3328 -0.6519
 8119SOL     OW27311   6.945   4.081   0.923  0.6007  0.1457  0.3098
 8119SOL    HW127312   6.956   3.987   0.907 -2.2569 -0.1239 -0.4515
 8119SOL    HW227313   7.009   4.100   0.993  0.6986 -2.5155  1.0752
 8120SOL     OW27314   2.938   3.021   9.187 -0.3940  0.0827 -0.2273
 8120SOL    HW127315   2.844   3.006   9.200 -0.7383  1.1640 -1.2189
 8120SOL    HW227316   2.969   3.051   9.273 -1.1500  0.5397 -0.0946
 8121SOL     OW27317   5.452   3.062   9.858 -0.0847 -0.2091  0.0481
 8121SOL    HW127318   5.474   3.140   9.909 -0.6293  0.2035 -0.3374
 8121SOL    HW227319   5.358   3.069   9.843 -0.4263 -1.7269  1.2921
 8122SOL     OW27320   3.497   6.759   1.110  0.1367  0.3422 -0.1271
 8122SOL    HW127321   3.548   6.817   1.166  0.7025 -0.8133  0.5921
 8122SOL    HW227322   3.424   6.731   1.164  1.2302 -1.5783  0.4435
 8123SOL     OW27323   4.908   3.978   5.952 -0.6296  0.0597  0.5430
 8123SOL    HW127324   4.858   3.983   6.033 -0.0100  0.5719  0.8933
 8123SOL    HW227325   4.854   4.024   5.887 -0.6469  0.5513  0.9039
 8124SOL     OW27326   5.511   7.698   7.344  0.1926 -0.3176  0.0907
 8124SOL    HW127327   5.573   7.692   7.417  0.1289 -0.7825  0.1104
 8124SOL    HW227328   5.425   7.686   7.384  0.1485 -0.4424 -0.0389
 8125SOL     OW27329   2.871   5.956   0.051 -0.4302  0.4036  0.0640
 8125SOL    HW127330   2.795   5.959  -0.006  0.7419  1.9448 -1.5165
 8125SOL    HW227331   2.881   5.863   0.073 -1.7273 -0.0431 -1.1063
 8126SOL     OW27332  10.273  10.273   8.656 -0.3746 -0.4850  0.2962
 8126SOL    HW127333  10.280  10.342   8.722  0.0227  0.8204 -1.0522
 8126SOL    HW227334  10.312  10.196   8.697  1.3401  0.7220  1.0305
 8127SOL     OW27335   1.458   5.047   7.518 -0.2598 -0.5288  0.3063
 8127SOL    HW127336   1.428   5.020   7.431  0.1542  1.7054 -0.5837
 8127SOL    HW227337   1.533   5.104   7.501 -0.5026  0.3829  2.0950
 8128SOL     OW27338   0.327   3.184   7.157  0.0427  0.0756 -0.0988
 8128SOL    HW127339   0.400   3.198   7.098 -1.5990 -0.4219 -2.3571
 8128SOL    HW227340   0.291   3.099   7.131 -1.0067  0.0448  1.3272
 8129SOL     OW27341   6.215   7.605   2.316 -0.4574 -0.2800 -0.1197
 8129SOL    HW127342   6.133   7.616   2.268 -0.0022  0.2732 -0.7829
 8129SOL    HW227343   6.188   7.582   2.405 -1.3218 -0.5305 -0.4414
 8130SOL     OW27344   8.308   3.523   1.658 -0.5769  0.7053  0.3746
 8130SOL    HW127345   8.224   3.476   1.665 -0.7427  0.7104 -1.1930
 8130SOL    HW227346   8.372   3.461   1.692 -1.1851  0.6731  1.5340
 8131SOL     OW27347   1.791   1.170   0.408 -0.4609 -0.3336  0.2370
 8131SOL    HW127348   1.871   1.119   0.418 -0.4771 -0.4727 -0.3168
 8131SOL    HW227349   1.820   1.254   0.373 -0.5021 -0.2010  0.5230
 8132SOL     OW27350   8.403   4.169   9.601  0.2391  0.9229 -0.7604
 8132SOL    HW127351   8.470   4.236   9.592 -0.6049  1.8442 -0.3158
 8132SOL    HW227352   8.326   4.215   9.633 -0.6957 -0.0658 -1.4974
 8133SOL     OW27353   3.253   1.972   3.458 -0.1314 -0.1198 -0.4632
 8133SOL    HW127354   3.179   2.001   3.511  0.7690  0.1397  0.7241
 8133SOL    HW227355   3.225   1.983   3.368 -1.8066 -0.7841 -0.0436
 8134SOL     OW27356   3.004   1.602   1.741  0.2377 -0.1500 -0.0537
 8134SOL    HW127357   2.935   1.667   1.751  0.4049 -0.2415  2.2194
 8134SOL    HW227358   3.051   1.629   1.662  0.7496  2.9453  1.1741
 8135SOL     OW27359   1.170   4.501   5.688  0.0111 -0.0053  0.3278
 8135SOL    HW127360   1.090   4.527   5.642  0.5273  0.2834 -0.4339
 8135SOL    HW227361   1.149   4.511   5.780 -0.6481  0.6376  0.1171
 8136SOL     OW27362   6.732   4.868  10.551 -0.2427 -0.7210  0.0296
 8136SOL    HW127363   6.681   4.788  10.562  1.4188 -1.8467 -0.0586
 8136SOL    HW227364   6.730   4.886  10.457  1.3148 -2.0594 -0.3079
 8137SOL     OW27365   9.000   3.876   5.066 -0.0581  0.0176  0.0704
 8137SOL    HW127366   9.036   3.950   5.115  0.0758  0.6015 -0.8836
 8137SOL    HW227367   8.935   3.839   5.125 -0.0402  0.8162  0.6225
 8138SOL     OW27368   7.260   0.610   5.030  0.6317 -0.1335  0.0883
 8138SOL    HW127369   7.218   0.687   4.990 -0.1555 -0.4591  0.2672
 8138SOL    HW227370   7.332   0.647   5.081  1.8208  0.2731 -1.7874
 8139SOL     OW27371   2.970   6.917   7.846  0.7349 -0.1614 -0.2436
 8139SOL    HW127372   3.053   6.960   7.826  1.3884 -0.9641  0.6332
 8139SOL    HW227373   2.907   6.959   7.789  1.7225  0.5584 -0.8411
 8140SOL     OW27374   1.364   8.988   2.176  0.0223  0.6961 -0.5796
 8140SOL    HW127375   1.368   8.992   2.080 -0.5969  1.6793 -0.5760
 8140SOL    HW227376   1.365   8.894   2.196 -0.8172  0.4481 -1.6040
 8141SOL     OW27377   8.881   4.137   4.503 -0.5958 -0.0139  0.5237
 8141SOL    HW127378   8.821   4.066   4.478 -0.4655 -0.4331  1.3690
 8141SOL    HW227379   8.933   4.100   4.574  0.4874  0.4414 -0.0125
 8142SOL     OW27380   7.389   1.694   0.483 -0.1528  0.7662  0.6954
 8142SOL    HW127381   7.445   1.695   0.561  2.4804  0.4718 -1.0575
 8142SOL    HW227382   7.420   1.769   0.431 -0.1966 -0.4042 -1.1018
 8143SOL     OW27383   8.576   2.016   3.406 -0.4858 -0.1475  0.4104
 8143SOL    HW127384   8.513   2.075   3.449 -0.7853 -0.6030  0.6056
 8143SOL    HW227385   8.621   1.973   3.479  1.1036  1.2376  0.3065
 8144SOL     OW27386   8.273   4.771   2.035 -0.6190  0.4888 -0.5743
 8144SOL    HW127387   8.277   4.704   2.103 -1.2015 -0.0857 -1.0958
 8144SOL    HW227388   8.194   4.751   1.986 -0.4824  1.2078 -1.1099
 8145SOL     OW27389   0.261   5.422   3.951 -0.4987  0.3448  0.2717
 8145SOL    HW127390   0.280   5.407   3.858  0.4220 -0.5895  0.5974
 8145SOL    HW227391   0.304   5.350   3.996  2.2300  2.6436  1.7403
 8146SOL     OW27392   4.202   3.190   3.650 -0.1910  0.1758  0.1555
 8146SOL    HW127393   4.130   3.252   3.637  0.7554  1.2072 -0.2609
 8146SOL    HW227394   4.160   3.113   3.689 -1.4433  0.9349  0.3558
 8147SOL     OW27395   3.587   1.611   1.381  0.2884  0.4323  0.1354
 8147SOL    HW127396   3.646   1.554   1.430 -1.1543 -0.4833  0.8804
 8147SOL    HW227397   3.499   1.586   1.411 -0.4607  2.1430 -0.4970
 8148SOL     OW27398   5.947   4.488   1.655 -0.0535  0.1531  0.0338
 8148SOL    HW127399   5.954   4.431   1.731  1.7045 -1.7489 -1.4396
 8148SOL    HW227400   5.968   4.575   1.688  1.4698 -0.7443  1.5847
 8149SOL     OW27401   6.997   9.298   4.746 -0.1832 -0.1275 -0.2830
 8149SOL    HW127402   7.023   9.260   4.830  1.3079  0.0868 -0.6208
 8149SOL    HW227403   6.956   9.381   4.770  1.1963  0.4457  0.2056
 8150SOL     OW27404   0.828   1.084   2.276  0.8746  0.5872 -0.5780
 8150SOL    HW127405   0.770   1.034   2.220  1.5828 -1.4772  0.4073
 8150SOL    HW227406   0.775   1.107   2.352  0.1467  2.6600 -1.6679
 8151SOL     OW27407   7.554   2.515   0.023 -0.7970 -0.2050 -0.2112
 8151SOL    HW127408   7.586   2.583  -0.036 -0.6714 -0.1446 -0.0730
 8151SOL    HW227409   7.496   2.560   0.084  3.4660  0.9510  3.4822
 8152SOL     OW27410   1.738   9.603   5.956 -0.0451  0.1305 -0.2451
 8152SOL    HW127411   1.655   9.569   5.990 -0.6466  1.3925 -0.4135
 8152SOL    HW227412   1.798   9.597   6.030 -0.8909  1.2694  0.5593
 8153SOL     OW27413   1.834   7.811   7.886 -0.2560 -0.2698 -0.2204
 8153SOL    HW127414   1.930   7.810   7.884 -0.1652 -0.7296  2.1998
 8153SOL    HW227415   1.811   7.888   7.938 -1.2365 -0.1341 -0.8112
 8154SOL     OW27416   9.293   6.922   1.800 -0.3381  0.5713  0.2352
 8154SOL    HW127417   9.230   6.986   1.833 -1.1916  1.1293 -2.2125
 8154SOL    HW227418   9.244   6.840   1.797 -0.2157  0.4885  0.4898
 8155SOL     OW27419   2.355   5.988   3.891  0.3248 -0.2880  0.4745
 8155SOL    HW127420   2.356   5.980   3.987 -0.4618  1.5964  0.6830
 8155SOL    HW227421   2.409   5.915   3.861 -0.5239 -1.7461  2.2821
 8156SOL     OW27422   5.371   9.461   7.131  0.3175  0.0501 -0.0899
 8156SOL    HW127423   5.336   9.549   7.118  0.7317  0.1600 -0.4959
 8156SOL    HW227424   5.463   9.475   7.154 -0.6317  0.0053  4.7742
 8157SOL     OW27425   2.655   1.950   5.836  0.9337 -0.1076  0.0676
 8157SOL    HW127426   2.579   1.892   5.829 -1.2873  2.1956  2.5465
 8157SOL    HW227427   2.684   1.963   5.745 -1.2668 -1.5197 -0.9239
 8158SOL     OW27428   3.183   1.081   2.349 -0.3083 -0.4100  0.2646
 8158SOL    HW127429   3.168   1.133   2.270  1.5298  0.8474  0.6788
 8158SOL    HW227430   3.211   1.145   2.414  2.2275 -1.8976  0.7501
 8159SOL     OW27431   6.009   2.121   1.523  0.2971  0.3599 -0.2956
 8159SOL    HW127432   6.065   2.198   1.516 -0.3775  0.8555 -0.3364
 8159SOL    HW227433   6.064   2.055   1.565  1.2074  0.5317 -1.1721
 8160SOL     OW27434   0.718   9.033   3.844 -0.0913 -0.1241  0.9714
 8160SOL    HW127435   0.708   8.939   3.826  0.3168  0.1515 -0.8385
 8160SOL    HW227436   0.812   9.044   3.860  0.2027  0.2596 -0.8233
 8161SOL     OW27437   5.196   0.027   0.537  0.3802 -0.3475 -0.4238
 8161SOL    HW127438   5.169  -0.048   0.485  0.6022 -1.3592  0.8801
 8161SOL    HW227439   5.117   0.055   0.583  0.1565  0.6200 -1.3350
 8162SOL     OW27440   5.927  10.396   1.576 -0.3695 -0.7221  0.0368
 8162SOL    HW127441   5.987  10.465   1.550 -1.3471 -0.5850 -2.0762
 8162SOL    HW227442   5.957  10.369   1.663 -0.1092  2.5171  1.1040
 8163SOL     OW27443   8.915   8.368   9.829 -0.0496 -0.4951  0.1852
 8163SOL    HW127444   8.948   8.424   9.758 -0.6985  0.3303  0.5075
 8163SOL    HW227445   8.988   8.311   9.850  0.4596 -0.1371 -0.5374
 8164SOL     OW27446   6.400   6.282   5.958 -0.1298  0.1071 -0.1558
 8164SOL    HW127447   6.413   6.231   6.039  0.5898  0.1980 -0.2025
 8164SOL    HW227448   6.444   6.230   5.891 -0.4088  0.2141 -0.4219
 8165SOL     OW27449   2.963   9.289   7.402  0.7758  0.0603 -0.4027
 8165SOL    HW127450   3.040   9.337   7.433  0.7309 -0.1500  0.0494
 8165SOL    HW227451   2.948   9.321   7.313 -0.2205  2.0684  0.4287
 8166SOL     OW27452   2.742   8.802   8.212 -0.2290 -0.0886  0.3983
 8166SOL    HW127453   2.703   8.802   8.125 -0.2250  0.1631  0.3943
 8166SOL    HW227454   2.738   8.894   8.240  0.7064  0.0112  0.2430
 8167SOL     OW27455   7.019   7.134   7.844 -0.3983 -0.2389  0.2504
 8167SOL    HW127456   7.011   7.208   7.904 -0.2234  1.2649 -1.5012
 8167SOL    HW227457   7.066   7.067   7.894  2.1620  1.9327  0.9747
 8168SOL     OW27458   2.327   3.147   3.139  0.8009  0.1619  0.4123
 8168SOL    HW127459   2.346   3.105   3.055 -0.5226 -2.1719  1.1846
 8168SOL    HW227460   2.246   3.196   3.124  0.0015 -1.0774  0.5257
 8169SOL     OW27461   7.036   8.698   5.771  0.0137 -0.4848 -0.4078
 8169SOL    HW127462   7.110   8.646   5.803  0.6019 -0.6335 -1.9429
 8169SOL    HW227463   6.971   8.632   5.744  0.2783 -0.4056 -1.2485
 8170SOL     OW27464   1.663   0.805   0.173  0.3024  0.1184  0.3779
 8170SOL    HW127465   1.696   0.890   0.144  0.9049 -0.6103 -1.2300
 8170SOL    HW227466   1.739   0.747   0.166 -0.3438 -0.7528  0.5009
 8171SOL     OW27467  10.288  10.169  10.281  0.0615  0.0075  0.1878
 8171SOL    HW127468  10.343  10.091  10.277  0.0066 -0.1192  1.5195
 8171SOL    HW227469  10.259  10.173  10.372  0.6920  2.0117  0.3387
 8172SOL     OW27470   8.109   0.645   3.651  0.0291 -0.2412  0.0261
 8172SOL    HW127471   8.180   0.612   3.597  0.5188  0.5081  0.1952
 8172SOL    HW227472   8.104   0.583   3.724  0.4310 -0.3582 -0.0452
 8173SOL     OW27473   1.052   7.538   6.566  0.5516  0.0421  0.0970
 8173SOL    HW127474   0.971   7.487   6.568  1.2940 -1.1423  1.8797
 8173SOL    HW227475   1.075   7.550   6.658  2.7781 -0.2830 -0.3670
 8174SOL     OW27476   5.773   2.100   1.631 -0.3346  0.4399  0.9194
 8174SOL    HW127477   5.714   2.056   1.570  1.4330 -1.6372  0.5836
 8174SOL    HW227478   5.855   2.109   1.582  0.2775  1.3180  2.0682
 8175SOL     OW27479   6.894   3.794   8.482 -0.0946 -0.1368  0.4088
 8175SOL    HW127480   6.943   3.870   8.452 -0.6236 -0.0213 -0.1849
 8175SOL    HW227481   6.803   3.824   8.484 -0.1130 -0.2010  1.9507
 8176SOL     OW27482   3.315   0.594   3.425  0.5161 -0.4889 -0.3645
 8176SOL    HW127483   3.289   0.594   3.333 -0.8158  0.9669 -0.0228
 8176SOL    HW227484   3.254   0.655   3.467  0.2504 -2.1309  1.7409
 8177SOL     OW27485   7.164   2.081  10.106  0.0576 -0.7997  0.0845
 8177SOL    HW127486   7.199   2.115  10.023 -0.9969 -1.6618 -0.7489
 8177SOL    HW227487   7.222   2.117  10.173  0.3906  0.6697 -0.9460
 8178SOL     OW27488   4.112   0.045   0.358 -0.3080 -0.4984  0.0008
 8178SOL    HW127489   4.172   0.018   0.288 -1.0324  0.9097 -1.2152
 8178SOL    HW227490   4.133   0.137   0.373 -0.9931 -0.4607  0.7933
 8179SOL     OW27491   1.452   3.835   7.827 -0.0122  0.6445  0.1677
 8179SOL    HW127492   1.483   3.751   7.861 -0.1616  0.7499  0.5753
 8179SOL    HW227493   1.413   3.815   7.743  1.8059  0.5995 -0.7194
 8180SOL     OW27494   9.116   5.842  10.152  0.2581 -0.5890  0.3793
 8180SOL    HW127495   9.022   5.850  10.166  0.5437  2.2420  1.2692
 8180SOL    HW227496   9.131   5.883  10.067  0.5932 -2.3697 -0.4856
 8181SOL     OW27497   3.320   2.857   3.339 -0.0702 -0.3672 -0.1624
 8181SOL    HW127498   3.269   2.923   3.385  2.0308  1.2118  0.0226
 8181SOL    HW227499   3.385   2.827   3.402 -0.8609 -2.5927 -0.2820
 8182SOL     OW27500   3.598   9.750   9.430  0.6346  0.4886  0.1232
 8182SOL    HW127501   3.667   9.713   9.375 -0.0209  0.3518 -0.6276
 8182SOL    HW227502   3.550   9.674   9.464  0.4723  0.5979  0.1425
 8183SOL     OW27503  10.669  10.616   7.008  0.0422 -0.4606 -0.2567
 8183SOL    HW127504  10.758  10.647   6.995 -0.3479  0.4564 -0.8913
 8183SOL    HW227505  10.665  10.533   6.961  0.4533 -0.3041 -0.5701
 8184SOL     OW27506   4.016   0.482   8.162 -0.2631  0.1775  0.0248
 8184SOL    HW127507   4.095   0.434   8.139 -0.6682 -1.5716  1.9768
 8184SOL    HW227508   3.965   0.487   8.080 -0.3109 -3.0199 -0.2431
 8185SOL     OW27509   7.690   8.474   4.654 -0.3464 -0.0255 -0.2026
 8185SOL    HW127510   7.675   8.470   4.559 -2.7454 -0.1653  0.1183
 8185SOL    HW227511   7.683   8.566   4.676 -0.8203 -0.1047 -0.0216
 8186SOL     OW27512   6.336  10.547   5.455 -0.4077  0.8546  0.5865
 8186SOL    HW127513   6.378  10.482   5.511 -0.8128 -0.8617 -1.0483
 8186SOL    HW227514   6.248  10.556   5.492 -0.5950 -0.0826  0.3863
 8187SOL     OW27515   6.762   6.808   3.484 -0.5418 -0.5617 -0.3830
 8187SOL    HW127516   6.855   6.787   3.492 -0.9343 -2.1530  0.4967
 8187SOL    HW227517   6.745   6.870   3.555 -1.1326 -4.2760  3.1820
 8188SOL     OW27518   0.496   5.161   7.091  0.5428  0.3105 -0.7216
 8188SOL    HW127519   0.421   5.102   7.093  0.5073  0.3127 -1.4363
 8188SOL    HW227520   0.473   5.226   7.024  1.4531 -0.0759 -1.4345
 8189SOL     OW27521   7.208   5.017   2.000 -0.1559 -0.2517 -0.3731
 8189SOL    HW127522   7.125   5.052   2.032 -0.4287 -0.9383 -0.3053
 8189SOL    HW227523   7.197   5.007   1.906  0.2374  0.6735 -0.5250
 8190SOL     OW27524   6.094   6.298   6.570  0.1885 -0.8451  1.2944
 8190SOL    HW127525   6.136   6.231   6.515 -0.8391  0.4925 -1.2413
 8190SOL    HW227526   6.168   6.345   6.610  1.1021 -0.4329 -0.7438
 8191SOL     OW27527   3.808   8.660   4.631 -0.4737 -0.5299 -0.1485
 8191SOL    HW127528   3.781   8.570   4.612 -0.7502 -1.4895  3.8506
 8191SOL    HW227529   3.727   8.705   4.655 -0.1778  0.4596 -0.9507
 8192SOL     OW27530   6.766   3.041   5.430  0.3569 -0.1655 -0.7570
 8192SOL    HW127531   6.700   3.079   5.488  0.5480  0.4764 -0.9490
 8192SOL    HW227532   6.715   3.007   5.356  0.2838  1.0024 -1.2697
 8193SOL     OW27533   2.452   9.766   4.648 -0.2192 -0.6481 -0.3119
 8193SOL    HW127534   2.529   9.791   4.598  0.4871  0.4767  1.2728
 8193SOL    HW227535   2.472   9.678   4.680  0.1240 -0.6271 -0.4652
 8194SOL     OW27536   1.300   0.440   0.856  0.5955  0.0185 -0.0700
 8194SOL    HW127537   1.293   0.357   0.902 -0.4778 -0.3822 -0.8921
 8194SOL    HW227538   1.392   0.465   0.863  0.9463 -1.2800  0.1319
 8195SOL     OW27539   7.755   4.407   3.027  0.1017 -0.4192  0.2511
 8195SOL    HW127540   7.848   4.395   3.045 -0.2854 -2.8924  1.0720
 8195SOL    HW227541   7.713   4.394   3.112 -1.0900 -1.1230 -0.4273
 8196SOL     OW27542   5.867   2.114   7.446 -0.1306  0.3484 -0.3543
 8196SOL    HW127543   5.911   2.140   7.364  1.2800 -1.2754 -0.1626
 8196SOL    HW227544   5.838   2.024   7.430 -1.6582  0.7130  0.2484
 8197SOL     OW27545   0.946   8.455   9.790 -0.0870  0.1374 -0.0725
 8197SOL    HW127546   1.034   8.491   9.802  0.6230 -1.1660 -1.0636
 8197SOL    HW227547   0.892   8.503   9.853  0.8833  2.4435 -0.8706
 8198SOL     OW27548   3.213   5.968   7.942  0.1620  0.1759 -0.0354
 8198SOL    HW127549   3.193   6.040   8.002  1.9334  0.2793  0.4946
 8198SOL    HW227550   3.282   5.918   7.987 -0.1609 -1.1330 -0.9435
 8199SOL     OW27551   0.810   1.983   6.511  0.6567 -0.0208  0.2427
 8199SOL    HW127552   0.829   2.027   6.428  1.5385 -1.3095 -0.2664
 8199SOL    HW227553   0.869   2.023   6.574  1.1483 -0.1691 -0.1189
 8200SOL     OW27554   5.498   3.784   6.169  0.5094  0.3111  0.1125
 8200SOL    HW127555   5.474   3.734   6.090 -0.8693  2.8282 -1.1698
 8200SOL    HW227556   5.586   3.816   6.151  0.0691  1.1561 -0.5733
 8201SOL     OW27557   7.814   0.686   5.698  0.3634 -0.3092 -0.1028
 8201SOL    HW127558   7.870   0.632   5.756 -0.5431 -1.4562 -0.2619
 8201SOL    HW227559   7.769   0.623   5.643 -0.0996  0.6863 -0.8913
 8202SOL     OW27560   4.261   6.754  10.289 -0.1783 -0.0121 -0.3846
 8202SOL    HW127561   4.292   6.758  10.199 -0.1113 -1.3958 -0.4418
 8202SOL    HW227562   4.178   6.706  10.283 -0.4231  0.3261  0.2327
 8203SOL     OW27563   4.692   0.237   8.073  0.3028 -0.1133 -0.4847
 8203SOL    HW127564   4.719   0.319   8.114  1.7621 -1.3783  1.2179
 8203SOL    HW227565   4.774   0.197   8.043 -0.2501 -1.4408 -0.2962
 8204SOL     OW27566   0.299   8.616   9.463 -0.5435  0.1919 -0.0841
 8204SOL    HW127567   0.268   8.685   9.521  1.5851  0.4600  0.8469
 8204SOL    HW227568   0.259   8.636   9.379 -1.1118  1.7285  0.5073
 8205SOL     OW27569   1.466   9.128   3.421  0.1787  0.2691  0.2886
 8205SOL    HW127570   1.478   9.155   3.512 -0.6877  0.0582  0.4686
 8205SOL    HW227571   1.380   9.087   3.418  0.4450 -0.2716 -0.5052
 8206SOL     OW27572   3.128   3.240  10.497  0.3297 -0.1507 -0.2560
 8206SOL    HW127573   3.050   3.196  10.531  0.4409  0.5527  0.9844
 8206SOL    HW227574   3.103   3.332  10.493  0.7047 -0.0750 -1.0545
 8207SOL     OW27575   0.003   3.726   9.099 -0.0358  0.5630  0.4520
 8207SOL    HW127576  -0.008   3.753   9.190  0.4198 -2.0920  1.3831
 8207SOL    HW227577  -0.086   3.713   9.067 -0.1879 -0.2454  1.1499
 8208SOL     OW27578   4.393   9.185   6.756  0.5171 -0.2123  0.4866
 8208SOL    HW127579   4.403   9.104   6.807  0.5131 -1.9128 -1.9984
 8208SOL    HW227580   4.324   9.234   6.800  0.1157 -1.8525  1.7661
 8209SOL     OW27581   4.994   3.346   0.902  0.1593  0.3397  0.4630
 8209SOL    HW127582   4.985   3.382   0.990 -0.1589 -0.5098  0.7902
 8209SOL    HW227583   5.007   3.422   0.846  1.7830  0.8060  1.4126
 8210SOL     OW27584   2.079   2.082   7.052 -0.0771 -0.4188  0.0865
 8210SOL    HW127585   1.996   2.045   7.084  1.5656 -1.9230  3.1195
 8210SOL    HW227586   2.074   2.175   7.074  0.3055 -1.0962  3.7383
 8211SOL     OW27587   2.298   5.691   3.464 -0.0634  0.0615 -0.2752
 8211SOL    HW127588   2.292   5.780   3.499 -0.3038 -0.0137 -0.1169
 8211SOL    HW227589   2.255   5.697   3.379  1.0890  0.3871 -0.8433
 8212SOL     OW27590   8.500   5.104   2.571  0.5475  0.1970  0.1892
 8212SOL    HW127591   8.494   5.141   2.483  2.6564 -0.1249 -0.1387
 8212SOL    HW227592   8.415   5.062   2.585  0.3285 -0.1488 -1.8796
 8213SOL     OW27593   3.905   1.730   9.115 -0.1468  0.3851 -0.2442
 8213SOL    HW127594   3.960   1.651   9.107  1.6347  1.6020 -0.6350
 8213SOL    HW227595   3.962   1.794   9.157 -1.7897  1.2941  0.6927
 8214SOL     OW27596   5.867   5.805   4.562  0.1428 -0.5288 -0.0337
 8214SOL    HW127597   5.915   5.876   4.604  1.0616 -0.0643 -1.7803
 8214SOL    HW227598   5.798   5.849   4.512 -0.7271 -1.0404  0.6983
 8215SOL     OW27599   3.272   2.078   7.764 -0.6215 -0.0030  0.1532
 8215SOL    HW127600   3.351   2.109   7.807 -0.0522 -1.4141  0.1800
 8215SOL    HW227601   3.201   2.126   7.806  0.1100  0.2761  1.0973
 8216SOL     OW27602   5.294  10.133   5.086  0.3007 -0.3398 -0.2764
 8216SOL    HW127603   5.215  10.129   5.139  0.2224  0.9752 -0.2494
 8216SOL    HW227604   5.311  10.227   5.075  3.7812 -0.4157  2.6311
 8217SOL     OW27605   7.034   4.434   1.345  0.2017 -0.2179  0.3759
 8217SOL    HW127606   7.115   4.449   1.297  0.6635  0.8953  1.4388
 8217SOL    HW227607   6.966   4.471   1.290  0.4529 -0.8021 -0.3437
 8218SOL     OW27608   2.109   0.864   8.879  0.7217 -0.3710  0.4089
 8218SOL    HW127609   2.019   0.876   8.907  0.2340 -0.6514 -0.9672
 8218SOL    HW227610   2.121   0.769   8.877  0.4589 -0.3924 -1.1309
 8219SOL     OW27611   3.156   0.825   2.257 -0.2922  0.0392 -0.7179
 8219SOL    HW127612   3.119   0.901   2.301  0.7287  0.2446 -0.1753
 8219SOL    HW227613   3.115   0.750   2.300  0.1769  0.2546  0.1424
 8220SOL     OW27614   3.002   6.470   0.912  0.1197  0.1536  0.2704
 8220SOL    HW127615   2.916   6.499   0.943 -0.3374 -0.4119 -0.4254
 8220SOL    HW227616   3.063   6.499   0.980 -0.4454  1.7047  0.1574
 8221SOL     OW27617   1.134   4.316  10.304  0.1000 -0.3738 -0.1381
 8221SOL    HW127618   1.072   4.310  10.231  1.0003  0.0574 -0.9434
 8221SOL    HW227619   1.207   4.366  10.270  0.7415 -0.5589  0.9293
 8222SOL     OW27620   8.679   0.540   7.218  0.2428 -0.5487 -0.5906
 8222SOL    HW127621   8.768   0.553   7.250  0.9094 -1.4818 -1.9769
 8222SOL    HW227622   8.643   0.472   7.276  0.3244  0.0295  0.1491
 8223SOL     OW27623   6.889   3.860   8.850  0.7198 -0.7405 -0.5547
 8223SOL    HW127624   6.940   3.922   8.797 -0.3288  0.6922  0.0718
 8223SOL    HW227625   6.936   3.857   8.933 -0.5990  1.2436  0.3320
 8224SOL     OW27626   7.430   6.455   8.184 -0.2694 -0.3533  0.1582
 8224SOL    HW127627   7.354   6.509   8.205 -0.3819 -0.3482 -0.2555
 8224SOL    HW227628   7.473   6.440   8.269 -0.6856 -0.2908  0.3842
 8225SOL     OW27629   7.363   2.588   0.203 -0.3183  0.7560  0.1083
 8225SOL    HW127630   7.309   2.522   0.159 -0.9145  0.6377  0.9786
 8225SOL    HW227631   7.316   2.605   0.285 -0.1416  2.2088 -0.0692
 8226SOL     OW27632   1.175   8.372   6.274  0.2857 -0.5629  0.8141
 8226SOL    HW127633   1.142   8.334   6.355 -1.3199  1.6345  1.2845
 8226SOL    HW227634   1.269   8.382   6.288 -0.0249  0.1532  2.5857
 8227SOL     OW27635   4.767   0.475   1.934  0.0155  0.1984 -0.4172
 8227SOL    HW127636   4.805   0.550   1.982 -0.6549  0.3844 -0.1696
 8227SOL    HW227637   4.785   0.400   1.991 -2.4826  0.6753  1.1408
 8228SOL     OW27638   0.983   7.038   7.984 -0.2139  0.2320  0.2885
 8228SOL    HW127639   0.935   7.042   7.901 -1.5440 -0.3456  1.0029
 8228SOL    HW227640   0.975   7.125   8.021 -0.5531  0.1947  0.3092
 8229SOL     OW27641   2.025   9.944   2.016  0.0846 -0.3227 -0.3197
 8229SOL    HW127642   1.979   9.922   2.097 -0.5636  1.4261 -0.1752
 8229SOL    HW227643   2.114   9.912   2.030 -0.1639 -0.5549  0.8576
 8230SOL     OW27644  10.483   5.746   0.403 -0.2115 -0.3011  0.3358
 8230SOL    HW127645  10.402   5.797   0.402 -0.6267 -0.9602  0.0410
 8230SOL    HW227646  10.504   5.735   0.496  0.1387  0.7929  0.4028
 8231SOL     OW27647   0.209   8.640   7.206 -0.1961 -0.2050  0.1008
 8231SOL    HW127648   0.218   8.649   7.111  2.4322 -0.3430  0.2460
 8231SOL    HW227649   0.170   8.723   7.234 -0.8353 -0.0803 -1.0648
 8232SOL     OW27650   2.800   3.979  10.549 -0.5619  0.0810 -0.3059
 8232SOL    HW127651   2.714   3.982  10.590 -0.9023  0.4868 -1.0342
 8232SOL    HW227652   2.811   3.887  10.524 -0.5047 -0.0982  0.3443
 8233SOL     OW27653   2.776   9.754   2.192  0.4633  0.0359  0.0210
 8233SOL    HW127654   2.805   9.709   2.271 -0.2823 -0.9353 -0.2352
 8233SOL    HW227655   2.760   9.683   2.129 -1.5618  0.5693 -0.1223
 8234SOL     OW27656   4.113   5.630   3.576  0.6417 -0.1556  0.1122
 8234SOL    HW127657   4.082   5.721   3.573 -0.9230 -0.6800 -0.4073
 8234SOL    HW227658   4.145   5.612   3.488 -0.8955 -0.6955 -0.3670
 8235SOL     OW27659   4.013   5.900  10.687 -0.1660 -0.1194  0.2661
 8235SOL    HW127660   3.918   5.913  10.680 -0.1185  1.7981  2.2938
 8235SOL    HW227661   4.046   5.922  10.600 -1.4549  0.3691 -0.1243
 8236SOL     OW27662   2.766   0.245   8.781  0.0166 -0.1699  0.0340
 8236SOL    HW127663   2.715   0.165   8.794  0.1880 -0.6147 -1.7366
 8236SOL    HW227664   2.846   0.215   8.737 -0.3529  1.0570 -1.5671
 8237SOL     OW27665   5.609   8.652   7.111  0.4901 -0.7186  0.5467
 8237SOL    HW127666   5.520   8.668   7.143  0.0628 -0.3246 -0.7729
 8237SOL    HW227667   5.654   8.735   7.123 -0.6467  0.5519 -2.8435
 8238SOL     OW27668   1.116   1.450   1.281 -0.1912  0.1842  0.2828
 8238SOL    HW127669   1.145   1.482   1.367  2.0971  1.6391 -0.9342
 8238SOL    HW227670   1.102   1.529   1.230 -0.1148 -0.6753 -1.1151
 8239SOL     OW27671   1.004   5.797   5.853  0.5286 -0.0097 -0.2452
 8239SOL    HW127672   1.009   5.737   5.929 -1.0574  1.3196  0.9831
 8239SOL    HW227673   1.035   5.744   5.780  0.5292 -1.9015  1.0253
 8240SOL     OW27674   5.639   0.721   4.902 -0.4122  0.4246  0.3599
 8240SOL    HW127675   5.709   0.658   4.884  0.4765  1.5413 -0.1787
 8240SOL    HW227676   5.558   0.671   4.887  0.2589 -0.1539 -1.6474
 8241SOL     OW27677   7.120   3.602   8.474  0.2232  1.1934 -0.7259
 8241SOL    HW127678   7.046   3.662   8.468 -1.6618 -0.6899  1.4859
 8241SOL    HW227679   7.112   3.545   8.398 -2.1682 -0.5117  0.6904
 8242SOL     OW27680   9.674   2.984   8.289 -0.2622  0.2635 -0.3920
 8242SOL    HW127681   9.645   3.029   8.368 -0.7733 -0.2912 -0.2609
 8242SOL    HW227682   9.627   2.900   8.290  0.1743  0.0064 -0.9758
 8243SOL     OW27683   4.109  10.340   1.692 -0.8661  0.3681 -0.1913
 8243SOL    HW127684   4.173  10.410   1.707  0.7134 -1.6233  3.6939
 8243SOL    HW227685   4.152  10.281   1.630  0.1070  0.2459  0.5744
 8244SOL     OW27686   3.605   7.522   5.807  0.2701  0.1514  0.0993
 8244SOL    HW127687   3.579   7.443   5.855 -0.9071  0.8040  0.5678
 8244SOL    HW227688   3.610   7.590   5.874 -1.8774  1.1997 -0.7141
 8245SOL     OW27689   7.993   2.898   0.205 -0.4087  0.1663  0.0671
 8245SOL    HW127690   8.046   2.829   0.245 -1.4385 -0.8377 -0.2643
 8245SOL    HW227691   7.904   2.881   0.237 -0.8969  0.5501 -1.0621
 8246SOL     OW27692   3.713   0.251   2.204 -0.1456  0.5566 -0.0628
 8246SOL    HW127693   3.688   0.308   2.131 -2.2333  0.3028  0.3986
 8246SOL    HW227694   3.783   0.299   2.248 -0.2218  1.6439 -1.0719
 8247SOL     OW27695   6.517   0.132  10.294 -0.4400 -0.1003  0.1920
 8247SOL    HW127696   6.564   0.048  10.296 -0.0715  0.0368 -1.2892
 8247SOL    HW227697   6.500   0.152  10.386  1.1141 -0.8785  0.6914
 8248SOL     OW27698   6.361   4.455   9.157 -0.0443 -0.0409  0.2313
 8248SOL    HW127699   6.341   4.533   9.104 -1.5539 -1.6320 -1.7190
 8248SOL    HW227700   6.286   4.446   9.215  0.5484  0.4081  1.0949
 8249SOL     OW27701   7.026   3.782   3.208 -0.1273 -0.2922  0.2454
 8249SOL    HW127702   7.085   3.707   3.202 -1.7079 -1.5343 -0.8610
 8249SOL    HW227703   6.963   3.757   3.276 -0.0193  0.5376  0.6582
 8250SOL     OW27704   3.163   3.538   5.190  0.7008  0.2661 -0.2636
 8250SOL    HW127705   3.213   3.617   5.170  1.1987  0.1815  0.5907
 8250SOL    HW227706   3.102   3.529   5.117  1.6427  0.6060 -1.1106
 8251SOL     OW27707   0.278   6.824   0.592 -0.6985  0.0648  0.4276
 8251SOL    HW127708   0.297   6.766   0.666 -1.1200 -0.6268  0.0009
 8251SOL    HW227709   0.269   6.766   0.517  2.6680  0.9177 -0.8253
 8252SOL     OW27710   0.282   8.536   9.956 -0.0430  0.0247  0.0430
 8252SOL    HW127711   0.252   8.459   9.907 -2.0478  1.5150 -1.2278
 8252SOL    HW227712   0.326   8.590   9.891  1.8411 -0.2319  1.0415
 8253SOL     OW27713   1.693   1.836   6.605  0.5237  0.0051 -0.2615
 8253SOL    HW127714   1.725   1.761   6.554 -0.7680 -1.5841  1.1710
 8253SOL    HW227715   1.759   1.848   6.674  0.1943 -0.5272  0.1521
 8254SOL     OW27716   7.263   0.240   5.320 -0.0620 -0.6161  0.3221
 8254SOL    HW127717   7.220   0.155   5.305  0.2127 -0.5041 -1.3578
 8254SOL    HW227718   7.294   0.266   5.233  1.9893  0.0763  1.1982
 8255SOL     OW27719   6.082   3.253  10.237 -0.3038 -0.0354 -0.4754
 8255SOL    HW127720   6.143   3.183  10.216 -0.2291  0.0752 -0.6264
 8255SOL    HW227721   6.136   3.332  10.243 -0.3037 -0.0774  0.2300
 8256SOL     OW27722   3.700   6.514   5.200  0.4649  0.0866  0.3771
 8256SOL    HW127723   3.673   6.591   5.250 -0.3846 -0.5737  0.9818
 8256SOL    HW227724   3.696   6.442   5.263 -2.0380 -1.0296 -0.9064
 8257SOL     OW27725   8.811   3.423   0.480  0.4169  0.1112 -0.1464
 8257SOL    HW127726   8.889   3.476   0.463  1.4457 -1.2742  0.1274
 8257SOL    HW227727   8.739   3.475   0.444  1.8594 -0.2935 -4.0245
 8258SOL     OW27728   7.046   2.054   1.389 -0.2952  0.4746 -0.4088
 8258SOL    HW127729   7.087   2.112   1.324 -1.4216 -0.0524 -1.6431
 8258SOL    HW227730   7.069   2.092   1.473  1.6220  0.9163 -1.0866
 8259SOL     OW27731   4.112   1.278   2.709  0.0646 -0.7258 -0.4786
 8259SOL    HW127732   4.053   1.336   2.660 -0.7255 -0.7128  0.4630
 8259SOL    HW227733   4.137   1.329   2.787 -0.2799 -1.4745  0.1357
 8260SOL     OW27734   6.631   6.498   3.046  0.0645 -0.3727  0.3260
 8260SOL    HW127735   6.624   6.444   2.967  3.0329 -0.7812  0.2221
 8260SOL    HW227736   6.642   6.435   3.117  2.0918 -0.0091  0.3919
 8261SOL     OW27737   0.773   1.005   1.700 -0.5483  0.6942  0.1438
 8261SOL    HW127738   0.864   0.998   1.671 -0.5929 -0.0679  0.1646
 8261SOL    HW227739   0.779   1.038   1.789 -0.3190  1.2323 -0.0697
 8262SOL     OW27740   0.905   8.417   7.715 -0.1091  0.0122 -0.4219
 8262SOL    HW127741   0.865   8.503   7.727 -0.0953  0.1243 -1.1683
 8262SOL    HW227742   0.997   8.435   7.698 -0.2722 -0.0841 -1.4980
 8263SOL     OW27743   9.030   5.776   5.804  0.2926 -0.6692  0.3349
 8263SOL    HW127744   9.073   5.807   5.724  2.4576 -1.3091  1.1830
 8263SOL    HW227745   9.096   5.722   5.847 -1.5938 -2.1776  1.4755
 8264SOL     OW27746   6.246   7.727  10.335  0.4345 -0.4204 -0.0172
 8264SOL    HW127747   6.161   7.693  10.307 -0.7286  0.9560  1.6158
 8264SOL    HW227748   6.288   7.654  10.379 -0.6054 -0.6816  0.5733
 8265SOL     OW27749   5.056   5.985   4.088  0.0836  0.1055 -0.0745
 8265SOL    HW127750   5.038   5.964   3.997 -0.9592  1.3082 -0.1660
 8265SOL    HW227751   4.971   6.011   4.124  0.4879 -0.3164  1.2318
 8266SOL     OW27752   3.106   8.399   6.498  0.0351  0.7528 -0.0243
 8266SOL    HW127753   3.048   8.392   6.574 -1.0201  0.0581 -0.8732
 8266SOL    HW227754   3.125   8.309   6.474 -0.1545  0.9548 -0.9639
 8267SOL     OW27755   5.828   5.281   9.966  0.1640  0.5360  0.0143
 8267SOL    HW127756   5.847   5.375   9.973  2.5374  0.0606  1.1820
 8267SOL    HW227757   5.913   5.242   9.944 -0.9768 -1.2747 -1.4539
 8268SOL     OW27758   6.129   3.832   5.627 -0.4536  0.1353 -0.3185
 8268SOL    HW127759   6.058   3.865   5.572  1.5978  1.4293 -2.3849
 8268SOL    HW227760   6.203   3.889   5.607  1.2471 -1.2620  1.5820
 8269SOL     OW27761   1.187   4.843   6.267 -0.5419  0.0419 -0.6313
 8269SOL    HW127762   1.154   4.757   6.242 -0.4824 -0.6297  1.4291
 8269SOL    HW227763   1.250   4.826   6.336 -0.0908  1.7099 -0.5819
 8270SOL     OW27764   3.063   4.599   0.096  0.0617  0.0368 -0.1384
 8270SOL    HW127765   3.010   4.548   0.157 -1.0735  1.0371 -0.2645
 8270SOL    HW227766   3.083   4.538   0.025 -1.4947 -0.1746 -0.4175
 8271SOL     OW27767   8.017   3.563   4.005 -0.5939 -0.0098 -0.2923
 8271SOL    HW127768   8.055   3.586   3.920  0.7815 -2.3746 -0.3999
 8271SOL    HW227769   7.929   3.531   3.984 -0.9572  1.1396 -0.5835
 8272SOL     OW27770   4.251   7.369   1.565 -0.5288  0.1074  0.1575
 8272SOL    HW127771   4.258   7.274   1.562  1.7178  0.2117  0.1786
 8272SOL    HW227772   4.192   7.387   1.639  2.5363 -1.2742  3.2138
 8273SOL     OW27773   8.690   5.752   0.798  0.1041  0.0480 -0.4804
 8273SOL    HW127774   8.705   5.844   0.818  2.4249  0.3405 -2.9598
 8273SOL    HW227775   8.620   5.752   0.733 -1.3120 -0.1680  0.9914
 8274SOL     OW27776   0.282   2.490   2.995 -0.4773 -0.8973 -0.4350
 8274SOL    HW127777   0.213   2.524   3.052  0.3919  0.6140 -0.2560
 8274SOL    HW227778   0.314   2.566   2.947  0.7401 -1.6534 -0.8606
 8275SOL     OW27779   3.101   6.857   0.845  0.2336  0.2694  0.4428
 8275SOL    HW127780   3.115   6.799   0.771 -1.2122 -0.9796  1.0921
 8275SOL    HW227781   3.025   6.910   0.820  0.8478  1.1047  0.3173
 8276SOL     OW27782   0.068   7.398   6.545 -0.2748  0.0567 -0.6284
 8276SOL    HW127783   0.094   7.488   6.528  0.5533 -0.1693 -0.6058
 8276SOL    HW227784   0.041   7.363   6.460 -1.7756  0.6733 -0.4418
 8277SOL     OW27785   2.032   2.971   6.579 -0.1687  0.1806 -0.0287
 8277SOL    HW127786   2.023   2.915   6.501 -0.6571 -0.4115  0.4461
 8277SOL    HW227787   1.947   2.965   6.623  0.5782 -0.7151  1.3664
 8278SOL     OW27788   9.949   2.470   9.968  0.0428 -0.0123 -0.4795
 8278SOL    HW127789   9.880   2.536   9.978  0.9181  0.6122  2.6040
 8278SOL    HW227790   9.917   2.394  10.018 -0.4188 -1.5978 -2.9930
 8279SOL     OW27791   1.722   0.971  10.287  0.1989  0.5208  0.4115
 8279SOL    HW127792   1.632   0.981  10.319 -0.1801 -0.7784 -0.1827
 8279SOL    HW227793   1.724   1.023  10.207 -0.5113 -0.6299 -0.4014
 8280SOL     OW27794  10.440   4.294   5.198  0.4056  0.2302  0.0352
 8280SOL    HW127795  10.434   4.312   5.104 -1.4657 -0.4410 -0.0149
 8280SOL    HW227796  10.471   4.377   5.235  2.8794 -0.0161 -1.3030
 8281SOL     OW27797   8.356  10.546   7.729 -0.6635 -0.5039  0.2147
 8281SOL    HW127798   8.387  10.614   7.668 -0.2166  1.1992  2.1871
 8281SOL    HW227799   8.431  10.488   7.739  0.7165  1.4119  1.9943
 8282SOL     OW27800   7.818   6.934   7.607  0.1571 -0.4927 -0.7985
 8282SOL    HW127801   7.782   6.994   7.672 -0.4458 -1.1114 -0.5425
 8282SOL    HW227802   7.746   6.874   7.587  0.3909 -0.4365 -1.8921
 8283SOL     OW27803   0.465   9.909   7.859 -0.3986 -0.2051  0.0196
 8283SOL    HW127804   0.390   9.886   7.914 -0.9415  1.4843  0.0385
 8283SOL    HW227805   0.432   9.905   7.769 -0.0950 -0.8929 -0.0666
 8284SOL     OW27806   4.220   1.572   4.267 -0.0220  0.4307  0.5763
 8284SOL    HW127807   4.126   1.572   4.285 -0.1164 -0.5883  0.1611
 8284SOL    HW227808   4.258   1.528   4.344  0.0460  0.2943  0.4656
 8285SOL     OW27809   0.806   3.811   3.259 -0.1992 -0.5438  0.1050
 8285SOL    HW127810   0.736   3.871   3.233  0.0249  0.0807  0.9210
 8285SOL    HW227811   0.761   3.736   3.296 -0.4408  0.0094  0.9536
 8286SOL     OW27812   6.315   4.497   3.583  0.3538  0.7038  0.4306
 8286SOL    HW127813   6.244   4.456   3.533  0.7047  0.7591 -0.1276
 8286SOL    HW227814   6.351   4.563   3.523  1.4402  0.0883  0.3634
 8287SOL     OW27815   8.324   8.638   1.383 -0.4612  0.2124 -0.1500
 8287SOL    HW127816   8.306   8.563   1.327  0.1111 -0.0357 -0.0173
 8287SOL    HW227817   8.372   8.699   1.327 -0.8121  0.4212 -0.2221
 8288SOL     OW27818   8.563   8.848   3.969  0.6771 -0.1314  0.6297
 8288SOL    HW127819   8.566   8.915   3.901  1.0139 -0.0543  0.7168
 8288SOL    HW227820   8.476   8.809   3.961 -0.5485  2.0312  2.1909
 8289SOL     OW27821   8.876   9.054   4.149  0.2494  0.4903  0.3453
 8289SOL    HW127822   8.793   9.026   4.188  0.1243  0.9505  0.4055
 8289SOL    HW227823   8.943   9.014   4.205  0.0717  0.0901  0.2763
 8290SOL     OW27824   4.813   9.642   7.238  0.2350  0.3649  0.4309
 8290SOL    HW127825   4.834   9.551   7.255  2.6933  0.8558  0.3998
 8290SOL    HW227826   4.847   9.659   7.150  4.4205  2.4568  2.1853
 8291SOL     OW27827   3.495   7.866   9.172  0.6226  0.0780 -0.1445
 8291SOL    HW127828   3.564   7.863   9.107 -0.5109 -0.5410 -1.3564
 8291SOL    HW227829   3.490   7.777   9.207 -0.0518 -0.0784 -0.6161
 8292SOL     OW27830   5.481   8.905   0.896  0.5117  0.3847  0.6023
 8292SOL    HW127831   5.461   8.824   0.942 -0.6867  1.8393  2.8841
 8292SOL    HW227832   5.532   8.879   0.820 -0.1585 -2.5041  1.0446
 8293SOL     OW27833   8.553  10.202   6.015 -0.4062 -0.1046 -0.8867
 8293SOL    HW127834   8.643  10.235   6.014 -0.6517  0.6266  0.1683
 8293SOL    HW227835   8.504  10.265   5.961 -1.2184  2.4344  2.5028
 8294SOL     OW27836   6.043   6.816   5.158  0.1243  0.6176  0.1275
 8294SOL    HW127837   6.110   6.810   5.227 -0.5169 -0.5449  0.6754
 8294SOL    HW227838   6.082   6.769   5.083  0.0490  0.2156  0.3399
 8295SOL     OW27839   8.380   0.669   6.247  0.3034  0.5203 -0.1439
 8295SOL    HW127840   8.285   0.674   6.246  0.2996  0.4641 -1.4834
 8295SOL    HW227841   8.400   0.594   6.303 -0.4353  0.4204 -0.0116
 8296SOL     OW27842  10.377   9.297   9.821  0.1749  0.1666  0.1956
 8296SOL    HW127843  10.471   9.315   9.813  0.3284  0.0705  1.5598
 8296SOL    HW227844  10.362   9.221   9.765  0.7182  0.7489 -0.7681
 8297SOL     OW27845   6.262   6.534   2.461  0.1345 -0.2796  0.4140
 8297SOL    HW127846   6.310   6.453   2.442  0.0961 -0.5446  1.3831
 8297SOL    HW227847   6.173   6.505   2.482 -0.4480  0.2031 -1.2513
 8298SOL     OW27848   0.819   6.254   4.782 -0.2782  0.0787  0.2423
 8298SOL    HW127849   0.877   6.191   4.738  0.3072  1.2864 -0.7709
 8298SOL    HW227850   0.754   6.277   4.715 -1.6534 -0.8432  1.1993
 8299SOL     OW27851   4.539   5.158   4.408  0.2261  0.2616  0.0297
 8299SOL    HW127852   4.534   5.123   4.497  4.3201  0.8631  0.7231
 8299SOL    HW227853   4.526   5.252   4.418  0.2153  0.2679 -0.0453
 8300SOL     OW27854  10.416   6.159   4.141  0.4553 -0.1395 -0.1765
 8300SOL    HW127855  10.483   6.164   4.072 -1.6655  1.8367 -2.2998
 8300SOL    HW227856  10.466   6.156   4.223  3.1412  0.6793 -1.6457
 8301SOL     OW27857   5.726   9.065   8.122  0.6674  0.0798  0.2286
 8301SOL    HW127858   5.756   9.009   8.050  1.1534  2.1395 -1.2302
 8301SOL    HW227859   5.798   9.061   8.186  0.2418 -1.7462  0.6545
 8302SOL     OW27860   5.952   2.471  10.010  0.2156 -0.7077  0.1172
 8302SOL    HW127861   5.869   2.496  10.052 -0.3973  0.8402 -1.8708
 8302SOL    HW227862   6.003   2.552  10.009  1.2242 -1.3302  0.1115
 8303SOL     OW27863  10.009   5.770   5.841  0.0794 -0.6527 -0.2399
 8303SOL    HW127864   9.953   5.844   5.864  1.0197  0.0854 -0.2465
 8303SOL    HW227865  10.088   5.783   5.894  1.2599 -0.3039 -2.0014
 8304SOL     OW27866  10.573   1.516   9.670  0.4279 -0.0239  0.5777
 8304SOL    HW127867  10.611   1.503   9.757  0.9103  0.1230  0.3959
 8304SOL    HW227868  10.636   1.573   9.625  0.7268 -0.9616 -0.2237
 8305SOL     OW27869   8.948   6.350   7.430  0.1824 -0.6858  0.0852
 8305SOL    HW127870   9.002   6.276   7.457 -0.0823 -0.4706  1.2311
 8305SOL    HW227871   8.938   6.403   7.508 -0.8827 -0.2183 -0.3444
 8306SOL     OW27872   3.366   4.998   1.778  0.1898  0.6971  0.2392
 8306SOL    HW127873   3.362   4.964   1.867 -2.0093  1.4766  0.4910
 8306SOL    HW227874   3.328   4.928   1.724  0.5618  0.6395  0.0512
 8307SOL     OW27875   3.312   4.158   1.914 -0.1318 -0.4022 -0.3314
 8307SOL    HW127876   3.388   4.216   1.908 -0.8069  0.8421  2.0034
 8307SOL    HW227877   3.263   4.174   1.833  1.1894  0.0978 -1.0528
 8308SOL     OW27878   5.259   7.908   4.459  0.5560 -0.0640 -0.4298
 8308SOL    HW127879   5.170   7.938   4.444  0.9583  1.9401  0.8296
 8308SOL    HW227880   5.290   7.878   4.373 -1.7816 -2.3149 -0.6028
 8309SOL     OW27881   0.256   4.020   1.300  0.3581  0.3662 -0.0029
 8309SOL    HW127882   0.334   3.966   1.290  0.6038  0.8559 -0.7576
 8309SOL    HW227883   0.201   3.971   1.361 -0.0367 -1.4326 -1.7129
 8310SOL     OW27884   0.967   5.188   5.497  0.2534  0.0458  0.3188
 8310SOL    HW127885   0.967   5.133   5.418 -0.8184  0.3751  0.0776
 8310SOL    HW227886   0.955   5.125   5.569  1.7133 -0.3072  0.2802
 8311SOL     OW27887   5.746   9.315   9.856 -0.2007  0.5659 -0.5945
 8311SOL    HW127888   5.783   9.259   9.787 -0.6673  0.0181 -0.4113
 8311SOL    HW227889   5.658   9.335   9.825 -1.0965 -1.2069  0.6634
 8312SOL     OW27890   5.871  10.134   5.838 -0.0100  0.6004  0.1790
 8312SOL    HW127891   5.793  10.155   5.890 -0.1662  0.1731  0.1204
 8312SOL    HW227892   5.889  10.214   5.789 -0.5982  0.6062 -0.0379
 8313SOL     OW27893   9.511   7.231   8.950 -0.5215 -0.1489  0.1953
 8313SOL    HW127894   9.470   7.286   9.016 -1.8465 -3.2041  2.1311
 8313SOL    HW227895   9.443   7.216   8.884 -0.9662 -1.3142  0.8984
 8314SOL     OW27896   5.199   5.816   1.280 -1.1767 -0.3513 -0.0081
 8314SOL    HW127897   5.211   5.772   1.364 -0.7586 -0.0050  0.1185
 8314SOL    HW227898   5.106   5.840   1.278 -1.1886 -0.3693  0.3513
 8315SOL     OW27899   0.283   3.731   3.725 -0.4730  0.1288 -0.1039
 8315SOL    HW127900   0.335   3.671   3.778  0.6148  0.2585 -0.9876
 8315SOL    HW227901   0.345   3.799   3.698 -1.2539  0.6438 -0.6551
 8316SOL     OW27902   7.945   6.148   9.608 -0.1157 -0.0269  0.4248
 8316SOL    HW127903   7.904   6.099   9.679 -1.2158  0.5872  0.2203
 8316SOL    HW227904   7.998   6.083   9.562 -0.8822 -0.8365  0.6721
 8317SOL     OW27905  10.476   8.240   2.680  0.2890  0.5024 -0.9286
 8317SOL    HW127906  10.560   8.255   2.638  1.5635  1.3417  1.6756
 8317SOL    HW227907  10.495   8.180   2.752 -1.6455 -0.4122 -1.1071
 8318SOL     OW27908   5.597   2.959   0.158 -0.4920 -0.1918 -0.1862
 8318SOL    HW127909   5.527   3.011   0.119 -0.5655 -1.3196 -1.6547
 8318SOL    HW227910   5.671   3.020   0.166 -1.5012  0.9077  1.0537
 8319SOL     OW27911   2.738   4.211   7.168 -0.4360 -0.1010  0.3728
 8319SOL    HW127912   2.809   4.250   7.219 -2.3729  2.2785  1.4388
 8319SOL    HW227913   2.687   4.285   7.137 -2.3919 -1.7208 -0.4798
 8320SOL     OW27914   7.661   0.299   5.837  0.1626 -0.2561  0.3110
 8320SOL    HW127915   7.633   0.211   5.861 -1.8679 -0.1524 -1.4245
 8320SOL    HW227916   7.586   0.338   5.793  1.9988  1.2615 -1.7208
 8321SOL     OW27917   0.957   7.448   9.208 -0.3656 -0.0442 -0.1082
 8321SOL    HW127918   0.917   7.458   9.294 -0.1508  1.1614 -0.1426
 8321SOL    HW227919   1.028   7.512   9.206  1.0322 -1.5267 -0.3822
 8322SOL     OW27920   5.620   0.117  10.276 -0.1035 -0.1513  0.1979
 8322SOL    HW127921   5.612   0.023  10.289 -1.2563  0.1326  1.6997
 8322SOL    HW227922   5.707   0.128  10.236  0.0008 -1.8387 -0.1131
 8323SOL     OW27923   4.054   0.030   4.535  0.3288 -0.5310 -0.0909
 8323SOL    HW127924   4.109   0.082   4.595 -2.7835  1.6552  1.1490
 8323SOL    HW227925   4.099   0.034   4.451  1.3902  2.4129  0.4972
 8324SOL     OW27926   3.781   6.885   3.167 -0.0140 -0.2774 -0.0430
 8324SOL    HW127927   3.703   6.914   3.214  0.9113  0.3780  1.1240
 8324SOL    HW227928   3.753   6.806   3.120 -1.3065 -0.1805  0.5345
 8325SOL     OW27929   5.094   8.862   6.439 -0.5124  0.1663  0.1389
 8325SOL    HW127930   5.118   8.769   6.448 -0.5120  0.2304  0.7980
 8325SOL    HW227931   5.033   8.863   6.364 -1.8245 -0.6186  1.1518
 8326SOL     OW27932   2.424   0.115   5.045  0.3182 -0.1110  0.4463
 8326SOL    HW127933   2.348   0.081   5.092  0.5687 -0.8365  0.3433
 8326SOL    HW227934   2.479   0.038   5.028  1.5030  0.5190  1.2852
 8327SOL     OW27935   2.786   2.246   5.165  0.0089  0.9792  0.4398
 8327SOL    HW127936   2.839   2.267   5.088  0.6419  1.9260  1.1085
 8327SOL    HW227937   2.712   2.307   5.161  0.3149  1.3860  0.8417
 8328SOL     OW27938   4.329   6.797   3.369  0.0137  0.3866  0.6667
 8328SOL    HW127939   4.358   6.853   3.297 -1.3514 -1.6378 -1.6286
 8328SOL    HW227940   4.406   6.745   3.391  0.4110  0.9423  0.6210
 8329SOL     OW27941   5.843  10.040   3.365  0.2467  0.2766 -0.1100
 8329SOL    HW127942   5.903  10.020   3.437 -1.2487 -0.7651  0.9151
 8329SOL    HW227943   5.872  10.125   3.333  1.5817  0.3046  1.0498
 8330SOL     OW27944   4.187   9.477   9.866 -0.7252 -0.2619 -0.0794
 8330SOL    HW127945   4.225   9.561   9.839  0.1869 -0.5905  0.1388
 8330SOL    HW227946   4.098   9.479   9.832 -0.3454  0.3090 -1.1010
 8331SOL     OW27947   2.172   7.351   6.850  0.0718 -0.2039 -0.7884
 8331SOL    HW127948   2.118   7.272   6.840  3.4745 -2.5988 -2.2588
 8331SOL    HW227949   2.234   7.328   6.919  0.2726  1.7910 -0.2606
 8332SOL     OW27950   0.379   1.321   5.647  0.1790  0.3453  0.0180
 8332SOL    HW127951   0.316   1.249   5.639  1.6107 -0.9295 -0.2282
 8332SOL    HW227952   0.462   1.283   5.619  0.5965  2.7092 -2.3620
 8333SOL     OW27953   9.345   3.358   6.342  0.3133 -0.2888 -0.3703
 8333SOL    HW127954   9.283   3.405   6.285  0.6050 -0.2208 -0.6325
 8333SOL    HW227955   9.356   3.273   6.299  0.0642 -0.4660 -0.0885
 8334SOL     OW27956   2.017   7.439  10.029 -0.2567 -0.4370 -0.8906
 8334SOL    HW127957   2.085   7.504  10.012 -0.3650 -0.5153 -1.6879
 8334SOL    HW227958   2.003   7.396   9.944 -1.3355 -0.3872 -0.7581
 8335SOL     OW27959  10.662   4.601   2.840  0.0752 -0.0516  0.2425
 8335SOL    HW127960  10.655   4.520   2.789  1.5782  0.5721 -1.0268
 8335SOL    HW227961  10.655   4.571   2.931  1.2464 -1.7205 -0.1596
 8336SOL     OW27962   3.205   2.897   7.496 -0.4020  0.7975 -0.0025
 8336SOL    HW127963   3.119   2.857   7.510  0.3604 -0.8814  0.2262
 8336SOL    HW227964   3.225   2.877   7.404  0.0059  0.6062  0.1264
 8337SOL     OW27965   4.841   7.364   0.885  0.3785 -0.1970 -0.1054
 8337SOL    HW127966   4.753   7.382   0.854  0.7230 -0.8472 -1.5229
 8337SOL    HW227967   4.875   7.449   0.913 -0.4124  0.1849 -0.3065
 8338SOL     OW27968   0.134   8.000   1.216  0.0280 -0.0663  0.1924
 8338SOL    HW127969   0.183   7.960   1.144 -0.6870 -1.2627  0.3348
 8338SOL    HW227970   0.042   7.986   1.192 -0.2256  0.8549  0.6210
 8339SOL     OW27971   2.752   9.991   5.346 -0.3414  0.6375  0.2968
 8339SOL    HW127972   2.663   9.979   5.379 -0.2590  0.5551  0.4935
 8339SOL    HW227973   2.798  10.037   5.416 -1.1311  3.9290 -1.1508
 8340SOL     OW27974   7.739   4.278   6.071  0.3043 -0.0238 -0.1842
 8340SOL    HW127975   7.661   4.275   6.127 -0.9843  3.2112 -1.5774
 8340SOL    HW227976   7.732   4.199   6.017 -2.2397  0.3211 -0.4879
 8341SOL     OW27977  10.056  10.060   8.985 -0.0096 -0.3348  0.5520
 8341SOL    HW127978  10.042  10.015   8.901  0.5534 -1.6561  1.1440
 8341SOL    HW227979  10.017  10.002   9.050  2.6205 -1.0984  1.5833
 8342SOL     OW27980   7.539   9.694   0.654 -0.3204 -0.1770  0.4358
 8342SOL    HW127981   7.533   9.617   0.596 -0.6035 -0.0947  0.3549
 8342SOL    HW227982   7.627   9.689   0.691 -0.9234 -1.5268  1.7917
 8343SOL     OW27983   4.700   4.633   8.461 -1.0652  0.0407  0.0405
 8343SOL    HW127984   4.665   4.718   8.488  0.3742  1.3492 -1.9805
 8343SOL    HW227985   4.655   4.613   8.379  2.7824  1.9232 -2.8167
 8344SOL     OW27986   0.747   7.203   0.383  0.2505 -0.8832 -0.0136
 8344SOL    HW127987   0.744   7.168   0.472 -0.1457 -0.2143  0.2465
 8344SOL    HW227988   0.656   7.227   0.363  0.7020  1.5624  0.4942
 8345SOL     OW27989   5.421   6.280   5.752  0.2908  0.1447 -0.3130
 8345SOL    HW127990   5.504   6.310   5.790 -0.1420  0.3805  0.4481
 8345SOL    HW227991   5.391   6.354   5.700  0.2460  0.2857 -0.0869
 8346SOL     OW27992   4.791   2.732   6.427 -0.0763 -0.0818  0.3933
 8346SOL    HW127993   4.880   2.768   6.434  0.0632 -0.3652  0.1126
 8346SOL    HW227994   4.734   2.807   6.442  0.2033  0.5320 -1.3728
 8347SOL     OW27995   5.351   3.337   7.481  0.1995  0.0073  0.1686
 8347SOL    HW127996   5.266   3.349   7.440  0.0267  0.8351  0.7319
 8347SOL    HW227997   5.341   3.376   7.568  1.2876  0.5454  0.0720
 8348SOL     OW27998   7.372   2.789   7.803 -0.2331  0.3144  0.2814
 8348SOL    HW127999   7.431   2.862   7.784  0.5215 -0.2698  0.3523
 8348SOL    HW228000   7.344   2.758   7.716 -0.1753  0.3893  0.2359
 8349SOL     OW28001   0.134   1.568   2.404 -0.1791  0.1094 -0.3175
 8349SOL    HW128002   0.087   1.497   2.360 -0.9704  0.1520  0.4212
 8349SOL    HW228003   0.087   1.647   2.378  1.2092  0.4826 -1.8103
 8350SOL     OW28004   0.362   5.270   7.822 -0.5902  0.3841  0.6209
 8350SOL    HW128005   0.422   5.344   7.831  0.0888  0.3209 -2.4106
 8350SOL    HW228006   0.325   5.279   7.734 -0.7459 -2.6942  0.2524
 8351SOL     OW28007   3.870   4.633   7.989  0.1767  0.3265  0.6536
 8351SOL    HW128008   3.950   4.677   8.015  0.6622  0.3341 -0.7767
 8351SOL    HW228009   3.836   4.684   7.915  0.3276 -1.1781 -0.5237
 8352SOL     OW28010   7.767   6.381   7.717  0.1599 -0.1685 -0.1903
 8352SOL    HW128011   7.752   6.428   7.635  1.4433  1.0311  0.2388
 8352SOL    HW228012   7.758   6.447   7.786 -0.7288 -1.1171  0.6557
 8353SOL     OW28013   4.888   3.164   1.853 -0.2948  0.3315  0.0266
 8353SOL    HW128014   4.814   3.224   1.845  0.4457  1.3571  0.5521
 8353SOL    HW228015   4.850   3.080   1.878 -1.2304  0.9560  0.7475
 8354SOL     OW28016   9.596   8.524   7.756  0.3039  0.5024 -0.0759
 8354SOL    HW128017   9.639   8.480   7.682  0.2120 -0.2300  0.2994
 8354SOL    HW228018   9.665   8.533   7.822 -0.0139 -0.3756  0.3978
 8355SOL     OW28019   4.691   1.747   2.524  0.1075  0.4723 -0.4222
 8355SOL    HW128020   4.773   1.707   2.551 -1.4121 -1.7889  1.2419
 8355SOL    HW228021   4.647   1.679   2.472 -0.7858  1.5624 -1.1557
 8356SOL     OW28022   8.013   8.650  10.008  0.1270 -0.3311 -0.2790
 8356SOL    HW128023   8.045   8.733   9.974 -0.4263  0.1974  0.4574
 8356SOL    HW228024   8.023   8.657  10.103 -2.3918 -0.0012  0.0243
 8357SOL     OW28025   7.419   9.165  10.125 -0.8642  0.1557 -0.0388
 8357SOL    HW128026   7.381   9.078  10.123  1.2147 -0.8210  0.3695
 8357SOL    HW228027   7.413   9.196  10.034 -3.1977  0.3709  0.1402
 8358SOL     OW28028   7.964   0.626   4.353  0.1423 -0.1387  0.1268
 8358SOL    HW128029   7.914   0.647   4.431  2.7921 -2.5994  2.7354
 8358SOL    HW228030   8.023   0.700   4.340 -1.9854  1.4335 -1.2234
 8359SOL     OW28031   8.497   0.678   9.292  0.1397  0.7593 -0.2443
 8359SOL    HW128032   8.482   0.742   9.361 -0.7465  2.1403 -1.6542
 8359SOL    HW228033   8.463   0.596   9.327  0.0342  1.3419  1.0758
 8360SOL     OW28034   7.270   0.123   9.764  0.7794 -0.0005 -0.2884
 8360SOL    HW128035   7.312   0.152   9.684  0.6016 -1.0933 -0.8002
 8360SOL    HW228036   7.340   0.080   9.814  1.9105  4.0632  2.0399
 8361SOL     OW28037   3.903   1.584   4.379  0.2799 -0.3838 -0.2357
 8361SOL    HW128038   3.874   1.554   4.465 -1.6276  2.4474  0.2374
 8361SOL    HW228039   3.856   1.666   4.365  0.4888 -0.7316 -4.0256
 8362SOL     OW28040   8.185   6.729   7.029 -0.0764 -0.1228  0.0805
 8362SOL    HW128041   8.194   6.705   6.937  2.5428 -1.0345  0.4868
 8362SOL    HW228042   8.223   6.816   7.035  1.7236 -0.8976  0.5830
 8363SOL     OW28043   3.052   1.050   9.889  0.2362  0.2165 -0.3164
 8363SOL    HW128044   3.030   0.970   9.841 -0.2323 -0.4363  0.9461
 8363SOL    HW228045   3.120   1.091   9.836  1.1042 -1.4562 -0.5655
 8364SOL     OW28046   6.651   6.805   1.098 -0.2412 -0.5624 -0.2993
 8364SOL    HW128047   6.575   6.758   1.064 -0.7364 -0.2487  0.3623
 8364SOL    HW228048   6.619   6.851   1.175  0.7397 -0.8303  0.2889
 8365SOL     OW28049   8.694   5.577   1.312  0.1216  0.0137 -0.0607
 8365SOL    HW128050   8.668   5.645   1.374 -0.1538 -0.2289  0.0911
 8365SOL    HW228051   8.779   5.606   1.279  1.7285 -1.2699  2.6298
 8366SOL     OW28052   3.683   0.448   7.094 -0.7566 -0.3189  0.1379
 8366SOL    HW128053   3.648   0.411   7.013  2.8247 -0.2554 -1.6301
 8366SOL    HW228054   3.692   0.373   7.153 -2.6992 -0.4902  0.2793
 8367SOL     OW28055  10.354   9.153   1.123 -0.1504 -0.1548 -0.1470
 8367SOL    HW128056  10.324   9.123   1.038 -1.4059 -1.2906  0.6416
 8367SOL    HW228057  10.342   9.248   1.121  0.2840 -0.1182 -1.3800
 8368SOL     OW28058   1.204   8.276   4.147 -0.1509 -0.3276  0.1559
 8368SOL    HW128059   1.215   8.351   4.088 -1.3222 -1.4826 -1.6452
 8368SOL    HW228060   1.293   8.248   4.167  0.3078 -0.1584 -1.4817
 8369SOL     OW28061   4.960   9.304   8.288  0.0644  0.1498  0.5598
 8369SOL    HW128062   4.938   9.225   8.337 -0.7931 -0.9209 -1.4097
 8369SOL    HW228063   5.055   9.306   8.286  0.1055 -1.3475 -0.0717
 8370SOL     OW28064   0.156   9.936   1.999  0.3444  0.6308  0.0745
 8370SOL    HW128065   0.117   9.852   2.025 -0.9221  1.2681  0.3274
 8370SOL    HW228066   0.122   9.952   1.911  2.1613 -0.0303 -0.8119
 8371SOL     OW28067   3.363   4.600   6.194 -0.4912 -0.1603 -1.0490
 8371SOL    HW128068   3.359   4.506   6.178  0.3269 -0.7619  1.7933
 8371SOL    HW228069   3.273   4.625   6.218 -0.2127 -0.8324  0.8614
 8372SOL     OW28070   2.424   6.582   7.039 -0.0991 -0.0512  0.2890
 8372SOL    HW128071   2.499   6.619   7.086 -0.2932 -1.8085  2.1635
 8372SOL    HW228072   2.354   6.647   7.049  0.5058  0.5577  0.5976
 8373SOL     OW28073   3.007   6.786  10.294 -0.1290  0.0640 -0.6396
 8373SOL    HW128074   2.970   6.701  10.272  1.4225 -0.7639 -0.1801
 8373SOL    HW228075   2.988   6.797  10.387 -0.6874  0.4155 -0.7926
 8374SOL     OW28076   8.292   4.203   0.242 -0.3971  0.3367 -0.0648
 8374SOL    HW128077   8.348   4.126   0.249 -0.8886  0.0529  0.8995
 8374SOL    HW228078   8.254   4.213   0.329 -0.8497  1.2845 -0.3582
 8375SOL     OW28079   0.154   4.079   8.150 -0.3177 -0.1267 -0.3167
 8375SOL    HW128080   0.184   3.990   8.165 -0.4307 -0.1644 -0.3181
 8375SOL    HW228081   0.189   4.129   8.224 -0.1410 -0.1460 -0.3867
 8376SOL     OW28082   5.167   8.694   3.771  0.2167 -0.0523  0.6509
 8376SOL    HW128083   5.195   8.603   3.760 -1.1314 -0.6622  1.8633
 8376SOL    HW228084   5.248   8.745   3.771  0.9672 -1.2010 -0.4272
 8377SOL     OW28085   5.258   8.981   4.298 -0.5608 -0.0739  0.2324
 8377SOL    HW128086   5.265   9.021   4.385 -0.7698  0.2303  0.1079
 8377SOL    HW228087   5.165   8.985   4.276 -0.4512  0.2245 -0.1836
 8378SOL     OW28088   6.455   7.339   2.399  0.1222 -0.6478  0.2082
 8378SOL    HW128089   6.498   7.265   2.356  0.5857  0.6935 -1.7334
 8378SOL    HW228090   6.403   7.380   2.330  0.4667  1.2855  1.0375
 8379SOL     OW28091   8.916   4.205   2.020  0.1962  0.2620  0.5608
 8379SOL    HW128092   8.872   4.176   2.100  1.7152  1.9654  2.1166
 8379SOL    HW228093   8.918   4.127   1.964 -3.4407 -0.2438  0.9182
 8380SOL     OW28094   8.425   7.159   4.282  0.0789  0.1068 -0.4475
 8380SOL    HW128095   8.506   7.206   4.259  0.5208  0.0677  0.9274
 8380SOL    HW228096   8.439   7.133   4.373 -1.0368 -0.8712 -0.5507
 8381SOL     OW28097   0.791  10.400   1.631  0.3433  0.5949  1.2203
 8381SOL    HW128098   0.877  10.421   1.665  0.7809 -0.1626  0.6396
 8381SOL    HW228099   0.807  10.377   1.539 -0.5561  0.9819  0.9548
 8382SOL     OW28100   8.120   5.697   6.332  0.2431 -0.7193  0.2983
 8382SOL    HW128101   8.145   5.651   6.412  1.3726 -0.1389  0.3074
 8382SOL    HW228102   8.032   5.730   6.349  1.0050  0.6031  1.8619
 8383SOL     OW28103   0.230   6.328   0.627  0.1515  0.0063 -0.0718
 8383SOL    HW128104   0.298   6.381   0.584 -0.8975  0.7244 -0.9013
 8383SOL    HW228105   0.277   6.280   0.695  1.7701 -0.6857 -1.5889
 8384SOL     OW28106   3.030   8.348  10.202  0.0625 -0.1784 -0.2579
 8384SOL    HW128107   3.095   8.391  10.256 -0.4225 -1.2493  1.2696
 8384SOL    HW228108   3.042   8.255  10.220 -0.7403 -0.4956 -1.2745
 8385SOL     OW28109   4.409   1.602   1.311  0.0628  1.0088 -0.0989
 8385SOL    HW128110   4.313   1.599   1.313  0.0429 -1.9282  0.3062
 8385SOL    HW228111   4.435   1.557   1.392  1.7858  1.6673 -0.2606
 8386SOL     OW28112   2.638   8.722   6.149  0.0833  0.4988  0.1332
 8386SOL    HW128113   2.703   8.781   6.187  1.5029  0.8673 -2.5948
 8386SOL    HW228114   2.682   8.637   6.148  0.5041  0.6932 -1.4650
 8387SOL     OW28115   1.911   0.191   0.978 -0.5313  0.0113  0.2642
 8387SOL    HW128116   1.929   0.275   1.021  0.7207 -0.8427  1.5137
 8387SOL    HW228117   1.844   0.150   1.032 -1.4845  0.3717 -0.6113
 8388SOL     OW28118   4.963   4.799  10.478  0.4365  0.0265  0.0278
 8388SOL    HW128119   5.000   4.845  10.403  1.9459 -0.0531  0.6931
 8388SOL    HW228120   4.925   4.869  10.533  0.0463  0.1601 -0.4026
 8389SOL     OW28121   6.993   4.210  10.535 -0.4036 -0.3765 -0.6845
 8389SOL    HW128122   6.940   4.238  10.461  0.3810  0.6261 -0.8901
 8389SOL    HW228123   6.967   4.268  10.607 -1.3681 -1.5293 -0.0708
 8390SOL     OW28124   3.897   0.754   3.496  1.3691 -0.4301 -0.6435
 8390SOL    HW128125   3.931   0.698   3.565  3.0596  0.0120 -1.0778
 8390SOL    HW228126   3.886   0.696   3.421 -1.0532 -1.0464  0.0799
 8391SOL     OW28127   2.123   7.516   8.536 -0.0512  0.0885 -0.2300
 8391SOL    HW128128   2.053   7.551   8.481  0.5346  0.7643 -0.5573
 8391SOL    HW228129   2.108   7.554   8.622 -1.1605 -1.2223  0.2019
 8392SOL     OW28130   9.790   8.622   3.613  0.0967 -0.5620  0.0490
 8392SOL    HW128131   9.801   8.600   3.521 -0.7173  0.3332 -0.2710
 8392SOL    HW228132   9.879   8.642   3.644  0.1723  0.7155 -0.9517
 8393SOL     OW28133   5.664   9.447   4.338  0.0179 -0.2765  0.4229
 8393SOL    HW128134   5.691   9.396   4.261  1.8580  1.6103 -0.2994
 8393SOL    HW228135   5.735   9.433   4.402 -1.2302 -1.3987  1.6160
 8394SOL     OW28136   5.940   9.182   6.364  0.1968  0.0352 -0.0958
 8394SOL    HW128137   6.013   9.175   6.302  0.7095  2.2223  0.1782
 8394SOL    HW228138   5.879   9.243   6.324 -1.2915 -1.3516 -0.0678
 8395SOL     OW28139   4.606   9.186   8.403  0.2159  0.6961  0.1630
 8395SOL    HW128140   4.682   9.189   8.461 -0.7012  0.1201  1.4501
 8395SOL    HW228141   4.609   9.270   8.356  0.4202  1.6671  1.8131
 8396SOL     OW28142  10.281  10.597  10.293 -0.2911  0.0543 -0.3249
 8396SOL    HW128143  10.342  10.663  10.324  1.0024 -0.2618 -2.0829
 8396SOL    HW228144  10.212  10.647  10.249 -0.0207  0.3081 -0.4645
 8397SOL     OW28145  10.577   5.544  10.270 -0.1872  0.2320 -0.3623
 8397SOL    HW128146  10.543   5.510  10.188 -0.3882 -0.9535  0.1775
 8397SOL    HW228147  10.627   5.621  10.246 -1.0624  0.4725 -1.4715
 8398SOL     OW28148   2.195   7.051   0.571  0.1581  0.1311 -0.2355
 8398SOL    HW128149   2.250   7.017   0.500  0.1321  0.1095 -0.2448
 8398SOL    HW228150   2.174   6.975   0.624  1.8163  0.4101  0.9232
 8399SOL     OW28151   8.103   1.272   1.147 -0.4693 -0.1246 -0.1701
 8399SOL    HW128152   8.105   1.221   1.228 -0.1762 -0.9467 -0.6911
 8399SOL    HW228153   8.066   1.356   1.174 -0.8847 -0.5712  0.7181
 8400SOL     OW28154  10.425   7.436   7.262  0.0505  0.4722 -0.2426
 8400SOL    HW128155  10.409   7.405   7.351  0.1936  1.8404  0.2900
 8400SOL    HW228156  10.516   7.466   7.263  0.8485 -1.6506 -1.5478
 8401SOL     OW28157   9.433   6.782   9.381 -1.1031  0.8590  0.4747
 8401SOL    HW128158   9.430   6.736   9.297  0.5845  2.4780 -0.5335
 8401SOL    HW228159   9.512   6.748   9.424 -1.7340  0.3388  1.2471
 8402SOL     OW28160   8.480   6.779   5.958  0.9016  0.2538 -0.2071
 8402SOL    HW128161   8.481   6.868   5.991  1.4120  0.6424 -1.2255
 8402SOL    HW228162   8.389   6.763   5.933  1.4742  2.2715 -4.5289
 8403SOL     OW28163   6.008   1.365   8.163  0.0707  0.0225  0.4742
 8403SOL    HW128164   5.990   1.284   8.115 -0.5521 -0.2567  1.1503
 8403SOL    HW228165   6.091   1.396   8.128  0.2712 -0.8655  0.1388
 8404SOL     OW28166   8.151   8.186   8.174  0.2118  0.4014 -0.3015
 8404SOL    HW128167   8.185   8.232   8.250 -0.9452  1.4357 -0.3662
 8404SOL    HW228168   8.057   8.179   8.191  0.2021 -1.0472 -0.7820
 8405SOL     OW28169   3.783   2.399   8.676 -0.3511 -0.6789 -0.0875
 8405SOL    HW128170   3.701   2.367   8.714 -0.4428 -1.7677 -1.1308
 8405SOL    HW228171   3.808   2.331   8.613  2.3168 -1.3065  1.4845
 8406SOL     OW28172   8.386   7.972   0.968  0.0603 -0.3352 -0.2265
 8406SOL    HW128173   8.443   8.005   0.899  1.6745 -0.5506  0.9240
 8406SOL    HW228174   8.307   7.943   0.923  0.3094  1.1891 -1.7427
 8407SOL     OW28175   7.185   8.081  10.477  0.6614 -0.3945  0.0196
 8407SOL    HW128176   7.099   8.072  10.519  0.7479 -3.1472 -0.2344
 8407SOL    HW228177   7.168   8.069  10.384  1.1303  0.7574 -0.2327
 8408SOL     OW28178   7.294   4.552   2.414 -0.3623 -1.0250 -0.1978
 8408SOL    HW128179   7.290   4.535   2.320 -1.4779  0.9325 -0.5631
 8408SOL    HW228180   7.307   4.647   2.421 -0.2353 -1.1347  1.6305
 8409SOL     OW28181   7.722   7.024   0.273 -0.3074  0.2231 -0.2946
 8409SOL    HW128182   7.811   7.012   0.240 -0.4835  1.4033 -1.2870
 8409SOL    HW228183   7.667   7.010   0.196 -0.9542 -0.0732  0.2170
 8410SOL     OW28184   2.763   2.240   3.115  0.4681  0.3185 -0.4580
 8410SOL    HW128185   2.744   2.167   3.057  0.2646  1.5490 -2.0001
 8410SOL    HW228186   2.836   2.285   3.074  1.3930  0.3369  1.1052
 8411SOL     OW28187   4.166   8.914   7.847 -0.2447  0.1588 -0.4451
 8411SOL    HW128188   4.176   8.902   7.753 -0.4921 -0.9746 -0.3410
 8411SOL    HW228189   4.078   8.884   7.866  0.3000 -1.0255  0.3455
 8412SOL     OW28190   3.299   5.140   9.652 -0.1702  0.2223 -0.6445
 8412SOL    HW128191   3.300   5.223   9.700 -1.2445  0.0148 -0.2529
 8412SOL    HW228192   3.207   5.122   9.635 -0.0596 -1.5522  0.4316
 8413SOL     OW28193   7.148   7.351   6.608 -0.7497  0.0220 -0.2036
 8413SOL    HW128194   7.149   7.446   6.597  0.0045 -0.0929 -1.3276
 8413SOL    HW228195   7.065   7.333   6.650 -1.4289  1.0817 -1.0284
 8414SOL     OW28196   7.573   1.408   2.787  0.2162  0.1057 -0.2275
 8414SOL    HW128197   7.520   1.338   2.748  1.4279  0.0771 -1.9305
 8414SOL    HW228198   7.655   1.366   2.811  0.9406  0.8906 -1.2213
 8415SOL     OW28199   5.349   1.188   0.448  0.1674 -0.0487 -0.0518
 8415SOL    HW128200   5.426   1.152   0.493  2.7414  1.5747 -2.8021
 8415SOL    HW228201   5.332   1.271   0.492 -1.5283 -1.3755  1.9712
 8416SOL     OW28202   3.639   0.253   9.457  0.3576 -0.3443 -0.4328
 8416SOL    HW128203   3.656   0.206   9.375 -0.3844 -0.7871 -0.3378
 8416SOL    HW228204   3.544   0.250   9.468  0.5341 -1.5004  1.1482
 8417SOL     OW28205   5.747   6.379   0.050 -0.2393 -0.2183 -0.1799
 8417SOL    HW128206   5.694   6.390   0.128 -0.9176  0.1939 -0.6873
 8417SOL    HW228207   5.720   6.294   0.014  1.7272 -1.5351  1.2570
 8418SOL     OW28208   3.861   9.402   6.358  0.0317 -0.3555  0.4017
 8418SOL    HW128209   3.932   9.383   6.296 -0.2072  0.4031 -0.1225
 8418SOL    HW228210   3.806   9.323   6.356 -1.5729  0.6660 -2.6117
 8419SOL     OW28211   5.365   4.325   2.681  0.4209  0.5647  0.5706
 8419SOL    HW128212   5.438   4.301   2.739 -0.6005 -0.9519  1.2811
 8419SOL    HW228213   5.336   4.410   2.714  0.4976  0.1847  1.6543
 8420SOL     OW28214   6.991   9.785   5.934  0.3205  0.3235  0.3961
 8420SOL    HW128215   6.965   9.746   5.850 -1.6263  0.3028  0.9578
 8420SOL    HW228216   7.061   9.846   5.912  0.4677 -0.3527 -1.1071
 8421SOL     OW28217   7.113   5.412   2.003 -0.7444  0.0639 -0.3830
 8421SOL    HW128218   7.158   5.496   1.995  1.4804 -0.7991  1.5206
 8421SOL    HW228219   7.151   5.373   2.082 -0.8727 -3.1830 -1.7681
 8422SOL     OW28220   2.282   3.467   4.618 -0.3627 -0.5954 -0.2444
 8422SOL    HW128221   2.324   3.382   4.625  1.8169  0.3996 -0.4687
 8422SOL    HW228222   2.336   3.525   4.671 -1.3902  0.7975 -0.6511
 8423SOL     OW28223   0.329   0.751  10.254 -0.4357 -0.4098  0.0972
 8423SOL    HW128224   0.395   0.778  10.318  0.5241 -1.5232 -0.3878
 8423SOL    HW228225   0.264   0.704  10.306 -0.5328  0.1381  0.4852
 8424SOL     OW28226   4.143  10.512   0.756 -0.7141  0.0531  0.2105
 8424SOL    HW128227   4.088  10.509   0.678  0.0647 -0.5563 -0.3274
 8424SOL    HW228228   4.089  10.556   0.822 -1.6900 -0.1818 -0.4189
 8425SOL     OW28229   5.986   1.705   1.420 -0.9090 -1.0553 -0.3165
 8425SOL    HW128230   5.953   1.651   1.348 -2.6323 -1.9279  1.0199
 8425SOL    HW228231   5.980   1.647   1.497  0.6151 -0.0843  0.5748
 8426SOL     OW28232   0.788   2.798   6.017  0.0328  0.1315  0.5396
 8426SOL    HW128233   0.811   2.884   6.053  0.2293  1.0214 -1.5322
 8426SOL    HW228234   0.708   2.773   6.063 -0.1685  1.5461  1.0078
 8427SOL     OW28235   2.365   9.317   0.847  0.3373 -0.1242 -0.0059
 8427SOL    HW128236   2.432   9.263   0.804  0.4821  0.5165 -0.6060
 8427SOL    HW228237   2.317   9.357   0.775 -0.1283  0.1136  0.4325
 8428SOL     OW28238   0.554   6.721   3.719  0.2461 -0.0070  0.3681
 8428SOL    HW128239   0.579   6.731   3.811 -1.4680  0.1630  0.8553
 8428SOL    HW228240   0.471   6.672   3.722 -1.0661  1.9724 -0.8974
 8429SOL     OW28241   5.491   1.949   7.295 -0.1093 -0.0269  0.2062
 8429SOL    HW128242   5.495   2.008   7.370  1.2301 -1.4258  1.3261
 8429SOL    HW228243   5.414   1.894   7.311  0.2723 -0.4389  0.6895
 8430SOL     OW28244   0.261   4.220   5.620  0.3876 -0.2571  0.6547
 8430SOL    HW128245   0.280   4.307   5.586 -1.6868  0.1615  0.4456
 8430SOL    HW228246   0.323   4.163   5.575  0.9654  0.9515 -0.1340
 8431SOL     OW28247   0.047  10.419  10.000  0.7005 -0.1215  0.6471
 8431SOL    HW128248   0.018  10.374   9.921 -0.2199  0.3349  0.7068
 8431SOL    HW228249   0.034  10.512   9.981 -1.0106 -0.0638  1.8678
 8432SOL     OW28250   7.819  10.159   2.751  0.4118 -0.1956 -0.3924
 8432SOL    HW128251   7.867  10.227   2.704  0.5638 -0.4925 -0.6621
 8432SOL    HW228252   7.833  10.181   2.844  0.7323 -0.0493 -0.4733
 8433SOL     OW28253   3.424   9.397   4.776 -0.5017 -0.0750  0.0190
 8433SOL    HW128254   3.504   9.387   4.828 -1.3461  2.1630  1.9126
 8433SOL    HW228255   3.449   9.365   4.689  1.2718 -3.0293  1.4553
 8434SOL     OW28256   0.923   3.581   1.437  0.5096 -0.3187 -0.1255
 8434SOL    HW128257   0.890   3.496   1.408 -1.6461  0.4241  0.0098
 8434SOL    HW228258   0.948   3.566   1.529 -2.8319 -0.1601  0.9374
 8435SOL     OW28259   8.047   6.046   3.120 -0.0061  0.0685 -0.2425
 8435SOL    HW128260   8.005   6.022   3.202 -0.9800  0.2685 -0.6684
 8435SOL    HW228261   8.001   6.125   3.091  0.3539  0.0257 -0.9553
 8436SOL     OW28262   4.628   1.383   8.798 -0.7466  0.6608  0.0676
 8436SOL    HW128263   4.649   1.446   8.867  0.9722  0.7596 -0.5057
 8436SOL    HW228264   4.534   1.369   8.807 -0.5636  0.5809  2.4808
 8437SOL     OW28265   4.839   8.377   4.274  0.1048  0.0887 -0.1616
 8437SOL    HW128266   4.884   8.293   4.275  1.6213  0.8127  2.3711
 8437SOL    HW228267   4.746   8.355   4.288 -0.1424 -1.2888 -3.2183
 8438SOL     OW28268   2.504   7.075   1.166  0.0618  0.6738  0.6158
 8438SOL    HW128269   2.486   7.036   1.080  0.5368  2.1449 -0.1953
 8438SOL    HW228270   2.592   7.046   1.187  0.7613  1.9487 -0.4004
 8439SOL     OW28271   9.457   9.849   6.162 -0.5833 -0.2255  0.3324
 8439SOL    HW128272   9.423   9.774   6.115 -2.2671  0.7699 -0.1070
 8439SOL    HW228273   9.418   9.843   6.250 -0.6693  0.0928  0.3181
 8440SOL     OW28274   6.232   1.843   1.386  0.4910  0.0180  0.4407
 8440SOL    HW128275   6.300   1.821   1.450  0.1957 -0.0858  0.7194
 8440SOL    HW228276   6.162   1.780   1.402  0.8465 -0.7087 -0.6989
 8441SOL     OW28277   5.145  10.108   9.664  0.7502  0.3001 -0.1510
 8441SOL    HW128278   5.206  10.088   9.735  0.8145  2.4814  0.5082
 8441SOL    HW228279   5.073  10.154   9.707 -0.6117 -0.8423 -1.1371
 8442SOL     OW28280   6.009   7.194   0.492 -0.0379 -0.8932 -0.2750
 8442SOL    HW128281   6.028   7.231   0.578  0.2868 -1.4034 -0.1199
 8442SOL    HW228282   5.918   7.219   0.474  0.4209  0.6854 -0.5549
 8443SOL     OW28283   5.331   8.161   2.842  0.4331 -0.3311  0.1398
 8443SOL    HW128284   5.299   8.180   2.931 -0.5218  0.4605 -0.3496
 8443SOL    HW228285   5.262   8.195   2.785  0.2601 -2.3228 -0.8821
 8444SOL     OW28286   6.725   5.730   7.083  0.1554 -0.1847 -0.5802
 8444SOL    HW128287   6.735   5.662   7.017  0.0052  0.0971 -0.8945
 8444SOL    HW228288   6.736   5.812   7.035 -2.4819  0.1406 -0.7774
 8445SOL     OW28289   4.885   8.843   9.016 -0.4110 -0.4767 -0.3976
 8445SOL    HW128290   4.797   8.808   9.026 -0.8229  0.7040  0.3503
 8445SOL    HW228291   4.881   8.896   8.936 -0.4002 -0.3506 -0.3141
 8446SOL     OW28292   5.514  10.392   8.641  0.4415  0.2673 -0.3756
 8446SOL    HW128293   5.481  10.364   8.555  0.9072 -1.2694 -0.0785
 8446SOL    HW228294   5.455  10.351   8.704  1.6007 -0.7417  0.0952
 8447SOL     OW28295   7.102   6.998   2.074  0.0845  0.3699  0.3416
 8447SOL    HW128296   7.101   6.976   2.167 -0.8057  0.4418  0.3578
 8447SOL    HW228297   7.182   6.959   2.041 -0.8251 -1.8814  0.6229
 8448SOL     OW28298   0.486   3.547   6.541 -0.7103 -0.1401 -0.2317
 8448SOL    HW128299   0.478   3.641   6.526 -3.3415 -0.2381  0.1976
 8448SOL    HW228300   0.475   3.508   6.455 -1.0699 -0.1086 -0.2007
 8449SOL     OW28301   4.886   5.547   9.419 -0.1753 -0.3748  0.2223
 8449SOL    HW128302   4.867   5.485   9.349 -1.3163  0.5929 -0.3546
 8449SOL    HW228303   4.878   5.496   9.499 -1.6448 -0.8912 -0.2134
 8450SOL     OW28304   9.740   1.684   0.172  0.0511 -0.9412 -0.1042
 8450SOL    HW128305   9.650   1.699   0.200  0.7177  1.7838  0.8130
 8450SOL    HW228306   9.789   1.759   0.205  2.9826 -3.0319  0.7263
 8451SOL     OW28307   7.630   5.295   7.558  0.0965 -0.6699 -0.3592
 8451SOL    HW128308   7.578   5.219   7.584  0.4754 -1.6157 -2.1951
 8451SOL    HW228309   7.584   5.370   7.597 -1.0637 -1.7076  0.3536
 8452SOL     OW28310   7.973   0.265   6.429  0.2175 -0.4480 -0.0689
 8452SOL    HW128311   8.032   0.323   6.381  0.0956 -1.6262 -1.7034
 8452SOL    HW228312   7.885   0.289   6.398  0.3033 -3.4193 -3.1665
 8453SOL     OW28313   8.779   3.031   2.842  0.0652 -0.8425  0.1167
 8453SOL    HW128314   8.855   3.030   2.784  0.4284  0.2789  0.5421
 8453SOL    HW228315   8.815   3.013   2.929 -0.1324 -0.2465  0.3297
 8454SOL     OW28316   3.530   6.164   2.822 -0.6416  0.6678 -0.4253
 8454SOL    HW128317   3.444   6.122   2.819 -0.3478  0.0528 -0.3513
 8454SOL    HW228318   3.555   6.162   2.914 -0.7815  1.3473 -0.3640
 8455SOL     OW28319   7.069   6.573   9.602  0.0119 -0.3081  0.0793
 8455SOL    HW128320   7.161   6.546   9.607  0.4898  1.3781  1.2269
 8455SOL    HW228321   7.028   6.508   9.544  1.6225 -1.8606  0.5949
 8456SOL     OW28322  10.038  10.651   8.525  0.3793  0.3914  0.1215
 8456SOL    HW128323  10.034  10.659   8.620  2.2439  0.5391  0.2308
 8456SOL    HW228324  10.084  10.729   8.496  0.6653 -0.1004 -0.8125
 8457SOL     OW28325   0.365  10.183   7.647 -0.0676 -0.5794  0.3712
 8457SOL    HW128326   0.459  10.166   7.634 -0.2329 -0.7531 -0.7396
 8457SOL    HW228327   0.326  10.097   7.656 -0.1003 -0.4967  1.0881
 8458SOL     OW28328   9.108   5.166   7.960  0.1915  0.3807  0.3113
 8458SOL    HW128329   9.147   5.247   7.993  0.0281  0.4300  0.3855
 8458SOL    HW228330   9.099   5.110   8.037 -3.1317  1.6492  1.0364
 8459SOL     OW28331   4.918   6.987   8.152 -0.4292  0.0153 -0.1604
 8459SOL    HW128332   4.944   6.929   8.081 -2.3862 -0.9513 -0.1541
 8459SOL    HW228333   4.866   7.055   8.110 -1.1000 -0.2335  0.2406
 8460SOL     OW28334   7.562   0.482   3.951 -0.4205  0.2431 -0.2890
 8460SOL    HW128335   7.513   0.401   3.944 -0.4219  0.1469  0.8092
 8460SOL    HW228336   7.514   0.535   4.014  0.1686  0.6720 -0.1873
 8461SOL     OW28337   5.002   5.371   2.035 -0.1248  0.0620 -0.3571
 8461SOL    HW128338   5.092   5.387   2.064 -0.4052  0.0549  0.5326
 8461SOL    HW228339   4.990   5.277   2.044 -0.5083  0.1742  0.3975
 8462SOL     OW28340   5.215   0.473  10.232 -0.3549 -0.1389 -0.2923
 8462SOL    HW128341   5.292   0.517  10.198 -0.2771  0.3153  0.4690
 8462SOL    HW228342   5.248   0.391  10.268 -0.3645 -0.3691 -0.7892
 8463SOL     OW28343   5.285   8.394   1.648  0.2426 -0.1481 -0.4576
 8463SOL    HW128344   5.232   8.450   1.591 -0.2540  0.4739  0.5934
 8463SOL    HW228345   5.355   8.451   1.679 -0.6387  0.1189  1.1471
 8464SOL     OW28346   7.637   5.665   0.294 -0.4005  0.0547 -0.0775
 8464SOL    HW128347   7.648   5.732   0.226 -2.5561  0.6895  0.0932
 8464SOL    HW228348   7.677   5.703   0.372  2.0437 -0.6544 -0.9038
 8465SOL     OW28349   3.232   9.380   0.452  0.4539  0.3195  0.6272
 8465SOL    HW128350   3.191   9.387   0.538  0.6186  1.9827  0.6181
 8465SOL    HW228351   3.188   9.307   0.410 -0.7513  0.4797  1.5473
 8466SOL     OW28352   1.618   6.669   6.078 -0.6326  0.2556 -0.7116
 8466SOL    HW128353   1.578   6.634   6.158 -0.3431 -0.3384 -0.8178
 8466SOL    HW228354   1.587   6.759   6.073 -2.2175 -0.2841 -0.9789
 8467SOL     OW28355   2.535   6.168   0.010 -0.3496 -0.3867  0.0154
 8467SOL    HW128356   2.530   6.226   0.086  0.0672  0.4102 -0.5436
 8467SOL    HW228357   2.483   6.213  -0.057  0.2434 -0.4906 -0.5253
 8468SOL     OW28358   1.416  10.559   3.302 -0.1426 -0.2489  0.4895
 8468SOL    HW128359   1.460  10.478   3.276 -0.9533 -0.3222 -0.7515
 8468SOL    HW228360   1.487  10.616   3.332  0.5856 -0.9835  0.2147
 8469SOL     OW28361   1.474   2.185   2.810  0.3027  0.6423  0.5862
 8469SOL    HW128362   1.383   2.186   2.839  0.1728  1.1557  0.1833
 8469SOL    HW228363   1.483   2.266   2.759  0.1922 -0.7888 -1.8342
 8470SOL     OW28364   8.345   7.840   7.204 -0.3044 -0.1778  0.0974
 8470SOL    HW128365   8.264   7.865   7.249  0.4508  2.1725  0.2829
 8470SOL    HW228366   8.404   7.914   7.218  0.5943 -0.1048 -3.2334
 8471SOL     OW28367   6.519   3.382   4.868  0.3415 -0.3043  0.4328
 8471SOL    HW128368   6.595   3.421   4.825 -0.3631  0.4197 -0.1953
 8471SOL    HW228369   6.466   3.347   4.797 -0.9325  1.0824  0.6298
 8472SOL     OW28370   2.804   0.210   8.240  0.4227  0.8367  0.5855
 8472SOL    HW128371   2.791   0.249   8.327  0.5137 -0.8491  1.4125
 8472SOL    HW228372   2.855   0.274   8.192  1.2523  1.3878  2.1305
 8473SOL     OW28373   2.166   2.699   2.050  0.2263 -0.7115 -0.6221
 8473SOL    HW128374   2.236   2.634   2.057  1.0420  0.0470 -1.5006
 8473SOL    HW228375   2.211   2.781   2.035 -0.8014  0.0601  0.3265
 8474SOL     OW28376   3.357   8.912   1.090  0.2799  0.3127 -0.5064
 8474SOL    HW128377   3.313   8.866   1.018 -1.2487  1.4515 -0.3331
 8474SOL    HW228378   3.298   8.902   1.165  1.5658 -0.3333  0.4764
 8475SOL     OW28379   5.632   1.229   3.703  0.2540 -0.4443  0.1177
 8475SOL    HW128380   5.677   1.201   3.623  0.5307 -0.0808  0.1435
 8475SOL    HW228381   5.588   1.310   3.678 -0.1375 -0.6371  0.1787
 8476SOL     OW28382   2.377   7.535   1.367  0.4151 -0.4158  0.1535
 8476SOL    HW128383   2.324   7.593   1.422  0.1691 -0.5358  0.0480
 8476SOL    HW228384   2.350   7.447   1.392 -0.1025 -0.4682 -0.5389
 8477SOL     OW28385   4.138   5.343   6.631  0.0988 -0.0339 -0.9729
 8477SOL    HW128386   4.148   5.434   6.658 -1.3747  0.5355 -2.2212
 8477SOL    HW228387   4.212   5.298   6.671  0.8405  1.6981 -0.3096
 8478SOL     OW28388   7.769   7.734   5.091 -0.0759 -0.5565  0.6034
 8478SOL    HW128389   7.731   7.671   5.031 -1.2575 -0.6458  1.4249
 8478SOL    HW228390   7.744   7.820   5.056  1.4434 -0.5099 -0.4551
 8479SOL     OW28391   2.654   4.110   0.339  0.2073  0.1006  0.0556
 8479SOL    HW128392   2.578   4.123   0.283 -1.5208 -0.1227  2.2261
 8479SOL    HW228393   2.727   4.098   0.277 -1.4365  0.5070 -2.1012
 8480SOL     OW28394   3.753   8.195   2.554 -0.9842  0.3181  0.1280
 8480SOL    HW128395   3.802   8.131   2.606 -0.3300  1.5838  1.1202
 8480SOL    HW228396   3.680   8.145   2.517 -1.6601 -0.5949  2.5163
 8481SOL     OW28397   0.849   6.175   1.381 -0.1269  0.0162  0.3528
 8481SOL    HW128398   0.759   6.187   1.410  0.3381  0.4880  1.6729
 8481SOL    HW228399   0.859   6.080   1.371 -0.3589 -0.1499  1.6046
 8482SOL     OW28400   3.457   0.750   2.958  0.1400 -0.4194 -0.7303
 8482SOL    HW128401   3.547   0.733   2.985 -0.1039 -0.8361 -0.1698
 8482SOL    HW228402   3.466   0.806   2.880  0.9340 -1.9471 -1.7822
 8483SOL     OW28403   1.797   6.457   5.242 -0.1347 -0.2895  0.4570
 8483SOL    HW128404   1.810   6.548   5.269 -0.0721 -0.3864  0.7648
 8483SOL    HW228405   1.716   6.458   5.191 -0.8682 -0.2634  1.5635
 8484SOL     OW28406   2.067   6.335   9.645  0.1620  0.2130  0.3373
 8484SOL    HW128407   2.112   6.250   9.648  0.7062  0.5265  1.9242
 8484SOL    HW228408   2.012   6.330   9.567 -1.3690 -2.3943  1.4414
 8485SOL     OW28409   1.920   5.654   6.955 -0.7055 -0.0380 -0.0241
 8485SOL    HW128410   1.890   5.714   7.022 -1.4522  1.0238 -1.2675
 8485SOL    HW228411   1.860   5.667   6.882  1.2281  0.3150 -1.6513
 8486SOL     OW28412   8.349  10.196   1.991 -0.4222 -0.4831 -0.2909
 8486SOL    HW128413   8.298  10.231   2.064 -1.5717  0.0562 -1.3182
 8486SOL    HW228414   8.374  10.273   1.940  2.2131 -0.6416  0.6305
 8487SOL     OW28415   5.648   1.292   8.880  0.0856  0.0071 -0.1549
 8487SOL    HW128416   5.726   1.347   8.888  1.2644 -1.5414 -0.6198
 8487SOL    HW228417   5.646   1.266   8.788 -0.7429 -0.3085 -0.0569
 8488SOL     OW28418   4.879  10.496   4.447  0.6348  0.2722  0.6328
 8488SOL    HW128419   4.883  10.412   4.492 -0.9343 -1.1247 -1.5887
 8488SOL    HW228420   4.883  10.561   4.517  0.1672 -1.6750  2.5981
 8489SOL     OW28421   5.430   5.685   4.178  0.8233 -0.2968  0.1986
 8489SOL    HW128422   5.505   5.660   4.125 -0.8322 -1.7763 -1.5803
 8489SOL    HW228423   5.464   5.687   4.268  3.0923 -0.3087 -0.5841
 8490SOL     OW28424   7.908   9.057   4.025  0.1046  0.0782  0.2120
 8490SOL    HW128425   7.930   8.971   4.061  0.4313 -0.7439 -1.8063
 8490SOL    HW228426   7.882   9.109   4.101  1.5880 -1.2534  1.7136
 8491SOL     OW28427   3.077   9.482   4.392 -0.3201 -0.3565 -0.0605
 8491SOL    HW128428   3.014   9.490   4.320 -1.2099 -0.3917  0.6921
 8491SOL    HW228429   3.105   9.572   4.410 -0.4677 -0.2976 -0.1259
 8492SOL     OW28430   4.384   1.946   1.090 -0.4745  0.2965  0.6129
 8492SOL    HW128431   4.375   1.902   1.006  0.2062  0.5399  0.4082
 8492SOL    HW228432   4.452   1.898   1.136 -0.1740  0.7421  0.6417
 8493SOL     OW28433   8.142   4.314   2.191  0.3574  0.7958 -0.1315
 8493SOL    HW128434   8.194   4.238   2.162  0.9083  1.0095  0.2932
 8493SOL    HW228435   8.053   4.295   2.158  0.0546 -0.8960  1.4711
 8494SOL     OW28436   0.793   7.166   3.947  0.0896 -0.1924 -0.1383
 8494SOL    HW128437   0.825   7.252   3.975  0.1259 -0.7058  1.5214
 8494SOL    HW228438   0.793   7.113   4.027 -0.0643 -1.7067 -1.0948
 8495SOL     OW28439   0.506   7.725   9.213 -0.5193  0.3521  0.4302
 8495SOL    HW128440   0.537   7.811   9.185  0.3819 -0.0060  0.2907
 8495SOL    HW228441   0.451   7.695   9.140 -1.0922  0.9263  0.6145
 8496SOL     OW28442  10.604   5.013  10.388  0.7784  0.4651 -0.5861
 8496SOL    HW128443  10.695   5.005  10.357  0.7853  1.6831 -0.9268
 8496SOL    HW228444  10.601   5.100  10.428  0.0111  0.0370  0.3094
 8497SOL     OW28445   0.193   8.328   0.129  0.3794 -0.1821 -0.7252
 8497SOL    HW128446   0.175   8.304   0.038  1.8990  0.0748 -1.1150
 8497SOL    HW228447   0.219   8.246   0.170  1.6250  0.0417 -1.0376
 8498SOL     OW28448   1.426   4.595   5.651  0.4664 -0.4096  0.1226
 8498SOL    HW128449   1.458   4.520   5.602  0.8240  0.1389 -0.5006
 8498SOL    HW228450   1.336   4.571   5.676  0.5121 -0.9650 -0.2235
 8499SOL     OW28451   3.379  10.385  10.530 -0.7879  0.2126  0.5047
 8499SOL    HW128452   3.317  10.339  10.587 -0.2802  1.3365  2.0121
 8499SOL    HW228453   3.439  10.316  10.500 -2.2893 -0.7558 -0.3916
 8500SOL     OW28454   5.120   7.433   3.425 -0.0093  0.6490  0.5022
 8500SOL    HW128455   5.066   7.505   3.394 -0.6186  0.0695  0.1812
 8500SOL    HW228456   5.122   7.443   3.520 -0.5908  0.7505  0.5100
 8501SOL     OW28457   5.958   3.973   7.059  0.0285  0.2627 -0.3324
 8501SOL    HW128458   5.920   4.031   7.125 -2.9273 -2.0654  0.2388
 8501SOL    HW228459   5.907   3.989   6.980  1.4716  0.8153 -1.1857
 8502SOL     OW28460   9.772   0.703   9.251  0.1946 -0.5597 -0.3617
 8502SOL    HW128461   9.854   0.694   9.202 -0.5776 -0.8562 -1.6611
 8502SOL    HW228462   9.748   0.613   9.273  0.3480 -0.4524  0.2741
 8503SOL     OW28463   5.055   9.096   1.269 -0.1165 -0.5393  0.0751
 8503SOL    HW128464   5.101   9.130   1.346 -0.2331  0.5679 -0.3345
 8503SOL    HW228465   5.064   9.164   1.203 -0.4247 -1.2794 -0.7492
 8504SOL     OW28466   9.555   8.599   3.288 -0.0653  0.4179 -0.2415
 8504SOL    HW128467   9.648   8.578   3.290 -0.0624  0.4459 -0.0042
 8504SOL    HW228468   9.527   8.581   3.198  0.4807  1.7617 -0.7087
 8505SOL     OW28469   3.466   0.434   4.077  0.6011 -0.1136 -0.1455
 8505SOL    HW128470   3.437   0.359   4.129 -0.1736 -0.2959 -0.8150
 8505SOL    HW228471   3.512   0.395   4.002 -1.6217 -0.0726 -1.6281
 8506SOL     OW28472   1.981   8.926   5.345  0.1313  0.6859  0.3319
 8506SOL    HW128473   2.014   8.837   5.359  0.1065  0.6606  0.2334
 8506SOL    HW228474   2.058   8.982   5.352  0.8486  0.3547 -3.1560
 8507SOL     OW28475   2.343   2.568   8.715  0.5314  0.1801  0.0378
 8507SOL    HW128476   2.288   2.510   8.663  1.4349 -0.1737 -0.5466
 8507SOL    HW228477   2.433   2.539   8.696  0.8967  0.3335  1.4496
 8508SOL     OW28478  10.596   9.920   1.101 -0.1105 -0.1394  0.1009
 8508SOL    HW128479  10.672   9.904   1.157  0.0703  1.4382  0.3524
 8508SOL    HW228480  10.619   9.879   1.018  2.1402  2.2504 -0.6250
 8509SOL     OW28481   2.763   5.817   3.080  0.2607  0.7578  0.4940
 8509SOL    HW128482   2.749   5.901   3.123 -1.3874  0.9983 -0.4339
 8509SOL    HW228483   2.858   5.802   3.088  0.2647  1.5148  2.7742
 8510SOL     OW28484   3.821   9.740   3.287 -0.1263  0.5613 -0.4325
 8510SOL    HW128485   3.793   9.722   3.376  0.9317  0.4820 -0.1021
 8510SOL    HW228486   3.744   9.777   3.244  0.0015  2.9479  1.2222
 8511SOL     OW28487   3.157   8.612   4.088 -0.1205 -0.5043  0.4562
 8511SOL    HW128488   3.118   8.582   4.170 -1.0511 -1.1058 -0.1918
 8511SOL    HW228489   3.236   8.559   4.079  0.5528  0.2973  1.4765
 8512SOL     OW28490   2.221   7.626  10.463  0.1555 -0.2794 -0.0106
 8512SOL    HW128491   2.152   7.600  10.402  1.1843 -1.0960 -0.8562
 8512SOL    HW228492   2.302   7.600  10.420  0.9988  0.6307  0.9814
 8513SOL     OW28493   7.999   2.104   8.183  0.1422  0.3606 -0.4117
 8513SOL    HW128494   8.002   2.011   8.159 -1.0401 -0.0924  1.0557
 8513SOL    HW228495   7.986   2.150   8.100  1.5164 -0.7079 -1.2583
 8514SOL     OW28496   1.093   3.558   2.874  0.1207 -0.4067  0.1338
 8514SOL    HW128497   1.091   3.465   2.895 -1.3705 -0.3953  0.1723
 8514SOL    HW228498   1.109   3.602   2.958 -1.2861 -0.5563  0.5024
 8515SOL     OW28499   6.021   3.398   5.082 -0.6275 -0.3145 -0.3606
 8515SOL    HW128500   6.007   3.479   5.133 -1.3564 -0.1146 -0.8610
 8515SOL    HW228501   5.944   3.344   5.102 -0.3381 -0.7162 -0.3398
 8516SOL     OW28502   8.470   1.319   5.912  0.0656 -0.0370 -0.4426
 8516SOL    HW128503   8.498   1.304   5.822 -0.9986  0.4703 -0.8730
 8516SOL    HW228504   8.518   1.254   5.963  3.5189  1.9661 -0.8382
 8517SOL     OW28505   0.972   5.257   8.288 -0.4296 -0.8546 -0.1198
 8517SOL    HW128506   0.987   5.344   8.253  0.8837 -0.8513  0.3739
 8517SOL    HW228507   1.010   5.198   8.222 -0.2707 -0.9818  0.0836
 8518SOL     OW28508   2.390   8.241   7.153  0.6549 -0.1852 -0.7356
 8518SOL    HW128509   2.325   8.171   7.161 -0.7525  0.9954 -1.2698
 8518SOL    HW228510   2.450   8.227   7.225 -0.2789 -1.2551 -0.1292
 8519SOL     OW28511   9.189   5.859   6.591  0.0181  0.1330  0.0553
 8519SOL    HW128512   9.165   5.770   6.565  1.4178 -0.3363  0.2638
 8519SOL    HW228513   9.268   5.878   6.541 -0.9219  1.7465 -0.8856
 8520SOL     OW28514   0.792   6.949   1.066 -0.0929 -0.2931 -0.1913
 8520SOL    HW128515   0.763   6.963   1.156 -1.4436 -0.3938 -0.5861
 8520SOL    HW228516   0.763   6.861   1.045  0.8168 -0.5229 -0.5159
 8521SOL     OW28517   5.114   4.987   0.060  0.2408 -0.3502  0.3439
 8521SOL    HW128518   5.204   4.965   0.083  0.0064  2.1093  4.5744
 8521SOL    HW228519   5.060   4.928   0.113 -0.5569  0.8178  0.8665
 8522SOL     OW28520   4.814   5.553   9.917  0.0903  0.1327  0.1047
 8522SOL    HW128521   4.803   5.648   9.922  0.7256  0.1645  1.5989
 8522SOL    HW228522   4.887   5.540   9.857 -0.2284  0.5648 -0.3851
 8523SOL     OW28523   9.260   6.412   4.673 -0.0606  0.3144 -0.2837
 8523SOL    HW128524   9.220   6.384   4.591 -1.6863  0.2074  0.5026
 8523SOL    HW228525   9.208   6.368   4.741  0.6044  1.1967  0.8274
 8524SOL     OW28526   2.001   3.674   5.301  0.1829  0.4553 -0.3194
 8524SOL    HW128527   2.025   3.733   5.229 -0.6421  0.9197 -0.2248
 8524SOL    HW228528   1.989   3.589   5.259  2.9550 -0.0788 -0.2311
 8525SOL     OW28529   6.973   7.761   2.175  0.4653 -0.5301 -0.2426
 8525SOL    HW128530   6.917   7.793   2.245 -0.8949 -0.0873 -1.5015
 8525SOL    HW228531   7.062   7.765   2.213 -0.1530  0.2658  1.2282
 8526SOL     OW28532   3.709   0.809   3.143  0.5941 -0.6047 -0.3258
 8526SOL    HW128533   3.737   0.736   3.197  0.2219 -0.9761 -0.6244
 8526SOL    HW228534   3.785   0.829   3.089  1.0448 -0.0775  0.4879
 8527SOL     OW28535   4.568   6.363   6.213 -0.6061  0.1075  0.0826
 8527SOL    HW128536   4.510   6.323   6.277 -0.0180 -1.4150 -0.2688
 8527SOL    HW228537   4.516   6.368   6.133 -0.5727 -0.3704  0.0236
 8528SOL     OW28538   7.920   7.643   1.392  0.5941  0.0942  0.4995
 8528SOL    HW128539   7.895   7.673   1.479  1.2439  1.3882  0.2656
 8528SOL    HW228540   8.010   7.612   1.402  0.7802  0.5323  0.2463
 8529SOL     OW28541   7.773   3.666   2.260  0.1298  0.2658  0.3994
 8529SOL    HW128542   7.842   3.725   2.231  0.3047 -0.6614 -1.2272
 8529SOL    HW228543   7.800   3.638   2.348  0.2627  2.1995  1.0220
 8530SOL     OW28544   0.691   1.714   6.508 -0.0432  0.3773 -0.1308
 8530SOL    HW128545   0.691   1.694   6.415 -1.6030 -1.0904  0.1528
 8530SOL    HW228546   0.720   1.806   6.512  2.3013 -0.1820 -1.8476
 8531SOL     OW28547   0.836   2.578   0.201 -0.7692  0.0454 -0.1063
 8531SOL    HW128548   0.865   2.577   0.292  1.0555 -1.1723 -0.6487
 8531SOL    HW228549   0.767   2.644   0.199  1.6598  2.8934  1.4072
 8532SOL     OW28550   0.728   4.760   2.227 -0.2322  0.2715 -0.3804
 8532SOL    HW128551   0.813   4.715   2.233 -0.6123 -0.4544 -0.3025
 8532SOL    HW228552   0.674   4.703   2.173 -1.0939  0.0379  0.6818
 8533SOL     OW28553   6.107   0.717   3.117  0.0022 -0.2018 -0.3566
 8533SOL    HW128554   6.200   0.724   3.140  0.0696 -1.2082 -0.2415
 8533SOL    HW228555   6.101   0.753   3.029  0.5164 -0.1826 -0.3877
 8534SOL     OW28556   7.481   9.299   4.521 -0.2634 -0.0857 -0.0851
 8534SOL    HW128557   7.548   9.367   4.510  0.6325 -0.5768  1.7890
 8534SOL    HW228558   7.420   9.313   4.449  1.4228  0.8951 -1.4128
 8535SOL     OW28559   7.964   9.540   8.145 -0.1431 -0.0889  0.1121
 8535SOL    HW128560   7.973   9.454   8.105  1.7389  0.0696  0.0934
 8535SOL    HW228561   7.938   9.522   8.236 -0.0315 -0.6604  0.0305
 8536SOL     OW28562   5.319   8.316   1.982  0.3560  0.4970  0.6258
 8536SOL    HW128563   5.361   8.383   1.929 -0.6899  0.4735 -0.2642
 8536SOL    HW228564   5.226   8.321   1.959 -0.4916  1.7439  3.8166
 8537SOL     OW28565   4.989   7.160   4.458  0.0121 -0.3271 -0.1976
 8537SOL    HW128566   4.912   7.111   4.488  0.8358 -1.4000  0.2135
 8537SOL    HW228567   5.001   7.228   4.524  0.3627 -1.1692  0.6346
 8538SOL     OW28568   9.956   5.801   7.413 -0.0747 -0.1348  0.0031
 8538SOL    HW128569   9.921   5.834   7.330 -2.7579 -1.0843  0.6755
 8538SOL    HW228570  10.051   5.799   7.399 -0.3908  0.2230 -2.8468
 8539SOL     OW28571   2.930   5.689   0.139  0.0327 -0.1174 -0.5343
 8539SOL    HW128572   3.023   5.672   0.128 -0.0988 -0.5586 -1.0478
 8539SOL    HW228573   2.924   5.746   0.216  0.7015 -0.2742 -0.3622
 8540SOL     OW28574  10.500   9.219   7.206 -0.5464 -0.1890 -0.6491
 8540SOL    HW128575  10.423   9.275   7.203 -1.3870 -1.3269 -2.5329
 8540SOL    HW228576  10.477   9.149   7.267 -0.1745  0.5493  0.3591
 8541SOL     OW28577   5.541   5.841   2.069 -0.4892  0.2569  0.9833
 8541SOL    HW128578   5.472   5.887   2.117 -0.9496  0.4593  0.1604
 8541SOL    HW228579   5.576   5.907   2.009  0.2464  0.0818  1.2151
 8542SOL     OW28580   3.359   5.351   7.035 -0.4294 -0.1454 -0.2429
 8542SOL    HW128581   3.413   5.272   7.045  0.8958  0.6834 -0.6653
 8542SOL    HW228582   3.417   5.415   6.994 -0.8920  1.6822  1.7939
 8543SOL     OW28583   4.995   7.327   6.555  0.0798  0.1265 -0.1771
 8543SOL    HW128584   4.929   7.327   6.486 -0.3036  1.3565  0.1646
 8543SOL    HW228585   5.044   7.246   6.542  0.1173  0.4022 -1.9811
 8544SOL     OW28586   0.357   8.730   9.733  0.9294 -0.0569  0.4384
 8544SOL    HW128587   0.435   8.697   9.688 -0.4934  0.4441 -2.6453
 8544SOL    HW228588   0.356   8.824   9.715 -0.3250 -0.0487  0.4377
 8545SOL     OW28589   3.397   0.491   8.983 -0.5548  0.3555  0.4398
 8545SOL    HW128590   3.414   0.475   9.075  1.3320 -1.2141 -0.1181
 8545SOL    HW228591   3.478   0.530   8.950 -1.0438  0.5096 -0.6401
 8546SOL     OW28592   1.151   2.382   8.852  0.5049 -0.5031 -0.0560
 8546SOL    HW128593   1.219   2.334   8.805 -0.5022 -0.5838 -1.4807
 8546SOL    HW228594   1.136   2.461   8.800 -1.9918 -1.5139 -1.0154
 8547SOL     OW28595   6.390   6.681   0.458  0.1177  0.4830  0.1373
 8547SOL    HW128596   6.449   6.716   0.525 -1.0865 -1.6840  2.4772
 8547SOL    HW228597   6.354   6.759   0.415  0.6344  2.0029  2.2671
 8548SOL     OW28598   0.423   9.146   6.901  0.8556 -0.1121  0.5230
 8548SOL    HW128599   0.465   9.225   6.936  1.4427  1.0016 -2.4035
 8548SOL    HW228600   0.329   9.160   6.915  0.9792  0.9660  0.3112
 8549SOL     OW28601   4.555   0.732   2.841  0.5529 -0.7110  0.0443
 8549SOL    HW128602   4.470   0.697   2.865  1.1266 -1.8763  0.4526
 8549SOL    HW228603   4.554   0.734   2.745  0.4175 -1.6414  0.0175
 8550SOL     OW28604   5.114   9.550   7.525 -0.6751 -0.0112  0.0988
 8550SOL    HW128605   5.118   9.502   7.608  1.9404 -0.4854 -0.2346
 8550SOL    HW228606   5.093   9.484   7.459  1.2060 -0.4356 -0.1200
 8551SOL     OW28607   8.177   1.951   0.412 -0.3140 -0.6724  0.4209
 8551SOL    HW128608   8.084   1.968   0.400 -0.1798  0.8018  1.2171
 8551SOL    HW228609   8.221   2.020   0.363  0.3026 -0.0722  1.7488
 8552SOL     OW28610   4.595   1.442   4.353 -0.3579  0.1423 -0.0598
 8552SOL    HW128611   4.580   1.401   4.438 -1.0119 -1.7053 -1.0213
 8552SOL    HW228612   4.690   1.449   4.346 -0.2243 -1.1115  0.2097
 8553SOL     OW28613   7.765   0.612   8.149  0.0091  0.3516  0.5252
 8553SOL    HW128614   7.790   0.555   8.076  0.3935  1.5649 -0.3061
 8553SOL    HW228615   7.669   0.602   8.155  0.0408 -0.1682  0.2227
 8554SOL     OW28616   4.985   8.956   0.116  0.0068 -0.0872 -0.3373
 8554SOL    HW128617   4.912   9.009   0.086 -1.1023 -1.0262  0.5770
 8554SOL    HW228618   5.032   9.012   0.179 -0.1405  0.3886 -0.6484
 8555SOL     OW28619   4.173  10.604   8.964 -0.3356  0.0403 -0.1132
 8555SOL    HW128620   4.129  10.523   8.937  0.8533 -1.3042  1.7020
 8555SOL    HW228621   4.126  10.674   8.918 -4.0320 -1.3070  1.2503
 8556SOL     OW28622   7.404   6.712   3.895 -0.1836  0.4439  0.2019
 8556SOL    HW128623   7.486   6.700   3.942  0.4139 -0.8305 -1.1109
 8556SOL    HW228624   7.347   6.757   3.958  1.4169  1.1361  1.2125
 8557SOL     OW28625   5.737   3.069   0.813  0.1702  0.2502  0.1879
 8557SOL    HW128626   5.818   3.071   0.763 -0.3554  0.4166 -0.6906
 8557SOL    HW228627   5.731   2.979   0.845 -0.2983 -0.3529 -1.4849
 8558SOL     OW28628   7.415   6.137   0.190 -0.0592  0.0991  0.2646
 8558SOL    HW128629   7.416   6.232   0.182 -0.7949  0.3217  2.2324
 8558SOL    HW228630   7.330   6.110   0.156  0.3365  0.0737 -0.7356
 8559SOL     OW28631   4.920   9.108  10.473  0.1975  0.3338 -0.2690
 8559SOL    HW128632   4.871   9.110  10.555 -1.1068  1.5383 -1.0204
 8559SOL    HW228633   4.894   9.026  10.431 -1.3671  1.0353 -0.7298
 8560SOL     OW28634   7.671   2.636   7.829 -0.5553 -0.3191 -0.7182
 8560SOL    HW128635   7.589   2.653   7.784  0.1402  2.0958 -1.1830
 8560SOL    HW228636   7.661   2.679   7.914 -0.4695 -1.6873  0.0113
 8561SOL     OW28637   1.651   5.453   9.620 -0.2219 -0.7242  0.2389
 8561SOL    HW128638   1.691   5.366   9.629  1.8511  0.1148 -0.4022
 8561SOL    HW228639   1.674   5.498   9.701  1.5990  0.2961 -0.7891
 8562SOL     OW28640   9.799   2.002   6.803 -0.0188 -0.3015  0.1351
 8562SOL    HW128641   9.812   2.056   6.882 -1.0454 -1.2936  1.0230
 8562SOL    HW228642   9.722   2.038   6.761  0.7204  0.4342 -0.6211
 8563SOL     OW28643   7.371  10.390   4.653  0.3867  0.2747 -0.0097
 8563SOL    HW128644   7.435  10.351   4.593  0.2838 -2.2321  1.3881
 8563SOL    HW228645   7.400  10.364   4.740 -0.5063  2.2487  0.9510
 8564SOL     OW28646   8.397   2.472   9.506 -0.3830  0.4569 -0.2189
 8564SOL    HW128647   8.342   2.399   9.478 -0.6005 -0.0795  1.4856
 8564SOL    HW228648   8.356   2.503   9.586 -0.2755  2.4687 -0.9024
 8565SOL     OW28649   5.068   0.615   5.023  0.3688 -0.6448  0.4728
 8565SOL    HW128650   4.987   0.593   5.068 -1.8640  0.4671 -2.6643
 8565SOL    HW228651   5.054   0.587   4.933  2.6502  1.4777 -0.6799
 8566SOL     OW28652   9.467   3.065   4.518  0.5306 -0.0978 -0.0696
 8566SOL    HW128653   9.453   3.125   4.445  1.1533 -0.1618 -0.2468
 8566SOL    HW228654   9.557   3.035   4.507 -0.0910 -1.8897 -0.6103
 8567SOL     OW28655   1.010  10.471   1.820 -0.1840 -0.4715  0.2188
 8567SOL    HW128656   0.984  10.486   1.911 -1.6368 -1.1432 -0.0489
 8567SOL    HW228657   1.002  10.377   1.808  1.9299 -0.6516 -0.0733
 8568SOL     OW28658   5.183   2.825   8.220 -0.5279 -0.0697 -0.2908
 8568SOL    HW128659   5.162   2.737   8.190 -1.3773 -0.1972  0.6234
 8568SOL    HW228660   5.253   2.854   8.162 -1.0988 -0.8656 -1.4254
 8569SOL     OW28661   3.932   4.905   3.426  0.1023 -0.0252  0.1359
 8569SOL    HW128662   3.886   4.857   3.495  1.5291  1.5914  2.3605
 8569SOL    HW228663   4.024   4.904   3.454  1.6792 -3.0001 -3.9956
 8570SOL     OW28664   4.593   1.198   8.364 -0.5368 -0.7352  0.3636
 8570SOL    HW128665   4.638   1.114   8.368  0.3239 -0.3487 -0.8076
 8570SOL    HW228666   4.623   1.238   8.283 -1.4000  0.4482  0.5997
 8571SOL     OW28667   8.125   1.074   5.735  0.2940 -0.5476 -0.0988
 8571SOL    HW128668   8.152   1.075   5.644  2.9108 -2.3946  0.5278
 8571SOL    HW228669   8.087   1.160   5.750  0.2983 -0.0052 -2.7527
 8572SOL     OW28670   0.010   3.725   7.463  0.3720 -0.1337 -0.1268
 8572SOL    HW128671   0.036   3.686   7.379 -0.3822 -1.0059  0.0335
 8572SOL    HW228672  -0.016   3.814   7.441 -0.7410 -0.6461 -0.9926
 8573SOL     OW28673   5.997   9.617   2.017 -0.1478  0.9127  0.8237
 8573SOL    HW128674   6.047   9.685   2.061  0.7533  1.5673 -1.0945
 8573SOL    HW228675   5.928   9.664   1.970 -1.0500  0.2440  1.4453
 8574SOL     OW28676   5.465   7.327   1.631 -0.1919 -0.3929 -0.1893
 8574SOL    HW128677   5.527   7.394   1.604  1.3025 -1.5350  0.2618
 8574SOL    HW228678   5.405   7.373   1.690 -0.0555  0.8283 -0.9634
 8575SOL     OW28679   4.559   1.642  10.006  0.2386  0.3137  0.5023
 8575SOL    HW128680   4.590   1.557  10.035 -1.0081  0.2980  1.8849
 8575SOL    HW228681   4.609   1.705  10.057  2.0709  0.5122 -1.4148
 8576SOL     OW28682   2.584   0.208   5.301  0.0661 -0.0299 -0.0972
 8576SOL    HW128683   2.639   0.286   5.305  0.9682 -0.6593  0.2336
 8576SOL    HW228684   2.565   0.197   5.208 -1.3419  1.4170 -0.0217
 8577SOL     OW28685   0.141   4.747   7.363  0.5660 -0.0521  0.2451
 8577SOL    HW128686   0.085   4.729   7.439  0.1286  0.3841  0.0301
 8577SOL    HW228687   0.087   4.802   7.307  1.0771  0.0468 -0.1471
 8578SOL     OW28688   3.557   4.056  10.114 -0.0835  0.1718 -0.1806
 8578SOL    HW128689   3.532   4.035  10.205  0.1731 -2.1420 -0.5702
 8578SOL    HW228690   3.650   4.079  10.120  0.3135 -1.3386  0.0271
 8579SOL     OW28691   3.196   3.349   4.381  0.1400 -0.0114  0.0408
 8579SOL    HW128692   3.256   3.400   4.325  1.1944  0.1614  1.2695
 8579SOL    HW228693   3.243   3.268   4.397 -0.5357 -0.4160 -0.0188
 8580SOL     OW28694   4.305   6.166   4.998 -0.1525 -0.3385 -0.3344
 8580SOL    HW128695   4.343   6.085   4.962 -1.6307 -0.8728 -0.7971
 8580SOL    HW228696   4.254   6.202   4.925 -0.9724  0.0373  0.4085
 8581SOL     OW28697   1.193   0.919   2.200 -0.1591 -0.2225  0.0767
 8581SOL    HW128698   1.200   0.990   2.263 -0.3536 -0.8530  0.8183
 8581SOL    HW228699   1.265   0.860   2.222  0.5220  0.1462 -1.0667
 8582SOL     OW28700   0.486   8.287   2.018  0.1108 -0.5796  0.5947
 8582SOL    HW128701   0.566   8.322   2.056  0.5045  1.1030 -1.5856
 8582SOL    HW228702   0.428   8.363   2.011 -0.0076 -0.8178 -1.8227
 8583SOL     OW28703   0.546   0.348   3.930  0.2134 -0.1415  0.0727
 8583SOL    HW128704   0.608   0.351   4.003  1.0284 -1.6875 -0.5203
 8583SOL    HW228705   0.484   0.279   3.954 -1.5188  1.5804  0.7945
 8584SOL     OW28706   8.201  10.312   4.278  0.4970  0.7643  0.8559
 8584SOL    HW128707   8.111  10.334   4.253  0.4942  0.2542  0.3913
 8584SOL    HW228708   8.256  10.368   4.224  0.4756  0.1515  0.1751
 8585SOL     OW28709   1.619   9.447   5.408 -0.0549 -0.1262  0.0512
 8585SOL    HW128710   1.636   9.398   5.327 -1.7283  2.6760 -2.1672
 8585SOL    HW228711   1.525   9.461   5.409 -0.3182 -1.1940  3.3260
 8586SOL     OW28712   0.415   5.718   0.676 -0.1430  0.2874 -0.1701
 8586SOL    HW128713   0.405   5.808   0.647 -2.5510  0.4463  0.9380
 8586SOL    HW228714   0.382   5.665   0.604  1.0506  0.2707 -0.7252
 8587SOL     OW28715   4.759   9.374   7.191  0.0268 -0.3265  0.4483
 8587SOL    HW128716   4.694   9.412   7.132 -1.1486 -0.5848  1.5141
 8587SOL    HW228717   4.774   9.286   7.157 -0.3989 -0.3631  0.3506
 8588SOL     OW28718   4.163   6.110   9.204 -1.2466  0.2295  0.5073
 8588SOL    HW128719   4.227   6.082   9.270  1.2783  2.3183 -0.8656
 8588SOL    HW228720   4.126   6.191   9.240 -1.9376 -0.1052  0.5618
 8589SOL     OW28721   0.787   2.317  10.139 -0.1340 -0.2583  0.3965
 8589SOL    HW128722   0.794   2.354  10.051  0.7784 -0.4700  0.3652
 8589SOL    HW228723   0.844   2.373  10.193  2.2176 -2.2014  0.1235
 8590SOL     OW28724   8.939   2.419  10.092  0.2551  0.0503  0.3348
 8590SOL    HW128725   8.886   2.359  10.039 -0.6382  0.6555  0.5247
 8590SOL    HW228726   8.876   2.483  10.126  0.6991 -0.6246  2.5898
 8591SOL     OW28727   3.402   5.799   2.612  0.3911 -0.4592  0.1210
 8591SOL    HW128728   3.378   5.875   2.559  0.4312  0.2498  1.0942
 8591SOL    HW228729   3.457   5.747   2.554 -0.2504 -0.1292 -0.8153
 8592SOL     OW28730   8.314   8.939   5.279  0.2108  0.4192  0.4677
 8592SOL    HW128731   8.284   9.001   5.345  0.0171 -1.3556  2.1693
 8592SOL    HW228732   8.409   8.939   5.288  0.1591 -0.1620  1.1206
 8593SOL     OW28733   3.594   8.553  10.307 -0.1848  0.0476 -0.2205
 8593SOL    HW128734   3.603   8.594  10.221  0.3794  0.8597  0.2023
 8593SOL    HW228735   3.642   8.611  10.366  1.1596 -1.5385  0.3232
 8594SOL     OW28736   3.132   4.499   2.745  0.5350  0.1068 -0.6289
 8594SOL    HW128737   3.189   4.504   2.823  0.0806  0.6477 -0.3283
 8594SOL    HW228738   3.191   4.518   2.672  0.8682  0.0706 -0.3767
 8595SOL     OW28739   2.322   3.511   4.043 -0.1820  0.4647 -0.7315
 8595SOL    HW128740   2.306   3.601   4.014  0.9871  1.0135  0.2083
 8595SOL    HW228741   2.417   3.508   4.058 -0.1119 -1.1153 -1.3234
 8596SOL     OW28742   5.521   3.780   7.461 -0.0642 -0.2377 -0.3988
 8596SOL    HW128743   5.484   3.856   7.507 -0.1352 -0.0451 -0.7725
 8596SOL    HW228744   5.533   3.715   7.530 -0.3253 -0.0089 -0.1306
 8597SOL     OW28745   4.999   7.276   0.073 -0.4900  0.3229  0.2523
 8597SOL    HW128746   4.983   7.242  -0.015  0.3794  0.8757 -0.1431
 8597SOL    HW228747   5.058   7.351   0.059 -1.2389  1.1196  1.2046
 8598SOL     OW28748   6.710   4.320   1.415  0.1778  0.4777  0.0118
 8598SOL    HW128749   6.663   4.271   1.347  0.6927  0.1586 -0.1213
 8598SOL    HW228750   6.673   4.288   1.497 -1.2766  1.7032 -0.1222
 8599SOL     OW28751   4.286   9.851   3.795  0.0807 -0.7104 -0.3719
 8599SOL    HW128752   4.213   9.877   3.850  1.9271  0.2030  1.8212
 8599SOL    HW228753   4.278   9.755   3.788  0.4568 -1.0589  2.6705
 8600SOL     OW28754   3.034   7.060   1.318  0.2744 -0.1282 -0.6092
 8600SOL    HW128755   3.093   7.129   1.347  0.6788 -0.5741 -0.3578
 8600SOL    HW228756   3.064   7.037   1.230  0.1266  0.0309 -0.7012
 8601SOL     OW28757   8.491  10.063   0.665  0.2038  0.1684  0.4065
 8601SOL    HW128758   8.459  10.147   0.697 -0.9438 -0.2853  0.4949
 8601SOL    HW228759   8.533  10.023   0.741  1.0217  0.7666  0.2902
 8602SOL     OW28760   3.958   2.563   4.938  0.1873 -0.2086  0.4807
 8602SOL    HW128761   3.863   2.553   4.932  0.1942 -0.0552  0.0731
 8602SOL    HW228762   3.985   2.581   4.848  0.1180  3.9089  1.0649
 8603SOL     OW28763   2.798   1.012   9.094 -0.1901  0.4192  0.0654
 8603SOL    HW128764   2.820   0.945   9.029  0.4025  1.0898 -0.4487
 8603SOL    HW228765   2.780   0.963   9.174 -0.1147 -0.3742 -0.3924
 8604SOL     OW28766   1.448   7.429   2.075  0.1706 -0.0528 -0.2143
 8604SOL    HW128767   1.361   7.398   2.100 -0.8119  2.9519  0.4837
 8604SOL    HW228768   1.505   7.400   2.146 -0.7653  0.0590  0.6107
 8605SOL     OW28769   8.908  10.629   0.124  0.2829  0.0213 -0.3485
 8605SOL    HW128770   8.850  10.660   0.193  1.9921 -0.0554  1.2090
 8605SOL    HW228771   8.958  10.706   0.098 -0.2737  0.0240 -1.4454
 8606SOL     OW28772   4.067   3.136   6.344 -0.0290 -0.0006  0.3430
 8606SOL    HW128773   3.986   3.092   6.323 -0.2123  0.1959  0.6244
 8606SOL    HW228774   4.076   3.126   6.439 -0.2356  0.8296  0.4607
 8607SOL     OW28775   1.560   6.419   1.214 -0.5186 -0.2023 -0.0178
 8607SOL    HW128776   1.506   6.425   1.135 -1.5152  1.5179  0.7474
 8607SOL    HW228777   1.630   6.482   1.200 -1.1479  0.6975  0.7749
 8608SOL     OW28778   7.574   5.926   1.274 -0.1820  0.4929 -0.1851
 8608SOL    HW128779   7.498   5.867   1.279  0.6635 -0.5677  0.8840
 8608SOL    HW228780   7.591   5.935   1.180  0.1469 -1.6672 -0.3918
 8609SOL     OW28781   6.714   0.634  10.149 -0.1743  0.4388  0.3635
 8609SOL    HW128782   6.649   0.686  10.197  0.1579  2.6373 -1.3970
 8609SOL    HW228783   6.665   0.598  10.074  0.1429  0.2475  0.2469
 8610SOL     OW28784  10.148   8.375  10.340 -0.4145  0.0909  0.0384
 8610SOL    HW128785  10.080   8.320  10.379 -2.7317  1.9713 -1.0948
 8610SOL    HW228786  10.203   8.315  10.291  0.0510 -1.7610  2.6214
 8611SOL     OW28787   9.862   6.090   3.506  0.0903  0.5346 -0.5626
 8611SOL    HW128788   9.871   6.034   3.429 -0.4410  2.0055 -1.7448
 8611SOL    HW228789   9.933   6.063   3.564  1.9050  0.8820 -2.5295
 8612SOL     OW28790   0.451   1.527   9.125  0.3500  0.4205  0.3108
 8612SOL    HW128791   0.365   1.484   9.131  0.8126 -0.3847  1.5808
 8612SOL    HW228792   0.443   1.605   9.181  0.7031 -0.1379  1.1597
 8613SOL     OW28793   6.603   0.554   6.265 -0.2662  0.1303  0.5678
 8613SOL    HW128794   6.641   0.481   6.313 -0.3741 -0.2389  0.0985
 8613SOL    HW228795   6.593   0.522   6.175  1.8135  1.4639 -0.2253
 8614SOL     OW28796   9.793   7.970   8.678 -0.0148 -0.1729  0.0646
 8614SOL    HW128797   9.855   8.041   8.696  0.5425 -0.9301  1.2696
 8614SOL    HW228798   9.722   7.983   8.741 -0.1616 -0.3879 -0.0556
 8615SOL     OW28799   6.538   2.948   9.042  0.3925  0.0430  0.0540
 8615SOL    HW128800   6.451   2.987   9.048 -0.0816 -1.1849  1.9803
 8615SOL    HW228801   6.592   3.001   9.100  1.2754  1.4659 -1.9398
 8616SOL     OW28802   9.299   3.433   8.566 -0.1630  0.2258  0.1075
 8616SOL    HW128803   9.354   3.436   8.645 -0.0659 -0.2065  0.0582
 8616SOL    HW228804   9.211   3.415   8.599 -0.4827  1.9235  0.2803
 8617SOL     OW28805   5.104   6.618   2.223  0.1948  0.1122 -0.0421
 8617SOL    HW128806   5.186   6.664   2.242 -0.4044  1.3866 -0.3921
 8617SOL    HW228807   5.044   6.687   2.194 -1.5844 -0.4463  1.9738
 8618SOL     OW28808   6.236   4.616   0.656  0.4417  0.3619  0.2147
 8618SOL    HW128809   6.201   4.673   0.588 -2.4672 -0.3171  0.9737
 8618SOL    HW228810   6.175   4.541   0.658  0.7672  0.0586  3.0802
 8619SOL     OW28811   5.376   5.628  10.158  0.3448 -0.6848 -0.3537
 8619SOL    HW128812   5.379   5.666  10.070 -0.4924  0.0882 -0.0707
 8619SOL    HW228813   5.410   5.698  10.215 -0.1483 -0.7738  0.0517
 8620SOL     OW28814   5.629   6.805   6.904  0.0260 -0.5458 -0.3223
 8620SOL    HW128815   5.650   6.889   6.945 -1.3351  0.5381 -1.6922
 8620SOL    HW228816   5.534   6.797   6.914 -0.3021 -0.4502 -2.7081
 8621SOL     OW28817   1.615   4.909   5.745 -0.1161 -0.0828  0.1484
 8621SOL    HW128818   1.596   5.003   5.745 -0.3311 -0.1262 -0.1748
 8621SOL    HW228819   1.661   4.895   5.828  1.1529  0.5492 -0.4111
 8622SOL     OW28820   3.592   6.298   4.004 -0.1411  0.4107  0.6386
 8622SOL    HW128821   3.594   6.205   4.029 -0.9512  0.3470  0.4750
 8622SOL    HW228822   3.642   6.301   3.922 -2.5951 -0.4050 -0.9940
 8623SOL     OW28823   1.513   5.219   9.508  0.0373 -0.0356 -0.2654
 8623SOL    HW128824   1.522   5.146   9.570  1.3517  0.2105 -0.1356
 8623SOL    HW228825   1.598   5.223   9.464 -0.2588  0.9808 -0.7585
 8624SOL     OW28826   3.165   5.241   1.324  0.4819  0.1921 -0.4485
 8624SOL    HW128827   3.192   5.200   1.406  1.3834 -0.4800 -1.0576
 8624SOL    HW228828   3.110   5.175   1.282 -0.7093  0.8715 -0.0161
 8625SOL     OW28829   9.435   9.119   2.689  0.0437  0.2615  0.6053
 8625SOL    HW128830   9.406   9.116   2.598 -0.9002 -0.8303  0.9124
 8625SOL    HW228831   9.357   9.145   2.738  0.6315  1.1782  1.0901
 8626SOL     OW28832   7.121   9.027   1.080 -0.2480  0.3826 -0.3810
 8626SOL    HW128833   7.137   8.933   1.072 -0.2877  0.0088  2.5680
 8626SOL    HW228834   7.036   9.041   1.037 -1.0145 -1.2653  0.4857
 8627SOL     OW28835   3.753   1.981   3.977 -0.1304 -0.2287  0.2512
 8627SOL    HW128836   3.829   1.935   4.013 -0.6780 -1.0339  0.3951
 8627SOL    HW228837   3.694   1.990   4.052  0.4252  1.7334  0.5195
 8628SOL     OW28838   4.159   1.508   6.760 -0.0316 -0.1105 -0.0001
 8628SOL    HW128839   4.115   1.423   6.751 -1.3749  0.4335  0.9874
 8628SOL    HW228840   4.252   1.487   6.765 -0.3853 -1.5975  0.9720
 8629SOL     OW28841   0.322  10.688   1.774 -0.4305  0.7910 -0.0726
 8629SOL    HW128842   0.298  10.778   1.796  0.7548  1.6872 -2.1903
 8629SOL    HW228843   0.324  10.643   1.859 -1.8645  2.5126  0.9593
 8630SOL     OW28844   8.860   7.243   6.497 -0.2352  0.0583 -0.9152
 8630SOL    HW128845   8.835   7.311   6.435 -1.2779  1.2725  0.7579
 8630SOL    HW228846   8.954   7.255   6.508 -0.2175  0.4966 -1.4734
 8631SOL     OW28847   2.372   2.407   2.552  0.2273  0.1834 -0.2617
 8631SOL    HW128848   2.348   2.315   2.540  2.4186 -0.2622 -1.7797
 8631SOL    HW228849   2.310   2.455   2.495 -1.7498 -0.1396  1.4861
 8632SOL     OW28850   0.984   6.002   9.523  0.4036  0.4311 -0.0447
 8632SOL    HW128851   0.933   6.017   9.603  1.4619  2.1766  0.3802
 8632SOL    HW228852   0.938   5.932   9.477 -1.6171  1.0399  0.9248
 8633SOL     OW28853   9.329   8.425   9.613  0.3668 -0.3504 -0.2138
 8633SOL    HW128854   9.323   8.429   9.708  0.7326 -0.5079 -0.1829
 8633SOL    HW228855   9.338   8.516   9.585  1.5688 -0.3903 -0.0025
 8634SOL     OW28856   6.444   6.272   7.700  0.0734 -0.5436 -0.3276
 8634SOL    HW128857   6.524   6.243   7.743  0.4498 -0.3213 -0.8748
 8634SOL    HW228858   6.450   6.367   7.698 -0.1312 -0.5326 -0.5131
 8635SOL     OW28859   4.963   4.944   4.746 -0.2568  0.2798  0.3698
 8635SOL    HW128860   5.000   4.991   4.672 -1.5098 -0.4798 -0.7856
 8635SOL    HW228861   4.890   4.894   4.709 -0.7631 -0.3194  2.0700
 8636SOL     OW28862   9.324   8.834   9.204 -0.8617 -0.5983  0.2065
 8636SOL    HW128863   9.360   8.772   9.268  0.5869  0.0473  0.0540
 8636SOL    HW228864   9.365   8.809   9.121  1.7895  2.0192  0.5484
 8637SOL     OW28865   1.649   5.940   6.617 -0.1335 -0.2385  0.5298
 8637SOL    HW128866   1.696   5.984   6.546  1.0392 -0.6054  1.0473
 8637SOL    HW228867   1.560   5.975   6.613 -0.3347 -0.8680 -1.6329
 8638SOL     OW28868  10.233   7.374  10.631  0.6102 -0.3041  0.0036
 8638SOL    HW128869  10.250   7.468  10.621 -1.2111 -0.0724 -1.3936
 8638SOL    HW228870  10.318   7.333  10.614  1.6437  1.0830  1.4618
 8639SOL     OW28871   5.172   7.520   1.443  0.0353 -0.8746 -0.1120
 8639SOL    HW128872   5.168   7.425   1.456  1.3840 -0.7929  1.2238
 8639SOL    HW228873   5.108   7.555   1.505 -1.4376 -0.9448 -1.5533
 8640SOL     OW28874   4.876   1.138   1.113 -0.8825  0.1239 -0.2555
 8640SOL    HW128875   4.859   1.226   1.080 -2.0548  0.3203  0.8021
 8640SOL    HW228876   4.944   1.104   1.055 -2.0975  0.8168 -2.2160
 8641SOL     OW28877   3.633   8.371   8.273 -0.4991  0.1574 -0.3615
 8641SOL    HW128878   3.589   8.386   8.357  0.4237  0.6423  0.0449
 8641SOL    HW228879   3.563   8.343   8.214 -1.0560 -0.7966  0.7269
 8642SOL     OW28880   8.880   4.023   9.773  0.0859 -0.2764  0.2091
 8642SOL    HW128881   8.960   3.992   9.733 -0.4662 -0.5999 -0.6708
 8642SOL    HW228882   8.900   4.111   9.805 -0.1396  1.0612 -3.0300
 8643SOL     OW28883   6.754   8.353  10.176 -0.4914  0.3266  0.0936
 8643SOL    HW128884   6.714   8.372  10.091  0.6737 -1.4971 -0.9087
 8643SOL    HW228885   6.847   8.344  10.157 -0.0196  1.1973  1.8208
 8644SOL     OW28886   9.666   3.518   7.952  0.1150 -0.5899  0.1643
 8644SOL    HW128887   9.574   3.523   7.977  0.0011 -0.4066 -0.2836
 8644SOL    HW228888   9.713   3.514   8.035 -0.0269  3.3192  0.6196
 8645SOL     OW28889   7.733   0.920   1.479 -0.2189 -0.1411 -0.1381
 8645SOL    HW128890   7.775   0.835   1.494  0.4256  0.3206  0.7326
 8645SOL    HW228891   7.805   0.983   1.482 -0.8489  0.5616  0.3670
 8646SOL     OW28892   9.382   0.216   7.659  0.1341 -0.1159  0.0589
 8646SOL    HW128893   9.313   0.214   7.726  0.3333 -0.3971  0.2564
 8646SOL    HW228894   9.372   0.133   7.612  1.8953 -1.3277  1.6732
 8647SOL     OW28895   6.028   8.310   3.157 -0.1366 -0.1950  0.0841
 8647SOL    HW128896   6.034   8.260   3.238  0.6576  0.9533  0.7754
 8647SOL    HW228897   5.995   8.396   3.185  1.2996  0.6251 -0.5961
 8648SOL     OW28898  10.152   6.048   2.911 -0.0942 -0.3571 -0.2873
 8648SOL    HW128899  10.136   6.134   2.948  2.0120  0.0731 -0.2169
 8648SOL    HW228900  10.228   6.060   2.854  0.5692 -2.2487  0.1054
 8649SOL     OW28901   7.548   1.785   7.166 -0.1065 -0.4963 -0.0277
 8649SOL    HW128902   7.623   1.787   7.226  0.6438  0.0201 -0.9520
 8649SOL    HW228903   7.557   1.864   7.114 -1.3037 -0.4367 -0.1640
 8650SOL     OW28904   0.416   8.642   4.219  0.5106 -0.3699 -0.1422
 8650SOL    HW128905   0.418   8.558   4.264  2.2914  0.2897  1.1226
 8650SOL    HW228906   0.414   8.620   4.126 -1.3079 -1.7722  0.1702
 8651SOL     OW28907   0.032   7.521   7.214  0.3840  0.1307  0.2550
 8651SOL    HW128908   0.119   7.496   7.181 -0.1569  1.0770 -2.1156
 8651SOL    HW228909   0.050   7.588   7.280  1.4911  1.3269 -1.1759
 8652SOL     OW28910  10.362   0.947   4.144  0.1921  0.0813  0.1596
 8652SOL    HW128911  10.319   1.026   4.178 -1.3422 -0.4562 -0.4629
 8652SOL    HW228912  10.378   0.893   4.221  1.2814  0.9831  0.5974
 8653SOL     OW28913   5.912   3.757   5.910  0.1127 -0.5348  0.1734
 8653SOL    HW128914   5.936   3.665   5.907  0.1851 -0.5323 -2.9418
 8653SOL    HW228915   5.994   3.804   5.895 -0.3559 -0.1677 -1.5361
 8654SOL     OW28916   9.874   2.205   4.918 -0.3555  0.1788 -0.2667
 8654SOL    HW128917   9.921   2.205   4.835 -0.0891  1.5232 -0.1316
 8654SOL    HW228918   9.799   2.263   4.904 -0.7025 -0.1338  0.2245
 8655SOL     OW28919   6.967   6.516   7.484 -0.4983  1.1659 -0.1470
 8655SOL    HW128920   6.896   6.577   7.464 -2.4856 -1.4500 -1.8049
 8655SOL    HW228921   6.964   6.453   7.412  1.2022 -1.0491  1.5897
 8656SOL     OW28922   3.787   6.307   3.780  0.7722  0.1920 -0.5015
 8656SOL    HW128923   3.748   6.394   3.785  2.3258  0.8799 -0.1677
 8656SOL    HW228924   3.736   6.263   3.711 -2.7039 -0.0960  1.9425
 8657SOL     OW28925   8.735  10.580   5.572  0.5375 -0.3723  0.4472
 8657SOL    HW128926   8.798  10.523   5.528 -0.0678  0.3659 -1.4747
 8657SOL    HW228927   8.651  10.558   5.531  0.2045  1.4592  0.0770
 8658SOL     OW28928   8.633   3.502   5.472  0.5038  0.3261 -0.0352
 8658SOL    HW128929   8.608   3.485   5.563 -0.4505 -0.9624 -0.5000
 8658SOL    HW228930   8.556   3.542   5.433  0.8430  0.7012 -0.3264
 8659SOL     OW28931   2.491   4.917   3.449  0.7558 -0.3248  0.5158
 8659SOL    HW128932   2.445   4.982   3.502  0.3666 -0.4594  0.3464
 8659SOL    HW228933   2.433   4.901   3.374  0.6975 -1.1069  0.7187
 8660SOL     OW28934   3.040   4.312   5.916  0.3354  0.5468  0.2766
 8660SOL    HW128935   3.060   4.380   5.852 -0.9363  0.3397 -0.3894
 8660SOL    HW228936   2.963   4.345   5.962  0.2701 -0.0244  0.5854
 8661SOL     OW28937   2.096   4.348   1.119  0.4009 -0.0414  0.0280
 8661SOL    HW128938   2.050   4.275   1.158 -0.2979 -0.0918 -0.8604
 8661SOL    HW228939   2.176   4.309   1.083  1.0205 -0.0032  1.3008
 8662SOL     OW28940   4.151   9.630   0.381  0.2835 -0.0652 -0.3833
 8662SOL    HW128941   4.078   9.632   0.319 -1.5762 -0.3592  1.6687
 8662SOL    HW228942   4.230   9.625   0.326 -1.1869  0.6654 -2.6955
 8663SOL     OW28943   0.246   0.834   4.431  0.1452  0.1516 -0.0049
 8663SOL    HW128944   0.158   0.849   4.466  0.8523  3.4236  0.6773
 8663SOL    HW228945   0.232   0.800   4.343 -1.8014  1.1261 -0.1047
 8664SOL     OW28946  10.532   9.797   1.360 -0.3771  0.1559  0.3529
 8664SOL    HW128947  10.526   9.862   1.290  1.9193 -0.0129 -0.0960
 8664SOL    HW228948  10.537   9.713   1.314 -0.9667 -0.1442  0.8269
 8665SOL     OW28949   5.768   8.231   9.603  0.5006 -0.0110 -0.0863
 8665SOL    HW128950   5.763   8.146   9.648 -1.7509  0.5272  0.7897
 8665SOL    HW228951   5.710   8.222   9.528 -0.7742  1.1200  0.7246
 8666SOL     OW28952   1.491   3.362   8.059  0.2874 -0.0368  0.1702
 8666SOL    HW128953   1.561   3.298   8.073  0.5788  0.2917  0.2193
 8666SOL    HW228954   1.497   3.421   8.133  0.7422  0.7053 -0.4381
 8667SOL     OW28955   6.501   9.537   6.570  0.0652  0.0878  0.4643
 8667SOL    HW128956   6.583   9.582   6.591 -0.0403  0.8364 -0.6744
 8667SOL    HW228957   6.523   9.444   6.577  1.1136  0.2647 -0.1515
 8668SOL     OW28958  10.337   9.533  10.236 -0.5587 -0.4414  0.4405
 8668SOL    HW128959  10.366   9.445  10.261 -2.3335 -0.8351  1.2940
 8668SOL    HW228960  10.257   9.518  10.185 -0.0955  0.6392 -0.6650
 8669SOL     OW28961  10.309   9.325   4.775 -1.0585 -0.0338 -0.2540
 8669SOL    HW128962  10.288   9.333   4.868  0.5894  0.2430  0.1369
 8669SOL    HW228963  10.378   9.258   4.772  0.9209  1.9013 -0.8839
 8670SOL     OW28964   3.366   7.314   6.137  0.3098  0.0641  0.1085
 8670SOL    HW128965   3.300   7.342   6.074  0.5501  1.6107  0.4989
 8670SOL    HW228966   3.328   7.237   6.179 -0.8474  0.3860 -0.3133
 8671SOL     OW28967   9.714   7.663   1.347  0.1072  0.2676 -0.3348
 8671SOL    HW128968   9.622   7.664   1.373  0.1801 -1.7925  0.1111
 8671SOL    HW228969   9.718   7.601   1.274  1.4460 -1.2558  0.9686
 8672SOL     OW28970   6.253   3.300   7.479 -0.2399  0.5780  0.3702
 8672SOL    HW128971   6.305   3.228   7.515  2.0755  2.0873  0.2386
 8672SOL    HW228972   6.256   3.368   7.547 -0.6780  1.3008 -0.3213
 8673SOL     OW28973   9.858  10.304   0.546 -0.2414  0.3751  0.4619
 8673SOL    HW128974   9.899  10.386   0.520 -1.9607  0.8552 -0.9186
 8673SOL    HW228975   9.766  10.327   0.563 -0.7815 -1.2581 -0.0525
 8674SOL     OW28976   0.280   1.146   1.327 -0.4741 -0.0862 -0.2325
 8674SOL    HW128977   0.249   1.182   1.410  1.1945  0.2446  0.2713
 8674SOL    HW228978   0.211   1.084   1.302 -0.2950 -1.4559  2.2517
 8675SOL     OW28979   1.133   9.604   4.120 -0.0645 -0.1501 -0.2590
 8675SOL    HW128980   1.151   9.698   4.108  2.3666 -0.6010 -0.6547
 8675SOL    HW228981   1.217   9.562   4.105 -0.8467 -2.3240  1.0658
 8676SOL     OW28982   8.858   3.852  10.003  0.9355  0.0355  0.5686
 8676SOL    HW128983   8.924   3.783   9.993  0.6917 -0.1690  0.3416
 8676SOL    HW228984   8.856   3.895   9.917  2.3062  1.4491  1.1907
 8677SOL     OW28985   0.926  10.479   4.293  0.0775 -1.6471 -0.9770
 8677SOL    HW128986   0.900  10.493   4.385 -0.3645 -0.3073 -1.2847
 8677SOL    HW228987   1.021  10.484   4.294  0.0261 -0.4757 -0.7497
 8678SOL     OW28988   3.155   0.087   7.579  0.0547  0.7266  0.5775
 8678SOL    HW128989   3.149   0.090   7.484 -3.4393 -0.6205  0.6066
 8678SOL    HW228990   3.234   0.036   7.596  0.8697  1.1745 -1.5770
 8679SOL     OW28991   8.413   8.486   3.985  0.1060 -0.6427  0.4473
 8679SOL    HW128992   8.463   8.405   3.986  0.5460 -0.3713  1.2160
 8679SOL    HW228993   8.325   8.461   4.014  0.5922 -0.6420  2.0410
 8680SOL     OW28994   4.867   4.926   5.665  0.1190 -0.4559  0.1897
 8680SOL    HW128995   4.892   4.978   5.741  0.2059  0.0359 -0.1712
 8680SOL    HW228996   4.949   4.890   5.633  0.2185  0.1501 -0.2582
 8681SOL     OW28997   2.111   3.555   7.503  0.4069 -0.0275  0.2090
 8681SOL    HW128998   2.054   3.625   7.536 -0.3067 -0.0399 -0.9296
 8681SOL    HW228999   2.185   3.601   7.462  0.5605  0.0279  0.5510
 8682SOL     OW29000   4.790   2.348   1.500  0.2928  0.2518  0.1259
 8682SOL    HW129001   4.752   2.435   1.510  0.8706  0.8377 -2.1498
 8682SOL    HW229002   4.878   2.355   1.537  0.1368  0.4645  0.4579
 8683SOL     OW29003   4.152   3.246   9.880  0.5614 -0.2728 -0.2236
 8683SOL    HW129004   4.226   3.303   9.898  1.5010 -1.1289 -1.2778
 8683SOL    HW229005   4.089   3.302   9.833  1.2719  0.0226 -0.8386
 8684SOL     OW29006   8.474   3.907   0.020 -0.1056 -0.3489  0.0610
 8684SOL    HW129007   8.413   3.834   0.035  1.0523 -1.0254  1.6617
 8684SOL    HW229008   8.524   3.880  -0.057 -0.6989 -0.5422 -0.2652
 8685SOL     OW29009   1.030   9.184   6.162 -0.1883  0.5454 -0.1165
 8685SOL    HW129010   1.002   9.214   6.075  0.8145 -0.9900 -1.0188
 8685SOL    HW229011   1.118   9.150   6.147  0.3978  1.1384  1.7251
 8686SOL     OW29012   5.364   5.737   2.528  0.4347  0.6027 -0.2713
 8686SOL    HW129013   5.356   5.642   2.537 -0.2473  0.7707  1.2468
 8686SOL    HW229014   5.339   5.756   2.438 -1.0009 -0.5101 -0.1398
 8687SOL     OW29015   2.152   9.071   3.497  0.1384 -0.4154 -0.3147
 8687SOL    HW129016   2.237   9.111   3.476 -0.0188  0.9684  1.4800
 8687SOL    HW229017   2.162   9.039   3.586 -1.3447  0.1548  0.0791
 8688SOL     OW29018   4.316   1.899   4.892  0.3776 -0.1360 -0.2066
 8688SOL    HW129019   4.401   1.893   4.936  0.6892  1.2737 -0.5737
 8688SOL    HW229020   4.332   1.953   4.815 -0.4275 -1.5430 -1.4119
 8689SOL     OW29021   4.560   4.639   8.789  0.2853  0.9259  0.1620
 8689SOL    HW129022   4.490   4.575   8.773  0.0813  1.3106 -0.5382
 8689SOL    HW229023   4.526   4.694   8.859 -0.0728  1.0463 -0.1037
 8690SOL     OW29024   0.219   2.742   5.488 -0.3193  0.4538 -0.0063
 8690SOL    HW129025   0.249   2.784   5.408  2.3722  0.3679  0.8677
 8690SOL    HW229026   0.145   2.687   5.461  0.2056  0.8000 -2.3054
 8691SOL     OW29027   5.622   3.568   3.034 -0.7681  0.2452  0.5268
 8691SOL    HW129028   5.537   3.565   2.991 -0.8822 -0.1403  0.7679
 8691SOL    HW229029   5.664   3.646   2.999 -0.8054 -0.1247 -0.3665
 8692SOL     OW29030   5.007   3.456   2.960  0.2760  0.5251  0.0584
 8692SOL    HW129031   4.976   3.380   2.910 -0.1197  0.0818  0.9660
 8692SOL    HW229032   4.966   3.531   2.917  0.8638  0.2563 -1.0006
 8693SOL     OW29033   5.792   6.905   1.374 -0.0301  0.2731  0.0030
 8693SOL    HW129034   5.756   6.820   1.396  0.1333  0.2976  0.3722
 8693SOL    HW229035   5.829   6.893   1.286  0.2287 -0.1088  0.1619
 8694SOL     OW29036   0.701   7.798   2.697 -0.1397  0.2154  0.3820
 8694SOL    HW129037   0.736   7.746   2.771 -0.3417  2.8876  2.5082
 8694SOL    HW229038   0.688   7.885   2.734 -0.3602  1.6717 -2.8642
 8695SOL     OW29039   1.377   2.505   3.415 -0.7231  0.3004  0.0376
 8695SOL    HW129040   1.305   2.532   3.472 -1.4369 -0.0645 -0.6704
 8695SOL    HW229041   1.420   2.434   3.462 -0.7821  0.5621  0.4939
 8696SOL     OW29042   3.213   7.750   0.757 -0.0952 -0.0238  0.1184
 8696SOL    HW129043   3.293   7.727   0.803  1.4740  3.2555 -0.6252
 8696SOL    HW229044   3.237   7.827   0.705 -3.0623 -0.4956 -2.2601
 8697SOL     OW29045   2.481   2.181   8.538  0.3391 -0.8370 -0.0622
 8697SOL    HW129046   2.426   2.211   8.611  0.8024  2.9261 -1.0677
 8697SOL    HW229047   2.421   2.172   8.465  0.5251  0.0648 -0.3417
 8698SOL     OW29048   7.059   7.401  10.126 -0.0748 -0.5245  0.4178
 8698SOL    HW129049   7.062   7.492  10.156  0.6065 -0.6848  0.8650
 8698SOL    HW229050   6.976   7.393  10.080 -0.5686  0.0700  1.2019
 8699SOL     OW29051   8.429   0.911   8.046  0.4352 -0.2877 -0.2262
 8699SOL    HW129052   8.410   0.866   7.964 -1.2498 -0.7486  0.3806
 8699SOL    HW229053   8.514   0.877   8.074  0.9095 -0.3084 -1.6336
 8700SOL     OW29054   5.679   4.505   0.897 -0.0996  1.0113 -0.7255
 8700SOL    HW129055   5.688   4.510   0.992  0.3938 -1.2818 -0.6008
 8700SOL    HW229056   5.659   4.595   0.870  1.3513  2.0359  1.3566
 8701SOL     OW29057   8.061   8.177   9.423  0.2242 -0.0283  0.2410
 8701SOL    HW129058   7.976   8.187   9.466  0.3488  0.7350  0.3155
 8701SOL    HW229059   8.123   8.163   9.494  0.1284 -0.9105  0.1693
 8702SOL     OW29060   9.166   0.382   2.797  0.2351 -0.6569 -0.0577
 8702SOL    HW129061   9.228   0.410   2.865  0.0271 -0.3125 -0.0051
 8702SOL    HW229062   9.219   0.332   2.736  0.6740  0.0427 -0.2737
 8703SOL     OW29063   0.013   2.199   8.149  0.2854  0.0612  0.6667
 8703SOL    HW129064   0.091   2.148   8.167  0.3499 -0.5582 -1.1472
 8703SOL    HW229065  -0.060   2.139   8.165  0.2433  0.2491  1.1684
 8704SOL     OW29066   4.578   0.491   3.172 -0.1254 -0.0849  0.3473
 8704SOL    HW129067   4.633   0.480   3.250  1.7886 -0.4020 -0.9636
 8704SOL    HW229068   4.634   0.538   3.110 -0.9264 -1.4218 -1.4732
 8705SOL     OW29069   0.417   4.125   7.418 -0.3717 -0.4026  0.0526
 8705SOL    HW129070   0.364   4.080   7.351 -1.0647  0.1360  0.2388
 8705SOL    HW229071   0.356   4.141   7.490  0.4539 -1.2959  0.9819
 8706SOL     OW29072   6.381   8.526   7.653 -0.3949  0.0262  0.3915
 8706SOL    HW129073   6.448   8.461   7.675 -0.5824 -0.2466  0.1643
 8706SOL    HW229074   6.331   8.486   7.582  0.3683  1.0072 -0.7364
 8707SOL     OW29075   5.875   7.365   4.141  0.6087  0.6033  0.1075
 8707SOL    HW129076   5.852   7.384   4.232  0.0170  1.1307 -0.1427
 8707SOL    HW229077   5.805   7.306   4.110 -0.5456  2.2914 -0.6871
 8708SOL     OW29078   2.135   9.878   7.438  0.0433  0.8352 -0.2071
 8708SOL    HW129079   2.157   9.923   7.356  1.3107  1.1291  0.2614
 8708SOL    HW229080   2.057   9.827   7.418  0.3418  0.8955 -1.5986
 8709SOL     OW29081   8.150   8.312   4.795 -0.2636 -1.0189 -0.6881
 8709SOL    HW129082   8.160   8.217   4.801  1.1235 -0.7962  2.1986
 8709SOL    HW229083   8.230   8.347   4.834 -0.6430  1.3658 -1.8731
 8710SOL     OW29084   9.719   4.674   7.998 -0.4243 -0.6953  0.3384
 8710SOL    HW129085   9.716   4.719   7.914  4.0263  2.2262  1.4091
 8710SOL    HW229086   9.663   4.726   8.056  2.1802  1.9230  0.7545
 8711SOL     OW29087   1.269   1.912   9.300 -0.6216 -0.8122 -0.0384
 8711SOL    HW129088   1.233   1.956   9.223 -0.3439 -0.2836  0.1292
 8711SOL    HW229089   1.358   1.888   9.274 -0.5705 -0.7464  0.0791
 8712SOL     OW29090   2.155   9.010   7.467 -0.2716  0.2613  0.0738
 8712SOL    HW129091   2.094   8.987   7.537 -1.2918  0.6278 -0.6702
 8712SOL    HW229092   2.195   9.092   7.495  1.4734 -1.0216  1.5401
 8713SOL     OW29093   8.803  10.082   2.513  0.0361  0.7621 -0.0178
 8713SOL    HW129094   8.728  10.069   2.570 -0.1443  0.5166 -0.3099
 8713SOL    HW229095   8.798  10.174   2.487 -0.8267  0.4728 -0.9541
 8714SOL     OW29096   2.921   3.854   6.486 -0.7466  0.2065 -0.1934
 8714SOL    HW129097   2.896   3.838   6.395 -1.5128  1.3805 -0.2207
 8714SOL    HW229098   2.970   3.777   6.512 -0.7943 -0.2890 -1.5068
 8715SOL     OW29099   0.765   1.650   6.248 -0.2400 -0.0752  0.0255
 8715SOL    HW129100   0.823   1.574   6.242 -0.1266 -0.1819  1.8423
 8715SOL    HW229101   0.816   1.723   6.212  1.4959  0.0483  2.4833
 8716SOL     OW29102   1.234   6.023   8.766  0.0508 -0.2619 -0.3082
 8716SOL    HW129103   1.316   6.057   8.802 -1.5235  0.5408  2.9742
 8716SOL    HW229104   1.260   5.945   8.717  2.9175  1.0240 -1.0332
 8717SOL     OW29105   4.541   1.567   5.034  0.0727  0.7700 -0.4421
 8717SOL    HW129106   4.534   1.526   4.947  1.0450 -1.7242  0.5627
 8717SOL    HW229107   4.450   1.579   5.062 -0.3046 -1.3343 -0.5803
 8718SOL     OW29108   9.346   2.867   9.645  0.1547  0.9571  0.1146
 8718SOL    HW129109   9.382   2.779   9.654 -0.5240  0.4786 -1.4228
 8718SOL    HW229110   9.355   2.906   9.732 -0.0521 -0.8200  0.9820
 8719SOL     OW29111   2.282   7.022   2.457 -0.1922 -0.3829  0.4405
 8719SOL    HW129112   2.369   7.046   2.487  0.1710  1.2523 -1.6750
 8719SOL    HW229113   2.228   7.099   2.475 -0.6759 -0.5561 -0.2392
 8720SOL     OW29114   0.075   1.626   8.987  0.5248  0.0333 -0.1332
 8720SOL    HW129115   0.064   1.721   8.996  0.4460  0.0629 -0.5211
 8720SOL    HW229116  -0.005   1.597   8.944 -0.1346 -0.4291  1.3310
 8721SOL     OW29117   3.100   9.793   1.563 -0.1245 -0.1868  0.5712
 8721SOL    HW129118   3.119   9.754   1.649  1.3620  0.0135  0.3568
 8721SOL    HW229119   3.129   9.727   1.500 -0.2098  0.1112  0.2145
 8722SOL     OW29120   3.558   5.799   2.864 -0.0559 -0.2967  0.2794
 8722SOL    HW129121   3.472   5.834   2.842 -0.8935  0.2377  3.7824
 8722SOL    HW229122   3.558   5.711   2.826 -1.8646 -0.0464 -0.3955
 8723SOL     OW29123   0.210   7.501   5.207 -0.2877  0.3333 -0.4148
 8723SOL    HW129124   0.275   7.501   5.277 -0.1872  0.8786 -0.4968
 8723SOL    HW229125   0.254   7.459   5.133 -0.4858 -0.4798 -0.0738
 8724SOL     OW29126   4.425  10.682   0.397 -0.8850 -0.1113 -0.3983
 8724SOL    HW129127   4.369  10.691   0.320 -0.6805 -0.4551 -0.5857
 8724SOL    HW229128   4.458  10.593   0.393  1.4922  0.7432 -1.5342
 8725SOL     OW29129   7.218   0.773   3.618 -0.0894 -0.4439 -0.3181
 8725SOL    HW129130   7.213   0.698   3.677 -1.1219 -0.1227  0.0120
 8725SOL    HW229131   7.159   0.838   3.656  1.0955  0.7012 -0.3783
 8726SOL     OW29132  10.178   4.620   7.901 -0.1706  0.8626  0.0241
 8726SOL    HW129133  10.262   4.574   7.911  0.2149  0.6537 -3.2445
 8726SOL    HW229134  10.132   4.602   7.983  2.4755 -0.0224  1.4431
 8727SOL     OW29135   2.584   8.139   0.421  0.1407  0.0220  0.4810
 8727SOL    HW129136   2.623   8.062   0.462  1.2378  1.2577  1.8706
 8727SOL    HW229137   2.598   8.126   0.327  1.0298 -1.0955  0.7498
 8728SOL     OW29138   0.781   0.317   9.528 -0.1779 -0.0877 -0.3695
 8728SOL    HW129139   0.873   0.292   9.525 -0.7068 -2.1827 -1.6729
 8728SOL    HW229140   0.757   0.332   9.436 -1.2731 -0.2597 -0.1324
 8729SOL     OW29141   0.461   8.094   6.360  0.2473 -0.5245 -0.3520
 8729SOL    HW129142   0.405   8.042   6.417  0.4761 -0.2805  0.1065
 8729SOL    HW229143   0.402   8.157   6.318  0.3423  0.6582  1.1773
 8730SOL     OW29144   8.056   1.291   2.844  0.0598  0.0633 -0.4717
 8730SOL    HW129145   8.085   1.295   2.753 -0.2681 -0.1818 -0.5905
 8730SOL    HW229146   8.126   1.246   2.890  1.4817  2.5281 -0.0753
 8731SOL     OW29147   3.451   5.157   4.459 -0.2663 -0.4768 -0.6388
 8731SOL    HW129148   3.374   5.210   4.438 -0.8787 -1.3573 -0.6911
 8731SOL    HW229149   3.488   5.198   4.537  0.0205  0.7662 -1.4015
 8732SOL     OW29150   9.051   3.761   5.792 -0.2725 -0.5241 -0.2053
 8732SOL    HW129151   9.137   3.803   5.791  0.1052 -1.2571 -1.6598
 8732SOL    HW229152   8.990   3.831   5.813  0.7841 -0.2861  2.4566
 8733SOL     OW29153   3.464   3.484   4.536  0.1494  0.5235 -0.1415
 8733SOL    HW129154   3.469   3.427   4.459  0.3240 -1.0788  0.9956
 8733SOL    HW229155   3.372   3.480   4.562  0.3566 -0.1174  0.5414
 8734SOL     OW29156   3.377   1.472   1.951 -0.3053 -0.0873 -0.2697
 8734SOL    HW129157   3.299   1.508   1.992 -0.5014  0.0468 -0.7607
 8734SOL    HW229158   3.449   1.524   1.987 -0.5438  0.5146 -0.6466
 8735SOL     OW29159  10.207   9.328   0.568  0.0035  0.3435  0.5265
 8735SOL    HW129160  10.133   9.282   0.608 -1.0816  0.0154 -1.7421
 8735SOL    HW229161  10.178   9.419   0.564  0.3875  0.4952  1.0599
 8736SOL     OW29162   9.661   6.361   8.108  0.1227  0.2696  0.0900
 8736SOL    HW129163   9.622   6.286   8.153 -1.7928  2.5972  2.6561
 8736SOL    HW229164   9.606   6.374   8.031 -0.1333 -0.3553  0.1594
 8737SOL     OW29165   4.104  10.140   5.212 -0.2692 -0.3419  0.6620
 8737SOL    HW129166   4.188  10.130   5.167 -1.5288  1.8024 -2.6229
 8737SOL    HW229167   4.117  10.214   5.271  0.7863 -1.6924  2.1902
 8738SOL     OW29168   0.564   1.128   2.407  0.4371  0.5106 -0.2073
 8738SOL    HW129169   0.514   1.201   2.369 -0.3663  0.7743  1.2771
 8738SOL    HW229170   0.507   1.094   2.476  0.9415 -1.3354 -0.6430
 8739SOL     OW29171   8.612   7.285   1.596  0.6450 -0.3290 -0.4479
 8739SOL    HW129172   8.671   7.359   1.586  0.9521 -0.5214 -0.0754
 8739SOL    HW229173   8.665   7.216   1.637 -0.2453  0.0287  1.4276
 8740SOL     OW29174   6.609   3.306   0.651 -0.2540  0.2757  0.6564
 8740SOL    HW129175   6.613   3.370   0.580 -1.8664 -1.6821 -1.3630
 8740SOL    HW229176   6.697   3.309   0.690  0.6480  1.6159 -1.2716
 8741SOL     OW29177   2.217   5.783   1.509 -0.2769  0.1516 -0.2839
 8741SOL    HW129178   2.193   5.694   1.535 -0.1113  0.1322 -0.1942
 8741SOL    HW229179   2.135   5.832   1.514 -0.2459  0.1510  0.2941
 8742SOL     OW29180   1.678   9.032   4.708  0.0243 -0.2283 -0.1332
 8742SOL    HW129181   1.645   8.944   4.728  2.1275 -1.2733 -0.9168
 8742SOL    HW229182   1.773   9.025   4.721  0.4313  1.4675 -1.7951
 8743SOL     OW29183   1.394   4.125   0.964 -0.1208  0.3128  0.0633
 8743SOL    HW129184   1.393   4.098   0.872 -0.5361 -0.3441  0.2484
 8743SOL    HW229185   1.302   4.122   0.991 -0.1845  1.9365  0.1075
 8744SOL     OW29186   1.529   5.221   1.198 -0.3988  0.2396 -0.0628
 8744SOL    HW129187   1.593   5.150   1.190 -0.9050 -0.2026 -0.2520
 8744SOL    HW229188   1.448   5.177   1.223 -0.8174  0.7046 -0.5775
 8745SOL     OW29189   5.325   9.767   7.156  0.2889  0.0653  0.3196
 8745SOL    HW129190   5.268   9.750   7.231  0.7425  0.4943  0.7668
 8745SOL    HW229191   5.271   9.817   7.096 -0.3566 -1.0200 -0.0382
 8746SOL     OW29192   2.693   2.301   5.644  0.0336  0.1828 -0.7717
 8746SOL    HW129193   2.744   2.261   5.715  1.3957  0.2308 -1.6880
 8746SOL    HW229194   2.614   2.248   5.639  0.7927 -1.0308 -0.4670
 8747SOL     OW29195   9.602   9.189   4.838  0.4967  0.5544  0.5600
 8747SOL    HW129196   9.531   9.247   4.812  0.3520 -0.0136 -0.3258
 8747SOL    HW229197   9.647   9.237   4.908 -0.0769  1.4014  0.3641
 8748SOL     OW29198   1.979   8.678   4.996 -0.3954 -0.1374  0.2909
 8748SOL    HW129199   2.007   8.597   5.039  0.8093 -0.5325 -1.1707
 8748SOL    HW229200   1.894   8.656   4.957  0.4765 -1.1110 -1.1313
 8749SOL     OW29201   8.310   0.323  10.229  0.2531 -0.4297  0.6320
 8749SOL    HW129202   8.222   0.330  10.191  0.2799  2.4914  0.9204
 8749SOL    HW229203   8.357   0.265  10.169 -1.2907 -0.4292 -0.6432
 8750SOL     OW29204   9.523   7.082   5.679 -0.6151 -0.3051  0.1456
 8750SOL    HW129205   9.543   6.989   5.691 -0.8148 -0.5330 -1.1473
 8750SOL    HW229206   9.563   7.105   5.595 -0.5575  0.7821  0.4592
 8751SOL     OW29207   0.170   8.703   4.725 -0.3578  0.4715 -0.0397
 8751SOL    HW129208   0.235   8.635   4.741 -0.3959 -0.0080 -1.7411
 8751SOL    HW229209   0.182   8.765   4.797 -0.2197 -1.2304  1.4897
 8752SOL     OW29210   5.147   9.222   8.633  0.1033  0.0942 -0.1737
 8752SOL    HW129211   5.094   9.154   8.675 -1.1827  0.8972 -0.4381
 8752SOL    HW229212   5.132   9.300   8.686 -0.0807  0.6687 -1.0562
 8753SOL     OW29213   8.329   2.076   9.947 -0.2365  0.0529  0.1700
 8753SOL    HW129214   8.329   2.158   9.996 -0.2446 -0.1559  0.5203
 8753SOL    HW229215   8.284   2.097   9.865  1.1031  0.7912 -0.4117
 8754SOL     OW29216   0.852   6.488   1.299  0.3658 -0.3148  0.1392
 8754SOL    HW129217   0.870   6.433   1.223 -0.7248  1.3855 -1.4423
 8754SOL    HW229218   0.778   6.446   1.342 -1.3732  0.5255 -1.8386
 8755SOL     OW29219   2.279   0.921   8.516  0.2021 -0.0117  0.3348
 8755SOL    HW129220   2.309   0.947   8.603 -0.1572 -2.8040  1.3975
 8755SOL    HW229221   2.189   0.951   8.511  0.2637  0.2618  0.8850
 8756SOL     OW29222   1.271   5.362   7.938  0.2679  0.0091 -0.2679
 8756SOL    HW129223   1.366   5.375   7.946  0.2197  0.8282 -0.8911
 8756SOL    HW229224   1.233   5.442   7.973 -0.2544 -0.7601  1.0030
 8757SOL     OW29225   9.251   8.371  10.170  0.5718  0.1057  0.8713
 8757SOL    HW129226   9.233   8.360  10.263 -0.1327  0.0793  0.7382
 8757SOL    HW229227   9.201   8.301  10.127 -0.2190  0.9568  0.3721
 8758SOL     OW29228   3.714   1.190   0.729  0.2860  0.5124 -0.0582
 8758SOL    HW129229   3.662   1.159   0.654  0.5428 -1.0267  0.3716
 8758SOL    HW229230   3.745   1.110   0.771  1.7056  1.3858  0.6150
 8759SOL     OW29231   8.748   6.437  10.684 -0.2069 -0.2424  0.0683
 8759SOL    HW129232   8.736   6.343  10.699  0.0309 -0.2347  0.3174
 8759SOL    HW229233   8.667   6.478  10.715 -0.8530 -0.4776 -1.2364
 8760SOL     OW29234   8.933   5.826  10.445 -0.5653 -0.2170  0.2485
 8760SOL    HW129235   8.976   5.907  10.419 -1.3958  0.7045  1.6173
 8760SOL    HW229236   9.001   5.759  10.438 -0.3332  0.1719 -2.7209
 8761SOL     OW29237   3.666  10.186   8.727  0.3855  0.1257 -0.1452
 8761SOL    HW129238   3.670  10.154   8.817 -3.1675  0.2837  0.2320
 8761SOL    HW229239   3.643  10.279   8.734  0.1067  0.1593 -1.1743
 8762SOL     OW29240   7.946   6.484   7.414  0.1498 -0.1135 -0.0955
 8762SOL    HW129241   8.016   6.472   7.478  0.2053 -1.5361 -0.3926
 8762SOL    HW229242   7.990   6.485   7.329  0.0067  1.0860 -0.1668
 8763SOL     OW29243   4.475   7.598   7.464  0.2385 -0.3442 -0.3095
 8763SOL    HW129244   4.549   7.657   7.478  1.1451 -1.4377 -0.4240
 8763SOL    HW229245   4.494   7.553   7.382 -1.4382  0.6305 -1.3081
 8764SOL     OW29246   0.163   3.183   9.162 -0.1784 -0.1766  0.1058
 8764SOL    HW129247   0.121   3.236   9.093 -0.2588  0.8500  0.9117
 8764SOL    HW229248   0.251   3.166   9.129 -0.3180  0.0418 -0.3920
 8765SOL     OW29249   9.287   6.036  10.495  0.3636  0.4556  0.5539
 8765SOL    HW129250   9.300   6.049  10.401 -1.3873 -2.6690 -0.2615
 8765SOL    HW229251   9.346   5.964  10.518 -0.1987  0.2899  1.5355
 8766SOL     OW29252   0.047   4.639   9.026  0.3181  0.7286  0.4787
 8766SOL    HW129253   0.061   4.684   9.109  1.6581  0.4460  0.4184
 8766SOL    HW229254  -0.007   4.564   9.049 -1.8819  2.2383  0.5958
 8767SOL     OW29255   3.008   9.298   8.942 -0.1171 -0.5151 -0.4461
 8767SOL    HW129256   3.103   9.301   8.958 -0.3003  1.3071  0.5396
 8767SOL    HW229257   2.970   9.283   9.028 -0.8094  1.5850 -0.3359
 8768SOL     OW29258   2.915   6.514   9.935  0.2172 -0.4347  0.2147
 8768SOL    HW129259   2.908   6.529  10.029 -1.1787  3.1527 -0.2986
 8768SOL    HW229260   2.929   6.601   9.897  0.0355 -1.6369 -2.9652
 8769SOL     OW29261   5.168   6.329   9.653  0.1009  0.2918 -0.5561
 8769SOL    HW129262   5.147   6.303   9.742  2.4858 -1.2868 -0.3628
 8769SOL    HW229263   5.254   6.373   9.660  0.0934  0.6035 -2.0013
 8770SOL     OW29264   2.935   6.951   5.978 -0.4728 -0.0242  0.0788
 8770SOL    HW129265   2.982   7.029   5.948 -1.5421 -0.4406 -3.0221
 8770SOL    HW229266   3.004   6.886   5.993  0.2255  0.6011 -0.3420
 8771SOL     OW29267   7.505   5.946   6.951 -0.3189 -0.5601  0.1190
 8771SOL    HW129268   7.585   5.929   7.001 -1.0974 -2.2541  0.8553
 8771SOL    HW229269   7.494   6.041   6.957  0.2553 -0.5696  2.2062
 8772SOL     OW29270   8.487   7.231   3.359  0.1857  0.1232 -0.0777
 8772SOL    HW129271   8.501   7.163   3.425 -1.1098  0.0528  0.1622
 8772SOL    HW229272   8.438   7.187   3.289 -0.8471  0.8294  0.1735
 8773SOL     OW29273   4.231   0.227   1.938 -0.5119 -0.3865 -0.0658
 8773SOL    HW129274   4.208   0.178   1.859 -0.4177 -0.7823  0.1463
 8773SOL    HW229275   4.294   0.293   1.908 -0.2834 -0.6968 -0.2818
 8774SOL     OW29276   3.968   8.069   0.641  0.2544 -1.2455 -0.3354
 8774SOL    HW129277   3.918   8.112   0.710  1.8271  0.4448 -0.1524
 8774SOL    HW229278   3.903   8.049   0.573 -0.7358  0.6647 -0.0264
 8775SOL     OW29279   2.977   7.370   3.881  0.0438  0.2697 -0.3835
 8775SOL    HW129280   2.940   7.419   3.954  1.5514 -0.5493  0.9878
 8775SOL    HW229281   2.937   7.409   3.803 -2.7945  0.1500  0.9019
 8776SOL     OW29282   5.593   7.397  10.155 -0.5755  0.0071  0.2647
 8776SOL    HW129283   5.603   7.430  10.245  0.9953 -1.7403  0.8015
 8776SOL    HW229284   5.577   7.304  10.166  0.7251 -0.4311 -1.2864
 8777SOL     OW29285   0.388   3.567   0.504 -0.1271  0.7290  0.2956
 8777SOL    HW129286   0.325   3.497   0.521 -0.7564  1.1727 -0.1858
 8777SOL    HW229287   0.455   3.556   0.571  0.6905 -1.3924 -0.7805
 8778SOL     OW29288  10.664   8.739   2.939 -0.2691 -0.3484  0.1538
 8778SOL    HW129289  10.631   8.775   2.857 -0.0711 -0.1530  0.1589
 8778SOL    HW229290  10.590   8.690   2.975 -0.4928 -0.0742  0.0715
 8779SOL     OW29291   8.559   3.529   1.862 -0.2178  0.5384  0.1313
 8779SOL    HW129292   8.486   3.585   1.889 -0.8407  0.1980 -0.7988
 8779SOL    HW229293   8.634   3.563   1.911 -0.6482  1.9690 -0.1426
 8780SOL     OW29294   2.297   1.645   5.140 -0.4016  0.3152 -0.2189
 8780SOL    HW129295   2.301   1.587   5.216  2.8239  0.1936 -0.3408
 8780SOL    HW229296   2.268   1.589   5.069  0.3025 -0.5777  0.1723
 8781SOL     OW29297   2.617   6.887  10.660 -0.4440  0.2580 -0.3324
 8781SOL    HW129298   2.633   6.943  10.736 -1.1805 -0.1646  0.1485
 8781SOL    HW229299   2.523   6.892  10.645 -0.1728  1.2048 -1.9200
 8782SOL     OW29300   1.740  10.011   9.151 -0.3784  0.1070 -0.0546
 8782SOL    HW129301   1.821  10.057   9.131 -0.9135  0.4559 -1.6090
 8782SOL    HW229302   1.766   9.920   9.165  0.5261  0.6063  1.7050
 8783SOL     OW29303  10.678   7.595   5.271  0.2637 -0.7791 -0.3234
 8783SOL    HW129304  10.629   7.527   5.319  1.6332  0.6869  3.6044
 8783SOL    HW229305  10.749   7.548   5.228  0.6817 -2.0557  1.5949
 8784SOL     OW29306   4.278   1.975   1.573  0.4771 -0.2065  0.3049
 8784SOL    HW129307   4.275   2.047   1.510 -2.4565  1.2035  1.8581
 8784SOL    HW229308   4.365   1.936   1.561  1.2913  2.0919 -2.2213
 8785SOL     OW29309   0.172   7.068   5.747 -0.5238 -0.1782 -0.8637
 8785SOL    HW129310   0.150   7.014   5.672 -0.3101  1.2777 -2.0154
 8785SOL    HW229311   0.112   7.040   5.816  1.6179 -4.1054 -0.2713
 8786SOL     OW29312   4.908   4.794   1.509  0.0844  0.0575  0.2483
 8786SOL    HW129313   4.851   4.869   1.487  0.6484  0.3913 -0.1015
 8786SOL    HW229314   4.858   4.745   1.574 -1.0510 -0.2209 -0.8027
 8787SOL     OW29315   6.404   3.434   9.384  0.2855 -0.2489 -0.5619
 8787SOL    HW129316   6.411   3.498   9.313 -1.6125  0.1356 -0.4609
 8787SOL    HW229317   6.437   3.480   9.461  0.4565  0.0381 -0.8051
 8788SOL     OW29318   1.965   2.652  10.518  0.4948 -0.4646  0.2039
 8788SOL    HW129319   2.039   2.679  10.463 -0.5573 -0.7442 -1.4454
 8788SOL    HW229320   1.917   2.732  10.534 -0.3636 -0.6661 -1.1675
 8789SOL     OW29321   3.412   9.392   8.735  0.8366  0.4990  0.3875
 8789SOL    HW129322   3.346   9.461   8.726  1.6892  1.2880  0.0108
 8789SOL    HW229323   3.426   9.362   8.645 -0.1258 -0.7696  0.6309
 8790SOL     OW29324   8.444   2.049   4.556  0.3490  0.8157 -0.3702
 8790SOL    HW129325   8.427   2.042   4.462 -1.5130  1.4916 -0.1119
 8790SOL    HW229326   8.366   2.090   4.592  0.6070 -0.3156  1.6306
 8791SOL     OW29327   9.961   1.424   1.536 -0.4244  0.3588  0.1882
 8791SOL    HW129328   9.932   1.419   1.627 -4.0285 -1.3340 -0.8740
 8791SOL    HW229329   9.915   1.500   1.499 -0.1778  0.1542 -0.5695
 8792SOL     OW29330   4.490   3.769   2.043 -0.0231 -0.3350  0.0388
 8792SOL    HW129331   4.411   3.823   2.035  0.4977  0.4004 -0.2495
 8792SOL    HW229332   4.547   3.801   1.973  0.4761 -0.9600  0.1591
 8793SOL     OW29333   1.901   4.919   0.885  0.1923 -0.3527 -0.1149
 8793SOL    HW129334   1.954   4.994   0.911  1.4404 -1.4081  0.5130
 8793SOL    HW229335   1.852   4.950   0.808 -0.8610  1.6992  1.2788
 8794SOL     OW29336   1.296   5.242   0.233  0.0332 -0.2631  0.0964
 8794SOL    HW129337   1.381   5.285   0.240  1.4948 -2.9865  0.6607
 8794SOL    HW229338   1.300   5.194   0.150 -0.8961 -0.5576  0.2054
 8795SOL     OW29339   8.642   6.120   6.508 -0.0813 -0.1655  0.0495
 8795SOL    HW129340   8.585   6.189   6.472  1.4455 -0.0643 -2.4701
 8795SOL    HW229341   8.621   6.042   6.457  1.1956 -0.4184 -0.1320
 8796SOL     OW29342   8.850   3.996  10.226 -0.3285 -0.5308 -0.3640
 8796SOL    HW129343   8.941   4.025  10.234 -0.3912 -0.7015  1.2004
 8796SOL    HW229344   8.848   3.944  10.145 -0.3226  4.1035 -3.8041
 8797SOL     OW29345   4.849   8.892   4.470 -0.9208  0.4440  0.0875
 8797SOL    HW129346   4.906   8.815   4.468 -2.2127 -0.5378 -0.1814
 8797SOL    HW229347   4.877   8.940   4.548  0.2384 -0.0249 -0.0184
 8798SOL     OW29348   5.878   6.896   9.971 -0.1652  0.2388  0.4891
 8798SOL    HW129349   5.853   6.907   9.880  0.0393 -1.9037  0.1320
 8798SOL    HW229350   5.947   6.829   9.969  0.0735  0.3924  2.1904
 8799SOL     OW29351   2.897   7.212   3.154  0.1896 -0.2806 -0.1012
 8799SOL    HW129352   2.945   7.147   3.103 -0.6805 -0.6180 -0.5148
 8799SOL    HW229353   2.912   7.187   3.245  0.1065 -0.8835 -0.2490
 8800SOL     OW29354   2.658   3.987   7.302  0.1723 -0.2653  0.2136
 8800SOL    HW129355   2.581   4.016   7.253  0.2055  1.5652  1.1436
 8800SOL    HW229356   2.727   4.049   7.277  0.6049 -0.2645  1.3569
 8801SOL     OW29357   2.331   2.137   2.533  0.3643  0.4886  0.4618
 8801SOL    HW129358   2.354   2.104   2.620  3.3111 -0.3636 -0.5492
 8801SOL    HW229359   2.342   2.063   2.474 -2.6841  0.7340 -0.6042
 8802SOL     OW29360   5.392  10.634   8.366  0.1170 -0.1758  0.2317
 8802SOL    HW129361   5.367  10.685   8.443 -0.9831  0.8771 -0.7750
 8802SOL    HW229362   5.476  10.595   8.389 -0.2955 -0.0873  2.0423
 8803SOL     OW29363   6.963   8.997   1.496  0.0017 -0.3301  0.7010
 8803SOL    HW129364   6.918   8.942   1.433  0.6042 -0.3881  0.3080
 8803SOL    HW229365   7.037   9.034   1.447  0.0265  0.2418  1.1577
 8804SOL     OW29366   2.303   8.976   0.703  0.1488  0.5069 -0.3282
 8804SOL    HW129367   2.248   9.039   0.657 -1.3504 -1.6990 -1.7650
 8804SOL    HW229368   2.242   8.931   0.762  0.3426 -1.8665 -1.8095
 8805SOL     OW29369   2.081   8.923   9.419 -0.2479 -0.1296 -0.2259
 8805SOL    HW129370   2.000   8.892   9.461 -0.2434  0.1879  0.0187
 8805SOL    HW229371   2.086   9.016   9.443  0.2898 -0.1944 -0.0852
 8806SOL     OW29372   5.527   3.981   8.401 -0.0448  0.0355 -0.1635
 8806SOL    HW129373   5.521   4.034   8.480  0.0497 -0.0462 -0.1012
 8806SOL    HW229374   5.603   3.925   8.415 -1.5426 -1.9094  0.8600
 8807SOL     OW29375   9.795   7.548   1.992  0.8641 -0.4049 -0.4438
 8807SOL    HW129376   9.855   7.507   1.930 -0.6240 -3.0306 -0.2906
 8807SOL    HW229377   9.725   7.585   1.937  0.9877 -0.2037 -0.4658
 8808SOL     OW29378   7.331   8.348  10.408 -0.1140  0.3457 -0.0206
 8808SOL    HW129379   7.328   8.392  10.493 -2.2173  0.7694 -0.2602
 8808SOL    HW229380   7.306   8.258  10.427  0.9745  0.0393  0.0110
 8809SOL     OW29381   8.090   3.086   0.647 -0.3239  0.3512 -0.4465
 8809SOL    HW129382   8.152   3.035   0.595  0.4582  1.1381 -0.3048
 8809SOL    HW229383   8.143   3.123   0.717 -1.1935  0.0518  0.3876
 8810SOL     OW29384  10.504   0.852   5.297  0.4802 -0.4647 -0.1684
 8810SOL    HW129385  10.587   0.898   5.282  1.2881 -2.7199 -4.0663
 8810SOL    HW229386  10.440   0.900   5.243 -0.3599  0.0854  1.2531
 8811SOL     OW29387   4.287   4.426   6.689 -0.2878  0.7047 -0.0466
 8811SOL    HW129388   4.232   4.486   6.638 -0.9119 -0.0160 -0.2421
 8811SOL    HW229389   4.226   4.380   6.746  0.2403  0.5564  0.4042
 8812SOL     OW29390   0.020   7.437   4.620 -0.0981 -0.4316 -0.2716
 8812SOL    HW129391  -0.019   7.371   4.677 -0.1891 -1.5457 -1.5758
 8812SOL    HW229392   0.089   7.391   4.573  0.4009  0.6189 -0.6094
 8813SOL     OW29393   2.488   7.951   8.974 -0.1292 -0.2203  0.0234
 8813SOL    HW129394   2.581   7.945   8.997 -0.3135 -0.7059  0.6542
 8813SOL    HW229395   2.454   7.864   8.990 -0.9115  0.2031  0.7270
 8814SOL     OW29396  10.670   1.536   2.865 -0.2226  0.3450  0.5360
 8814SOL    HW129397  10.667   1.502   2.954 -3.2588 -0.7939  0.1125
 8814SOL    HW229398  10.724   1.473   2.817  1.6794  1.1196  1.5204
 8815SOL     OW29399   7.201   7.534   5.218 -0.2676 -0.0676  0.5860
 8815SOL    HW129400   7.192   7.557   5.125  2.2704  1.3152  0.5673
 8815SOL    HW229401   7.115   7.552   5.256 -0.7003  1.6771 -1.0612
 8816SOL     OW29402   5.449   9.915   3.660  0.2726 -0.1244  0.2040
 8816SOL    HW129403   5.518   9.865   3.617 -0.3130 -0.9832  0.2357
 8816SOL    HW229404   5.383   9.928   3.592  0.2461  0.2800  0.3016
 8817SOL     OW29405  10.207   1.255   6.543 -0.0670  0.0088  0.0374
 8817SOL    HW129406  10.224   1.165   6.571 -1.5908 -0.6723 -1.0630
 8817SOL    HW229407  10.170   1.298   6.620 -0.7262 -0.7522  0.1594
 8818SOL     OW29408   9.454   1.759   6.813 -0.1863 -0.2854  0.4640
 8818SOL    HW129409   9.439   1.698   6.741  1.1167  0.6380 -0.6332
 8818SOL    HW229410   9.496   1.835   6.772  0.4056  0.3451  2.1662
 8819SOL     OW29411  10.339   5.694   6.751  0.0941 -0.3794 -0.3669
 8819SOL    HW129412  10.243   5.689   6.756  0.1139 -0.1562  0.4038
 8819SOL    HW229413  10.366   5.725   6.837  0.8335  0.0738 -0.7490
 8820SOL     OW29414   5.305   0.913   6.064 -0.3858  0.0350 -0.5417
 8820SOL    HW129415   5.386   0.885   6.020 -1.4064  0.1520 -2.6355
 8820SOL    HW229416   5.237   0.900   5.998 -2.0416  0.2299  1.0715
 8821SOL     OW29417   7.642  10.033   3.101 -0.2986 -0.3940  0.5331
 8821SOL    HW129418   7.699  10.106   3.076 -1.7821  0.4662 -0.5003
 8821SOL    HW229419   7.615  10.054   3.190  0.0102 -0.1494  0.5733
 8822SOL     OW29420   4.260   2.682   5.795 -0.2524  0.1656  0.1206
 8822SOL    HW129421   4.165   2.679   5.805 -0.0588 -1.7334  2.0027
 8822SOL    HW229422   4.285   2.593   5.771  1.3095 -0.3810  3.2523
 8823SOL     OW29423   4.632   1.553   0.500 -0.2406  0.5624  0.1812
 8823SOL    HW129424   4.712   1.586   0.541  0.3833 -0.0967 -0.4777
 8823SOL    HW229425   4.643   1.458   0.500  0.1426  0.5414 -2.1575
 8824SOL     OW29426   4.383   2.860   7.246 -0.0505 -0.1897  0.0972
 8824SOL    HW129427   4.427   2.780   7.276 -3.6929 -2.3995  0.1503
 8824SOL    HW229428   4.409   2.868   7.154  0.0673 -1.7204 -0.0354
 8825SOL     OW29429   6.695   3.965   4.720 -0.3623 -0.5455 -0.0817
 8825SOL    HW129430   6.778   3.928   4.748 -0.6573 -1.7803 -0.7606
 8825SOL    HW229431   6.630   3.898   4.743 -1.3094  0.7684  1.2619
 8826SOL     OW29432   0.633   4.735   2.500  0.3096  0.0122 -0.6886
 8826SOL    HW129433   0.674   4.806   2.550  0.5522 -0.0382 -0.8126
 8826SOL    HW229434   0.650   4.757   2.408 -0.7186  0.4555 -0.7835
 8827SOL     OW29435   3.923   3.464   2.073 -0.1576 -0.3685  0.1067
 8827SOL    HW129436   3.848   3.523   2.080  0.3910  0.4200 -0.5315
 8827SOL    HW229437   3.992   3.517   2.033  0.5059 -1.2973 -0.0112
 8828SOL     OW29438   3.691   6.646   7.510  0.4218  0.2081 -0.0515
 8828SOL    HW129439   3.725   6.582   7.447  1.1530 -0.3775  0.9146
 8828SOL    HW229440   3.755   6.716   7.509  1.5319 -0.7306  1.5031
 8829SOL     OW29441   2.187   3.630   0.411  0.4803 -0.0885 -0.2141
 8829SOL    HW129442   2.229   3.714   0.389  0.0427  0.1408 -0.1952
 8829SOL    HW229443   2.096   3.653   0.427  0.4756 -0.4850  0.3627
 8830SOL     OW29444   0.204   9.496   1.780  0.0316 -0.4750 -0.2645
 8830SOL    HW129445   0.270   9.560   1.752  0.3171 -0.2426  0.8944
 8830SOL    HW229446   0.148   9.545   1.840 -0.6777 -0.9160 -0.5509
 8831SOL     OW29447   0.709   0.937   0.785  0.7695  0.2498  0.1528
 8831SOL    HW129448   0.783   0.985   0.821  0.4129 -1.0869  2.9359
 8831SOL    HW229449   0.636   0.958   0.842 -0.6641  0.2994 -1.5989
 8832SOL     OW29450   3.937   8.991   0.597  0.4632 -0.1431  0.2342
 8832SOL    HW129451   3.849   8.991   0.560  0.8192 -1.2128 -0.6664
 8832SOL    HW229452   3.925   8.964   0.688 -0.1861  0.1700  0.2430
 8833SOL     OW29453   5.246   1.331   8.302  0.0994  0.5435  0.1430
 8833SOL    HW129454   5.216   1.274   8.230  0.4437  0.8818 -0.2781
 8833SOL    HW229455   5.175   1.393   8.316  0.7334  1.6156 -1.1407
 8834SOL     OW29456   3.803   6.267   2.484 -0.3801 -0.1186 -0.1903
 8834SOL    HW129457   3.737   6.197   2.484 -1.7812  1.1638  0.2144
 8834SOL    HW229458   3.774   6.328   2.416  0.1969  0.6510  0.2398
 8835SOL     OW29459   8.379   1.263   1.998 -0.2488  0.0623 -0.6502
 8835SOL    HW129460   8.361   1.199   2.067 -0.2402  0.9901  0.2339
 8835SOL    HW229461   8.381   1.347   2.044  1.2975  0.5382 -1.5383
 8836SOL     OW29462   4.339   2.841   4.152 -0.1109 -0.3965  0.0726
 8836SOL    HW129463   4.361   2.769   4.094 -0.6446 -1.0861  0.7123
 8836SOL    HW229464   4.396   2.913   4.123  0.6489 -1.1541 -0.3704
 8837SOL     OW29465   6.176  10.032   7.729  0.3254 -0.4983  0.1524
 8837SOL    HW129466   6.107  10.041   7.794 -0.2365 -1.7008 -0.2509
 8837SOL    HW229467   6.131  10.042   7.645  0.8137 -0.3360 -0.0940
 8838SOL     OW29468   1.651   3.277   8.687 -0.4608  0.2327  0.2909
 8838SOL    HW129469   1.557   3.264   8.683 -0.5781 -0.4348  3.1494
 8838SOL    HW229470   1.688   3.189   8.695  0.3157  0.5596  0.4117
 8839SOL     OW29471   7.126   2.499  10.529  0.0007 -0.4937 -0.0886
 8839SOL    HW129472   7.173   2.573  10.567 -0.0337 -0.0842 -0.8405
 8839SOL    HW229473   7.034   2.516  10.548  0.1624 -1.9573  2.5814
 8840SOL     OW29474   7.074  10.369   5.962  0.2722 -0.0132  0.1431
 8840SOL    HW129475   7.046  10.300   5.902 -0.8700  0.2743  0.3253
 8840SOL    HW229476   7.163  10.390   5.933  0.3259 -0.9711 -0.4428
 8841SOL     OW29477   0.272   6.700   2.897  0.0597 -0.5939  0.1188
 8841SOL    HW129478   0.351   6.727   2.850  0.5607 -1.5517  0.3861
 8841SOL    HW229479   0.224   6.782   2.911  0.4847 -0.1325 -0.9750
 8842SOL     OW29480   7.496  10.008   0.064  0.0409 -0.5478 -0.6353
 8842SOL    HW129481   7.438  10.035  -0.008  0.2709  0.6387 -0.3880
 8842SOL    HW229482   7.442   9.948   0.115 -0.4521 -0.6609 -1.2605
 8843SOL     OW29483   8.458  10.038   5.534 -0.1749  0.2571 -0.1149
 8843SOL    HW129484   8.442  10.116   5.587  1.2352 -0.6222  1.7063
 8843SOL    HW229485   8.371  10.009   5.507 -0.8283  1.5757  0.4934
 8844SOL     OW29486   4.679   1.985   9.046 -0.1430  0.0439  0.5128
 8844SOL    HW129487   4.607   1.943   8.999  0.6233 -1.2355  0.4313
 8844SOL    HW229488   4.718   2.045   8.982 -0.6879  0.2051  0.3312
 8845SOL     OW29489   3.035   0.586   9.712  0.1523 -0.0273  0.0354
 8845SOL    HW129490   3.029   0.493   9.736 -0.3615  0.0579  0.2462
 8845SOL    HW229491   3.052   0.585   9.618  2.5495 -0.3710  0.4004
 8846SOL     OW29492   0.402   4.984   6.812  0.6060 -0.1151  0.0848
 8846SOL    HW129493   0.382   5.071   6.847 -0.1597  0.6229 -2.0083
 8846SOL    HW229494   0.432   5.001   6.723  0.0395 -2.0330 -0.5196
 8847SOL     OW29495   2.724  10.068   3.212 -0.3777  0.2182  0.1997
 8847SOL    HW129496   2.649  10.120   3.184 -0.8895 -0.2758  0.5922
 8847SOL    HW229497   2.733  10.088   3.305  0.6631  1.0885 -0.0860
 8848SOL     OW29498   1.637   8.369  10.552  0.1207  0.2884  0.2324
 8848SOL    HW129499   1.667   8.283  10.581  1.1828 -0.1881 -2.0724
 8848SOL    HW229500   1.582   8.401  10.624 -1.9315 -3.1269  0.3462
 8849SOL     OW29501   7.919   2.987   5.607  0.2841 -0.5199 -0.1155
 8849SOL    HW129502   7.970   2.923   5.557  0.3662 -0.0218 -0.6865
 8849SOL    HW229503   7.837   2.996   5.558 -0.3370 -1.2547  0.7553
 8850SOL     OW29504  10.349   1.319   9.053  0.4936 -0.0618 -0.4934
 8850SOL    HW129505  10.430   1.367   9.033  0.0987  1.0228  0.4035
 8850SOL    HW229506  10.365   1.281   9.139 -0.3721  1.2178  0.2816
 8851SOL     OW29507   3.834   0.312   8.409  0.3034  0.1287 -0.1889
 8851SOL    HW129508   3.761   0.300   8.348  0.3819  1.6100 -0.6096
 8851SOL    HW229509   3.904   0.258   8.374 -0.3339 -0.6999 -0.2153
 8852SOL     OW29510   7.899   2.479   3.001  0.0598  0.1779  0.6005
 8852SOL    HW129511   7.985   2.521   3.012  0.1469  0.2494 -0.2230
 8852SOL    HW229512   7.901   2.446   2.911 -0.6470 -0.1285  0.6939
 8853SOL     OW29513   4.715   4.368   8.562  0.2413 -0.4706 -0.3482
 8853SOL    HW129514   4.756   4.405   8.640 -1.0208 -2.0900  1.1453
 8853SOL    HW229515   4.674   4.443   8.519  2.4345  0.7343 -0.4624
 8854SOL     OW29516   8.560   8.672   5.499  0.0837  0.5803  0.6719
 8854SOL    HW129517   8.471   8.638   5.491  0.6303 -0.8563  0.3212
 8854SOL    HW229518   8.616   8.594   5.495  1.3475  1.4294  1.1217
 8855SOL     OW29519   4.929   9.623   0.352  0.7943  0.3308  0.4341
 8855SOL    HW129520   4.961   9.547   0.305 -1.7550 -0.3251 -0.3984
 8855SOL    HW229521   4.985   9.629   0.430  3.3598 -0.1698 -1.2454
 8856SOL     OW29522   0.706   6.781   0.251 -0.0032 -0.0599 -0.1933
 8856SOL    HW129523   0.742   6.830   0.177  1.0815  0.1635  0.4593
 8856SOL    HW229524   0.743   6.823   0.328  0.8371 -1.7775  0.3973
 8857SOL     OW29525   8.300   3.938   6.405 -0.4024  0.2757 -0.3152
 8857SOL    HW129526   8.284   3.929   6.499 -0.5271  0.7462 -0.2862
 8857SOL    HW229527   8.296   4.032   6.390 -1.4502  0.1330 -0.9823
 8858SOL     OW29528   7.754   6.617   8.381 -0.1030  0.3657  0.6006
 8858SOL    HW129529   7.796   6.555   8.321  0.1753 -0.3985  1.5500
 8858SOL    HW229530   7.780   6.703   8.348  1.9962 -0.0636  0.9435
 8859SOL     OW29531   9.057   8.521   1.445  0.2748 -0.0144  0.7501
 8859SOL    HW129532   9.036   8.614   1.442 -0.7910 -0.1916  2.1011
 8859SOL    HW229533   9.150   8.518   1.468  0.8923  0.7061 -1.4047
 8860SOL     OW29534   5.130   4.468   4.327 -0.7848 -0.1390  0.3082
 8860SOL    HW129535   5.215   4.434   4.298 -1.6374 -1.3145 -0.9145
 8860SOL    HW229536   5.112   4.540   4.267 -2.5047 -2.5118 -2.2641
 8861SOL     OW29537   6.863   7.937   9.131 -0.0664  0.5223  0.4922
 8861SOL    HW129538   6.940   7.885   9.108  0.1492  0.9263  0.2994
 8861SOL    HW229539   6.790   7.874   9.128  0.2773  0.1051  0.8344
 8862SOL     OW29540   4.143   4.934   7.450  0.2483  0.3416  0.1268
 8862SOL    HW129541   4.188   4.891   7.523  1.1166  1.6420  0.4003
 8862SOL    HW229542   4.051   4.910   7.462  0.2798  0.9390  1.9872
 8863SOL     OW29543   9.567   4.577   8.758  0.1313 -0.1300  0.7338
 8863SOL    HW129544   9.637   4.586   8.694 -0.5272 -0.5031 -0.0653
 8863SOL    HW229545   9.532   4.489   8.743 -0.4493  0.0216  1.1669
 8864SOL     OW29546   6.267   7.693   8.862  0.0083  0.1776  0.4010
 8864SOL    HW129547   6.198   7.646   8.908  1.4112 -1.9941  0.4718
 8864SOL    HW229548   6.330   7.625   8.839  0.2571  1.4055 -3.1713
 8865SOL     OW29549   9.837   0.169   0.217  0.2310  0.2660 -0.1701
 8865SOL    HW129550   9.766   0.230   0.235 -1.2339 -1.6585  0.9458
 8865SOL    HW229551   9.820   0.137   0.129 -0.3696 -0.2643  0.1324
 8866SOL     OW29552   2.340   3.889   8.617 -0.0602 -0.9053  0.1107
 8866SOL    HW129553   2.415   3.864   8.563  0.4913  1.4960 -0.3473
 8866SOL    HW229554   2.282   3.936   8.557 -0.4031  0.0294  1.1429
 8867SOL     OW29555   4.624   2.439   8.015 -0.0711  0.8236  0.3073
 8867SOL    HW129556   4.655   2.459   7.927 -0.4950 -0.3552 -0.1344
 8867SOL    HW229557   4.551   2.379   8.002  0.7762 -0.5452  1.5007
 8868SOL     OW29558   8.956   6.934   2.091 -0.4389  0.3714  0.0117
 8868SOL    HW129559   8.930   6.912   2.181 -2.0477  0.1680 -0.4678
 8868SOL    HW229560   8.878   6.916   2.039  0.6781 -0.1676 -1.5409
 8869SOL     OW29561  10.652   0.775   2.004  0.7763  0.0739  0.0029
 8869SOL    HW129562  10.662   0.698   1.949  0.3178 -1.3347  1.7882
 8869SOL    HW229563  10.703   0.755   2.083 -0.4853  0.9779  1.1044
 8870SOL     OW29564   1.926   4.864   5.883  0.1121 -0.1194 -0.1878
 8870SOL    HW129565   1.858   4.894   5.943 -2.3203  0.7112 -3.1350
 8870SOL    HW229566   1.913   4.769   5.878 -2.6008  0.2280 -2.4564
 8871SOL     OW29567   3.907   1.468   5.127  0.0120  0.0424 -0.2927
 8871SOL    HW129568   3.913   1.454   5.033 -0.5520  0.9479 -0.4675
 8871SOL    HW229569   3.859   1.550   5.137  0.8290  0.4246  0.7589
 8872SOL     OW29570   8.581   3.344   2.906  0.5225  0.0520  0.6285
 8872SOL    HW129571   8.609   3.269   2.854  0.3215  1.0435 -0.9562
 8872SOL    HW229572   8.627   3.419   2.869 -0.5476  0.9764  1.0944
 8873SOL     OW29573   6.462   5.895   6.322  0.3992  0.0651 -0.5066
 8873SOL    HW129574   6.371   5.863   6.314 -0.0518  1.3209 -0.5524
 8873SOL    HW229575   6.472   5.913   6.416 -0.3432  2.5241 -0.8340
 8874SOL     OW29576   1.677   5.416   8.857 -0.1178 -0.0522 -0.4105
 8874SOL    HW129577   1.677   5.399   8.951  1.0381 -1.0339 -0.5682
 8874SOL    HW229578   1.587   5.444   8.838 -0.5061 -0.3356  0.8899
 8875SOL     OW29579  10.078   1.569   2.247 -0.5720  0.2961 -0.0871
 8875SOL    HW129580  10.081   1.527   2.333  0.1983  1.4802  0.5016
 8875SOL    HW229581  10.010   1.521   2.199 -0.4604 -0.9025  0.8961
 8876SOL     OW29582   5.936   8.367   4.679  0.3451 -0.4176 -0.3048
 8876SOL    HW129583   5.893   8.356   4.763 -1.0169 -2.0825 -1.1601
 8876SOL    HW229584   6.026   8.341   4.694  0.4697  0.6092  0.9180
 8877SOL     OW29585   1.220   4.171   5.055 -0.0043 -0.3558 -0.5498
 8877SOL    HW129586   1.183   4.255   5.025  0.2921 -0.3281 -0.8316
 8877SOL    HW229587   1.284   4.196   5.122  2.4704 -0.0938 -2.8417
 8878SOL     OW29588   0.643   3.333   0.461 -0.5286 -0.3154  0.7284
 8878SOL    HW129589   0.708   3.303   0.397 -1.3903 -0.7772  0.0455
 8878SOL    HW229590   0.693   3.386   0.523  0.0253  2.1720 -1.6403
 8879SOL     OW29591   8.230   1.368   6.000 -0.8043  0.2952 -0.5376
 8879SOL    HW129592   8.320   1.364   5.968  0.2486 -0.2725  2.2698
 8879SOL    HW229593   8.187   1.291   5.961  0.5170 -0.6207 -0.2200
 8880SOL     OW29594   8.758   0.578   0.823 -0.1056 -0.4652 -0.3829
 8880SOL    HW129595   8.693   0.640   0.855 -1.7605 -2.5495  0.5011
 8880SOL    HW229596   8.766   0.598   0.729 -0.8462  0.8360 -0.1906
 8881SOL     OW29597   1.116   5.911   2.751 -0.0255  0.0877  0.1893
 8881SOL    HW129598   1.088   5.955   2.831  1.0596  0.2622  0.4956
 8881SOL    HW229599   1.186   5.966   2.716 -1.1637  0.5655 -1.4602
 8882SOL     OW29600   3.813   3.408   6.396 -0.3566 -0.3081  0.1807
 8882SOL    HW129601   3.894   3.452   6.421 -1.5097  1.5468  0.8349
 8882SOL    HW229602   3.746   3.445   6.453 -2.0561 -0.1605 -1.7690
 8883SOL     OW29603   2.153   2.922   6.859  0.2726  0.6594  0.6358
 8883SOL    HW129604   2.130   2.961   6.775  1.7503 -0.5236 -0.3659
 8883SOL    HW229605   2.141   2.993   6.922 -3.9037  0.7735  0.0029
 8884SOL     OW29606   3.757   1.965   0.498  0.0572  0.5807  0.1500
 8884SOL    HW129607   3.736   2.058   0.485 -2.1838  0.1830  0.4611
 8884SOL    HW229608   3.690   1.918   0.448  2.0166 -0.9357 -1.2341
 8885SOL     OW29609   2.677   1.833   2.089  0.5594 -0.1815  0.3623
 8885SOL    HW129610   2.735   1.876   2.152 -1.2632  0.4900  1.6696
 8885SOL    HW229611   2.624   1.774   2.143 -0.8805  0.2186 -0.5696
 8886SOL     OW29612   1.251  10.117   7.087 -0.0456  0.1705  0.5374
 8886SOL    HW129613   1.269  10.211   7.088  1.1682 -0.0375  1.2847
 8886SOL    HW229614   1.192  10.104   7.014  2.0801  1.1445 -1.4748
 8887SOL     OW29615   6.186   6.002   5.967  0.0405 -0.0231  0.0373
 8887SOL    HW129616   6.206   6.092   5.943  0.1140 -0.4789 -1.7469
 8887SOL    HW229617   6.271   5.958   5.970 -0.0016 -0.0575  0.8277
 8888SOL     OW29618   6.882   1.620  10.476 -0.0641 -0.3925 -0.2100
 8888SOL    HW129619   6.831   1.670  10.540  0.0226 -2.2176  1.3545
 8888SOL    HW229620   6.889   1.679  10.401 -1.3694  1.2938  0.9030
 8889SOL     OW29621  10.533   5.418   5.965 -0.2587 -0.0263 -0.1175
 8889SOL    HW129622  10.445   5.383   5.981 -0.0187 -0.0528  1.2823
 8889SOL    HW229623  10.585   5.388   6.040  1.0247 -0.2218 -1.0436
 8890SOL     OW29624   2.755   3.188   7.406 -0.1357 -0.2595 -0.1718
 8890SOL    HW129625   2.714   3.274   7.416 -0.2309  0.1761 -3.4150
 8890SOL    HW229626   2.681   3.127   7.406 -0.6060  0.2046 -2.6334
 8891SOL     OW29627   2.269   6.474   8.166 -0.3070  0.4072  0.4492
 8891SOL    HW129628   2.245   6.553   8.215  0.9835  1.1041 -0.0094
 8891SOL    HW229629   2.216   6.405   8.206 -3.4202  1.8736 -0.7873
 8892SOL     OW29630   2.732   7.588   3.476 -0.1246  0.4034 -0.2755
 8892SOL    HW129631   2.657   7.529   3.472  0.1010  0.1224 -0.4476
 8892SOL    HW229632   2.701   7.669   3.435 -0.4525  0.4244  0.0144
 8893SOL     OW29633   1.155   6.714   7.804  0.2838  0.1692 -0.6035
 8893SOL    HW129634   1.192   6.798   7.831 -0.0189  0.1310 -0.0548
 8893SOL    HW229635   1.230   6.656   7.794  0.4212  0.2457 -0.0489
 8894SOL     OW29636   9.465   6.821   9.833  0.0669  0.1635 -0.2067
 8894SOL    HW129637   9.420   6.776   9.762 -0.0676  0.9723 -0.6507
 8894SOL    HW229638   9.420   6.792   9.913 -1.1403  0.8178 -0.6229
 8895SOL     OW29639   7.683   3.956   0.250 -0.1530 -0.7536 -0.1163
 8895SOL    HW129640   7.678   4.032   0.308  1.0652  0.6861 -1.7796
 8895SOL    HW229641   7.771   3.960   0.212 -0.8570 -1.6306 -2.0041
 8896SOL     OW29642   0.385   0.710   4.136  0.2188 -0.4852  0.2442
 8896SOL    HW129643   0.366   0.678   4.047 -0.4264 -1.9165  0.8572
 8896SOL    HW229644   0.471   0.750   4.129  0.1474 -0.5081 -1.0461
 8897SOL     OW29645   3.974   9.490   5.316 -0.0778 -0.3635  0.2621
 8897SOL    HW129646   3.963   9.440   5.235 -0.1234 -0.4768  0.3375
 8897SOL    HW229647   4.068   9.506   5.323  0.0094 -1.0106  0.5789
 8898SOL     OW29648   9.890   0.550   3.677 -0.3711  0.1913 -0.2471
 8898SOL    HW129649   9.868   0.579   3.766 -1.1654  0.4688 -0.5252
 8898SOL    HW229650   9.975   0.507   3.687 -0.8644 -0.6104  0.8134
 8899SOL     OW29651   2.672   4.538  10.475 -0.6677 -0.5214 -0.0107
 8899SOL    HW129652   2.700   4.507  10.389  0.8048  0.0661  0.2289
 8899SOL    HW229653   2.747   4.587  10.509 -1.7004  0.3946  1.0502
 8900SOL     OW29654   5.822   2.371   2.709  0.1881 -0.0221 -0.2067
 8900SOL    HW129655   5.755   2.318   2.666  1.0002 -1.3384  0.1011
 8900SOL    HW229656   5.879   2.307   2.752  0.7462  1.1491  0.8413
 8901SOL     OW29657   2.103   1.714  10.251 -0.6886 -0.2889  0.2766
 8901SOL    HW129658   2.183   1.678  10.213 -1.2230 -1.5433  0.2781
 8901SOL    HW229659   2.131   1.755  10.332  0.2726  1.2926 -0.8049
 8902SOL     OW29660   4.396  10.628   4.836  0.6689  0.3180  0.2708
 8902SOL    HW129661   4.489  10.606   4.835  0.6340  0.1516 -0.5429
 8902SOL    HW229662   4.353  10.547   4.862  0.7862  0.5962  1.3780
 8903SOL     OW29663   2.322   9.425   9.404 -0.4172 -0.7129 -0.0336
 8903SOL    HW129664   2.306   9.342   9.361  0.3285 -1.0750  0.3545
 8903SOL    HW229665   2.374   9.476   9.342  0.0879 -0.9769  0.1683
 8904SOL     OW29666   9.174   0.069   0.726  0.1502 -0.1887 -0.1371
 8904SOL    HW129667   9.102   0.088   0.786 -0.2493  0.1230 -0.6968
 8904SOL    HW229668   9.131   0.039   0.646  0.5666  1.0145 -0.8540
 8905SOL     OW29669   8.672   8.218   5.440  0.0873  0.1657  0.3766
 8905SOL    HW129670   8.589   8.174   5.453 -0.6118  1.6059  1.0647
 8905SOL    HW229671   8.725   8.156   5.390 -1.4928 -0.6584 -0.3458
 8906SOL     OW29672   2.898   1.557   5.411 -0.7488  0.1086  0.2180
 8906SOL    HW129673   2.888   1.645   5.375  2.2222  0.8104  0.7766
 8906SOL    HW229674   2.975   1.521   5.366  0.2790 -0.7578  2.5014
 8907SOL     OW29675   4.382  10.589   9.126 -0.2458 -0.3332  0.6729
 8907SOL    HW129676   4.299  10.587   9.080 -0.8855 -2.4636  1.7706
 8907SOL    HW229677   4.368  10.647   9.200  0.5277  2.4234 -1.1810
 8908SOL     OW29678   9.546  10.124   6.362  0.0525  0.2926  0.1526
 8908SOL    HW129679   9.560  10.135   6.268  2.1791  1.0933  0.4953
 8908SOL    HW229680   9.565  10.031   6.378  1.1636  0.4756 -0.0206
 8909SOL     OW29681   0.706   0.470   2.652  0.1777 -0.0727  0.2023
 8909SOL    HW129682   0.797   0.458   2.624 -0.1390 -0.2077 -0.8049
 8909SOL    HW229683   0.673   0.380   2.663 -0.0591 -0.0349 -0.1942
 8910SOL     OW29684   8.897   8.947   6.969 -0.5090 -0.1662 -0.6575
 8910SOL    HW129685   8.825   8.893   6.937 -2.1243  1.9586 -0.8597
 8910SOL    HW229686   8.855   9.028   6.998  1.8352  1.3050 -1.0658
 8911SOL     OW29687   2.062   9.986   2.353  0.2492  0.5024 -0.0437
 8911SOL    HW129688   2.106   9.907   2.381  1.5038  1.2747  0.2352
 8911SOL    HW229689   1.998  10.003   2.422  1.9922  1.3210  1.4620
 8912SOL     OW29690   7.497   5.939   1.637  0.3737  0.1721 -0.5241
 8912SOL    HW129691   7.455   5.966   1.719  1.5339  1.2601 -0.2509
 8912SOL    HW229692   7.447   5.981   1.568 -0.4518 -0.5386 -0.3766
 8913SOL     OW29693   5.551   2.721   3.225 -0.3627 -0.0934 -0.7832
 8913SOL    HW129694   5.477   2.752   3.172 -1.2997 -0.4538  0.2634
 8913SOL    HW229695   5.589   2.801   3.262  0.8121  0.2390 -2.5766
 8914SOL     OW29696   7.667   7.938   7.891  0.1241 -0.2994 -0.3025
 8914SOL    HW129697   7.645   7.892   7.971 -0.5215  0.5137  0.0036
 8914SOL    HW229698   7.719   8.013   7.919 -0.2955  0.1177 -0.6031
 8915SOL     OW29699   0.151   0.458   4.404 -0.1556  0.3670 -0.1102
 8915SOL    HW129700   0.174   0.406   4.481 -0.3897  0.7587  0.2285
 8915SOL    HW229701   0.236   0.482   4.366 -0.0390 -1.2814 -0.9880
 8916SOL     OW29702   9.463   2.492   2.590  0.0136 -0.0092  0.0303
 8916SOL    HW129703   9.483   2.501   2.683 -1.0830  0.4148  0.2493
 8916SOL    HW229704   9.407   2.414   2.585 -0.1000  0.0875 -0.2360
 8917SOL     OW29705   1.476   0.128   9.851  0.7306  0.0574 -0.8581
 8917SOL    HW129706   1.520   0.179   9.784  0.4966  2.0161  0.4027
 8917SOL    HW229707   1.546   0.099   9.909  0.9594 -1.8162 -1.9697
 8918SOL     OW29708  10.605   8.767   8.925  0.0430 -0.1756  0.0764
 8918SOL    HW129709  10.664   8.841   8.925 -0.4887  0.2723  0.9619
 8918SOL    HW229710  10.607   8.734   9.015 -0.6125 -0.5022 -0.0164
 8919SOL     OW29711   1.340   4.975   8.793 -0.2833 -0.2798 -0.1290
 8919SOL    HW129712   1.252   4.958   8.827 -0.7669  1.8353 -0.1828
 8919SOL    HW229713   1.325   5.025   8.713  0.9805 -0.8350 -0.7387
 8920SOL     OW29714   4.332   9.658   4.701  0.5727  0.6104 -0.0836
 8920SOL    HW129715   4.337   9.583   4.642  2.5033 -1.1778  2.1308
 8920SOL    HW229716   4.246   9.696   4.684 -0.8383 -2.5588 -0.8404
 8921SOL     OW29717   1.429   0.787   3.916  0.7548  0.3020 -0.1517
 8921SOL    HW129718   1.466   0.717   3.968  1.1641  0.6782  0.0694
 8921SOL    HW229719   1.408   0.856   3.979 -0.0025  0.2339 -0.3146
 8922SOL     OW29720   4.784   1.705   2.152 -0.1162 -0.3590 -0.5454
 8922SOL    HW129721   4.761   1.613   2.139  0.3630 -0.6051  0.2862
 8922SOL    HW229722   4.877   1.710   2.128 -0.3313  0.0841 -1.3443
 8923SOL     OW29723   0.588   1.651   7.518  0.2890  0.8309  0.4363
 8923SOL    HW129724   0.668   1.664   7.569  0.6723 -0.1271  0.0935
 8923SOL    HW229725   0.526   1.613   7.581  0.0707  1.6453  0.7216
 8924SOL     OW29726   6.618   9.479   0.817  0.0190 -0.4493 -0.5305
 8924SOL    HW129727   6.680   9.517   0.880  1.6013 -0.7613 -1.8260
 8924SOL    HW229728   6.599   9.392   0.852  0.0328 -0.2152  0.0649
 8925SOL     OW29729  10.536   6.741   1.081  0.5194 -0.2150 -0.5310
 8925SOL    HW129730  10.563   6.686   1.007  0.1570  0.1299 -0.9177
 8925SOL    HW229731  10.447   6.713   1.101  1.4146 -2.0245  1.3632
 8926SOL     OW29732   4.193   9.460   8.502 -0.1146  0.0638  0.5742
 8926SOL    HW129733   4.236   9.402   8.565 -0.2738 -0.1914  0.4487
 8926SOL    HW229734   4.105   9.425   8.492 -1.5822  2.4710  3.3539
 8927SOL     OW29735   3.444   6.611   7.606  0.1100 -0.2293  0.6208
 8927SOL    HW129736   3.534   6.609   7.573  0.3396  0.6606  1.1632
 8927SOL    HW229737   3.448   6.667   7.684 -0.8174 -0.5997  0.9479
 8928SOL     OW29738   3.564   4.824  10.158  0.5100  0.3639  0.0482
 8928SOL    HW129739   3.498   4.766  10.121  0.6607  0.5879 -0.5965
 8928SOL    HW229740   3.647   4.791  10.123  0.7307  0.1446  0.7698
 8929SOL     OW29741   9.260   6.921   3.856  0.3636 -0.0409  0.4276
 8929SOL    HW129742   9.288   6.976   3.783 -0.0022  0.6257  0.7856
 8929SOL    HW229743   9.167   6.941   3.866  0.3429 -0.3612  0.8783
 8930SOL     OW29744   7.176   2.456   7.745  0.1903  0.3355  0.5583
 8930SOL    HW129745   7.125   2.533   7.719 -2.4731 -1.5374 -0.1388
 8930SOL    HW229746   7.216   2.425   7.664 -2.8694 -1.7942 -0.2922
 8931SOL     OW29747   2.725   2.116   9.014 -0.1450 -0.3175  0.0127
 8931SOL    HW129748   2.777   2.040   8.989  1.3036  0.7988 -0.5152
 8931SOL    HW229749   2.768   2.150   9.093 -0.3209  0.3682 -0.1737
 8932SOL     OW29750   0.997   5.026   6.779 -0.1598 -0.0042  0.4770
 8932SOL    HW129751   1.032   4.938   6.768 -0.0410  0.1806 -0.7515
 8932SOL    HW229752   0.925   5.031   6.717 -0.1865  0.7513  0.5605
 8933SOL     OW29753   8.372   3.386   8.907 -0.2949  0.0916  0.4908
 8933SOL    HW129754   8.380   3.474   8.945  1.7215  0.3811 -0.4683
 8933SOL    HW229755   8.290   3.389   8.858  0.0465  1.6714 -0.0394
 8934SOL     OW29756   7.764   8.202   0.578  0.3951 -0.1960  0.1790
 8934SOL    HW129757   7.710   8.279   0.598  0.8147  0.0985  0.1913
 8934SOL    HW229758   7.784   8.211   0.485  2.0558  0.7627  0.5858
 8935SOL     OW29759   6.604   7.297   0.500  0.1853  0.1236  0.3339
 8935SOL    HW129760   6.615   7.350   0.421  3.1300  0.9503  1.1573
 8935SOL    HW229761   6.617   7.207   0.470  0.0509  0.3126 -0.3172
 8936SOL     OW29762  10.562  10.430   3.136 -0.1775  0.4291 -0.3800
 8936SOL    HW129763  10.617  10.351   3.133 -1.0953 -0.2054 -1.4117
 8936SOL    HW229764  10.504  10.421   3.060 -2.3819  0.5729  1.1869
 8937SOL     OW29765   0.498   7.282   4.325  0.0209  0.0709 -0.3337
 8937SOL    HW129766   0.517   7.198   4.284 -0.7373 -0.6717  0.7803
 8937SOL    HW229767   0.572   7.298   4.383 -1.2915 -1.4462  1.8842
 8938SOL     OW29768   0.546   4.755   6.843 -0.1689 -0.0464 -0.1723
 8938SOL    HW129769   0.547   4.732   6.936  0.5487  1.0868  0.1186
 8938SOL    HW229770   0.489   4.832   6.838 -0.6428 -0.4236 -0.7679
 8939SOL     OW29771   7.586   9.596  10.359  0.4898 -0.5240  0.4830
 8939SOL    HW129772   7.507   9.649  10.361  0.3018 -0.8079  0.5988
 8939SOL    HW229773   7.587   9.557  10.272  1.6028  1.1279 -0.2996
 8940SOL     OW29774   4.856   0.361   6.454 -0.4042 -0.5508  0.4236
 8940SOL    HW129775   4.927   0.297   6.449 -1.5128 -1.7771 -0.6852
 8940SOL    HW229776   4.871   0.407   6.537  2.1478 -0.1396 -0.1864
 8941SOL     OW29777   9.409   7.944   1.759  0.0592  0.0756 -0.6818
 8941SOL    HW129778   9.398   7.852   1.782  2.2293 -0.1205 -0.2446
 8941SOL    HW229779   9.352   7.991   1.821 -0.3088 -0.9113 -0.2533
 8942SOL     OW29780   4.603   7.652   3.415 -0.1440 -0.3720  0.2412
 8942SOL    HW129781   4.579   7.592   3.345 -0.7804  0.1685 -0.0097
 8942SOL    HW229782   4.564   7.736   3.390  0.9046  0.2133  0.4789
 8943SOL     OW29783   1.727   4.576   6.561 -0.4455  0.4100  0.3196
 8943SOL    HW129784   1.769   4.662   6.574  1.8464 -0.2993 -1.6315
 8943SOL    HW229785   1.671   4.589   6.484 -0.4281  0.2674  0.2834
 8944SOL     OW29786   9.976   2.245   7.946 -0.8878  0.5642  1.0367
 8944SOL    HW129787   9.892   2.288   7.961 -0.2584  2.6071 -0.6907
 8944SOL    HW229788  10.040   2.317   7.948  0.3843 -0.4290 -0.8504
 8945SOL     OW29789  10.547   2.973   1.006  0.0061 -0.4261 -0.2800
 8945SOL    HW129790  10.578   2.884   0.994 -0.7812 -0.6716 -0.5446
 8945SOL    HW229791  10.588   3.002   1.088 -1.9199 -2.0428  1.3591
 8946SOL     OW29792   2.874   5.812   1.475 -0.0561 -0.1179  0.2587
 8946SOL    HW129793   2.932   5.737   1.487  0.0239  0.0926  1.2779
 8946SOL    HW229794   2.924   5.873   1.420 -0.4385 -1.1252 -1.2745
 8947SOL     OW29795   5.038   2.840   5.692 -0.4213  0.1307 -0.4879
 8947SOL    HW129796   4.996   2.783   5.626 -0.9226  0.2284 -0.2559
 8947SOL    HW229797   4.966   2.872   5.746  0.0212 -0.2468  0.3489
 8948SOL     OW29798   3.291   2.425   6.428  0.1231 -0.1840 -0.2231
 8948SOL    HW129799   3.294   2.359   6.360  0.7435 -0.0426 -0.3427
 8948SOL    HW229800   3.275   2.376   6.509  1.2987 -0.5772 -0.2052
 8949SOL     OW29801   0.416   3.732   8.702  0.5494  0.2488  0.1067
 8949SOL    HW129802   0.441   3.804   8.645 -0.9310 -0.8406 -2.0791
 8949SOL    HW229803   0.461   3.655   8.665 -0.8972 -0.5836 -0.0126
 8950SOL     OW29804   0.185   1.553   4.263 -0.0134  0.0724  0.1467
 8950SOL    HW129805   0.106   1.535   4.211  0.4066  0.3759 -0.6118
 8950SOL    HW229806   0.232   1.470   4.266  0.6923  0.3948 -1.2356
 8951SOL     OW29807   0.224   8.614   2.953 -0.0468  0.0328  0.2295
 8951SOL    HW129808   0.144   8.665   2.968 -0.3958  0.1569 -1.8680
 8951SOL    HW229809   0.227   8.554   3.027 -1.2741  1.0187  1.1362
 8952SOL     OW29810   7.514   0.269   9.215 -0.7304 -0.4092  0.2690
 8952SOL    HW129811   7.425   0.237   9.229 -1.3296 -0.2897 -2.5889
 8952SOL    HW229812   7.503   0.356   9.176  0.6650 -0.0544  0.5842
 8953SOL     OW29813   9.504   6.829   4.108 -0.3846 -0.4339  0.6880
 8953SOL    HW129814   9.536   6.789   4.027 -1.2607 -1.7147  0.9411
 8953SOL    HW229815   9.563   6.796   4.176  0.8750  1.3203  0.4806
 8954SOL     OW29816   0.320   1.389   0.047  0.4504  0.5973 -0.1203
 8954SOL    HW129817   0.231   1.392   0.081  0.9619 -0.4287  1.4409
 8954SOL    HW229818   0.358   1.474   0.071  0.4890  0.2671  1.0960
 8955SOL     OW29819   0.575   6.011   7.979 -0.1060 -0.1749 -0.4688
 8955SOL    HW129820   0.552   6.094   7.936  1.1305  0.3293 -0.1775
 8955SOL    HW229821   0.606   6.037   8.065 -1.1661 -1.0805  0.2089
 8956SOL     OW29822   7.253   0.866   0.269  0.3708  0.2987 -0.2507
 8956SOL    HW129823   7.257   0.939   0.330  1.5389  2.5575 -2.8338
 8956SOL    HW229824   7.175   0.882   0.216 -0.4733 -1.4731  0.3513
 8957SOL     OW29825   5.338   6.548   0.867  0.5583 -0.2992 -0.5299
 8957SOL    HW129826   5.345   6.642   0.849 -1.1856 -0.2861 -1.3910
 8957SOL    HW229827   5.328   6.542   0.962  1.1594  0.3442 -0.4202
 8958SOL     OW29828   7.569   9.463   0.485 -0.1161  0.3213  0.0893
 8958SOL    HW129829   7.631   9.492   0.418 -0.2112  1.0815  0.3189
 8958SOL    HW229830   7.498   9.422   0.437  0.3647 -0.1737 -0.2027
 8959SOL     OW29831   1.759   7.738   0.420  0.1265 -0.2367 -0.1994
 8959SOL    HW129832   1.822   7.807   0.442  0.7675 -1.1561  0.9596
 8959SOL    HW229833   1.804   7.686   0.353  0.5211 -0.7649  0.4693
 8960SOL     OW29834   5.242   1.722   8.262  0.1806 -0.5897 -0.2992
 8960SOL    HW129835   5.299   1.693   8.333 -1.3082 -1.0966  0.7476
 8960SOL    HW229836   5.220   1.812   8.284 -0.2672 -0.7415 -0.1013
 8961SOL     OW29837   6.148  10.650   4.521  0.1772 -0.4317  0.0141
 8961SOL    HW129838   6.182  10.675   4.436  1.2328 -0.9169  0.2793
 8961SOL    HW229839   6.070  10.704   4.533  0.7411  0.5602 -0.7014
 8962SOL     OW29840   4.821   6.048   1.771 -0.2902  0.0556 -0.0803
 8962SOL    HW129841   4.786   5.995   1.843  0.1476 -0.7167 -0.4172
 8962SOL    HW229842   4.784   6.135   1.785 -1.4112 -0.4489  0.2196
 8963SOL     OW29843   3.471  10.497   2.173  0.4135  0.0087  0.1213
 8963SOL    HW129844   3.532  10.568   2.155 -0.0919  0.6619  0.9568
 8963SOL    HW229845   3.428  10.522   2.255 -0.6725 -0.6501 -0.2350
 8964SOL     OW29846   1.219   9.187   1.392 -0.2737  0.8405  0.9352
 8964SOL    HW129847   1.222   9.176   1.487 -0.0735  0.7106  0.9151
 8964SOL    HW229848   1.274   9.116   1.357 -0.1901  1.0008  0.7330
 8965SOL     OW29849   6.917   9.361   9.330 -0.2883  0.1090 -0.3502
 8965SOL    HW129850   6.961   9.286   9.290 -0.0615 -1.3217  2.3574
 8965SOL    HW229851   6.825   9.352   9.303 -0.1793 -0.8956 -0.4295
 8966SOL     OW29852   4.202   6.410  10.131 -0.0176 -0.0257  0.4551
 8966SOL    HW129853   4.194   6.315  10.128 -1.2156  0.0777 -0.9192
 8966SOL    HW229854   4.278   6.426  10.186  0.0282 -1.7622  0.9616
 8967SOL     OW29855   2.579  10.339   8.293  0.1750  0.2111 -0.3251
 8967SOL    HW129856   2.544  10.397   8.225  0.1465  2.0781  1.1903
 8967SOL    HW229857   2.502  10.313   8.343  0.0450 -2.0651 -1.5768
 8968SOL     OW29858   8.218  10.542   7.409 -0.2418 -0.2239 -0.0581
 8968SOL    HW129859   8.269  10.623   7.413  0.5837 -0.7683  1.0516
 8968SOL    HW229860   8.135  10.565   7.451 -0.1363  0.1334 -0.0345
 8969SOL     OW29861   8.603   7.759   1.393 -0.7249 -0.0577 -0.2092
 8969SOL    HW129862   8.582   7.766   1.300 -0.2158 -0.8398 -0.3866
 8969SOL    HW229863   8.631   7.848   1.418  0.7803 -0.2144 -1.2133
 8970SOL     OW29864   6.132   5.582   4.576  0.4776 -0.8727  0.2397
 8970SOL    HW129865   6.039   5.601   4.569  0.5283 -0.1422  1.2720
 8970SOL    HW229866   6.139   5.517   4.646  0.7609 -0.6813  0.3945
 8971SOL     OW29867   8.246   8.892   9.949 -0.3966  0.1344  0.2323
 8971SOL    HW129868   8.271   8.874  10.040  1.1540  0.0722 -0.1687
 8971SOL    HW229869   8.173   8.954   9.956 -2.3515 -2.1460  1.5523
 8972SOL     OW29870   4.279   4.989   5.245  0.3939 -0.4239  0.4329
 8972SOL    HW129871   4.220   4.977   5.171  4.7630  1.2065 -3.7843
 8972SOL    HW229872   4.338   4.914   5.241  0.6807 -0.3597  2.4641
 8973SOL     OW29873   2.607   7.872   5.507  0.0275 -0.4100  0.1155
 8973SOL    HW129874   2.590   7.938   5.574  0.2846  0.8608 -1.0214
 8973SOL    HW229875   2.697   7.842   5.524 -0.8303 -2.1550  1.9829
 8974SOL     OW29876   0.106   9.812   1.246 -0.4018 -0.0042  0.3381
 8974SOL    HW129877   0.131   9.879   1.310 -0.8547  0.1035  0.4009
 8974SOL    HW229878   0.119   9.729   1.292  2.1084 -0.1036 -0.3686
 8975SOL     OW29879   1.080   0.403  10.320 -0.2446  0.3441  0.7354
 8975SOL    HW129880   1.102   0.340  10.389 -0.0781  0.1390  0.4979
 8975SOL    HW229881   0.986   0.392  10.305  0.0306 -0.8513 -0.2850
 8976SOL     OW29882   0.345   0.766   1.024 -0.5887 -0.3881 -0.1583
 8976SOL    HW129883   0.314   0.695   0.967  0.4804  0.4786 -1.9062
 8976SOL    HW229884   0.406   0.725   1.084 -1.2929 -1.2286 -0.0042
 8977SOL     OW29885   5.915   6.984   4.093 -0.9927  0.2329 -0.6420
 8977SOL    HW129886   5.887   7.036   4.169  1.0403  0.5332 -0.0296
 8977SOL    HW229887   5.882   7.032   4.017 -2.2245  0.4603  0.0115
 8978SOL     OW29888   1.850   9.659  10.359 -0.3300  0.6843 -0.4848
 8978SOL    HW129889   1.781   9.595  10.375 -0.4052  1.3742  2.6755
 8978SOL    HW229890   1.913   9.644  10.429  2.3844  0.6399 -2.7834
 8979SOL     OW29891   0.436   4.311   2.593  0.4486  0.0338  0.1185
 8979SOL    HW129892   0.427   4.387   2.651  0.8346  1.0670 -1.1177
 8979SOL    HW229893   0.483   4.345   2.517  0.6713 -1.4741 -0.4516
 8980SOL     OW29894   8.567   9.432   1.160  0.1026 -0.5529  0.3313
 8980SOL    HW129895   8.623   9.358   1.137 -1.1544 -1.4681  0.1269
 8980SOL    HW229896   8.484   9.414   1.116 -0.5234  0.5133  1.0353
 8981SOL     OW29897   8.305   3.680  10.194 -0.2543 -0.0323  0.2520
 8981SOL    HW129898   8.400   3.673  10.204 -0.2095 -1.4704 -0.9090
 8981SOL    HW229899   8.277   3.592  10.171 -1.8749  0.3996  0.4631
 8982SOL     OW29900   0.957   9.169   9.841 -1.1005 -0.3308 -0.0318
 8982SOL    HW129901   1.047   9.182   9.814 -1.4459  2.8539  0.0182
 8982SOL    HW229902   0.942   9.075   9.830  2.2524 -1.0095  0.2334
 8983SOL     OW29903   7.299   0.255   4.137 -0.1665  0.3127 -0.4537
 8983SOL    HW129904   7.327   0.173   4.177  0.5340  0.4456 -0.6666
 8983SOL    HW229905   7.349   0.262   4.056  1.2051  1.8333  0.4388
 8984SOL     OW29906   7.524   9.313   2.949 -0.0058 -0.2801 -0.0117
 8984SOL    HW129907   7.603   9.365   2.963  0.9934 -0.7850 -2.8964
 8984SOL    HW229908   7.551   9.223   2.969  0.3940 -0.5323 -1.5492
 8985SOL     OW29909   9.120   7.846   6.875 -0.1025  0.1566  0.0478
 8985SOL    HW129910   9.187   7.836   6.807 -1.6234 -2.0669 -1.2345
 8985SOL    HW229911   9.058   7.909   6.838  0.2962  0.8179  0.4689
 8986SOL     OW29912   7.857   5.814   6.367  0.1377  0.0534 -0.7649
 8986SOL    HW129913   7.811   5.873   6.309 -1.0142 -0.7539 -0.6963
 8986SOL    HW229914   7.791   5.750   6.396  0.6111  0.4942  1.5363
 8987SOL     OW29915   2.368   4.119   4.346 -0.4890  0.1408 -0.3647
 8987SOL    HW129916   2.295   4.176   4.323  0.1342  1.1294  0.0607
 8987SOL    HW229917   2.438   4.178   4.372  0.2564 -0.8128 -0.1316
 8988SOL     OW29918   8.514   0.099   4.416  0.3389 -0.6778  0.0056
 8988SOL    HW129919   8.594   0.152   4.415  0.8672 -1.4444  0.4473
 8988SOL    HW229920   8.538   0.021   4.466 -1.7165  0.6118  3.2693
 8989SOL     OW29921   9.280   8.757   1.079  0.0122  0.1312  0.1863
 8989SOL    HW129922   9.289   8.805   0.997 -0.4534 -0.3262 -0.1364
 8989SOL    HW229923   9.264   8.824   1.145  2.4083  0.7212  0.2728
 8990SOL     OW29924   2.620   2.927   0.969  0.3325  0.4119 -0.5904
 8990SOL    HW129925   2.693   2.957   1.023 -1.0408  1.0380  1.0359
 8990SOL    HW229926   2.630   2.973   0.886  1.0323  1.5255  0.0896
 8991SOL     OW29927   0.650   1.331   0.773 -0.1229 -0.2676 -0.0725
 8991SOL    HW129928   0.556   1.323   0.756  0.2326 -0.8775 -1.8990
 8991SOL    HW229929   0.692   1.300   0.693  1.6326  2.4160 -0.3067
 8992SOL     OW29930   1.365   5.744   9.995  0.2505 -0.1667 -0.2971
 8992SOL    HW129931   1.359   5.840   9.999 -0.1679 -0.2177  0.5676
 8992SOL    HW229932   1.339   5.715  10.083  2.1701 -0.9932  0.0500
 8993SOL     OW29933   1.099   4.880   9.693  0.4034  0.4198  0.2218
 8993SOL    HW129934   1.152   4.961   9.689 -0.0215  0.6537 -0.8010
 8993SOL    HW229935   1.151   4.816   9.645 -0.2559  0.6678 -0.8463
 8994SOL     OW29936   1.747   2.799   0.129  0.1554 -0.2270 -0.3041
 8994SOL    HW129937   1.712   2.737   0.193 -1.0337  0.5204 -0.2135
 8994SOL    HW229938   1.694   2.878   0.140  2.1420  1.1191  0.1522
 8995SOL     OW29939   6.276  10.439   0.736 -0.1321  0.1791  0.1013
 8995SOL    HW129940   6.209  10.404   0.794 -0.6251  2.7428  1.2147
 8995SOL    HW229941   6.230  10.503   0.682  1.0234  0.4819 -0.5548
 8996SOL     OW29942   9.328   1.452   8.431 -0.1435 -0.7453  0.5137
 8996SOL    HW129943   9.413   1.415   8.454  1.0930  2.2488  1.2479
 8996SOL    HW229944   9.332   1.464   8.336  0.3318 -0.4811  0.5642
 8997SOL     OW29945   7.049   5.377   1.217  0.2380 -0.6213 -0.1711
 8997SOL    HW129946   7.056   5.392   1.311 -1.1488 -0.7662 -0.0201
 8997SOL    HW229947   7.005   5.293   1.210  0.5388 -0.7181 -0.9608
 8998SOL     OW29948   9.223   4.369   4.325  0.1348 -0.4044 -0.3426
 8998SOL    HW129949   9.221   4.464   4.337  0.2719 -0.3342 -0.8367
 8998SOL    HW229950   9.295   4.355   4.264 -1.0821 -0.6583 -1.7683
 8999SOL     OW29951   2.503   6.887   4.153 -0.1402 -0.0437  0.6929
 8999SOL    HW129952   2.444   6.811   4.153  0.0717 -0.2926 -1.9910
 8999SOL    HW229953   2.585   6.854   4.190 -0.6408 -0.5851  1.3465
 9000SOL     OW29954   4.696  10.598   1.823 -0.1583  0.2316 -0.1749
 9000SOL    HW129955   4.672  10.507   1.806  0.2052  0.0797  0.1123
 9000SOL    HW229956   4.641  10.649   1.763 -2.7104  0.0447  1.8244
 9001SOL     OW29957   8.711   5.612   9.757  0.6496 -0.4990  0.5260
 9001SOL    HW129958   8.639   5.630   9.696  0.2241 -0.7517  0.9495
 9001SOL    HW229959   8.722   5.694   9.805 -1.4802 -1.3412  2.6572
 9002SOL     OW29960   1.722   7.574   5.580  0.1045  0.1384 -0.3440
 9002SOL    HW129961   1.663   7.565   5.505  1.7532  0.3633 -1.7322
 9002SOL    HW229962   1.798   7.621   5.545  0.7962  0.5265  1.5627
 9003SOL     OW29963  10.111   8.039   4.801 -0.6285  0.7457  0.4021
 9003SOL    HW129964  10.024   8.078   4.815 -1.2266  0.3377 -1.7929
 9003SOL    HW229965  10.093   7.949   4.774  0.4497  0.7267 -0.3192
 9004SOL     OW29966   0.947   2.402   4.512  0.2861 -0.7032 -0.1338
 9004SOL    HW129967   0.926   2.423   4.603  0.8426 -1.7988  0.2666
 9004SOL    HW229968   0.958   2.487   4.470 -0.2042 -0.1762  0.7591
 9005SOL     OW29969   3.869   2.980   6.279 -0.4692  0.4668  0.1622
 9005SOL    HW129970   3.884   2.886   6.289 -0.4764  0.5865  1.5754
 9005SOL    HW229971   3.823   2.988   6.196  2.1606 -0.4685 -1.5018
 9006SOL     OW29972   3.008   4.261   1.552  0.3319  0.1344 -0.0799
 9006SOL    HW129973   2.955   4.272   1.631  1.9338 -2.0303  1.4000
 9006SOL    HW229974   3.097   4.280   1.579  0.5628  3.1910 -2.4128
 9007SOL     OW29975   5.223   4.481   0.662 -0.2919 -0.3924  0.3617
 9007SOL    HW129976   5.145   4.461   0.611 -0.1697  0.3960 -0.1570
 9007SOL    HW229977   5.221   4.576   0.673  0.4054 -0.4023  0.6464
 9008SOL     OW29978   9.360   7.898   5.719 -0.1952  0.1746 -0.4450
 9008SOL    HW129979   9.435   7.857   5.677 -0.8958 -1.1066 -0.4778
 9008SOL    HW229980   9.316   7.827   5.766  0.1275  1.4049  1.8570
 9009SOL     OW29981   1.245   9.761   7.998  0.4187 -0.1856 -0.1537
 9009SOL    HW129982   1.267   9.678   8.040 -0.9342 -1.2527 -1.4553
 9009SOL    HW229983   1.152   9.772   8.014  0.7481  1.5547  0.7471
 9010SOL     OW29984   7.573   5.817   9.739 -0.0708 -0.2247  0.0213
 9010SOL    HW129985   7.578   5.801   9.645  1.3326  0.8518 -0.1110
 9010SOL    HW229986   7.597   5.733   9.779  1.4350 -0.1183 -0.6120
 9011SOL     OW29987  10.531   7.294   1.701  0.6187  0.4353  0.3818
 9011SOL    HW129988  10.592   7.220   1.706  3.9754  2.9404 -0.0725
 9011SOL    HW229989  10.518   7.308   1.608  1.1232  1.2142  0.4195
 9012SOL     OW29990   7.938   1.882   4.880  0.2546  0.1388 -0.2226
 9012SOL    HW129991   8.016   1.854   4.832  0.7961 -0.0262  0.7301
 9012SOL    HW229992   7.969   1.949   4.941 -0.2693 -0.2100  0.4445
 9013SOL     OW29993   9.190   8.564   7.560 -0.5659  0.0188  0.2762
 9013SOL    HW129994   9.235   8.648   7.556 -0.7732  0.1289  0.3088
 9013SOL    HW229995   9.243   8.511   7.620 -0.6079  0.2241  0.4911
 9014SOL     OW29996   1.370   1.248  10.207  0.3815  0.2944  0.1852
 9014SOL    HW129997   1.355   1.341  10.188  1.9311  0.6455  0.5348
 9014SOL    HW229998   1.324   1.234  10.290 -0.5311  0.5315 -0.2637
 9015SOL     OW29999   5.717   2.590  10.085 -0.1213  0.0271 -0.2511
 9015SOL    HW130000   5.729   2.580  10.179 -0.0507  1.2520 -0.1090
 9015SOL    HW230001   5.649   2.656  10.076  0.1183  0.1780 -1.0578
 9016SOL     OW30002   4.968   9.090   4.294  0.2966 -0.3117  0.5153
 9016SOL    HW130003   4.915   9.020   4.332 -0.3103  0.6442  1.5005
 9016SOL    HW230004   4.955   9.081   4.200 -0.0581 -1.2962  0.6449
 9017SOL     OW30005   0.945   3.074   8.241 -0.0182 -0.6026 -0.2153
 9017SOL    HW130006   1.006   3.038   8.306  0.8306 -2.8500 -2.0894
 9017SOL    HW230007   0.979   3.161   8.222  1.9188 -1.3095 -0.2670
 9018SOL     OW30008   7.769   2.425   8.875  0.2025  0.1921 -0.6066
 9018SOL    HW130009   7.712   2.349   8.871  1.3750 -0.7407 -0.3091
 9018SOL    HW230010   7.740   2.481   8.803 -1.1916 -0.1445 -0.3331
 9019SOL     OW30011   2.028   8.711   2.607  0.4755 -0.2247  0.6147
 9019SOL    HW130012   2.079   8.787   2.577 -0.0323 -0.1910 -0.1921
 9019SOL    HW230013   1.968   8.693   2.535 -0.4427 -0.4583  1.4236
 9020SOL     OW30014   4.755   2.821  10.198  0.9239 -0.2848  0.3721
 9020SOL    HW130015   4.677   2.860  10.159  1.7721  1.7592  0.6346
 9020SOL    HW230016   4.720   2.758  10.262 -0.4795 -0.1976 -0.2692
 9021SOL     OW30017   9.872   4.787   4.444  0.3902 -0.3184  0.0345
 9021SOL    HW130018   9.955   4.738   4.443 -1.0628 -2.9601 -0.9930
 9021SOL    HW230019   9.815   4.735   4.500 -0.7837  1.1059  0.1978
 9022SOL     OW30020   4.226   4.122   2.900 -0.2374  0.1335  0.2442
 9022SOL    HW130021   4.204   4.173   2.822  0.9103 -3.4320 -2.7280
 9022SOL    HW230022   4.299   4.168   2.940  0.5666  1.0205 -2.0977
 9023SOL     OW30023   0.911   8.499   3.019  0.2551 -0.4445  0.2958
 9023SOL    HW130024   0.875   8.435   2.958  0.5178  0.1056 -0.4550
 9023SOL    HW230025   0.836   8.551   3.047  0.3725  0.4451 -0.9581
 9024SOL     OW30026   6.352   2.539   4.467  0.7134 -0.2156  0.3353
 9024SOL    HW130027   6.343   2.619   4.414 -0.9748 -0.2742  0.4611
 9024SOL    HW230028   6.352   2.570   4.557  2.2065 -0.2250  0.3652
 9025SOL     OW30029  10.207   1.090   2.605 -0.3111 -0.8270  0.0314
 9025SOL    HW130030  10.185   1.165   2.661  2.0772  0.1394 -0.2110
 9025SOL    HW230031  10.125   1.041   2.598 -1.5933  0.9683  1.3938
 9026SOL     OW30032   7.588   8.385   3.910  0.3295  0.1942 -0.0613
 9026SOL    HW130033   7.549   8.307   3.872  0.1356  0.2909 -0.0594
 9026SOL    HW230034   7.536   8.458   3.876 -0.0701  0.2538  0.6766
 9027SOL     OW30035   1.859   0.237   5.696 -0.1541 -0.2951  0.5595
 9027SOL    HW130036   1.855   0.332   5.690  0.0856 -0.3363 -0.5180
 9027SOL    HW230037   1.868   0.219   5.789  1.6549  0.8047  0.6384
 9028SOL     OW30038   7.583   4.561   4.906  0.1738 -0.4093  0.4282
 9028SOL    HW130039   7.496   4.547   4.944 -0.2614 -1.1843 -0.7726
 9028SOL    HW230040   7.584   4.503   4.830 -0.0584  3.0447 -2.4237
 9029SOL     OW30041   2.205   1.141  10.334 -0.4275  0.5374 -1.0392
 9029SOL    HW130042   2.188   1.228  10.298  0.7333  0.5165 -1.6612
 9029SOL    HW230043   2.258   1.097  10.268  0.1700 -0.1646 -0.1237
 9030SOL     OW30044   7.456   4.951   3.218 -0.4499  0.3104  0.0261
 9030SOL    HW130045   7.398   4.937   3.292 -1.4028 -0.4219 -0.8291
 9030SOL    HW230046   7.505   4.869   3.210 -0.6412  0.2320 -0.3937
 9031SOL     OW30047   5.401   3.439   9.310 -0.4349 -0.2131 -0.1661
 9031SOL    HW130048   5.456   3.457   9.386 -0.0827  2.7386 -0.9911
 9031SOL    HW230049   5.458   3.455   9.235 -1.5211 -0.3694 -1.0576
 9032SOL     OW30050   3.403   6.237   9.769  0.2941  0.1487  0.6276
 9032SOL    HW130051   3.498   6.225   9.769  0.4083  0.9428  0.1873
 9032SOL    HW230052   3.378   6.234   9.677 -0.0797  0.1531  0.7243
 9033SOL     OW30053   8.968   3.342   9.729  0.7854  0.3078 -0.2686
 9033SOL    HW130054   9.059   3.325   9.751  0.4978  0.7721  1.3882
 9033SOL    HW230055   8.932   3.387   9.806 -0.4011  1.6496 -1.5381
 9034SOL     OW30056   2.332   1.506  10.186 -0.3048 -0.2710  0.1342
 9034SOL    HW130057   2.367   1.446  10.120  1.9380 -0.1833  1.1278
 9034SOL    HW230058   2.257   1.459  10.223  0.8049 -2.1051  0.2315
 9035SOL     OW30059   9.435   4.321   8.929  0.2437 -0.0432 -0.5131
 9035SOL    HW130060   9.440   4.287   8.840  2.0983 -2.4060  0.4053
 9035SOL    HW230061   9.510   4.283   8.974 -1.2494  0.1749  2.3793
 9036SOL     OW30062   9.157   7.392   0.130 -0.0355  0.2890 -0.1393
 9036SOL    HW130063   9.231   7.452   0.118  0.9047 -0.5811  1.1252
 9036SOL    HW230064   9.084   7.437   0.088  1.1860  1.1919 -1.3836
 9037SOL     OW30065   4.471   5.030   9.608  0.3781  0.5445  0.1073
 9037SOL    HW130066   4.504   4.943   9.585  0.0852  0.3628  0.3620
 9037SOL    HW230067   4.500   5.087   9.537  0.2464  0.1614 -0.2561
 9038SOL     OW30068   8.412   9.207   5.978  0.9112 -0.8280  0.2196
 9038SOL    HW130069   8.483   9.157   5.937  1.0739 -0.5105  0.1037
 9038SOL    HW230070   8.368   9.144   6.036 -0.4111 -1.7812 -1.7097
 9039SOL     OW30071   6.090   7.983   9.149 -0.2821  0.2285 -0.2360
 9039SOL    HW130072   6.108   8.013   9.060 -2.0072  0.4829 -0.5327
 9039SOL    HW230073   6.100   8.062   9.203 -0.2558  0.3000 -0.3440
 9040SOL     OW30074  10.366   0.299   3.862  0.1541 -0.9756 -0.5223
 9040SOL    HW130075  10.411   0.224   3.901 -0.8800 -1.9854 -1.2117
 9040SOL    HW230076  10.402   0.307   3.774  1.6598  0.5861  0.1946
 9041SOL     OW30077   1.858   5.206   1.447  0.3660  0.4643  0.2553
 9041SOL    HW130078   1.843   5.132   1.505  1.4023 -0.3227 -0.4620
 9041SOL    HW230079   1.925   5.176   1.385 -1.8177  0.6722 -2.4140
 9042SOL     OW30080   2.697   7.466   0.747  0.1089 -0.1220 -0.0053
 9042SOL    HW130081   2.622   7.465   0.687 -0.3741 -1.6218  0.5860
 9042SOL    HW230082   2.774   7.459   0.689 -0.1037  2.0297 -0.6604
 9043SOL     OW30083   6.212   8.247   8.475  0.2810 -0.2518 -0.0016
 9043SOL    HW130084   6.288   8.244   8.417 -0.2257  2.1693 -0.8812
 9043SOL    HW230085   6.249   8.262   8.562  0.8889 -1.2228 -0.0737
 9044SOL     OW30086   6.893   9.240   6.633 -0.3259  0.1321  0.3240
 9044SOL    HW130087   6.883   9.163   6.688 -0.4574  0.5968  0.9694
 9044SOL    HW230088   6.953   9.297   6.681  0.5345  0.0302 -0.5952
 9045SOL     OW30089  10.618   8.628   4.631  0.0591  0.0768  0.8085
 9045SOL    HW130090  10.615   8.572   4.709  0.6954 -1.0690  0.0358
 9045SOL    HW230091  10.708   8.622   4.601 -0.1445  0.6479  0.0712
 9046SOL     OW30092   0.525   2.620  10.164  0.2833  0.5978 -0.3167
 9046SOL    HW130093   0.430   2.631  10.158  0.2695  1.0890  0.6726
 9046SOL    HW230094   0.539   2.579  10.249  0.9356  0.1420 -0.6400
 9047SOL     OW30095   6.084   9.482   1.597  0.4758 -0.5645  0.0485
 9047SOL    HW130096   6.148   9.416   1.569  0.0129 -1.0062  0.0197
 9047SOL    HW230097   6.062   9.457   1.687 -0.9057 -1.4194 -0.4896
 9048SOL     OW30098   0.298   1.583   9.760  0.2174  0.0173  0.3641
 9048SOL    HW130099   0.225   1.586   9.698  1.2750 -0.0908 -0.9254
 9048SOL    HW230100   0.271   1.518   9.825 -0.4117 -0.7941 -0.6646
 9049SOL     OW30101   2.071   2.737   9.398 -0.0360 -0.2752 -0.0071
 9049SOL    HW130102   2.073   2.698   9.486 -1.5913 -1.0743 -0.2831
 9049SOL    HW230103   2.062   2.831   9.414 -2.1962 -0.5589  0.7555
 9050SOL     OW30104   8.039   1.945   9.457  0.0918  0.2164  0.5249
 9050SOL    HW130105   7.983   2.008   9.503  2.3932  1.8277  1.2936
 9050SOL    HW230106   8.115   1.996   9.430  0.2035 -1.3420 -2.5890
 9051SOL     OW30107  10.076   7.995   9.405 -0.2885 -0.1336 -0.3908
 9051SOL    HW130108  10.045   7.912   9.439 -0.7466  0.0336 -0.3976
 9051SOL    HW230109  10.127   8.033   9.477  1.6220 -1.3107 -1.0573
 9052SOL     OW30110  10.454   3.623   7.136 -0.4087  0.1798 -0.6226
 9052SOL    HW130111  10.388   3.555   7.150 -1.6882  1.2924 -0.9865
 9052SOL    HW230112  10.503   3.627   7.218 -1.1823 -0.2776 -0.1224
 9053SOL     OW30113   1.383   5.202   8.631 -0.0175 -0.3241 -0.5694
 9053SOL    HW130114   1.377   5.256   8.710 -3.0050 -1.1133 -0.1477
 9053SOL    HW230115   1.326   5.246   8.568  0.6166 -0.8889 -1.5674
 9054SOL     OW30116   7.881   2.838   8.845 -0.0104 -0.3435 -0.1849
 9054SOL    HW130117   7.876   2.919   8.795 -0.0397 -0.4550 -0.3599
 9054SOL    HW230118   7.895   2.769   8.780  0.4003 -0.4353 -0.0053
 9055SOL     OW30119   4.228   4.811   6.358 -0.0689  0.1997 -0.4189
 9055SOL    HW130120   4.200   4.739   6.415  0.7937  2.2505  2.8794
 9055SOL    HW230121   4.154   4.825   6.299 -0.5996 -2.7702 -0.5791
 9056SOL     OW30122   2.007  10.250   5.179 -0.3207 -0.2229  0.1555
 9056SOL    HW130123   2.077  10.314   5.168  1.4189 -2.0041  0.1039
 9056SOL    HW230124   1.926  10.300   5.170  0.9181  2.0549  0.8677
 9057SOL     OW30125   6.140   2.283   0.609  0.2194  0.2990  0.0287
 9057SOL    HW130126   6.115   2.359   0.558 -0.1094  0.2110  0.0579
 9057SOL    HW230127   6.228   2.261   0.577 -0.2572 -0.1771 -1.0030
 9058SOL     OW30128   7.705   3.690   8.410 -0.0540 -0.0539  0.1396
 9058SOL    HW130129   7.684   3.651   8.325  0.1973 -1.4556  0.6859
 9058SOL    HW230130   7.642   3.761   8.421  0.0421  0.2784 -1.2993
 9059SOL     OW30131   1.192   7.778   2.591  0.2286 -0.4123 -0.4586
 9059SOL    HW130132   1.272   7.810   2.549  0.0354 -0.1406 -0.6176
 9059SOL    HW230133   1.149   7.856   2.625 -0.6049 -0.4094 -1.4794
 9060SOL     OW30134   9.730   3.017  10.692 -0.3505 -0.1689 -0.2377
 9060SOL    HW130135   9.799   3.077  10.720 -0.4610  0.0672 -0.4698
 9060SOL    HW230136   9.677   3.002  10.771 -1.2175  1.2352 -0.5137
 9061SOL     OW30137   1.824   9.148  10.119  0.5291  0.2881  0.0291
 9061SOL    HW130138   1.907   9.194  10.112 -0.7689  2.5819 -1.6937
 9061SOL    HW230139   1.818   9.095  10.039  0.1117  0.5640 -0.1276
 9062SOL     OW30140  10.629   5.842   1.555 -0.0437 -0.0030  0.0089
 9062SOL    HW130141  10.626   5.869   1.464  0.3869 -1.1883 -0.3807
 9062SOL    HW230142  10.591   5.915   1.604 -0.9226  0.3546 -1.1787
 9063SOL     OW30143   3.242   1.502  10.086 -1.1149 -0.0733  0.2512
 9063SOL    HW130144   3.225   1.562  10.159  0.0451 -0.8894  1.2236
 9063SOL    HW230145   3.307   1.548  10.032  0.9343 -0.9858  1.7953
 9064SOL     OW30146   7.454   9.760   8.713 -0.1200 -0.6295  0.1875
 9064SOL    HW130147   7.529   9.726   8.663 -2.4310 -1.7880 -2.7733
 9064SOL    HW230148   7.425   9.686   8.766 -0.7831 -1.0220 -0.7198
 9065SOL     OW30149   9.660   7.493   8.581  0.0213  0.1680 -0.0740
 9065SOL    HW130150   9.665   7.451   8.667 -3.3779 -0.7353 -0.1632
 9065SOL    HW230151   9.620   7.578   8.598 -0.9476 -0.1341 -0.7421
 9066SOL     OW30152   2.995  10.123   4.904 -0.7065 -0.5438 -0.3086
 9066SOL    HW130153   2.951  10.099   4.986 -0.8984 -2.5286 -0.9392
 9066SOL    HW230154   3.038  10.043   4.875  2.0328  0.9145 -0.5776
 9067SOL     OW30155   4.660  10.416   6.632  0.1284  0.2489 -0.3733
 9067SOL    HW130156   4.652  10.506   6.599  1.0938  0.3506 -0.3653
 9067SOL    HW230157   4.690  10.366   6.556 -1.5317 -0.3163 -0.6967
 9068SOL     OW30158   1.017   0.662   2.831 -0.3272  0.3676  0.2206
 9068SOL    HW130159   1.000   0.706   2.748 -1.5412 -0.3046  0.0880
 9068SOL    HW230160   0.931   0.640   2.865  0.1305  0.9477  1.8620
 9069SOL     OW30161   0.287   4.879   4.792  0.2499 -0.0130 -0.1200
 9069SOL    HW130162   0.308   4.923   4.874  0.3939 -0.6364  0.1881
 9069SOL    HW230163   0.363   4.821   4.776 -1.1895 -2.3826  1.0568
 9070SOL     OW30164  10.355  10.570   8.648 -0.0037 -0.3184 -0.5249
 9070SOL    HW130165  10.364  10.543   8.557  1.0920  1.9246 -1.1740
 9070SOL    HW230166  10.290  10.640   8.646  1.4753  1.1420  0.0317
 9071SOL     OW30167   6.045   0.516   9.347  0.2098  0.0612  0.2754
 9071SOL    HW130168   6.007   0.430   9.333  1.7596 -0.6538  0.2702
 9071SOL    HW230169   6.108   0.527   9.276  1.2440  0.4689  1.2192
 9072SOL     OW30170   1.847   6.981   9.280  0.0742 -0.3678  0.6395
 9072SOL    HW130171   1.775   6.920   9.269  0.4242 -1.0953  2.1028
 9072SOL    HW230172   1.921   6.938   9.238  0.6784 -1.7305  2.8719
 9073SOL     OW30173   5.350   0.687   5.085  0.3682 -0.1012 -0.7770
 9073SOL    HW130174   5.258   0.707   5.067  0.3492  0.9785  0.3932
 9073SOL    HW230175   5.377   0.634   5.011 -1.1543 -0.3053 -1.2315
 9074SOL     OW30176   4.167   7.907   4.663 -0.3040  0.3191 -0.4649
 9074SOL    HW130177   4.153   7.997   4.695 -0.6810  0.7507 -1.7566
 9074SOL    HW230178   4.116   7.852   4.722 -2.4267  1.2625 -1.3436
 9075SOL     OW30179   5.385   9.152   8.979  0.4015 -0.2646  0.1455
 9075SOL    HW130180   5.382   9.217   8.909 -1.6754  0.5287  0.8937
 9075SOL    HW230181   5.347   9.073   8.940  1.4376 -0.5594 -0.2906
 9076SOL     OW30182   1.508   7.675   8.966  0.4526 -0.0078 -0.3046
 9076SOL    HW130183   1.424   7.648   8.930 -0.1796 -0.4594  1.3969
 9076SOL    HW230184   1.556   7.711   8.891 -1.2066  0.1778 -1.3380
 9077SOL     OW30185   0.329   1.640   0.445 -0.3277  0.1884  0.0698
 9077SOL    HW130186   0.364   1.717   0.400 -2.2357  0.9448 -0.1914
 9077SOL    HW230187   0.335   1.662   0.538  0.6810 -0.0660  0.0766
 9078SOL     OW30188   9.688   8.876   2.200 -0.2188  0.3325  0.1642
 9078SOL    HW130189   9.747   8.920   2.261 -0.8281  0.4835  0.6515
 9078SOL    HW230190   9.616   8.937   2.188 -0.3455  0.0901 -0.3214
 9079SOL     OW30191   1.310  10.451   0.985 -0.4120  0.0261  0.0347
 9079SOL    HW130192   1.274  10.397   1.056  0.7623  0.0075  0.6443
 9079SOL    HW230193   1.303  10.540   1.017  1.3305 -0.0655  0.7898
 9080SOL     OW30194   4.437   6.462   2.118  0.1473  0.3293 -0.3670
 9080SOL    HW130195   4.428   6.368   2.132 -1.8906  0.4549 -0.4806
 9080SOL    HW230196   4.530   6.480   2.130  0.3059 -1.4084  1.4562
 9081SOL     OW30197  10.506   3.428   3.814 -0.0088  0.6688  0.2034
 9081SOL    HW130198  10.508   3.507   3.761  1.2185 -0.0135 -0.8386
 9081SOL    HW230199  10.424   3.433   3.863  0.1530  2.6597  0.3185
 9082SOL     OW30200   3.552   7.754   8.372  0.3825 -0.2253 -1.0379
 9082SOL    HW130201   3.616   7.810   8.327 -0.4245  0.5652 -1.2369
 9082SOL    HW230202   3.524   7.692   8.305  1.4648 -1.0632 -0.7491
 9083SOL     OW30203   9.296   4.991  10.530  0.2751  0.1331 -0.3407
 9083SOL    HW130204   9.336   4.933  10.465  0.0422  2.3081 -2.5667
 9083SOL    HW230205   9.369   5.046  10.561  0.2187 -0.3285  0.6583
 9084SOL     OW30206   1.855   0.074   2.193 -1.1113  0.1618 -0.3645
 9084SOL    HW130207   1.797   0.040   2.125  0.3362 -0.4725 -1.3462
 9084SOL    HW230208   1.840   0.018   2.269 -2.8955  1.0044 -0.0458
 9085SOL     OW30209   2.053   4.190   1.586 -0.2384  0.1655  0.7860
 9085SOL    HW130210   2.018   4.279   1.581 -1.8945 -0.5372 -1.6257
 9085SOL    HW230211   2.120   4.186   1.518 -1.6027 -0.9329 -0.5855
 9086SOL     OW30212   9.234   2.294   0.616 -0.4905  0.3296  0.1069
 9086SOL    HW130213   9.223   2.257   0.703 -0.2927  0.2724  0.1081
 9086SOL    HW230214   9.324   2.273   0.592 -0.0131  1.7550  0.5515
 9087SOL     OW30215   1.601   0.105   2.516  0.8551  0.7816 -0.5479
 9087SOL    HW130216   1.596   0.094   2.421  1.1665 -1.1205 -0.3697
 9087SOL    HW230217   1.643   0.025   2.547  0.8893  1.4515  1.1844
 9088SOL     OW30218   7.656   5.562   6.215 -0.1847  0.3476  0.5660
 9088SOL    HW130219   7.741   5.519   6.209  0.9569  2.4158  1.0695
 9088SOL    HW230220   7.651   5.595   6.305 -0.1500  2.8217 -0.2545
 9089SOL     OW30221   7.979   0.881   4.769 -0.2024 -0.0757 -0.2162
 9089SOL    HW130222   8.006   0.790   4.755  2.1268  0.6620 -0.8549
 9089SOL    HW230223   7.889   0.884   4.736  0.0740 -1.8695 -1.2955
 9090SOL     OW30224   0.279   2.598   3.528  0.2140  0.2494 -0.1364
 9090SOL    HW130225   0.212   2.529   3.528 -1.2528  1.6301 -0.1981
 9090SOL    HW230226   0.252   2.657   3.458  1.0054  1.3038  0.4259
 9091SOL     OW30227   2.118   7.861   1.446 -0.1039  0.1306 -0.3014
 9091SOL    HW130228   2.175   7.914   1.389  1.7529 -2.0570 -0.6244
 9091SOL    HW230229   2.165   7.856   1.529 -1.1786  0.5125  0.3518
 9092SOL     OW30230   9.064   2.050   8.165 -0.0122  0.1789  0.1723
 9092SOL    HW130231   8.979   2.061   8.208 -1.1319  0.8107 -2.0540
 9092SOL    HW230232   9.122   2.018   8.234 -1.9094  0.2657  1.8927
 9093SOL     OW30233   3.425   2.892   8.588 -0.3122 -0.2395 -0.3559
 9093SOL    HW130234   3.457   2.834   8.658 -2.8657 -0.0575  1.0639
 9093SOL    HW230235   3.349   2.846   8.552 -3.2237  2.6463  1.6622
 9094SOL     OW30236   3.272   1.653   7.471 -0.3900  0.3947 -0.3602
 9094SOL    HW130237   3.291   1.744   7.495 -0.7652  0.8985 -1.8643
 9094SOL    HW230238   3.353   1.621   7.431  0.7127 -0.8875  2.5868
 9095SOL     OW30239   3.388   9.104   1.981  0.0571 -0.7773 -0.1809
 9095SOL    HW130240   3.378   9.036   2.048  1.2862  0.5985  1.4994
 9095SOL    HW230241   3.309   9.097   1.928 -2.4910 -0.1399  3.1514
 9096SOL     OW30242   8.113   8.993   8.228 -0.1803  0.0921 -0.1913
 9096SOL    HW130243   8.045   9.008   8.163 -0.5694  2.7614  0.6788
 9096SOL    HW230244   8.086   8.914   8.274 -1.4245 -0.2196 -1.4014
 9097SOL     OW30245   2.249   6.217   7.597 -0.2480 -0.1336 -0.3254
 9097SOL    HW130246   2.219   6.303   7.624  1.2500  0.6361 -0.9989
 9097SOL    HW230247   2.279   6.175   7.678 -0.4030  0.2223 -0.0830
 9098SOL     OW30248   2.039   1.969   6.402 -0.1563  0.2698  0.1913
 9098SOL    HW130249   2.020   1.990   6.311  0.7654  1.4313  0.2442
 9098SOL    HW230250   2.129   1.999   6.415  0.0426 -0.6953  1.2444
 9099SOL     OW30251   0.358   5.174   4.096  1.0211 -0.1544 -0.2720
 9099SOL    HW130252   0.296   5.220   4.152  0.8961  0.9207 -1.2433
 9099SOL    HW230253   0.321   5.087   4.085  0.2941  0.0994  0.1260
 9100SOL     OW30254   6.799   8.150   9.798  0.2831  0.0480  0.3296
 9100SOL    HW130255   6.861   8.172   9.728  0.9109 -1.4694  0.3691
 9100SOL    HW230256   6.716   8.138   9.753  1.0998 -3.1118 -0.6076
 9101SOL     OW30257  10.047   9.153   1.896 -0.5611  0.2421  0.3714
 9101SOL    HW130258  10.048   9.209   1.818 -1.0222  0.9081  0.8337
 9101SOL    HW230259   9.955   9.127   1.906 -0.0917 -2.1722 -0.9186
 9102SOL     OW30260   6.056   5.578   6.034 -0.6326 -0.0895  0.1453
 9102SOL    HW130261   6.140   5.548   6.001  0.5318  1.9659  1.0546
 9102SOL    HW230262   6.050   5.669   6.007 -1.2961  0.5983  2.3696
 9103SOL     OW30263   9.796   6.208   2.021 -0.1104  0.0830 -0.2554
 9103SOL    HW130264   9.753   6.191   2.105 -0.6321  0.3134 -0.4709
 9103SOL    HW230265   9.802   6.304   2.016 -3.1884  0.3176 -1.9752
 9104SOL     OW30266   6.575   6.371   4.890  0.3101  0.0429  0.2503
 9104SOL    HW130267   6.576   6.386   4.984 -2.3868 -1.7162  0.6682
 9104SOL    HW230268   6.551   6.278   4.881  0.6828  0.1171 -2.1686
 9105SOL     OW30269   3.205   2.467   3.039 -0.0995  0.5514  1.1676
 9105SOL    HW130270   3.229   2.504   3.125  1.3791 -0.2954  1.1559
 9105SOL    HW230271   3.267   2.396   3.026 -0.8076  0.1697 -0.2790
 9106SOL     OW30272   6.513   3.269  10.411 -0.3221  0.2593 -0.0572
 9106SOL    HW130273   6.477   3.353  10.382 -0.6635  0.6225  1.3172
 9106SOL    HW230274   6.449   3.237  10.475 -0.9375 -1.7687 -1.5742
 9107SOL     OW30275   1.436  10.312   5.047  0.8555  0.0103  0.5047
 9107SOL    HW130276   1.478  10.396   5.030  2.8939 -1.0269  0.1306
 9107SOL    HW230277   1.356  10.313   4.995  1.8817  0.9277 -1.1105
 9108SOL     OW30278   4.435   9.967   9.921 -0.3772 -0.1957 -0.1742
 9108SOL    HW130279   4.517  10.005   9.953 -0.7136 -0.6554  1.3181
 9108SOL    HW230280   4.450   9.952   9.827  0.9480  0.4738 -0.0887
 9109SOL     OW30281   7.922   4.949   2.538 -0.0875 -0.0215 -0.4491
 9109SOL    HW130282   7.868   4.985   2.467 -1.1400 -0.1319  0.2835
 9109SOL    HW230283   7.927   5.019   2.603  1.9084  0.5450 -1.1285
 9110SOL     OW30284   7.508   6.990   2.892 -0.3361  0.5147 -0.0879
 9110SOL    HW130285   7.415   6.985   2.868 -0.4390 -0.9833  0.5261
 9110SOL    HW230286   7.527   6.906   2.932  0.8340  1.4701  1.4959
 9111SOL     OW30287   6.144   3.540   9.664 -0.1473  0.8644 -0.8498
 9111SOL    HW130288   6.222   3.582   9.700  1.0431 -2.5640  1.0207
 9111SOL    HW230289   6.074   3.562   9.725  0.6199 -0.3330  0.5250
 9112SOL     OW30290   1.697   7.811   7.622 -0.1406 -0.1834 -0.4085
 9112SOL    HW130291   1.720   7.785   7.532 -1.0849  0.4975 -0.8637
 9112SOL    HW230292   1.747   7.891   7.637 -1.2235  0.6384 -0.9689
 9113SOL     OW30293   8.932  10.218   2.843  0.5001  0.8358 -0.2389
 9113SOL    HW130294   8.938  10.212   2.939  0.4505  1.2077 -0.2133
 9113SOL    HW230295   9.014  10.260   2.817  0.3402  1.0943 -0.3259
 9114SOL     OW30296   9.490   0.432  10.627 -0.0355 -0.2053 -0.3100
 9114SOL    HW130297   9.524   0.514  10.664 -0.1681 -0.5203  0.5202
 9114SOL    HW230298   9.527   0.430  10.539 -1.7913  1.8325 -1.1815
 9115SOL     OW30299   2.518   2.343   1.338 -0.3452 -0.1548  0.4151
 9115SOL    HW130300   2.444   2.368   1.394  0.5797  1.3782  1.0338
 9115SOL    HW230301   2.515   2.248   1.334 -1.7188 -0.1728  1.3089
 9116SOL     OW30302   8.584   9.935   4.122  0.1810  0.1804  0.0074
 9116SOL    HW130303   8.561   9.905   4.210 -0.5837 -1.0469 -0.5761
 9116SOL    HW230304   8.505   9.979   4.091  1.1180  2.4994  0.6559
 9117SOL     OW30305   7.735   9.400   0.847 -0.6742 -0.0417 -0.3878
 9117SOL    HW130306   7.746   9.366   0.758  2.0750  1.2904 -0.6588
 9117SOL    HW230307   7.755   9.326   0.903  0.5624 -0.1444 -0.9318
 9118SOL     OW30308   8.864   9.694   7.946  0.0863 -0.2199 -0.2095
 9118SOL    HW130309   8.915   9.647   8.011 -0.6008 -1.9708 -0.8578
 9118SOL    HW230310   8.876   9.644   7.865  3.4145  3.5246 -2.3904
 9119SOL     OW30311   0.908  10.183   2.688 -0.1987  0.3022  0.0272
 9119SOL    HW130312   0.876  10.141   2.608 -0.5059 -0.2382  0.4246
 9119SOL    HW230313   0.829  10.213   2.732 -0.0934 -0.1229  0.5168
 9120SOL     OW30314   1.256   6.386   3.923  0.3875 -0.3887  0.1637
 9120SOL    HW130315   1.205   6.354   3.998 -1.4505  0.5284 -0.6097
 9120SOL    HW230316   1.222   6.475   3.907  3.5068  1.0159  0.6642
 9121SOL     OW30317   3.298   9.050   1.374  0.3554 -0.3428 -0.0347
 9121SOL    HW130318   3.340   8.974   1.414  0.4892  0.7802  2.0831
 9121SOL    HW230319   3.356   9.123   1.395 -0.4922  0.5814 -0.7940
 9122SOL     OW30320   1.815  10.209   4.925 -0.3114 -0.1101  0.5982
 9122SOL    HW130321   1.828  10.284   4.983  0.4444 -0.3993  0.8091
 9122SOL    HW230322   1.884  10.217   4.860  1.1071 -1.7555  1.8254
 9123SOL     OW30323   7.128   1.993   5.559  1.0121 -0.4756 -0.3037
 9123SOL    HW130324   7.129   2.067   5.620 -0.4005 -0.8597  0.2156
 9123SOL    HW230325   7.081   1.924   5.605  0.9138 -1.1679 -1.4005
 9124SOL     OW30326   2.914  10.490   4.727  0.1197  0.1177 -0.4517
 9124SOL    HW130327   2.969  10.457   4.657 -0.5356  3.3999 -2.7662
 9124SOL    HW230328   2.835  10.521   4.684 -0.4876  1.9540  1.7317
 9125SOL     OW30329   1.349   8.361   2.491 -0.7795  0.3345 -0.0384
 9125SOL    HW130330   1.258   8.337   2.475 -0.5927 -0.2401 -0.2417
 9125SOL    HW230331   1.401   8.291   2.450 -0.2686 -0.9997  2.6595
 9126SOL     OW30332   3.845  10.596   4.436  0.4515  0.4918 -0.1898
 9126SOL    HW130333   3.845  10.652   4.359 -2.7405  1.5749  0.4189
 9126SOL    HW230334   3.917  10.627   4.490  1.2634  1.2708 -1.6946
 9127SOL     OW30335   8.040   6.568   8.851 -0.1414 -0.1603 -0.1225
 9127SOL    HW130336   8.040   6.560   8.755 -2.7022  0.1768 -0.2289
 9127SOL    HW230337   8.029   6.661   8.867  1.9522  0.0071  0.5848
 9128SOL     OW30338   1.712   0.238   3.435  0.2624  0.2469  0.4229
 9128SOL    HW130339   1.784   0.212   3.492  0.5217  2.1224  1.0175
 9128SOL    HW230340   1.633   0.223   3.489  0.4111  0.7316  0.7826
 9129SOL     OW30341  10.377   6.655   1.688 -0.3945  0.3436 -0.0069
 9129SOL    HW130342  10.305   6.593   1.705 -0.3189 -0.0432 -1.0394
 9129SOL    HW230343  10.368   6.721   1.757 -1.2091 -0.1680  0.4006
 9130SOL     OW30344   3.589   9.139   1.299 -0.3495 -0.2571 -0.1898
 9130SOL    HW130345   3.533   9.073   1.258  1.6132 -1.3122 -1.3337
 9130SOL    HW230346   3.679   9.109   1.281  0.6084  1.4919  1.3100
 9131SOL     OW30347   4.687   4.249   6.573 -0.3481  0.2392  0.1972
 9131SOL    HW130348   4.712   4.203   6.492  1.0834  0.8360  0.2716
 9131SOL    HW230349   4.651   4.180   6.629  0.5914 -0.5750 -0.1613
 9132SOL     OW30350   8.979   9.152   9.623 -0.2739  0.2141 -0.2886
 9132SOL    HW130351   9.000   9.094   9.697  0.1505 -0.3139 -0.8122
 9132SOL    HW230352   8.901   9.112   9.584  1.4150 -1.4848 -2.1466
 9133SOL     OW30353   5.721   1.504  10.560 -0.0368  0.4168 -0.1032
 9133SOL    HW130354   5.696   1.560  10.633 -1.3498  0.1937 -0.3447
 9133SOL    HW230355   5.793   1.550  10.517 -2.2297  2.9138 -1.3972
 9134SOL     OW30356   4.835   3.629   0.382 -0.2068 -0.3012 -0.6203
 9134SOL    HW130357   4.923   3.665   0.391  0.0559 -0.4173 -2.4890
 9134SOL    HW230358   4.847   3.534   0.385 -0.4997 -0.3246  0.7912
 9135SOL     OW30359   2.808   0.303  10.060 -0.2758  0.3443 -0.4950
 9135SOL    HW130360   2.722   0.262  10.050 -1.0514  2.0386 -1.0355
 9135SOL    HW230361   2.798   0.362  10.135  0.0473  1.4151 -1.2756
 9136SOL     OW30362   9.399   1.606   3.417 -0.2186 -0.2909  0.5919
 9136SOL    HW130363   9.376   1.527   3.369  1.0449  0.4883 -1.4138
 9136SOL    HW230364   9.326   1.666   3.403 -0.6399 -0.6642  1.1357
 9137SOL     OW30365   0.250  10.137   1.527  0.1994  0.0183  0.7112
 9137SOL    HW130366   0.301  10.216   1.547  0.0872  0.3571 -0.2576
 9137SOL    HW230367   0.235  10.142   1.432 -2.5571  0.5065  1.0957
 9138SOL     OW30368   0.593   9.420   7.573  0.6610  0.3822  0.5708
 9138SOL    HW130369   0.623   9.329   7.574  0.3618  0.2850  1.0402
 9138SOL    HW230370   0.669   9.471   7.602  1.1647  0.3946 -0.7256
 9139SOL     OW30371  10.178   7.736   3.807 -0.4259 -0.2162  0.4744
 9139SOL    HW130372  10.232   7.792   3.751 -0.9094 -0.5034 -0.2856
 9139SOL    HW230373  10.109   7.703   3.750 -0.5508 -1.0439  1.0818
 9140SOL     OW30374   2.146   3.711   4.138 -0.0415  0.4220 -0.0469
 9140SOL    HW130375   2.212   3.733   4.203  0.0908 -0.7305  0.2191
 9140SOL    HW230376   2.182   3.745   4.055  0.7296  0.1024  0.1500
 9141SOL     OW30377   8.056   6.170   2.574 -0.0882 -0.3239  0.6392
 9141SOL    HW130378   8.111   6.094   2.591  0.2852 -0.6366 -1.5940
 9141SOL    HW230379   7.992   6.169   2.645 -1.1700 -3.7687 -0.1478
 9142SOL     OW30380   1.104   1.563   8.938 -0.4463 -0.3472  0.5327
 9142SOL    HW130381   1.028   1.513   8.908  0.8814 -2.0772 -0.1469
 9142SOL    HW230382   1.083   1.654   8.916 -1.1494 -1.0743 -2.3512
 9143SOL     OW30383   5.857   6.567   5.842  0.0188 -0.2490 -0.3038
 9143SOL    HW130384   5.918   6.591   5.773  0.2503  1.2274  0.3900
 9143SOL    HW230385   5.899   6.594   5.923 -2.3346  2.7830  0.0989
 9144SOL     OW30386   6.873   4.251   6.500  0.0539  0.1463  0.1088
 9144SOL    HW130387   6.838   4.333   6.466  2.4337  1.3363  0.3303
 9144SOL    HW230388   6.917   4.275   6.582  0.8477 -1.3367  0.1610
 9145SOL     OW30389   3.004   9.943   9.338 -0.2360 -0.2964  0.1036
 9145SOL    HW130390   3.070  10.005   9.367  2.2804 -1.9590 -1.5901
 9145SOL    HW230391   3.034   9.858   9.371 -1.4487 -1.1375 -0.8281
 9146SOL     OW30392   6.358   7.394   0.249  0.6585  0.3922 -0.5610
 9146SOL    HW130393   6.364   7.397   0.153  0.6117 -1.0469 -0.6309
 9146SOL    HW230394   6.395   7.309   0.272  1.3666  1.0371  0.7765
 9147SOL     OW30395   1.457   2.163   3.452  0.2472 -0.0376 -0.5397
 9147SOL    HW130396   1.479   2.212   3.532  1.1148 -0.5189 -0.4709
 9147SOL    HW230397   1.377   2.114   3.475  1.3244 -1.3583  0.5714
 9148SOL     OW30398   7.734   9.335  10.473  0.2951  0.6194 -0.0644
 9148SOL    HW130399   7.706   9.368  10.388  0.3724 -0.1993 -0.4194
 9148SOL    HW230400   7.654   9.304  10.514  0.0942  1.9717  0.6163
 9149SOL     OW30401   0.017   7.230   1.443  0.5774  0.7021 -0.0610
 9149SOL    HW130402   0.014   7.284   1.365  1.8580  0.6175 -0.1777
 9149SOL    HW230403  -0.051   7.164   1.429  2.0094 -0.4500 -1.9722
 9150SOL     OW30404   5.231   4.332   8.790 -0.1998 -0.7329  0.0522
 9150SOL    HW130405   5.167   4.326   8.861 -1.2408  0.0059 -0.7939
 9150SOL    HW230406   5.266   4.244   8.782  1.3531 -0.4844  2.7252
 9151SOL     OW30407   5.403   4.891   0.115 -0.0488 -0.0720 -0.0790
 9151SOL    HW130408   5.493   4.863   0.096 -0.4282 -1.1540 -0.3509
 9151SOL    HW230409   5.354   4.810   0.122 -1.4176  0.5251 -1.9603
 9152SOL     OW30410   9.351   5.138   1.349  0.3304 -0.2778 -0.2606
 9152SOL    HW130411   9.394   5.062   1.308  1.5399 -0.3377  1.0659
 9152SOL    HW230412   9.332   5.110   1.438  1.8712  1.3367  0.6401
 9153SOL     OW30413   1.300   6.807   3.679  0.5151  0.1466 -0.1477
 9153SOL    HW130414   1.369   6.863   3.643  1.5648 -1.9895 -1.6349
 9153SOL    HW230415   1.331   6.783   3.766  1.4544 -0.3883 -0.6112
 9154SOL     OW30416  10.665   9.871   6.777  0.5211  0.2795  0.7561
 9154SOL    HW130417  10.586   9.915   6.744  2.3641  2.2583 -1.3921
 9154SOL    HW230418  10.693   9.926   6.851  0.7334  0.4804  0.5257
 9155SOL     OW30419   0.581   7.254   7.463  0.1308  0.1201  0.1144
 9155SOL    HW130420   0.593   7.250   7.369 -0.3706 -0.7696  0.0796
 9155SOL    HW230421   0.658   7.301   7.495  0.2263  0.5668 -0.7467
 9156SOL     OW30422   8.658   6.677   6.470 -0.2613 -0.3232  0.2105
 9156SOL    HW130423   8.699   6.761   6.490  0.1810  0.1616 -2.3893
 9156SOL    HW230424   8.595   6.697   6.401 -2.4171 -1.6689  1.6552
 9157SOL     OW30425   1.109   6.042   2.219  0.2741  0.0542  0.5668
 9157SOL    HW130426   1.083   6.047   2.311 -1.6179  1.0408  0.0400
 9157SOL    HW230427   1.156   5.959   2.212  0.1924 -0.1890  2.3421
 9158SOL     OW30428   2.949   2.425   6.292 -0.1794 -0.2784  1.1689
 9158SOL    HW130429   2.944   2.505   6.345  0.5139  0.3768  0.2758
 9158SOL    HW230430   3.042   2.402   6.293  0.1906  0.8124 -1.2435
 9159SOL     OW30431   0.623   5.685   8.010  0.2216 -0.2724  0.1172
 9159SOL    HW130432   0.544   5.712   8.056  0.1457  0.1889 -0.2713
 9159SOL    HW230433   0.619   5.732   7.926  1.9177  1.3546  0.8870
 9160SOL     OW30434   2.736   8.068   7.138  0.1107  0.0778  0.0150
 9160SOL    HW130435   2.758   8.153   7.177  3.1456 -1.2456  1.5575
 9160SOL    HW230436   2.746   8.006   7.210 -0.7502 -1.7570 -1.3763
 9161SOL     OW30437   7.069  10.576  10.427 -0.0111  0.1658  0.0150
 9161SOL    HW130438   7.140  10.612  10.480  0.1762 -0.7159  0.3916
 9161SOL    HW230439   7.000  10.643  10.429 -0.6475 -0.4502  2.6750
 9162SOL     OW30440   2.986   8.833   9.177 -0.1030 -0.0937  0.1265
 9162SOL    HW130441   3.070   8.849   9.134  0.5905  1.4759  1.9142
 9162SOL    HW230442   3.003   8.761   9.237  0.5061  1.2559  1.6714
 9163SOL     OW30443   6.593   8.348   0.449  0.4487 -0.0969  0.0358
 9163SOL    HW130444   6.583   8.442   0.435  0.5700  0.0510  0.8524
 9163SOL    HW230445   6.512   8.309   0.416  0.3762  0.3023 -0.2561
 9164SOL     OW30446   7.821   7.711   9.122  0.1654  0.0491  0.1977
 9164SOL    HW130447   7.801   7.748   9.208  1.2516  1.1901 -0.0001
 9164SOL    HW230448   7.834   7.618   9.138 -0.7813  0.0534  1.0649
 9165SOL     OW30449  10.045   3.285   9.139 -0.0109  0.2901 -0.2058
 9165SOL    HW130450  10.065   3.235   9.218 -1.0273 -0.7121 -0.5577
 9165SOL    HW230451   9.954   3.313   9.151 -0.3249 -0.2650 -1.2204
 9166SOL     OW30452   5.427  10.135  10.630 -0.6004  0.0229  0.4504
 9166SOL    HW130453   5.453  10.213  10.679  2.0407  0.2071 -1.0735
 9166SOL    HW230454   5.384  10.169  10.551  0.5377 -0.0374 -0.2068
 9167SOL     OW30455   2.890   0.368   0.508 -0.0261  0.1933  0.6511
 9167SOL    HW130456   2.795   0.356   0.504  0.0311 -0.1070  0.0714
 9167SOL    HW230457   2.920   0.303   0.571 -0.2877  0.8455  1.4686
 9168SOL     OW30458   1.013   4.617   8.961 -0.0570  0.3006 -0.4243
 9168SOL    HW130459   1.064   4.593   9.039 -0.0651 -1.4380 -0.9082
 9168SOL    HW230460   0.928   4.575   8.974 -0.1427  0.1989 -1.2573
 9169SOL     OW30461   9.887   8.101   4.333 -0.6030 -0.0138  0.5295
 9169SOL    HW130462   9.893   8.071   4.242  1.4422  0.4473  0.4651
 9169SOL    HW230463   9.942   8.179   4.336 -0.9702  0.2101  2.0857
 9170SOL     OW30464   2.163   7.393   7.974  0.2665 -0.3120  0.1572
 9170SOL    HW130465   2.238   7.336   7.993  0.1735  0.6702  4.1604
 9170SOL    HW230466   2.087   7.347   8.010 -0.4101  0.5858 -0.0908
 9171SOL     OW30467  10.030   8.299   2.783 -0.5703 -0.0458  0.9314
 9171SOL    HW130468  10.049   8.367   2.848  0.0422  0.6666  0.0422
 9171SOL    HW230469   9.955   8.333   2.734 -0.2185  0.0339  0.4381
 9172SOL     OW30470   4.475   9.233   7.838 -0.0055 -0.3240 -0.1915
 9172SOL    HW130471   4.434   9.249   7.923 -0.4649 -2.0746 -0.0500
 9172SOL    HW230472   4.526   9.312   7.821 -1.3366  0.8114  0.8614
 9173SOL     OW30473   3.450   9.856   1.891 -0.0749  0.0708 -1.0451
 9173SOL    HW130474   3.429   9.766   1.863  2.9671 -0.7337 -1.0119
 9173SOL    HW230475   3.403   9.867   1.974  0.5268 -1.9709 -0.3875
 9174SOL     OW30476   9.350   8.212  10.650  0.0788  0.4065 -0.7270
 9174SOL    HW130477   9.431   8.189  10.696 -0.5087 -0.9159 -0.2882
 9174SOL    HW230478   9.340   8.145  10.583 -1.9954 -1.1510  0.9667
 9175SOL     OW30479   8.999   5.375   5.810  0.0011 -0.0155  0.4275
 9175SOL    HW130480   9.011   5.471   5.808 -0.8065  0.0826  0.2416
 9175SOL    HW230481   8.917   5.360   5.764  1.3044 -0.9992 -1.7578
 9176SOL     OW30482   1.317   6.739   8.517  0.4644 -0.0829 -0.2313
 9176SOL    HW130483   1.347   6.812   8.463 -1.9333  0.5215 -0.8512
 9176SOL    HW230484   1.264   6.686   8.458 -0.2562 -0.7174  0.9431
 9177SOL     OW30485   1.359   2.797   7.788 -0.4541  0.0649 -0.4034
 9177SOL    HW130486   1.268   2.802   7.818 -0.6009  1.0487 -0.9603
 9177SOL    HW230487   1.390   2.888   7.792  0.8213 -0.3887  0.7092
 9178SOL     OW30488   0.228   7.179   5.405 -0.0173  0.3616 -0.3618
 9178SOL    HW130489   0.232   7.223   5.490  0.4401  0.5974 -0.5017
 9178SOL    HW230490   0.312   7.200   5.364  0.9548 -2.0112  0.2421
 9179SOL     OW30491   6.264   1.590   5.165  0.7785  0.0937 -0.3912
 9179SOL    HW130492   6.220   1.506   5.161  1.2577 -0.2325  0.7991
 9179SOL    HW230493   6.345   1.573   5.214  0.5033  1.3968  0.5804
 9180SOL     OW30494   5.519   8.392   9.993 -0.4350  0.0244 -0.0058
 9180SOL    HW130495   5.542   8.468  10.047 -0.1039  0.5007 -0.7974
 9180SOL    HW230496   5.585   8.392   9.923 -1.1013 -0.3425 -0.6407
 9181SOL     OW30497   8.170   9.140   2.735 -0.3348 -0.3323  0.4382
 9181SOL    HW130498   8.221   9.078   2.683 -2.3090 -0.9367 -0.8924
 9181SOL    HW230499   8.212   9.225   2.719  0.1820 -0.7914 -0.7274
 9182SOL     OW30500  10.393   5.737  10.612  0.0086 -0.4916  0.2075
 9182SOL    HW130501  10.396   5.781  10.528 -0.9233 -0.6696  0.0695
 9182SOL    HW230502  10.439   5.797  10.672 -0.3602  0.1913 -0.1789
 9183SOL     OW30503   4.131   2.043   2.481  0.3582 -0.1596  0.4992
 9183SOL    HW130504   4.147   1.949   2.470  1.7704  0.1192 -0.0827
 9183SOL    HW230505   4.214   2.084   2.457 -0.3213  1.2586  0.4829
 9184SOL     OW30506   2.280   0.841   4.589  0.2245 -0.1886 -0.7746
 9184SOL    HW130507   2.188   0.842   4.615 -0.3866  0.8167 -2.7803
 9184SOL    HW230508   2.299   0.749   4.570 -0.1341 -0.5038  0.3118
 9185SOL     OW30509   0.802   8.308   0.357  1.0982  0.2433 -0.0384
 9185SOL    HW130510   0.866   8.358   0.408 -2.6288  2.5187  2.9301
 9185SOL    HW230511   0.727   8.367   0.349 -1.7007 -3.1387 -0.9349
 9186SOL     OW30512   9.369   1.844   4.708 -0.1073 -0.1176 -0.1255
 9186SOL    HW130513   9.330   1.928   4.684 -1.3347 -0.4635  0.6183
 9186SOL    HW230514   9.437   1.830   4.641  1.4859  2.3629  0.8072
 9187SOL     OW30515   8.226   9.857   5.020  0.1109  0.7019 -0.1502
 9187SOL    HW130516   8.222   9.940   5.067 -1.1483  1.6977 -1.9001
 9187SOL    HW230517   8.269   9.797   5.081  0.9560  2.5878  1.2060
 9188SOL     OW30518   1.494   1.790   0.977  0.2687 -0.0867  0.3035
 9188SOL    HW130519   1.495   1.798   0.882  0.4634 -0.9802  0.2190
 9188SOL    HW230520   1.421   1.845   1.005  1.4694  1.8682 -0.1702
 9189SOL     OW30521   3.848   5.509   4.936 -0.6107  0.3641  0.5478
 9189SOL    HW130522   3.762   5.541   4.908 -0.1498  1.9269  0.8374
 9189SOL    HW230523   3.875   5.570   5.004  0.7734 -0.0620  0.4032
 9190SOL     OW30524   1.352  10.349   9.868 -0.2612  0.2979 -0.3924
 9190SOL    HW130525   1.262  10.380   9.865 -0.2311  0.4648  0.2251
 9190SOL    HW230526   1.375  10.331   9.777 -0.4073  1.7408 -0.7344
 9191SOL     OW30527   0.477   3.689   2.036 -0.4343 -0.1620 -0.7488
 9191SOL    HW130528   0.541   3.699   2.107 -0.5660  0.6402 -0.7335
 9191SOL    HW230529   0.487   3.599   2.008  0.0844 -0.3031 -0.1472
 9192SOL     OW30530   9.890   6.866   5.291 -0.4060 -0.1349 -0.1675
 9192SOL    HW130531   9.802   6.840   5.263 -0.2611 -0.3275 -0.4407
 9192SOL    HW230532   9.942   6.785   5.287 -0.1490  0.0341 -0.2701
 9193SOL     OW30533   2.381   8.672   6.119  0.1340 -0.1258  0.2805
 9193SOL    HW130534   2.470   8.706   6.112  0.0897  0.1765  1.0897
 9193SOL    HW230535   2.385   8.608   6.190 -0.4112  0.2887  0.6894
 9194SOL     OW30536   0.576   3.562   1.072 -0.1068  0.3244 -0.2945
 9194SOL    HW130537   0.492   3.605   1.087 -0.4846 -1.0896  2.2333
 9194SOL    HW230538   0.639   3.618   1.118 -0.1259 -0.1239  0.2871
 9195SOL     OW30539   6.738   5.404   4.981  0.3674 -0.1113 -0.1719
 9195SOL    HW130540   6.790   5.331   4.946  2.3699  0.6350  1.0936
 9195SOL    HW230541   6.732   5.466   4.908  1.6615 -0.0215 -0.2287
 9196SOL     OW30542   9.706  10.674   8.211  0.3495 -0.0414  0.1015
 9196SOL    HW130543   9.795  10.649   8.236  0.2264 -0.7145 -0.1107
 9196SOL    HW230544   9.650  10.604   8.245  0.2238 -1.2360 -2.3707
 9197SOL     OW30545   1.083   0.794   8.077 -0.4238 -0.2854 -0.1194
 9197SOL    HW130546   1.108   0.886   8.080 -0.8696 -0.0555 -2.2428
 9197SOL    HW230547   1.102   0.766   7.988 -2.0263 -1.7324 -0.0610
 9198SOL     OW30548   4.052   1.045   6.800  0.4388  0.4409 -0.1975
 9198SOL    HW130549   4.092   1.065   6.885  0.7629 -0.3107 -0.1582
 9198SOL    HW230550   4.025   1.130   6.765  1.5383  0.9182  0.0526
 9199SOL     OW30551   1.562  10.272   8.648 -0.2652 -0.0483 -0.3549
 9199SOL    HW130552   1.482  10.220   8.645  0.7935 -1.7875  0.1310
 9199SOL    HW230553   1.620  10.231   8.584  0.9277 -0.0315  0.6770
 9200SOL     OW30554   8.951   1.797   8.538 -0.4180 -0.1482 -0.4019
 9200SOL    HW130555   8.982   1.844   8.616  0.5719  0.4511 -1.1338
 9200SOL    HW230556   9.011   1.824   8.468 -0.9556 -1.0967 -1.2570
 9201SOL     OW30557   9.498   0.737   3.085 -0.1188  0.2252 -0.7140
 9201SOL    HW130558   9.460   0.820   3.113  4.8046  2.4621  0.3482
 9201SOL    HW230559   9.580   0.761   3.042  1.3202 -4.0952 -0.8735
 9202SOL     OW30560   7.310   5.364   5.043  0.3094 -0.2672 -0.7366
 9202SOL    HW130561   7.374   5.344   5.112 -0.4306 -1.9697 -0.4852
 9202SOL    HW230562   7.356   5.425   4.985  0.3825  2.7440  2.1340
 9203SOL     OW30563   3.406   4.365   0.366  0.1331  0.4602  0.4186
 9203SOL    HW130564   3.482   4.416   0.393  1.1682 -1.2090  0.7866
 9203SOL    HW230565   3.398   4.296   0.432  0.6556 -1.6856 -1.6139
 9204SOL     OW30566   5.525   9.093   4.861 -0.2970 -0.5222  0.3520
 9204SOL    HW130567   5.465   9.121   4.931 -0.3099  0.0207  0.1303
 9204SOL    HW230568   5.610   9.129   4.887 -0.5539  0.8381 -0.5613
 9205SOL     OW30569   4.601   9.673   1.421 -0.1040 -0.0694 -0.6678
 9205SOL    HW130570   4.512   9.708   1.416 -0.5208 -1.2134 -3.6944
 9205SOL    HW230571   4.648   9.716   1.349  1.6019 -0.0827  0.3697
 9206SOL     OW30572   2.454   3.142   1.912 -0.2936 -0.3384 -0.1760
 9206SOL    HW130573   2.433   3.222   1.863 -0.3896  0.5928  1.2996
 9206SOL    HW230574   2.526   3.102   1.864 -0.0679  0.7968 -0.8131
 9207SOL     OW30575   5.479   8.117   0.598  0.0889  0.6302 -0.3308
 9207SOL    HW130576   5.484   8.039   0.542  0.2704 -0.5232  1.2348
 9207SOL    HW230577   5.538   8.180   0.556 -0.4362  0.1247 -1.8947
 9208SOL     OW30578   4.782   4.484   4.287  0.3688  0.0870  0.9936
 9208SOL    HW130579   4.768   4.542   4.212  0.5984  0.5739  1.3246
 9208SOL    HW230580   4.735   4.404   4.264  0.8051  0.0654  0.1359
 9209SOL     OW30581   9.228   6.966   2.159 -0.2550 -0.3874  0.8071
 9209SOL    HW130582   9.213   6.877   2.192 -0.1809 -0.6211  0.2196
 9209SOL    HW230583   9.193   6.965   2.070 -2.1106  0.7686  1.4855
 9210SOL     OW30584   9.830   5.897   6.003  0.4890  0.4435  0.0336
 9210SOL    HW130585   9.761   5.964   5.999 -1.1954 -1.2111 -2.5861
 9210SOL    HW230586   9.806   5.842   6.077 -0.3056  0.6125 -0.0898
 9211SOL     OW30587   6.448   2.240   0.308 -0.2424 -0.2652  0.2694
 9211SOL    HW130588   6.448   2.332   0.282  0.1128  0.2782  2.1135
 9211SOL    HW230589   6.389   2.198   0.244 -0.5631  1.2568 -0.4840
 9212SOL     OW30590   0.208   1.773   6.030  0.2924 -0.2679 -0.5460
 9212SOL    HW130591   0.183   1.702   5.972 -0.4170  0.6487 -1.3954
 9212SOL    HW230592   0.271   1.734   6.090 -1.4633 -2.0815  0.2144
 9213SOL     OW30593   0.013  10.316   9.749 -0.0741 -0.7243 -0.3555
 9213SOL    HW130594  -0.012  10.234   9.706 -1.0653 -0.7808  0.2828
 9213SOL    HW230595  -0.041  10.383   9.706  1.7118 -0.1331 -1.8372
 9214SOL     OW30596   1.743   4.842   6.533 -0.5424 -0.0894  0.0829
 9214SOL    HW130597   1.793   4.873   6.457  1.4988 -0.7743  1.0575
 9214SOL    HW230598   1.715   4.922   6.577  0.8240  0.3775  0.1661
 9215SOL     OW30599   4.606   0.323  10.251  0.0491  0.9923 -0.2181
 9215SOL    HW130600   4.608   0.228  10.263  1.5283  0.9753 -0.5080
 9215SOL    HW230601   4.546   0.336  10.178 -0.2487  0.2947 -0.1080
 9216SOL     OW30602   0.850   6.804   2.025 -0.1730 -0.8273 -0.5772
 9216SOL    HW130603   0.783   6.745   2.060 -0.3608 -0.8111 -0.9106
 9216SOL    HW230604   0.801   6.878   1.990  0.1373  0.6743  1.9040
 9217SOL     OW30605   6.504   7.131   3.198 -0.3667 -0.5771  0.3956
 9217SOL    HW130606   6.532   7.040   3.209 -0.1878 -0.5607  0.0935
 9217SOL    HW230607   6.421   7.137   3.245 -0.1530 -0.7793  0.8051
 9218SOL     OW30608   4.200  10.451   0.355  0.2653 -0.0109  0.4496
 9218SOL    HW130609   4.185  10.528   0.411 -2.4087 -1.2513  1.6581
 9218SOL    HW230610   4.154  10.471   0.274  0.0626 -0.0692  0.5471
 9219SOL     OW30611   3.174   9.850   0.930 -0.4333  0.4787  0.2386
 9219SOL    HW130612   3.134   9.858   1.017  0.8922  1.1343  0.8109
 9219SOL    HW230613   3.106   9.810   0.876 -0.5586 -2.1164  2.1147
 9220SOL     OW30614   4.756   0.775   7.976  0.2379 -0.5868  0.1778
 9220SOL    HW130615   4.848   0.793   7.993 -0.3372  0.2496  2.7454
 9220SOL    HW230616   4.756   0.687   7.938  2.3175  0.7463 -3.4685
 9221SOL     OW30617   9.368   5.865   3.033 -0.2832 -0.1083 -0.4639
 9221SOL    HW130618   9.445   5.811   3.020  0.8001  1.5758 -1.3800
 9221SOL    HW230619   9.323   5.865   2.948 -1.0503 -0.7027 -0.0688
 9222SOL     OW30620   9.329  10.593   9.606  0.2919  0.1370  0.2951
 9222SOL    HW130621   9.313  10.566   9.697 -3.2421  2.1537  0.4452
 9222SOL    HW230622   9.420  10.623   9.606  0.8688 -1.3273  2.7428
 9223SOL     OW30623   3.176   0.631   8.891 -0.5490  0.4068 -0.1705
 9223SOL    HW130624   3.169   0.722   8.920 -1.1941 -0.1469  1.5597
 9223SOL    HW230625   3.251   0.597   8.939  0.3422  0.2756 -1.6094
 9224SOL     OW30626   6.798   3.359   8.205 -0.5619 -0.0638  0.4700
 9224SOL    HW130627   6.720   3.332   8.254  0.5759 -2.8454  0.9464
 9224SOL    HW230628   6.869   3.354   8.268  0.2626  0.7815 -0.3699
 9225SOL     OW30629   4.564   1.017   2.847  0.1345  0.1004 -0.0344
 9225SOL    HW130630   4.642   1.047   2.800  1.4907 -0.3132  1.8327
 9225SOL    HW230631   4.578   0.923   2.859 -1.1096 -0.1507 -0.4590
 9226SOL     OW30632   1.748   9.861   2.200  0.0228 -0.8488  0.5109
 9226SOL    HW130633   1.776   9.778   2.240  1.3494  0.4756  2.5225
 9226SOL    HW230634   1.720   9.915   2.274  2.0356  1.5363 -0.3087
 9227SOL     OW30635   6.382   5.342   4.558  0.2903 -0.1683 -0.7788
 9227SOL    HW130636   6.406   5.254   4.585  1.0724  0.0200 -0.8378
 9227SOL    HW230637   6.464   5.383   4.532  0.0152  0.7587 -0.2396
 9228SOL     OW30638   3.839   0.500   7.962  0.4375  0.2938  0.0980
 9228SOL    HW130639   3.869   0.496   7.872  0.5551  0.9999  0.0998
 9228SOL    HW230640   3.766   0.438   7.966  0.6004  0.0647 -0.4130
 9229SOL     OW30641   7.000   3.019   3.012  0.2203 -0.0316 -0.2812
 9229SOL    HW130642   7.053   3.026   2.932  3.0036 -2.8480  1.1004
 9229SOL    HW230643   7.056   3.052   3.081 -1.0975 -0.1254  0.8693
 9230SOL     OW30644   5.511   2.305   6.773 -0.0021 -0.0388  0.4778
 9230SOL    HW130645   5.566   2.377   6.743 -0.9421  0.9603  1.0980
 9230SOL    HW230646   5.521   2.304   6.868  2.0410 -2.4386  0.3337
 9231SOL     OW30647   3.295  10.643   0.181  1.0178  0.1606  0.2677
 9231SOL    HW130648   3.335  10.730   0.188 -1.3089  1.4698 -1.2358
 9231SOL    HW230649   3.253  10.630   0.266  1.8712  0.2297  0.7084
 9232SOL     OW30650   1.223   0.619   4.173 -0.1830 -0.1857 -0.3104
 9232SOL    HW130651   1.233   0.524   4.167 -1.5976 -0.4461  0.9910
 9232SOL    HW230652   1.293   0.646   4.233 -0.0955 -0.4599 -0.2877
 9233SOL     OW30653   6.135   5.773   7.573 -0.1968 -0.2301  0.1583
 9233SOL    HW130654   6.229   5.779   7.589 -0.3411  2.5509  0.4194
 9233SOL    HW230655   6.106   5.698   7.626  1.5668  0.1306  1.7411
 9234SOL     OW30656   8.107   3.629   2.369  0.4531  0.3319  0.4477
 9234SOL    HW130657   8.112   3.555   2.308 -0.8878  2.4519 -2.4651
 9234SOL    HW230658   8.071   3.591   2.449  3.1576 -2.7781  0.4100
 9235SOL     OW30659   0.750   5.067   0.130  0.6812  0.4611  0.7731
 9235SOL    HW130660   0.791   4.989   0.170  2.3257  1.7129  1.6548
 9235SOL    HW230661   0.778   5.064   0.039 -0.8819 -0.9821  0.2837
 9236SOL     OW30662   4.065  10.401   2.058 -0.1168  0.2809  0.4367
 9236SOL    HW130663   4.126  10.420   2.130 -1.1204 -0.1855  1.4430
 9236SOL    HW230664   4.051  10.486   2.017  3.5035  0.0002 -1.7944
 9237SOL     OW30665   3.200   5.308   7.280 -0.2944  0.6664  0.1141
 9237SOL    HW130666   3.260   5.337   7.212  0.6583  0.9424  1.0572
 9237SOL    HW230667   3.245   5.327   7.362 -1.4891  0.4823  0.8333
 9238SOL     OW30668   7.175  10.228   6.936 -0.2561 -0.0742 -0.2727
 9238SOL    HW130669   7.128  10.191   6.861 -1.0976 -1.2200  0.7695
 9238SOL    HW230670   7.202  10.315   6.907 -1.9800  0.1508 -1.3488
 9239SOL     OW30671   6.135   0.038   9.089  0.1500  0.0636  0.2099
 9239SOL    HW130672   6.085  -0.034   9.126  0.9410 -1.3402 -1.3226
 9239SOL    HW230673   6.074   0.112   9.088 -1.3705 -1.1482 -0.0776
 9240SOL     OW30674   3.328   2.401  10.481 -0.0310 -0.0325  0.6096
 9240SOL    HW130675   3.284   2.472  10.434 -1.3459 -1.9011 -1.1177
 9240SOL    HW230676   3.421   2.422  10.474 -0.2922  0.6908 -1.3037
 9241SOL     OW30677   4.843   8.368   7.586 -0.0253 -0.3743 -0.1551
 9241SOL    HW130678   4.827   8.422   7.508  0.0788 -0.3168 -0.1375
 9241SOL    HW230679   4.914   8.413   7.632  0.7506 -1.0528 -0.6571
 9242SOL     OW30680   1.062   4.492   4.016 -0.0201 -0.3552  0.7181
 9242SOL    HW130681   1.044   4.478   3.923 -1.9992  0.4357  0.9498
 9242SOL    HW230682   1.117   4.417   4.041 -1.3274 -1.8036 -0.5640
 9243SOL     OW30683   4.306   9.720   9.795 -0.2591  0.4694 -0.1852
 9243SOL    HW130684   4.236   9.783   9.778  0.7587  1.4275 -0.9203
 9243SOL    HW230685   4.358   9.760   9.864 -0.6366 -0.4288  0.6487
 9244SOL     OW30686   2.924   7.810   5.200  0.2886 -0.5006 -0.1744
 9244SOL    HW130687   2.969   7.791   5.118  0.0598  0.4773 -0.5379
 9244SOL    HW230688   2.971   7.758   5.266  2.1708  0.7215 -0.4922
 9245SOL     OW30689   2.427   3.784   9.188 -0.2729 -0.0147  0.0119
 9245SOL    HW130690   2.337   3.779   9.156 -0.2050 -0.2022 -0.1554
 9245SOL    HW230691   2.468   3.704   9.155 -0.0031  0.1432 -0.0402
 9246SOL     OW30692   2.181   8.650   5.388 -0.0156 -0.0721 -0.0922
 9246SOL    HW130693   2.265   8.681   5.423 -0.2032  0.3050  0.0425
 9246SOL    HW230694   2.127   8.637   5.466 -0.2492  0.2049 -0.2039
 9247SOL     OW30695  10.590   6.451   8.398 -0.4706  0.3105 -0.2085
 9247SOL    HW130696  10.685   6.451   8.412 -0.7236  1.1191  2.0238
 9247SOL    HW230697  10.575   6.518   8.331  0.4610  0.9651  0.2239
 9248SOL     OW30698   5.302   5.933   3.929  0.0200 -0.5011 -0.5847
 9248SOL    HW130699   5.367   6.003   3.922 -1.2018  0.5346 -2.4947
 9248SOL    HW230700   5.253   5.954   4.008  2.2795 -1.6494  1.2614
 9249SOL     OW30701   1.517   7.749   9.235  0.5648 -0.5144 -0.0499
 9249SOL    HW130702   1.553   7.675   9.285 -0.0068 -0.4409  0.4831
 9249SOL    HW230703   1.488   7.710   9.153  0.8313 -0.7730 -0.0233
 9250SOL     OW30704   1.980   6.572   2.938 -0.1634 -0.4580  0.0450
 9250SOL    HW130705   1.945   6.505   2.997 -1.1982  0.3636  0.3889
 9250SOL    HW230706   2.036   6.626   2.993 -1.1051  0.2899  0.2889
 9251SOL     OW30707   8.011   9.298   8.053  0.3111 -0.5581  0.3923
 9251SOL    HW130708   8.086   9.282   8.110  0.0546 -2.0451  0.3336
 9251SOL    HW230709   8.015   9.229   7.987 -1.0192 -0.5570  0.2893
 9252SOL     OW30710   2.116  10.005   5.292  0.0054 -0.1218 -0.1424
 9252SOL    HW130711   2.064   9.928   5.268  0.0152 -0.0922 -0.2572
 9252SOL    HW230712   2.072  10.079   5.251  0.4273 -0.1617 -0.6683
 9253SOL     OW30713   9.769   3.571   5.985 -0.5828 -0.2797  0.1971
 9253SOL    HW130714   9.716   3.579   6.063 -0.5813 -1.6671  0.3597
 9253SOL    HW230715   9.821   3.652   5.982 -1.2583  0.1919  1.1045
 9254SOL     OW30716   5.362   9.100   0.381  0.0697 -0.1680  0.3543
 9254SOL    HW130717   5.273   9.065   0.383 -0.0919  0.1581 -0.5123
 9254SOL    HW230718   5.409   9.052   0.449 -0.6547 -0.6581  0.5160
 9255SOL     OW30719   5.769   0.253   0.744  0.7587  0.6300  0.4748
 9255SOL    HW130720   5.680   0.275   0.717  1.3075 -0.5076 -2.5936
 9255SOL    HW230721   5.758   0.197   0.821 -1.4608 -2.4695 -1.8753
 9256SOL     OW30722   8.383   7.560  10.519 -0.3283  0.4753  0.0539
 9256SOL    HW130723   8.466   7.557  10.565 -0.2923  0.9609  0.0241
 9256SOL    HW230724   8.326   7.501  10.568  0.3524 -0.7483 -0.5859
 9257SOL     OW30725   2.442   4.164   5.137  0.0575 -0.1191  0.1819
 9257SOL    HW130726   2.443   4.193   5.046  1.2812  0.4826  0.3601
 9257SOL    HW230727   2.353   4.184   5.167 -0.7920 -1.5584 -1.2304
 9258SOL     OW30728   5.083   1.159   9.257 -0.2221  0.3058 -0.3017
 9258SOL    HW130729   5.009   1.098   9.247 -0.5722  0.5317  0.8465
 9258SOL    HW230730   5.139   1.139   9.182 -2.1057  1.0704 -2.0205
 9259SOL     OW30731  10.552   3.131   3.895 -0.5498  0.7715  0.2898
 9259SOL    HW130732  10.560   3.194   3.823 -2.0713  1.1839  0.4516
 9259SOL    HW230733  10.601   3.172   3.967 -1.5355  1.8105  0.4000
 9260SOL     OW30734   7.578   8.474   8.218  0.2582  0.1438  1.1944
 9260SOL    HW130735   7.537   8.475   8.305 -0.9188  1.1771  0.6699
 9260SOL    HW230736   7.519   8.527   8.164 -0.2720 -2.3289 -0.8155
 9261SOL     OW30737   4.392   4.726   6.007  0.0798 -0.3359  0.2371
 9261SOL    HW130738   4.329   4.769   6.064 -1.0490 -1.7642  0.1309
 9261SOL    HW230739   4.391   4.778   5.927 -1.6298 -0.7775 -0.0741
 9262SOL     OW30740   0.913   9.260   6.904 -0.2304  0.7835  0.1205
 9262SOL    HW130741   0.827   9.273   6.865 -0.7162  0.0140  0.8879
 9262SOL    HW230742   0.904   9.180   6.955  1.6021 -0.6832 -1.6572
 9263SOL     OW30743   2.166   5.151   8.643 -0.2332 -0.1249 -0.2047
 9263SOL    HW130744   2.189   5.059   8.633  0.5533 -0.0423  0.6282
 9263SOL    HW230745   2.242   5.190   8.688 -0.8667  0.7608  0.1390
 9264SOL     OW30746   2.073   6.726   3.901  0.2698 -0.2640  0.0126
 9264SOL    HW130747   2.082   6.703   3.809  2.3877 -0.7186  0.2760
 9264SOL    HW230748   2.069   6.642   3.946 -0.7148 -0.0443  0.3397
 9265SOL     OW30749   8.044   0.176   6.884  0.2982 -0.1346  0.4623
 9265SOL    HW130750   8.113   0.193   6.949  0.3005  0.9869  0.1904
 9265SOL    HW230751   7.988   0.253   6.888 -1.1953 -1.1963  0.9488
 9266SOL     OW30752   8.756   9.451   9.660 -0.1348  0.5289 -0.7404
 9266SOL    HW130753   8.688   9.390   9.690  1.0579 -0.2599  0.4608
 9266SOL    HW230754   8.709   9.531   9.640 -1.4087  0.0640  0.2399
 9267SOL     OW30755  10.682   4.478   5.483 -0.1264  0.1004  0.1641
 9267SOL    HW130756  10.611   4.496   5.421  1.3274  0.3138 -1.5100
 9267SOL    HW230757  10.677   4.550   5.546 -0.9128  0.5302 -0.3690
 9268SOL     OW30758   8.146   2.907   2.186 -0.0303 -0.2779  0.3120
 9268SOL    HW130759   8.098   2.983   2.219  0.8352  0.1647  0.5757
 9268SOL    HW230760   8.154   2.849   2.261  1.5934  0.5535  0.8272
 9269SOL     OW30761   7.218   8.682   6.153  0.1617  0.3936  0.4716
 9269SOL    HW130762   7.184   8.766   6.122 -0.1401  0.7997  1.8571
 9269SOL    HW230763   7.268   8.703   6.232  0.3988 -0.6796  0.6290
 9270SOL     OW30764   8.663   9.936   0.847  0.3034 -0.7163  0.1018
 9270SOL    HW130765   8.720   9.859   0.854 -0.6592 -1.3035  3.2457
 9270SOL    HW230766   8.693   9.993   0.918 -1.6384 -0.1144  0.4917
 9271SOL     OW30767   3.788   4.456   5.159  0.4538  0.3470 -0.4714
 9271SOL    HW130768   3.800   4.460   5.254 -1.1164  2.6693 -0.2780
 9271SOL    HW230769   3.864   4.407   5.127  1.7810  0.7397  1.8544
 9272SOL     OW30770   5.935   3.123   1.768  0.1533  0.2078  0.2946
 9272SOL    HW130771   5.963   3.053   1.828 -1.3148 -0.0428  0.7285
 9272SOL    HW230772   5.906   3.193   1.826 -0.9380  0.1039 -0.1138
 9273SOL     OW30773   9.142   8.685   4.322 -0.1604  0.1934 -0.1791
 9273SOL    HW130774   9.142   8.593   4.295  1.5812  0.2296 -0.4021
 9273SOL    HW230775   9.127   8.681   4.417  0.8609 -0.4011 -0.0240
 9274SOL     OW30776   2.983   8.676   7.464  0.0922  0.1299 -0.4473
 9274SOL    HW130777   2.911   8.621   7.433  1.0029  0.0829 -2.6756
 9274SOL    HW230778   2.983   8.751   7.404  1.8587  0.1294 -0.4972
 9275SOL     OW30779   1.592   0.639   6.805  0.0389 -0.5794 -0.4146
 9275SOL    HW130780   1.624   0.586   6.878 -0.2450  1.2021  1.0904
 9275SOL    HW230781   1.624   0.595   6.726  0.5822 -2.4239  0.7946
 9276SOL     OW30782   5.343   7.964  10.435  0.1444  0.4795  0.0122
 9276SOL    HW130783   5.429   7.962  10.393  0.4718  1.0493  0.6463
 9276SOL    HW230784   5.289   7.906  10.381  1.1037 -0.4386  0.0102
 9277SOL     OW30785   1.014   2.733   9.951  0.0182  0.0637  0.3243
 9277SOL    HW130786   1.068   2.764   9.877  0.9990 -0.1316  0.9340
 9277SOL    HW230787   1.028   2.638   9.953 -0.0669  0.0566  0.6983
 9278SOL     OW30788   5.363   3.586   7.809  0.2765 -0.1962 -0.0338
 9278SOL    HW130789   5.296   3.557   7.747  0.2087  0.1935 -0.1402
 9278SOL    HW230790   5.445   3.576   7.761  0.3157 -0.8303  0.1519
 9279SOL     OW30791   3.359   2.074   7.080 -0.7864 -0.5210 -0.0099
 9279SOL    HW130792   3.348   2.044   6.990  0.6632  0.3018 -0.4902
 9279SOL    HW230793   3.293   2.144   7.089 -1.0012 -0.6658 -0.3974
 9280SOL     OW30794   9.636   9.386   3.183 -0.5980 -0.8928  0.0487
 9280SOL    HW130795   9.612   9.319   3.246 -3.7440 -0.9120 -0.9834
 9280SOL    HW230796   9.728   9.368   3.161 -0.0224 -2.0934  3.0029
 9281SOL     OW30797   7.690   9.239   4.779 -0.1221  0.3321  0.1599
 9281SOL    HW130798   7.610   9.266   4.823  0.5534  1.1867  0.9091
 9281SOL    HW230799   7.672   9.252   4.686 -0.3793  1.8859  0.4079
 9282SOL     OW30800   0.768   0.744   8.515 -0.3962  0.1973  0.5773
 9282SOL    HW130801   0.806   0.659   8.536 -1.9706 -0.4310  0.9782
 9282SOL    HW230802   0.808   0.768   8.432 -2.0528 -2.3120 -1.0818
 9283SOL     OW30803   2.636   0.625   2.982  0.1341 -0.9246 -0.1997
 9283SOL    HW130804   2.725   0.608   2.953  0.7935 -0.6635  1.5529
 9283SOL    HW230805   2.642   0.628   3.078 -1.4447  0.7929 -0.1074
 9284SOL     OW30806   2.950   2.180   7.247 -0.3632 -0.0484  0.2057
 9284SOL    HW130807   2.964   2.086   7.256 -1.3787 -0.2549 -0.2706
 9284SOL    HW230808   3.021   2.220   7.298  1.2243 -1.0424 -1.1087
 9285SOL     OW30809   4.619   6.237   4.717 -0.3419  0.0425 -0.6519
 9285SOL    HW130810   4.578   6.256   4.632 -2.0296 -1.0778 -0.1299
 9285SOL    HW230811   4.691   6.300   4.723 -2.3972  2.6122 -1.3063
 9286SOL     OW30812   9.918  10.580   9.131  0.3107  0.0410 -0.1714
 9286SOL    HW130813   9.909  10.670   9.099 -1.8565  0.4141  1.2802
 9286SOL    HW230814   9.835  10.538   9.108  0.5478 -1.0238  0.8378
 9287SOL     OW30815   2.974  10.282   8.667 -0.2282  0.7297  0.0039
 9287SOL    HW130816   2.904  10.300   8.604  1.2922  2.3524 -1.3345
 9287SOL    HW230817   2.929  10.262   8.748 -2.2576 -0.4049 -1.3091
 9288SOL     OW30818   8.092   9.678   4.061 -0.3126 -0.1954  0.0627
 9288SOL    HW130819   8.155   9.611   4.036  0.2973 -0.1803  1.4517
 9288SOL    HW230820   8.035   9.688   3.985  1.0702 -0.5436 -1.0504
 9289SOL     OW30821   6.454   2.547   5.990 -0.1186 -0.1531 -0.2467
 9289SOL    HW130822   6.530   2.602   5.967  0.4475  0.1534  2.0791
 9289SOL    HW230823   6.485   2.458   5.979  0.0951 -0.0231 -0.7206
 9290SOL     OW30824   8.124   1.544  10.618  0.2570 -0.0990  0.8166
 9290SOL    HW130825   8.036   1.546  10.579  0.7141 -3.8557 -0.8237
 9290SOL    HW230826   8.117   1.479  10.688  1.5287  0.2002  1.2376
 9291SOL     OW30827   8.620   6.429   1.725  0.4361  0.0180  0.3434
 9291SOL    HW130828   8.580   6.500   1.775 -3.1429 -0.1089 -1.9790
 9291SOL    HW230829   8.605   6.351   1.778 -1.6764  0.1428  0.0278
 9292SOL     OW30830   7.484   4.107  10.175 -0.0799  0.5471  0.2196
 9292SOL    HW130831   7.415   4.141  10.117 -1.1442 -0.4645  0.8699
 9292SOL    HW230832   7.542   4.182  10.188  1.5281  0.3434 -3.9487
 9293SOL     OW30833   2.355   2.945   0.993  0.0505 -0.6129  0.3770
 9293SOL    HW130834   2.327   3.016   0.935  0.6755  0.0592  0.8628
 9293SOL    HW230835   2.450   2.942   0.982 -0.0192 -1.6622  0.0530
 9294SOL     OW30836   9.118   8.537   5.517 -0.0742 -1.0095 -0.1816
 9294SOL    HW130837   9.049   8.510   5.456  0.0531 -1.6595 -0.0389
 9294SOL    HW230838   9.191   8.479   5.498  0.3901 -0.4165 -0.2310
 9295SOL     OW30839   0.110   4.458   1.882 -0.1341  0.0986 -0.1207
 9295SOL    HW130840   0.104   4.530   1.820 -0.6008  0.2197  0.0608
 9295SOL    HW230841   0.161   4.391   1.836 -0.3865  0.2283 -0.5963
 9296SOL     OW30842   9.530   3.388   7.448 -0.3400  0.7210  0.1379
 9296SOL    HW130843   9.512   3.299   7.479  0.3882  0.1640 -0.9904
 9296SOL    HW230844   9.507   3.444   7.523  0.7368 -0.5203  1.4678
 9297SOL     OW30845   5.922   9.572   0.970 -0.1310  0.3696 -0.1784
 9297SOL    HW130846   5.964   9.489   0.947 -1.3528 -0.0794 -0.8934
 9297SOL    HW230847   5.952   9.590   1.059  0.7242 -0.4592 -0.2778
 9298SOL     OW30848   3.403   7.944   5.930 -0.3589 -0.0473 -0.2079
 9298SOL    HW130849   3.338   8.002   5.891 -1.2113 -0.4556  0.5611
 9298SOL    HW230850   3.485   7.969   5.889 -1.0477  0.2623 -1.4343
 9299SOL     OW30851   6.002   4.998   0.380  0.1386  0.3759 -0.4488
 9299SOL    HW130852   6.063   5.004   0.307 -0.0472  1.4953 -0.5230
 9299SOL    HW230853   6.027   5.070   0.438 -1.7109  1.4885 -0.9601
 9300SOL     OW30854   9.548   5.860   7.196 -0.0742 -0.0820  0.3921
 9300SOL    HW130855   9.551   5.841   7.290  1.8412  1.4689  0.7094
 9300SOL    HW230856   9.517   5.950   7.192 -1.0775 -0.4565 -0.5473
 9301SOL     OW30857   1.683   6.876  10.627  0.2586  0.0342 -0.0372
 9301SOL    HW130858   1.701   6.968  10.649  0.6034 -0.3442  1.3826
 9301SOL    HW230859   1.675   6.833  10.712  0.2335 -1.2858 -0.6917
 9302SOL     OW30860   8.185   6.113   4.381  0.1395  0.1977 -0.0362
 9302SOL    HW130861   8.200   6.019   4.373  1.9225  0.2952  1.4448
 9302SOL    HW230862   8.097   6.126   4.346 -1.1137 -2.3637  1.8088
 9303SOL     OW30863   7.606   9.961   1.065 -0.1755  0.5623  0.1453
 9303SOL    HW130864   7.542   9.890   1.069 -0.4583  0.8446  0.7736
 9303SOL    HW230865   7.653   9.946   0.983 -0.3249 -0.2663  0.2047
 9304SOL     OW30866   7.437   5.823   5.458  0.7124  0.1395 -0.1301
 9304SOL    HW130867   7.495   5.849   5.387  2.6705  0.6799  1.5872
 9304SOL    HW230868   7.359   5.877   5.445  1.1077  0.3804 -1.7233
 9305SOL     OW30869   5.305   8.936   2.067 -0.2609 -0.1224  0.0841
 9305SOL    HW130870   5.354   8.983   2.134 -1.8474  0.8196  0.6511
 9305SOL    HW230871   5.366   8.871   2.033  1.3712  1.0363  0.6866
 9306SOL     OW30872   4.939   4.635  10.173  0.3140  0.2784  0.0843
 9306SOL    HW130873   4.952   4.717  10.220  0.5967  0.0228  0.4611
 9306SOL    HW230874   4.857   4.600  10.208  0.0684  0.5217 -0.2536
 9307SOL     OW30875   9.327   9.110   2.422 -0.0227 -0.0901  0.5912
 9307SOL    HW130876   9.315   9.018   2.400  1.2805  0.1796 -1.6681
 9307SOL    HW230877   9.239   9.147   2.424 -0.4485 -0.8755 -1.3070
 9308SOL     OW30878   9.071   8.684   0.009  0.0636 -0.0030 -0.3730
 9308SOL    HW130879   9.162   8.697  -0.017 -0.0846 -0.3535 -1.0928
 9308SOL    HW230880   9.034   8.629  -0.060 -1.0630  1.2655 -0.8281
 9309SOL     OW30881   5.545   6.658   0.573 -0.4295 -0.4853 -0.4817
 9309SOL    HW130882   5.542   6.732   0.512 -0.1880 -1.5361 -1.8037
 9309SOL    HW230883   5.624   6.610   0.549 -0.3221 -0.9244  0.6784
 9310SOL     OW30884   5.592   5.173   9.090  0.1165 -0.3424 -0.5894
 9310SOL    HW130885   5.559   5.230   9.159  0.6489  1.2890 -1.6260
 9310SOL    HW230886   5.528   5.102   9.085 -2.0836  1.5568 -1.0521
 9311SOL     OW30887   7.434   6.342   1.406  0.2434 -0.5959  0.6020
 9311SOL    HW130888   7.394   6.277   1.349  2.1214 -1.3635  0.0881
 9311SOL    HW230889   7.486   6.291   1.468  1.9567  0.3694  0.0294
 9312SOL     OW30890   1.593   6.013   5.489  0.1134  0.3674  0.2659
 9312SOL    HW130891   1.506   5.974   5.483  1.0012 -1.5658 -0.7163
 9312SOL    HW230892   1.576   6.108   5.493 -1.9851  0.1064 -1.0269
 9313SOL     OW30893   6.146   0.809  10.285 -0.2919 -0.7434  0.2545
 9313SOL    HW130894   6.169   0.801  10.193  0.3130  0.5072  0.2919
 9313SOL    HW230895   6.128   0.718  10.313  0.1941 -1.2075 -0.8976
 9314SOL     OW30896   7.018   2.719   3.016  0.4134 -0.2855 -0.3576
 9314SOL    HW130897   7.054   2.709   2.928 -0.6835 -1.7726 -0.6746
 9314SOL    HW230898   7.017   2.814   3.031  0.1348  0.0273 -2.1617
 9315SOL     OW30899   7.551   9.646   1.140  0.1265 -0.5751  0.0608
 9315SOL    HW130900   7.513   9.640   1.053  1.2659  1.1095 -0.6013
 9315SOL    HW230901   7.516   9.570   1.187 -1.2860 -0.9639 -1.5374
 9316SOL     OW30902   7.946   9.844   8.736  0.1632 -0.7482  0.7233
 9316SOL    HW130903   8.020   9.888   8.777 -0.0248 -1.4268  1.8189
 9316SOL    HW230904   7.877   9.911   8.735  0.4305 -0.4686  0.7359
 9317SOL     OW30905   9.597   3.818   5.602  0.4313  0.6742  0.6303
 9317SOL    HW130906   9.505   3.816   5.577  0.0409 -1.2897  2.0021
 9317SOL    HW230907   9.633   3.734   5.572  0.3232 -1.0870  4.7459
 9318SOL     OW30908   5.249   4.553   3.242  0.4678 -0.1379 -0.1264
 9318SOL    HW130909   5.199   4.634   3.235 -0.7034 -0.8653 -0.5003
 9318SOL    HW230910   5.294   4.560   3.326  0.0368  0.7101  0.0457
 9319SOL     OW30911   5.084   5.189   7.623  0.2542  0.3325 -0.1947
 9319SOL    HW130912   5.071   5.218   7.713 -2.3428 -0.9977 -0.0437
 9319SOL    HW230913   5.054   5.097   7.623 -2.2284  0.9815 -2.8424
 9320SOL     OW30914   5.763   1.063   1.104 -0.3277  0.2800  0.3426
 9320SOL    HW130915   5.824   1.120   1.150 -0.3680  1.6695 -1.1944
 9320SOL    HW230916   5.708   1.026   1.172  2.1306 -0.9717  1.7820
 9321SOL     OW30917   8.845   1.503   0.446  0.1129  0.1329 -0.1144
 9321SOL    HW130918   8.867   1.521   0.538  0.7981 -0.2934 -0.1900
 9321SOL    HW230919   8.861   1.586   0.402 -0.4192  0.3987  0.1862
 9322SOL     OW30920   7.056   0.400   3.040 -0.3733 -0.5325  0.0556
 9322SOL    HW130921   6.995   0.396   3.114 -1.2509  1.1104 -0.5300
 9322SOL    HW230922   7.103   0.482   3.052  0.0922 -0.6742 -0.7535
 9323SOL     OW30923   2.234   9.111   4.620  0.0981  0.2209 -0.2016
 9323SOL    HW130924   2.193   9.050   4.558  0.4117 -0.9985  0.7473
 9323SOL    HW230925   2.244   9.060   4.700 -0.4823  1.8242  0.9346
 9324SOL     OW30926   7.615   1.939   8.100  0.5170 -0.5973 -0.5627
 9324SOL    HW130927   7.634   1.922   8.192 -0.4703  0.2160 -0.1922
 9324SOL    HW230928   7.561   1.864   8.073 -1.1252  0.2777  0.1766
 9325SOL     OW30929   9.136   6.311   4.892  0.2513 -0.6008  0.3281
 9325SOL    HW130930   9.173   6.338   4.976  0.0224  2.6487 -0.4679
 9325SOL    HW230931   9.042   6.321   4.903  0.1583 -1.0453 -0.0395
 9326SOL     OW30932   2.279   1.822   3.062 -0.7667  0.2983  0.1605
 9326SOL    HW130933   2.223   1.822   2.985  0.5122 -1.3841 -0.8177
 9326SOL    HW230934   2.337   1.898   3.050  0.7921 -1.0841 -1.6460
 9327SOL     OW30935   5.785   6.068   1.831 -0.3215  0.3035  0.1070
 9327SOL    HW130936   5.725   6.113   1.890  0.3620  1.2317  0.1023
 9327SOL    HW230937   5.729   6.037   1.760 -1.0146 -0.0613  0.7862
 9328SOL     OW30938   7.993   4.192   4.157  0.1245  0.5357 -0.2397
 9328SOL    HW130939   7.956   4.274   4.123  1.2590  1.1801  0.0476
 9328SOL    HW230940   7.934   4.124   4.124 -0.7248  1.4419 -0.6456
 9329SOL     OW30941   9.317   9.152   8.233  0.1744 -0.1029 -0.0252
 9329SOL    HW130942   9.362   9.143   8.148 -0.7208  1.2738 -0.6863
 9329SOL    HW230943   9.261   9.075   8.239  0.1999 -0.1851 -0.7260
 9330SOL     OW30944   8.234   7.022   2.277  0.7101  0.0047  0.0221
 9330SOL    HW130945   8.315   7.058   2.241  0.6721 -0.0022 -0.0699
 9330SOL    HW230946   8.181   7.098   2.299  0.4230  0.0027 -0.6370
 9331SOL     OW30947   1.308   0.961   5.546  0.3126 -0.3968  0.2604
 9331SOL    HW130948   1.228   1.004   5.574  0.0833  0.9745 -2.2014
 9331SOL    HW230949   1.297   0.870   5.574 -2.2716 -0.3320 -0.2687
 9332SOL     OW30950   1.526   2.150   0.772  0.2149  0.4499  0.2605
 9332SOL    HW130951   1.468   2.213   0.814  0.6642  1.6444 -0.8410
 9332SOL    HW230952   1.597   2.137   0.836 -0.2361  0.5137  0.7836
 9333SOL     OW30953   8.104   6.447   7.918  0.0553 -0.0624 -0.2864
 9333SOL    HW130954   8.048   6.385   7.870 -1.5110  1.3116 -0.3130
 9333SOL    HW230955   8.192   6.433   7.882 -0.3314 -1.9035 -0.6391
 9334SOL     OW30956   2.865   9.703   5.776  0.2232 -0.0030  0.2954
 9334SOL    HW130957   2.864   9.798   5.788 -0.5287  0.5226 -2.9618
 9334SOL    HW230958   2.784   9.673   5.816 -0.7918  1.1361 -0.8102
 9335SOL     OW30959   9.616   1.546   4.604  0.1100 -0.1639  0.0662
 9335SOL    HW130960   9.601   1.531   4.697 -0.0853 -0.7942 -0.0663
 9335SOL    HW230961   9.640   1.461   4.568 -1.9591 -0.4321 -0.8685
 9336SOL     OW30962   9.958   5.279   6.872 -0.3376  0.6326 -0.1070
 9336SOL    HW130963   9.892   5.314   6.812 -1.9528 -1.7612  0.1570
 9336SOL    HW230964   9.920   5.291   6.959 -0.8726 -1.4784 -0.0021
 9337SOL     OW30965   3.118   8.481   3.308  0.2939  0.0756 -0.0326
 9337SOL    HW130966   3.084   8.570   3.304  0.3179  0.0475 -3.1457
 9337SOL    HW230967   3.205   8.487   3.270  1.0069 -1.0259  1.3492
 9338SOL     OW30968   6.914   2.488   6.548 -1.1002 -0.3434 -0.1313
 9338SOL    HW130969   6.893   2.517   6.636  1.0498 -2.9346  1.3696
 9338SOL    HW230970   6.838   2.434   6.522 -1.0673 -0.8453  0.7902
 9339SOL     OW30971   5.605   5.238   0.505  0.0487 -0.8909 -0.3541
 9339SOL    HW130972   5.514   5.270   0.499  0.3194  0.4978  1.7310
 9339SOL    HW230973   5.658   5.315   0.485  0.7419 -1.0418  0.8233
 9340SOL     OW30974   3.112   5.485   9.443  0.1842  0.0429  0.0007
 9340SOL    HW130975   3.178   5.482   9.513  0.4797 -0.5995 -0.2920
 9340SOL    HW230976   3.131   5.565   9.395  0.0369  0.4439  0.5978
 9341SOL     OW30977   5.205   0.389   5.083 -0.0825 -0.5426 -0.1635
 9341SOL    HW130978   5.166   0.473   5.060  0.5687  0.2147  1.3664
 9341SOL    HW230979   5.234   0.352   5.000  2.3098  2.1048 -0.6421
 9342SOL     OW30980   3.417   1.979   6.819 -0.0316 -0.5368  0.7101
 9342SOL    HW130981   3.445   2.066   6.790  0.4422 -0.8430  0.2268
 9342SOL    HW230982   3.403   1.930   6.738  1.2432 -1.3888  0.9693
 9343SOL     OW30983   5.685   4.088   6.939  0.2883  0.5749  0.3195
 9343SOL    HW130984   5.711   4.055   6.853  0.7390 -0.9661  1.0010
 9343SOL    HW230985   5.712   4.180   6.940  0.4947  0.5419 -1.0824
 9344SOL     OW30986   4.622   9.698   8.881  0.1601  0.1175  1.0216
 9344SOL    HW130987   4.566   9.704   8.958 -1.4931  0.2314 -0.1437
 9344SOL    HW230988   4.623   9.786   8.845  2.4846  0.5326  1.8994
 9345SOL     OW30989   0.483   5.527   7.753 -0.3511  0.2503 -0.4820
 9345SOL    HW130990   0.435   5.602   7.787 -1.1970  1.2887 -3.6235
 9345SOL    HW230991   0.573   5.558   7.744  0.2415 -0.5181  1.9592
 9346SOL     OW30992   8.525   9.757   3.043 -0.0107 -0.0775  0.1881
 9346SOL    HW130993   8.504   9.850   3.045  0.1273 -0.0145 -1.0036
 9346SOL    HW230994   8.616   9.753   3.072 -0.0983  0.1249  0.5038
 9347SOL     OW30995   3.192   3.480   6.638  0.2666 -0.1005 -0.4249
 9347SOL    HW130996   3.246   3.408   6.605 -1.3720 -0.8245 -1.6289
 9347SOL    HW230997   3.138   3.440   6.706 -2.0021 -0.5768 -2.3669
 9348SOL     OW30998   7.619  10.123   5.663 -1.0021  0.0837  0.3198
 9348SOL    HW130999   7.692  10.177   5.695 -1.3360  0.0852  1.1106
 9348SOL    HW231000   7.550  10.136   5.729 -0.9786 -1.5646  0.7041
 9349SOL     OW31001   4.992  10.205   8.639 -0.1174  0.1356 -0.4207
 9349SOL    HW131002   5.001  10.287   8.688 -1.1737  0.4917 -0.7930
 9349SOL    HW231003   4.968  10.140   8.705  1.1850  0.0042 -0.0467
 9350SOL     OW31004   8.168   6.523   7.217 -0.4615  0.9881  0.0379
 9350SOL    HW131005   8.207   6.579   7.284 -0.0127  1.4783 -0.6137
 9350SOL    HW231006   8.174   6.575   7.136  1.6633 -0.6560 -0.9706
 9351SOL     OW31007   7.708   3.355   9.479 -0.5697 -0.3336 -0.2534
 9351SOL    HW131008   7.765   3.395   9.544 -0.9575 -1.6351  0.9218
 9351SOL    HW231009   7.673   3.429   9.429  0.5183  0.6129  0.3428
 9352SOL     OW31010   9.277   5.835   7.390  0.1610 -0.0551  0.5460
 9352SOL    HW131011   9.289   5.745   7.360  0.3200 -0.4012  1.6131
 9352SOL    HW231012   9.184   5.852   7.380  0.2381 -0.0941 -0.3070
 9353SOL     OW31013   0.411   8.223  10.325 -0.2219  0.2302 -0.5636
 9353SOL    HW131014   0.480   8.275  10.366  0.4815 -1.3204  0.3156
 9353SOL    HW231015   0.439   8.212  10.234  0.5152 -0.0475 -0.3110
 9354SOL     OW31016   5.879   1.058   2.819 -0.1389 -0.4588  1.1531
 9354SOL    HW131017   5.844   0.969   2.809  2.9408 -1.8650  1.8054
 9354SOL    HW231018   5.898   1.086   2.729 -1.6505 -0.1542  0.8942
 9355SOL     OW31019   6.976   7.320   5.974  0.1684 -0.7256  0.0724
 9355SOL    HW131020   7.071   7.312   5.981  0.3274 -0.3751 -1.4419
 9355SOL    HW231021   6.956   7.300   5.883 -0.7675  2.6974 -0.6193
 9356SOL     OW31022   2.468   1.449   3.922  0.0582 -0.1153  0.1146
 9356SOL    HW131023   2.439   1.503   3.848  0.2413  0.5801  0.5468
 9356SOL    HW231024   2.413   1.478   3.995  1.9598  1.4187  1.0286
 9357SOL     OW31025   3.380   2.588   0.287  0.1564  0.0900  0.7209
 9357SOL    HW131026   3.288   2.592   0.314 -0.2516 -0.3171 -0.5325
 9357SOL    HW231027   3.379   2.534   0.209  1.0407  2.4988 -1.0631
 9358SOL     OW31028   8.030   5.131   4.103 -0.5646 -0.3568 -0.3674
 9358SOL    HW131029   8.026   5.108   4.196 -0.9979 -0.3916 -0.3944
 9358SOL    HW231030   8.104   5.192   4.097 -1.1385  0.4086  0.1584
 9359SOL     OW31031   8.058   9.068   0.418  0.3238 -0.2595  0.1450
 9359SOL    HW131032   8.068   8.976   0.441 -1.3516  0.0492  2.5225
 9359SOL    HW231033   8.086   9.115   0.496 -0.8473  1.1441 -0.2371
 9360SOL     OW31034   0.174   1.948   8.441  0.0983  0.2076  0.3940
 9360SOL    HW131035   0.102   2.007   8.463 -0.3604 -0.6474  1.2714
 9360SOL    HW231036   0.143   1.862   8.469  0.5205 -0.5555 -1.4047
 9361SOL     OW31037   2.001   1.634   7.074 -0.1027  0.3445 -0.3452
 9361SOL    HW131038   2.018   1.599   6.987 -2.3139 -3.3614  0.4622
 9361SOL    HW231039   1.907   1.653   7.074 -0.2064  0.0176  1.2432
 9362SOL     OW31040   8.016   7.000   4.000 -0.4445 -0.1719 -0.6456
 9362SOL    HW131041   8.091   7.035   4.048 -0.6596  0.2662 -0.6168
 9362SOL    HW231042   8.029   7.030   3.910 -1.1807  0.9288 -0.4081
 9363SOL     OW31043   2.470   0.045   3.588 -0.1491 -0.2028  0.4145
 9363SOL    HW131044   2.513  -0.037   3.566 -0.6465 -0.3848  0.0930
 9363SOL    HW231045   2.424   0.070   3.507  0.6063  0.7754  0.2706
 9364SOL     OW31046   5.599   6.315   3.503 -0.3842  0.0684  0.3756
 9364SOL    HW131047   5.689   6.303   3.532 -0.5882  0.7519  1.3711
 9364SOL    HW231048   5.595   6.407   3.475 -0.4954 -0.2681 -0.7545
 9365SOL     OW31049   4.652   0.371   9.880  0.0368  0.7323  0.2868
 9365SOL    HW131050   4.667   0.399   9.789  2.4990 -0.6979  0.1638
 9365SOL    HW231051   4.662   0.451   9.932  0.5557  1.2217 -0.5471
 9366SOL     OW31052   4.249   9.571   5.247 -0.2070  0.5879  0.6037
 9366SOL    HW131053   4.239   9.621   5.166 -0.8168  0.5310  0.6360
 9366SOL    HW231054   4.304   9.496   5.222  0.9293  1.3929  0.6199
 9367SOL     OW31055   4.542   0.732   2.553 -0.4676  0.3004 -0.2683
 9367SOL    HW131056   4.634   0.759   2.549 -0.1338 -0.5034  1.1146
 9367SOL    HW231057   4.499   0.781   2.484  1.2492 -0.3031 -1.8418
 9368SOL     OW31058   7.567   9.403  10.172  0.6632 -0.9043  0.0722
 9368SOL    HW131059   7.530   9.316  10.185 -2.3797  0.1841 -0.3409
 9368SOL    HW231060   7.597   9.403  10.081 -0.9166 -1.0608 -0.4838
 9369SOL     OW31061   6.769   1.361   2.644 -0.0977  0.1005  0.1331
 9369SOL    HW131062   6.677   1.338   2.650 -0.2735  0.7669  0.0641
 9369SOL    HW231063   6.774   1.449   2.681  0.4214  0.2773 -0.3382
 9370SOL     OW31064   9.013   0.811   3.362  0.6530 -0.7359  0.3096
 9370SOL    HW131065   9.078   0.835   3.296  0.6255 -1.3642  0.0509
 9370SOL    HW231066   8.930   0.810   3.315  0.1682  1.6946  0.9858
 9371SOL     OW31067   2.231   4.956   5.853  0.7062 -0.0878  0.1076
 9371SOL    HW131068   2.135   4.953   5.845  0.6326  2.2782 -0.4669
 9371SOL    HW231069   2.247   4.991   5.940  1.1030 -1.4090  0.5879
 9372SOL     OW31070   1.492   6.670   8.701 -0.1288  0.4150  0.5531
 9372SOL    HW131071   1.478   6.579   8.727  1.0892  0.1271  0.2554
 9372SOL    HW231072   1.424   6.687   8.635  0.9907 -0.9998 -1.0436
 9373SOL     OW31073   0.043   5.602   7.346 -0.2417 -0.0243  0.4264
 9373SOL    HW131074   0.032   5.687   7.389 -0.7679  0.9517 -1.4848
 9373SOL    HW231075  -0.044   5.564   7.344 -0.2401 -0.0209  0.1862
 9374SOL     OW31076   1.468   7.997   2.851 -0.0128  0.3051  0.3862
 9374SOL    HW131077   1.442   7.933   2.918 -0.6150  0.2279  0.0878
 9374SOL    HW231078   1.385   8.025   2.812  0.3414  0.1376 -0.5174
 9375SOL     OW31079   0.366   2.275  10.292  0.0909  0.5879 -0.4047
 9375SOL    HW131080   0.447   2.322  10.308 -0.2892  1.1757 -0.1635
 9375SOL    HW231081   0.393   2.190  10.257  1.0578 -0.7546  3.0901
 9376SOL     OW31082   6.861   5.652   5.826  0.2383 -0.3023 -0.2085
 9376SOL    HW131083   6.878   5.657   5.920  0.4225  0.5722 -0.2766
 9376SOL    HW231084   6.901   5.569   5.799 -0.2140 -0.7811  0.5547
 9377SOL     OW31085   7.730   2.647   3.156  0.6925 -0.8456  1.2465
 9377SOL    HW131086   7.672   2.591   3.209  0.9838 -0.2983  2.1649
 9377SOL    HW231087   7.780   2.585   3.104  1.1179 -1.4768  2.3558
 9378SOL     OW31088   2.321   4.585   8.214  0.3256 -0.2141 -0.2203
 9378SOL    HW131089   2.362   4.583   8.128  1.9497 -1.1993  0.5278
 9378SOL    HW231090   2.333   4.676   8.244  0.5463 -0.0932 -0.6687
 9379SOL     OW31091   2.368   3.424   2.867 -0.0938 -0.0357 -0.0891
 9379SOL    HW131092   2.379   3.374   2.787 -1.6023  1.1885 -1.1353
 9379SOL    HW231093   2.279   3.404   2.896  0.8083 -1.3532  1.9709
 9380SOL     OW31094   9.901   8.376   2.209  0.4696  0.4784 -0.0275
 9380SOL    HW131095   9.806   8.374   2.220  0.3647 -0.3376 -0.9651
 9380SOL    HW231096   9.934   8.308   2.268  0.6375  1.9009  1.5815
 9381SOL     OW31097   8.011   3.172   9.879  0.3067  0.5059  0.3194
 9381SOL    HW131098   7.948   3.226   9.831  0.2094  1.9520  1.9966
 9381SOL    HW231099   8.046   3.230   9.947  3.0094 -0.4372 -0.1490
 9382SOL     OW31100   7.506   7.398   4.662 -0.4408 -0.2211  0.1110
 9382SOL    HW131101   7.434   7.453   4.632  0.3840  0.8058 -0.0345
 9382SOL    HW231102   7.560   7.384   4.585 -0.8356 -1.6051  0.0441
 9383SOL     OW31103   1.731   4.752   8.727 -0.3772 -0.3453  0.0901
 9383SOL    HW131104   1.754   4.825   8.785 -1.5871  2.0941 -2.2238
 9383SOL    HW231105   1.635   4.754   8.724 -0.4105 -1.7371 -0.4154
 9384SOL     OW31106   8.448   7.809   4.316 -0.7903  0.4409  0.0113
 9384SOL    HW131107   8.493   7.838   4.237 -0.7639  3.6049  1.0388
 9384SOL    HW231108   8.512   7.752   4.360  0.9491  2.0930 -0.2238
 9385SOL     OW31109   0.338   4.425   1.697 -0.2091 -0.4056  0.0098
 9385SOL    HW131110   0.405   4.479   1.741 -0.9985  0.7183 -0.1148
 9385SOL    HW231111   0.346   4.339   1.738  1.3025 -0.2988  0.0049
 9386SOL     OW31112   4.157   7.166   9.591 -0.8201 -0.3003  0.4006
 9386SOL    HW131113   4.078   7.152   9.644 -0.2760 -0.6099  1.1428
 9386SOL    HW231114   4.221   7.104   9.626 -0.2089  0.0202 -0.1268
 9387SOL     OW31115   6.210   5.624   0.178 -0.0388 -0.3872  0.1892
 9387SOL    HW131116   6.271   5.696   0.164 -0.5237  0.0980  0.5561
 9387SOL    HW231117   6.146   5.658   0.240 -1.0549 -0.6738 -0.6776
 9388SOL     OW31118  10.057   4.643   2.253 -0.3195 -0.0890  0.5581
 9388SOL    HW131119  10.102   4.722   2.223 -1.1995  0.1728 -0.0989
 9388SOL    HW231120  10.127   4.586   2.285  0.2258  1.6018  2.6096
 9389SOL     OW31121   8.988   9.363   4.800  0.4524 -0.0617  0.5168
 9389SOL    HW131122   8.986   9.458   4.785 -2.3084  0.0707  1.1640
 9389SOL    HW231123   9.026   9.327   4.720  3.2893  1.6195  0.9587
 9390SOL     OW31124   2.665   0.924   0.757  0.6918  0.3205 -0.1004
 9390SOL    HW131125   2.692   0.868   0.684  0.0670 -0.7500  0.4539
 9390SOL    HW231126   2.720   0.896   0.830 -1.4781 -1.6407  0.9458
 9391SOL     OW31127   1.447   0.270   8.687  0.6202  0.4672 -0.4848
 9391SOL    HW131128   1.480   0.226   8.609 -1.4473  0.9797 -1.7306
 9391SOL    HW231129   1.436   0.362   8.660  1.8286  1.1294  1.0789
 9392SOL     OW31130   6.541   1.738   5.128 -0.5141 -0.3863 -0.5149
 9392SOL    HW131131   6.557   1.816   5.180 -0.5177 -1.6527  1.5034
 9392SOL    HW231132   6.455   1.752   5.088  0.3324  1.4448 -1.8716
 9393SOL     OW31133   8.405   8.928   8.395  0.2120  0.1597 -0.3018
 9393SOL    HW131134   8.405   8.878   8.314 -0.6805  1.3457 -1.0736
 9393SOL    HW231135   8.327   8.897   8.441  0.7880 -0.6055  0.1882
 9394SOL     OW31136   5.975   2.568   6.027  0.2271 -0.7739  0.5682
 9394SOL    HW131137   6.028   2.492   6.005 -2.7389 -3.1378  0.9753
 9394SOL    HW231138   5.885   2.534   6.035 -0.8191  2.0891  4.0754
 9395SOL     OW31139   7.692   6.376   2.933 -0.3028  0.0759  0.0320
 9395SOL    HW131140   7.634   6.426   2.991  2.0980  0.0562  2.6557
 9395SOL    HW231141   7.730   6.442   2.875  1.7437  1.2183  2.5099
 9396SOL     OW31142   5.405   0.429   9.568 -0.2053  1.3118 -0.3142
 9396SOL    HW131143   5.496   0.401   9.556  0.2415  3.4779 -2.8212
 9396SOL    HW231144   5.412   0.513   9.615 -1.0829  0.6292  1.1086
 9397SOL     OW31145   2.939   4.440   7.235 -0.7708 -0.0930  0.0623
 9397SOL    HW131146   2.979   4.459   7.320  0.5537 -0.1042 -0.5322
 9397SOL    HW231147   2.845   4.456   7.248 -0.4733  0.8043  1.2628
 9398SOL     OW31148   4.611   3.669   8.055 -0.3090  0.4247  0.4618
 9398SOL    HW131149   4.667   3.747   8.053 -0.7036  0.7252  0.8785
 9398SOL    HW231150   4.540   3.693   8.114 -0.8769  0.0468 -0.0632
 9399SOL     OW31151   8.979   3.300   1.705 -0.4812 -0.3981 -0.1226
 9399SOL    HW131152   8.987   3.395   1.719 -2.1724 -0.0355 -1.2619
 9399SOL    HW231153   8.922   3.270   1.776 -3.0455  0.1650 -1.8036
 9400SOL     OW31154   2.589   4.079   9.777 -0.0138  0.2256  0.3894
 9400SOL    HW131155   2.627   4.113   9.696 -0.2764 -0.1017  0.1212
 9400SOL    HW231156   2.623   3.989   9.784 -1.2887 -0.3303 -0.2418
 9401SOL     OW31157   8.736   4.646  10.269 -0.5150 -0.3036 -0.2737
 9401SOL    HW131158   8.645   4.674  10.280 -0.0310  1.4990 -0.4798
 9401SOL    HW231159   8.768   4.634  10.359 -0.7043 -0.0114 -0.1633
 9402SOL     OW31160   4.706   7.196   7.594 -0.3819 -0.0564  0.3417
 9402SOL    HW131161   4.733   7.286   7.611  0.3218 -0.4139  1.2038
 9402SOL    HW231162   4.627   7.204   7.541  0.1075  1.0566 -0.2467
 9403SOL     OW31163   8.990   5.057   2.055 -0.0739  0.6036 -0.0324
 9403SOL    HW131164   9.041   4.977   2.051  0.0365  0.7022 -0.6874
 9403SOL    HW231165   8.934   5.054   1.978 -1.4329  0.2518  0.9219
 9404SOL     OW31166   7.167   3.143   1.155 -0.2099  0.1285 -0.7540
 9404SOL    HW131167   7.080   3.182   1.158 -0.1279  0.2906 -0.2891
 9404SOL    HW231168   7.155   3.059   1.112 -0.3519  0.7573 -1.9719
 9405SOL     OW31169   9.885   8.922   6.215  0.0711  0.0361 -0.1155
 9405SOL    HW131170   9.807   8.971   6.190 -0.6263 -0.6874  0.5962
 9405SOL    HW231171   9.855   8.832   6.227  1.2126 -0.4629 -0.8061
 9406SOL     OW31172   4.574   0.427   0.845 -0.1484  0.0027 -0.0270
 9406SOL    HW131173   4.513   0.381   0.902  1.5227  0.6283  2.4322
 9406SOL    HW231174   4.620   0.358   0.797  1.1513 -0.8932  2.3509
 9407SOL     OW31175   6.338   3.312   3.146 -0.3164 -0.5739 -0.4795
 9407SOL    HW131176   6.404   3.379   3.161 -2.2660  1.0844  1.5188
 9407SOL    HW231177   6.372   3.234   3.189  0.0581  0.4973  1.3189
 9408SOL     OW31178   9.911   7.430   0.481 -0.5248 -0.4822 -0.0233
 9408SOL    HW131179   9.826   7.470   0.465 -0.0388  0.4896 -0.3340
 9408SOL    HW231180   9.956   7.435   0.396 -0.0020 -0.5671  0.2435
 9409SOL     OW31181   6.343   8.483   6.785  0.3836  0.2213 -0.2104
 9409SOL    HW131182   6.416   8.544   6.781 -1.4904  2.8894  2.4036
 9409SOL    HW231183   6.321   8.478   6.878 -1.7843 -1.7160 -0.7309
 9410SOL     OW31184   3.403   7.816   8.815 -0.0991 -0.3403  0.1248
 9410SOL    HW131185   3.433   7.727   8.828  0.4461 -0.2737 -0.6326
 9410SOL    HW231186   3.314   7.807   8.782  0.2968 -0.6423 -0.8921
 9411SOL     OW31187   9.924   9.211   7.739 -0.2268  0.5921 -0.2639
 9411SOL    HW131188   9.958   9.288   7.694 -0.8427  0.6442 -0.6462
 9411SOL    HW231189   9.940   9.228   7.832  1.0358  0.4871 -0.4516
 9412SOL     OW31190   8.776   0.342   2.989 -0.3179  0.2893 -0.4029
 9412SOL    HW131191   8.757   0.267   2.933  1.0694  0.5007 -1.1949
 9412SOL    HW231192   8.812   0.408   2.930  0.2294  0.8923  0.5728
 9413SOL     OW31193   1.749   8.306   3.115 -0.1430  0.3826 -0.4513
 9413SOL    HW131194   1.663   8.287   3.078  0.1817 -0.3201 -0.8660
 9413SOL    HW231195   1.810   8.288   3.044  0.2721  2.1294 -0.5891
 9414SOL     OW31196   1.969   1.811   0.472  0.1706 -0.1792  0.1601
 9414SOL    HW131197   1.945   1.855   0.553 -0.1857  1.4515 -0.7791
 9414SOL    HW231198   1.995   1.724   0.499 -0.1783  0.2378  1.9944
 9415SOL     OW31199   3.744   9.195  10.253 -0.8874  0.1572 -0.0932
 9415SOL    HW131200   3.672   9.237  10.207 -0.0396  2.5833  0.6309
 9415SOL    HW231201   3.747   9.239  10.338  1.0379 -0.3195  0.1343
 9416SOL     OW31202   7.594   9.636   6.883  0.7436  0.1605  0.1803
 9416SOL    HW131203   7.533   9.707   6.904 -0.2442 -0.7902  0.5597
 9416SOL    HW231204   7.542   9.573   6.833  1.8914  0.1981 -1.1295
 9417SOL     OW31205   2.516   9.039   7.858  0.4487 -0.1186  0.1875
 9417SOL    HW131206   2.568   9.046   7.938 -0.9665  0.6784  1.0751
 9417SOL    HW231207   2.573   9.072   7.789  1.0967  0.8435  1.1484
 9418SOL     OW31208   7.121   5.149   6.475  0.0138 -0.3586 -0.2128
 9418SOL    HW131209   7.120   5.126   6.382  1.4888 -0.4047 -0.2392
 9418SOL    HW231210   7.190   5.094   6.513 -0.0365  0.2250  0.7650
 9419SOL     OW31211   1.914   4.230   0.719  0.3961  0.2536 -0.3341
 9419SOL    HW131212   2.002   4.260   0.743  0.3883  0.7694 -0.9408
 9419SOL    HW231213   1.890   4.283   0.643 -0.4043  0.0520 -0.2306
 9420SOL     OW31214   9.789   0.014  10.336  0.3203 -0.0009 -0.2400
 9420SOL    HW131215   9.738   0.007  10.417  0.0328 -0.7379 -0.4746
 9420SOL    HW231216   9.730   0.055  10.274  0.3110 -0.0440 -0.2598
 9421SOL     OW31217   9.808   4.333   5.563  0.1641 -0.0427 -0.2846
 9421SOL    HW131218   9.823   4.239   5.562 -0.0963 -0.1307  1.4659
 9421SOL    HW231219   9.717   4.343   5.593  0.7437  0.7661  1.3545
 9422SOL     OW31220   1.274   5.559   6.692  0.7789  0.2308  0.6029
 9422SOL    HW131221   1.354   5.511   6.669  1.0547  0.4894  1.0223
 9422SOL    HW231222   1.295   5.650   6.673  0.0166  0.1442 -0.8806
 9423SOL     OW31223   3.657   8.132   8.059  0.2170  0.3002  0.0168
 9423SOL    HW131224   3.589   8.190   8.092  0.7248  1.0840 -0.2737
 9423SOL    HW231225   3.625   8.102   7.974  0.1218  0.4734 -0.0082
 9424SOL     OW31226   2.882  10.091   7.488  0.1100  0.0989 -0.2275
 9424SOL    HW131227   2.943  10.021   7.509 -2.9736 -2.4131  1.0728
 9424SOL    HW231228   2.907  10.119   7.400  1.6689 -2.3938 -0.6565
 9425SOL     OW31229   8.143   0.972   6.441  0.0271 -0.7396 -0.0535
 9425SOL    HW131230   8.114   0.886   6.411  0.9691 -1.5745  1.3131
 9425SOL    HW231231   8.121   1.031   6.369 -1.1255 -2.0184 -0.8015
 9426SOL     OW31232   0.328  10.659   3.837 -0.5081 -0.5370  0.1690
 9426SOL    HW131233   0.354  10.579   3.884  1.1849 -0.0104  0.2057
 9426SOL    HW231234   0.342  10.638   3.745  2.4714  0.4622  0.2837
 9427SOL     OW31235   5.584   7.127   6.222  0.4249  0.1124 -0.5566
 9427SOL    HW131236   5.496   7.156   6.245  0.2660  0.3637 -1.4354
 9427SOL    HW231237   5.622   7.096   6.305  0.5094  2.5717  0.4050
 9428SOL     OW31238   6.076   8.304   9.239  0.6226 -0.7940  0.0397
 9428SOL    HW131239   5.987   8.301   9.202  0.6470  1.0629 -0.2545
 9428SOL    HW231240   6.062   8.309   9.334  0.1673  3.1539 -0.0714
 9429SOL     OW31241   6.712   4.542   4.991  0.2548  0.2208  0.3028
 9429SOL    HW131242   6.641   4.479   5.001  0.7376 -0.2363  0.9090
 9429SOL    HW231243   6.791   4.489   4.988  0.5677  0.7089 -0.6095
 9430SOL     OW31244   2.059   5.261  10.603  0.2641  0.0877  0.3450
 9430SOL    HW131245   1.973   5.300  10.615  0.3844  1.6248 -2.7371
 9430SOL    HW231246   2.120   5.333  10.623  0.7753 -0.4714  0.8340
 9431SOL     OW31247   3.333  10.152   7.360 -0.3673  0.2828  0.7328
 9431SOL    HW131248   3.325  10.130   7.453 -0.8329  1.4832  0.9907
 9431SOL    HW231249   3.379  10.236   7.359 -1.6570  0.9978 -0.0419
 9432SOL     OW31250   1.078   6.687   9.265 -0.0737 -0.4083 -0.4091
 9432SOL    HW131251   1.154   6.671   9.321  0.1594  1.7901 -0.0182
 9432SOL    HW231252   1.017   6.736   9.320  0.2258  1.9557 -2.0700
 9433SOL     OW31253   8.301   4.986   7.327  0.5918 -0.4994 -0.2701
 9433SOL    HW131254   8.237   4.916   7.312  1.2030 -1.1479  0.0864
 9433SOL    HW231255   8.275   5.026   7.410 -0.1518  0.1464 -0.8014
 9434SOL     OW31256   5.901   5.168   0.843 -0.2200 -0.4412  0.0280
 9434SOL    HW131257   5.862   5.255   0.853  0.1976 -0.0626 -1.4323
 9434SOL    HW231258   5.984   5.174   0.889 -0.1873 -0.0615 -0.0783
 9435SOL     OW31259   4.430   7.611   0.547 -0.2706  0.1253 -0.5776
 9435SOL    HW131260   4.437   7.527   0.503  0.2684 -0.4897  0.6149
 9435SOL    HW231261   4.360   7.599   0.611  0.9579 -0.0204  0.7917
 9436SOL     OW31262   4.290   4.250   6.208 -0.1758 -0.2433  0.4710
 9436SOL    HW131263   4.284   4.207   6.293  1.9364  0.2590  0.9371
 9436SOL    HW231264   4.282   4.343   6.227 -1.6922 -0.2091 -0.1669
 9437SOL     OW31265   3.687   8.999   0.413  0.9601  0.0639 -0.0214
 9437SOL    HW131266   3.615   8.936   0.416  1.7092 -0.7602  0.9852
 9437SOL    HW231267   3.719   8.994   0.323 -1.0322  1.4021 -0.8928
 9438SOL     OW31268   5.188   8.601   0.704  0.2055  0.2873 -0.8469
 9438SOL    HW131269   5.164   8.664   0.771  0.2030 -0.8258  0.2488
 9438SOL    HW231270   5.266   8.557   0.740 -0.6832 -1.3605 -0.8461
 9439SOL     OW31271   5.007   1.133   5.696 -0.0030  0.9385  0.0355
 9439SOL    HW131272   5.025   1.089   5.613  1.2694  2.5143 -0.5845
 9439SOL    HW231273   4.922   1.175   5.683 -0.7131 -0.3982  0.2503
 9440SOL     OW31274   3.256   8.147   2.285 -0.8309  0.3181 -0.2097
 9440SOL    HW131275   3.253   8.062   2.240 -0.9652 -0.1815  0.7222
 9440SOL    HW231276   3.170   8.156   2.326 -0.7525  0.8200 -0.1437
 9441SOL     OW31277   1.753  10.170   9.669  0.3557 -0.0993  0.0198
 9441SOL    HW131278   1.757  10.098   9.732 -0.8597  0.3339  0.6158
 9441SOL    HW231279   1.698  10.136   9.598  2.5996 -0.9888 -1.3998
 9442SOL     OW31280   4.429   1.717   7.195 -0.3084 -0.2719 -0.1538
 9442SOL    HW131281   4.466   1.643   7.148  0.3542 -0.5561  0.7775
 9442SOL    HW231282   4.334   1.709   7.182 -0.1789 -0.7134 -0.8714
 9443SOL     OW31283   8.037   9.969   4.647 -0.1626 -0.3804  0.5173
 9443SOL    HW131284   7.983  10.048   4.658 -2.3660 -1.5787 -0.8888
 9443SOL    HW231285   8.117  10.000   4.605 -0.3080  1.3003  1.4006
 9444SOL     OW31286   1.516   2.632   6.629  0.3639  0.3401 -0.3330
 9444SOL    HW131287   1.440   2.679   6.662  0.7745  2.0292 -1.6289
 9444SOL    HW231288   1.483   2.546   6.603 -0.3261 -0.3784  2.5407
 9445SOL     OW31289   8.360   2.191  10.340  0.2602  0.1067 -0.6137
 9445SOL    HW131290   8.368   2.239  10.258  1.4263  1.3148  0.1618
 9445SOL    HW231291   8.416   2.239  10.401  0.1400 -1.2893  0.6510
 9446SOL     OW31292   4.532   4.143   2.280  0.2406  0.1790 -0.0163
 9446SOL    HW131293   4.567   4.232   2.284 -1.5062  0.8817  3.3426
 9446SOL    HW231294   4.527   4.124   2.186  0.4396  3.7099 -0.9042
 9447SOL     OW31295   3.759   5.107   5.195  0.8543  0.3360  0.1896
 9447SOL    HW131296   3.819   5.177   5.222  0.2905  0.8803  0.0575
 9447SOL    HW231297   3.769   5.102   5.100  0.5594  0.5569  0.1445
 9448SOL     OW31298   3.220   8.655  10.156  0.2108  0.3234 -0.1291
 9448SOL    HW131299   3.267   8.613  10.084  1.1240  1.7588 -0.4139
 9448SOL    HW231300   3.208   8.585  10.221  1.0280 -0.5474 -0.8846
 9449SOL     OW31301  10.574   2.621   1.208 -0.4336  0.0366  0.1471
 9449SOL    HW131302  10.650   2.618   1.266 -0.3220 -1.2222 -0.0316
 9449SOL    HW231303  10.610   2.628   1.120 -0.5371 -0.2181  0.0840
 9450SOL     OW31304   3.914  10.266   1.893  0.2774  0.3206 -0.2873
 9450SOL    HW131305   3.976  10.292   1.825  1.5904 -0.6772  0.5053
 9450SOL    HW231306   3.944  10.311   1.972  0.0015 -0.1771  0.1075
 9451SOL     OW31307   9.383   3.097   0.102 -0.3314  0.0909  0.7011
 9451SOL    HW131308   9.352   3.113   0.013 -0.4159  1.3403  0.9280
 9451SOL    HW231309   9.369   3.181   0.147  1.5342  0.1085  1.3355
 9452SOL     OW31310   4.292   7.238   9.887  0.2600  0.6409  0.2046
 9452SOL    HW131311   4.357   7.191   9.834 -0.8403  1.4974 -1.9944
 9452SOL    HW231312   4.273   7.178   9.959 -0.2645 -1.8573 -1.8753
 9453SOL     OW31313   3.078   5.248   6.961  0.2335  0.0187  0.2687
 9453SOL    HW131314   3.170   5.273   6.974  0.2416 -0.1981  0.6480
 9453SOL    HW231315   3.075   5.214   6.872  1.2098 -2.8983  1.2136
 9454SOL     OW31316   1.740   0.086   3.673 -0.6428 -0.1082 -0.2018
 9454SOL    HW131317   1.732   0.159   3.735  1.6680  0.4152 -0.4490
 9454SOL    HW231318   1.782   0.016   3.723 -1.0407 -0.5872 -0.5244
 9455SOL     OW31319   3.797   5.858   2.272 -0.8778  0.4857  0.2995
 9455SOL    HW131320   3.874   5.885   2.322 -0.6948  0.1524  0.1984
 9455SOL    HW231321   3.771   5.775   2.310 -0.7052  0.2023 -0.1946
 9456SOL     OW31322   0.163   3.540   8.489  0.1732  0.3719  0.1987
 9456SOL    HW131323   0.124   3.458   8.458  0.1649  0.3261  0.3302
 9456SOL    HW231324   0.102   3.608   8.459 -0.1586  0.2779  0.6469
 9457SOL     OW31325   4.003   6.579  10.048  0.4451  0.2563 -0.1385
 9457SOL    HW131326   4.076   6.529  10.085  0.9313  0.6990 -0.4955
 9457SOL    HW231327   3.959   6.618  10.125  0.8556  0.3567  0.0459
 9458SOL     OW31328   2.858   0.208   1.519  0.8365 -0.3496 -0.5674
 9458SOL    HW131329   2.764   0.210   1.532  0.9222  0.5831 -0.0118
 9458SOL    HW231330   2.877   0.118   1.492 -0.2507 -0.4374 -1.0504
 9459SOL     OW31331   7.553   6.832   1.308 -0.8820 -0.2650 -0.0595
 9459SOL    HW131332   7.467   6.790   1.314 -2.0265  1.9414 -0.1098
 9459SOL    HW231333   7.591   6.798   1.227 -0.9172 -2.5765  0.8201
 9460SOL     OW31334   4.239   2.429   9.413  0.1267  0.2937 -0.0976
 9460SOL    HW131335   4.268   2.338   9.424 -0.4371  0.2353  1.0586
 9460SOL    HW231336   4.154   2.422   9.370  0.1303  0.2778 -0.1020
 9461SOL     OW31337   4.625   4.243   4.840  0.0920  0.6268 -0.5893
 9461SOL    HW131338   4.589   4.221   4.925  1.3167  4.0193  0.9810
 9461SOL    HW231339   4.564   4.306   4.803  0.7382  0.9208 -1.1906
 9462SOL     OW31340   5.980   7.636   1.870  1.0575 -0.2771  0.3465
 9462SOL    HW131341   5.987   7.637   1.774  1.4334  1.3638  0.3594
 9462SOL    HW231342   6.040   7.567   1.898  1.9492  0.1070 -0.5549
 9463SOL     OW31343   2.553   8.560   1.826  0.2866  0.4804 -0.1890
 9463SOL    HW131344   2.568   8.576   1.733 -0.1963  1.3001 -0.1345
 9463SOL    HW231345   2.620   8.612   1.870  1.0698 -0.5903 -0.0897
 9464SOL     OW31346   5.499   4.505   5.457 -0.3385  0.5894 -0.1739
 9464SOL    HW131347   5.462   4.523   5.543 -0.1455  2.6690 -0.4821
 9464SOL    HW231348   5.441   4.550   5.395 -0.2100 -0.4728 -1.1072
 9465SOL     OW31349   9.996   4.081  10.393 -0.6537  0.2705  0.2454
 9465SOL    HW131350  10.036   4.168  10.384 -0.0862 -0.0160 -0.0527
 9465SOL    HW231351   9.918   4.096  10.446  0.6123  0.6230  2.1071
 9466SOL     OW31352   5.574  10.095   3.314  0.1227  0.8543 -0.7386
 9466SOL    HW131353   5.578  10.184   3.350 -0.7452  0.4335  0.4847
 9466SOL    HW231354   5.658  10.055   3.339  0.2455  1.1228 -0.7209
 9467SOL     OW31355   6.880   7.809  10.184  0.3185 -0.4976 -0.1111
 9467SOL    HW131356   6.798   7.857  10.169 -0.8534 -2.0003  1.0711
 9467SOL    HW231357   6.898   7.766  10.100  0.3831  0.5321 -0.6356
 9468SOL     OW31358  10.099   5.368   4.359 -1.0366 -0.4496  0.6865
 9468SOL    HW131359  10.097   5.421   4.279  1.5862  0.9441  1.4363
 9468SOL    HW231360  10.031   5.406   4.414  0.5000  2.0260  1.0411
 9469SOL     OW31361   9.882   6.950   0.718 -0.0221  0.1820 -0.4686
 9469SOL    HW131362   9.874   6.872   0.663  1.7065 -1.2424  1.1712
 9469SOL    HW231363   9.876   7.024   0.657 -1.2750 -1.2170 -2.1267
 9470SOL     OW31364   7.887   9.178   4.304  0.5490 -0.6673 -0.0230
 9470SOL    HW131365   7.975   9.215   4.302  0.0249  0.8574  2.0782
 9470SOL    HW231366   7.869   9.162   4.396 -2.1420  1.0662 -0.1429
 9471SOL     OW31367   6.681   2.850  10.279 -0.1459 -0.1027  0.6562
 9471SOL    HW131368   6.698   2.943  10.297  0.4522 -0.3672  1.5043
 9471SOL    HW231369   6.751   2.823  10.221 -1.5821  0.5233 -1.4945
 9472SOL     OW31370   7.097   8.094   6.426  1.1153  0.2539 -0.3854
 9472SOL    HW131371   7.186   8.129   6.429  2.2261 -2.2316 -1.5527
 9472SOL    HW231372   7.064   8.119   6.339  0.3469  1.7573  0.2968
 9473SOL     OW31373   3.878   9.231   4.178 -0.2819 -0.1369 -0.4627
 9473SOL    HW131374   3.947   9.178   4.219 -1.2515 -1.5166 -0.5443
 9473SOL    HW231375   3.834   9.273   4.252  0.0218 -0.0138 -0.3461
 9474SOL     OW31376   4.983   3.431   9.317  0.0098 -0.6144  0.4469
 9474SOL    HW131377   5.064   3.464   9.278 -1.2777 -0.4671 -2.3264
 9474SOL    HW231378   4.934   3.510   9.341  0.0915 -0.6660  0.7805
 9475SOL     OW31379   0.824   8.179   7.689 -0.5052  0.1593 -0.2242
 9475SOL    HW131380   0.770   8.184   7.610  1.0420 -0.7413 -1.4135
 9475SOL    HW231381   0.851   8.269   7.706 -0.5615  0.3196 -0.9563
 9476SOL     OW31382   0.316   1.268   6.563  0.1469  0.2579  0.0963
 9476SOL    HW131383   0.397   1.239   6.522 -1.8805 -2.6158 -2.3004
 9476SOL    HW231384   0.282   1.336   6.504 -0.9965 -1.3136 -1.1400
 9477SOL     OW31385   6.094   0.732   2.841 -0.3152  0.3340 -0.2190
 9477SOL    HW131386   6.137   0.787   2.777  0.9928  0.4009  0.6807
 9477SOL    HW231387   6.094   0.644   2.803  0.5596  0.3508 -0.2633
 9478SOL     OW31388   7.253   1.303   0.478  0.3140 -0.3615 -0.8059
 9478SOL    HW131389   7.207   1.387   0.478 -0.4393 -0.7572 -0.9974
 9478SOL    HW231390   7.333   1.319   0.428  0.7535  0.5257  0.1539
 9479SOL     OW31391   0.626   9.102   2.178  0.2644  0.0518  0.0018
 9479SOL    HW131392   0.535   9.071   2.183  0.9705 -2.3374 -0.5789
 9479SOL    HW231393   0.642   9.113   2.084  0.8307 -0.3805  0.0428
 9480SOL     OW31394  10.478   8.007   9.782  0.2103  0.0440  0.0752
 9480SOL    HW131395  10.465   8.028   9.874 -0.4014  0.4003 -0.0868
 9480SOL    HW231396  10.551   7.945   9.781  0.7064  0.6183  0.7252
 9481SOL     OW31397   5.138   2.852   3.906 -0.1248 -0.3115  0.3627
 9481SOL    HW131398   5.150   2.760   3.932  0.8941 -0.7041 -1.3600
 9481SOL    HW231399   5.218   2.874   3.858 -1.6872  0.4653 -2.0720
 9482SOL     OW31400   3.274   4.545   2.443 -0.0906 -0.3656 -0.3339
 9482SOL    HW131401   3.210   4.614   2.462 -1.1684 -1.6505  0.8663
 9482SOL    HW231402   3.335   4.586   2.381 -1.0472  1.4568 -0.1426
 9483SOL     OW31403   2.877   3.635   0.040 -0.0189  0.4601 -0.1336
 9483SOL    HW131404   2.841   3.669   0.121 -1.0508  1.2233 -0.8805
 9483SOL    HW231405   2.955   3.689   0.023  0.0372  0.4829  0.1958
 9484SOL     OW31406   0.015   1.614   9.309 -0.1769  0.1057 -0.1613
 9484SOL    HW131407   0.081   1.680   9.327  0.1495 -0.7540  2.1439
 9484SOL    HW231408   0.065   1.537   9.282 -0.3006 -0.1534  0.3277
 9485SOL     OW31409   1.181   8.090   4.557 -0.0967  0.2057  0.1799
 9485SOL    HW131410   1.247   8.159   4.569 -1.1952  1.2395  0.5182
 9485SOL    HW231411   1.179   8.044   4.641  2.4312 -1.9485 -0.8216
 9486SOL     OW31412   2.909   3.503   7.399  0.0956  0.1331  0.0494
 9486SOL    HW131413   2.934   3.591   7.371  0.9538  0.6486  2.2626
 9486SOL    HW231414   2.844   3.517   7.467  0.3230 -0.9258  0.4988
 9487SOL     OW31415   3.244   0.572   3.134 -0.4971 -0.7858 -0.9250
 9487SOL    HW131416   3.307   0.590   3.064  1.5631  2.2326  1.4984
 9487SOL    HW231417   3.164   0.618   3.107  0.1198 -0.0329 -1.4832
 9488SOL     OW31418   1.843   3.645   2.652 -0.1018 -0.2685 -0.3003
 9488SOL    HW131419   1.813   3.571   2.705  1.0067  0.9958  2.2928
 9488SOL    HW231420   1.851   3.610   2.564 -3.3396 -2.1942 -0.0064
 9489SOL     OW31421   2.460   5.484   9.417 -0.3320 -0.1993  0.0889
 9489SOL    HW131422   2.390   5.516   9.361 -0.3875  2.3747  1.4424
 9489SOL    HW231423   2.422   5.482   9.505  0.4939 -1.5227  0.4482
 9490SOL     OW31424   6.393   0.807   4.178 -0.2942  0.1803 -0.1498
 9490SOL    HW131425   6.438   0.740   4.127  0.9170  0.7101  0.1791
 9490SOL    HW231426   6.305   0.773   4.190  0.2155 -1.2238 -0.2274
 9491SOL     OW31427   2.454   0.592   5.726 -0.0803 -0.6821 -0.3682
 9491SOL    HW131428   2.421   0.669   5.680  2.4916  0.8375  0.1212
 9491SOL    HW231429   2.505   0.544   5.660 -0.6229 -1.3179 -0.3437
 9492SOL     OW31430   3.490   8.693   4.947 -0.1253  0.2574  0.2332
 9492SOL    HW131431   3.489   8.759   4.878 -0.3047  0.1191  0.1027
 9492SOL    HW231432   3.583   8.681   4.968 -0.0974  0.5998  0.3083
 9493SOL     OW31433   6.807   7.909   1.011  1.1178  0.1558 -0.1247
 9493SOL    HW131434   6.801   7.844   0.941 -1.2007  0.4448 -0.2691
 9493SOL    HW231435   6.857   7.866   1.080  0.3444 -1.4835 -0.5426
 9494SOL     OW31436   8.973  10.151   1.265  0.1821 -0.0404  0.2434
 9494SOL    HW131437   9.010  10.237   1.246  0.5503 -0.5574 -1.5532
 9494SOL    HW231438   8.935  10.160   1.352 -0.0002  2.0083 -0.0020
 9495SOL     OW31439   9.307   7.062   5.108  0.1563  0.2409 -0.0642
 9495SOL    HW131440   9.386   7.085   5.058 -0.1480 -0.0702 -0.6981
 9495SOL    HW231441   9.329   7.085   5.199  0.5155  1.3603 -0.4075
 9496SOL     OW31442   3.378   9.547   6.169  0.2141 -0.0841 -0.3364
 9496SOL    HW131443   3.388   9.641   6.186 -0.8056 -0.2285  1.2357
 9496SOL    HW231444   3.420   9.504   6.244 -0.9150 -0.8363 -0.1075
 9497SOL     OW31445   0.662  10.353   8.432  0.4973 -0.3752  0.0950
 9497SOL    HW131446   0.626  10.265   8.419  0.5993 -0.2560 -1.1996
 9497SOL    HW231447   0.757  10.340   8.431  0.5427 -0.1391 -1.3135
 9498SOL     OW31448   0.329   5.359   2.998  0.2364  0.2348  0.0255
 9498SOL    HW131449   0.309   5.438   2.947  0.4534  1.6454  1.9996
 9498SOL    HW231450   0.420   5.370   3.024 -0.0036 -0.1930  1.1023
 9499SOL     OW31451  10.535   4.599   4.389  0.3426 -0.1223 -0.0501
 9499SOL    HW131452  10.499   4.511   4.396 -0.6820  0.2078 -0.8481
 9499SOL    HW231453  10.547   4.627   4.480  0.8279 -1.1308  0.2089
 9500SOL     OW31454   9.655   1.535   0.993 -0.0221  0.1442  0.0471
 9500SOL    HW131455   9.614   1.613   1.031  1.1092  0.8695 -0.1667
 9500SOL    HW231456   9.725   1.512   1.055 -0.4764 -0.8354  0.2138
 9501SOL     OW31457   5.770   2.949   5.269  0.1370  0.1726 -0.1171
 9501SOL    HW131458   5.722   2.996   5.337  1.2907 -0.6546  1.3216
 9501SOL    HW231459   5.843   2.907   5.315  0.8580 -0.5686 -1.8390
 9502SOL     OW31460   3.076  10.046   1.466 -0.0507  0.0773 -0.2746
 9502SOL    HW131461   3.075   9.958   1.504  0.1315 -0.4861 -1.5505
 9502SOL    HW231462   3.126  10.098   1.529  0.5692 -0.9121  0.0759
 9503SOL     OW31463   5.442   3.509   2.698 -0.8551 -0.6096  0.6306
 9503SOL    HW131464   5.365   3.460   2.667 -0.1382 -2.3783  1.4907
 9503SOL    HW231465   5.407   3.571   2.762 -1.6795 -0.6768  0.2598
 9504SOL     OW31466  10.335   5.178   3.882  0.8942 -0.1843 -0.2234
 9504SOL    HW131467  10.308   5.259   3.925  1.8575 -0.9795  2.0313
 9504SOL    HW231468  10.430   5.177   3.891  0.9815 -1.0956 -1.1417
 9505SOL     OW31469   4.540   4.865   5.241  0.0260 -0.0951 -0.3895
 9505SOL    HW131470   4.534   4.774   5.270  0.9759  0.0086  0.1446
 9505SOL    HW231471   4.621   4.898   5.279 -0.8036  1.2864  0.2696
 9506SOL     OW31472   8.465   6.111   4.989 -0.2480 -0.6122  0.3853
 9506SOL    HW131473   8.393   6.159   5.028 -1.3921 -0.0739 -2.2035
 9506SOL    HW231474   8.429   6.024   4.971 -0.4787 -0.1879 -1.3776
 9507SOL     OW31475   4.117   1.227   9.221  0.5220  0.3127 -0.1881
 9507SOL    HW131476   4.069   1.189   9.295  1.2393 -2.8867 -1.2306
 9507SOL    HW231477   4.056   1.219   9.147  1.4432 -0.8075 -0.8514
 9508SOL     OW31478   1.695   1.610   3.731  0.2721  0.4844  0.7222
 9508SOL    HW131479   1.765   1.599   3.667  0.3044  0.7956  0.7024
 9508SOL    HW231480   1.653   1.524   3.737  0.3074  0.4405  0.3305
 9509SOL     OW31481   8.903   1.556   1.598 -0.8403  0.0763 -0.1012
 9509SOL    HW131482   8.895   1.638   1.549  0.3723  0.3782  0.1666
 9509SOL    HW231483   8.921   1.490   1.532  2.4647  0.7337 -0.0740
 9510SOL     OW31484   3.271   5.342   4.344 -0.2025  0.1273  0.5014
 9510SOL    HW131485   3.271   5.392   4.425  1.8721  0.2273  0.5106
 9510SOL    HW231486   3.253   5.407   4.276 -1.1716  0.1828  0.7965
 9511SOL     OW31487   6.488   6.808   7.923 -0.3547  0.3959  0.4540
 9511SOL    HW131488   6.560   6.748   7.903 -0.9274 -0.2314  0.2465
 9511SOL    HW231489   6.476   6.858   7.843  0.3255  1.0130  0.7255
 9512SOL     OW31490   3.295   7.322   3.271  0.1365  0.3718  0.1128
 9512SOL    HW131491   3.299   7.227   3.258  2.0945  0.4934 -0.3983
 9512SOL    HW231492   3.248   7.332   3.354  1.3981 -1.1423  1.0725
 9513SOL     OW31493   4.567   3.711  10.315 -0.2405 -0.1106 -0.1653
 9513SOL    HW131494   4.531   3.779  10.373 -2.9226  0.3713 -2.1813
 9513SOL    HW231495   4.548   3.629  10.359  0.7320  0.3035  1.1013
 9514SOL     OW31496   7.932   3.148  10.254 -0.2255  0.0656  0.4367
 9514SOL    HW131497   7.995   3.081  10.229 -0.2806  0.1500  0.0759
 9514SOL    HW231498   7.965   3.228  10.215 -0.5132  0.1243  0.3112
 9515SOL     OW31499   3.079   3.679   9.360 -0.1254  0.1486  0.4578
 9515SOL    HW131500   3.110   3.692   9.270 -0.4568  1.2172  0.4876
 9515SOL    HW231501   3.013   3.746   9.373  0.6734  0.6999  1.8569
 9516SOL     OW31502   4.984   4.429   6.356 -0.1997  0.0362 -0.3546
 9516SOL    HW131503   4.980   4.342   6.316 -1.8499 -0.4831  0.8551
 9516SOL    HW231504   4.913   4.478   6.315  0.1991  0.5655 -0.4269
 9517SOL     OW31505   7.335   6.717   8.485  0.3428 -0.8064 -0.2818
 9517SOL    HW131506   7.400   6.767   8.533 -1.4548  0.9709  0.4359
 9517SOL    HW231507   7.361   6.625   8.499  0.9526 -0.3124  2.5858
 9518SOL     OW31508   8.755   9.429   3.277 -0.7876 -0.4090  0.4488
 9518SOL    HW131509   8.711   9.365   3.222 -0.0059  0.2511 -0.9981
 9518SOL    HW231510   8.725   9.409   3.366  0.2109 -3.4628  0.2122
 9519SOL     OW31511   6.255   6.262   6.849 -0.6188  0.3652  0.4618
 9519SOL    HW131512   6.264   6.174   6.885 -2.1376  0.9210  2.4208
 9519SOL    HW231513   6.342   6.283   6.815 -0.1979 -1.8113  0.0388
 9520SOL     OW31514   4.636   2.994   6.482  0.2633 -0.1363 -0.7892
 9520SOL    HW131515   4.696   2.998   6.557 -0.6328 -0.1444 -0.0474
 9520SOL    HW231516   4.583   3.073   6.489 -0.2735 -0.4686 -1.0249
 9521SOL     OW31517   5.231   3.020   6.201 -0.0617 -0.6504 -0.4713
 9521SOL    HW131518   5.163   2.996   6.137 -2.2310  0.0037  1.4435
 9521SOL    HW231519   5.213   3.112   6.221  0.5641 -0.8306  1.0658
 9522SOL     OW31520   3.573   7.004   6.007 -0.2448  0.1601 -0.0811
 9522SOL    HW131521   3.479   6.987   6.018 -0.0319 -0.8758  0.2463
 9522SOL    HW231522   3.594   6.969   5.921 -0.4788  1.9158 -0.8937
 9523SOL     OW31523  10.516   1.132   7.320  0.4573 -0.1341 -0.5930
 9523SOL    HW131524  10.610   1.118   7.330  0.1872 -1.8630 -0.2180
 9523SOL    HW231525  10.501   1.126   7.226  0.3186 -3.2255 -0.4908
 9524SOL     OW31526   6.338   8.568   1.326 -0.0903 -0.2508  0.5968
 9524SOL    HW131527   6.301   8.517   1.398  0.6932  0.2015  1.3340
 9524SOL    HW231528   6.375   8.646   1.368  0.5807 -0.0924 -0.2654
 9525SOL     OW31529   8.915   2.956   3.067  0.0759  0.3319 -0.3290
 9525SOL    HW131530   9.003   2.949   3.103  0.4194 -0.8069 -1.3482
 9525SOL    HW231531   8.858   2.949   3.144  0.7164 -3.8445  0.0010
 9526SOL     OW31532   5.423   7.802   0.527 -0.0608 -0.2372 -0.3786
 9526SOL    HW131533   5.515   7.784   0.543 -0.3510 -0.4646  1.2185
 9526SOL    HW231534   5.378   7.719   0.543 -0.4667 -0.3708 -2.0603
 9527SOL     OW31535   6.297   4.218   1.787 -0.0397 -0.2172  0.4412
 9527SOL    HW131536   6.326   4.174   1.867 -0.1222 -1.2030 -0.0513
 9527SOL    HW231537   6.290   4.148   1.722 -0.0803  0.5462 -0.4075
 9528SOL     OW31538  10.618   7.203   9.829  0.4079  0.2348  0.4976
 9528SOL    HW131539  10.549   7.268   9.838 -0.1701 -0.2627 -0.2435
 9528SOL    HW231540  10.697   7.254   9.809  0.4672  0.8747  2.1867
 9529SOL     OW31541   7.410   5.552   4.847  0.2269  0.2736 -0.3779
 9529SOL    HW131542   7.449   5.639   4.852 -0.8336  0.8459 -1.4939
 9529SOL    HW231543   7.391   5.540   4.754 -1.3165 -0.3920 -0.0038
 9530SOL     OW31544   3.836   1.192  10.046  0.0516 -0.1260 -0.2939
 9530SOL    HW131545   3.860   1.220  10.134  0.0942  0.1351 -0.3841
 9530SOL    HW231546   3.899   1.236   9.989  0.8793 -1.3638 -0.3604
 9531SOL     OW31547   1.970   9.507   7.949  0.0173  0.8191  0.4716
 9531SOL    HW131548   2.063   9.492   7.965  0.3608  2.0712 -0.2456
 9531SOL    HW231549   1.936   9.539   8.032  0.3388  0.8430  0.5960
 9532SOL     OW31550   9.914   6.958   5.900  0.1332 -0.3633 -0.0372
 9532SOL    HW131551   9.875   6.878   5.935  0.1306 -0.0124  0.7990
 9532SOL    HW231552   9.956   6.931   5.818  0.1218 -1.2159  0.2268
 9533SOL     OW31553   5.372   1.620   2.640 -0.0707  0.8009  0.0969
 9533SOL    HW131554   5.406   1.709   2.652  1.6484  0.3025 -0.7406
 9533SOL    HW231555   5.324   1.624   2.557 -0.2148  0.9977  0.1873
 9534SOL     OW31556   8.572  10.419   9.999  0.0095 -0.5949 -0.6085
 9534SOL    HW131557   8.542  10.487  10.059  0.4569 -0.6286 -0.3375
 9534SOL    HW231558   8.659  10.395  10.032 -0.1024 -1.2302 -0.7595
 9535SOL     OW31559   3.323   2.751   0.514 -0.0640 -0.2134  0.4633
 9535SOL    HW131560   3.259   2.802   0.563 -0.2928  0.6558 -0.7033
 9535SOL    HW231561   3.324   2.666   0.558 -1.1028  0.1578  1.2514
 9536SOL     OW31562   0.387   9.838   0.488  0.0859 -0.6509 -0.1068
 9536SOL    HW131563   0.426   9.875   0.568  2.4113 -1.1240 -0.9389
 9536SOL    HW231564   0.335   9.764   0.519  1.1280 -0.9679  0.9979
 9537SOL     OW31565   9.603   1.867   3.909 -0.1716  0.5372  0.1515
 9537SOL    HW131566   9.560   1.869   3.994 -0.8364  0.3816 -0.1745
 9537SOL    HW231567   9.551   1.927   3.855 -1.1416 -1.0739 -0.7786
 9538SOL     OW31568   6.323   2.983   7.512 -0.2307 -0.0802 -0.4908
 9538SOL    HW131569   6.357   2.904   7.470  0.3675 -0.2306  0.2723
 9538SOL    HW231570   6.278   2.951   7.590 -0.6410  0.2759 -0.5775
 9539SOL     OW31571   1.817   0.986   2.095  0.4040  0.1069 -0.1971
 9539SOL    HW131572   1.810   0.894   2.120 -0.0475  0.4963  1.2093
 9539SOL    HW231573   1.803   1.034   2.176  0.6087  1.4270 -0.9113
 9540SOL     OW31574   3.951   5.676   7.703  0.5496 -0.0671 -0.1930
 9540SOL    HW131575   3.891   5.606   7.732  0.1471  0.5943  0.6256
 9540SOL    HW231576   4.020   5.677   7.770 -0.8877  2.1171  1.4080
 9541SOL     OW31577   7.641   7.388   6.993 -0.7634  0.1382  0.2117
 9541SOL    HW131578   7.554   7.427   6.996 -0.4619  1.0408 -1.7295
 9541SOL    HW231579   7.626   7.296   6.971 -1.1973  0.6983 -2.0941
 9542SOL     OW31580   9.061   4.280   6.270  0.1476 -0.5277  0.3679
 9542SOL    HW131581   9.059   4.284   6.174 -1.5547 -1.6749  0.3106
 9542SOL    HW231582   9.062   4.371   6.298 -2.9491 -0.0122 -0.7871
 9543SOL     OW31583   8.116   5.556   4.590 -0.9559  0.1868  0.5488
 9543SOL    HW131584   8.091   5.524   4.677 -0.5935 -0.5989  0.3761
 9543SOL    HW231585   8.210   5.538   4.585 -1.0555 -0.1457 -0.1576
 9544SOL     OW31586   8.539   5.992   6.738  1.0482 -0.4589  0.7350
 9544SOL    HW131587   8.504   5.938   6.667 -0.9293  1.5096  0.1162
 9544SOL    HW231588   8.618   6.033   6.701 -0.0238  0.6364 -0.4170
 9545SOL     OW31589   7.331  10.387   5.912  0.4410  0.0628  0.0712
 9545SOL    HW131590   7.412  10.437   5.901 -0.4791  1.3272 -1.2388
 9545SOL    HW231591   7.361  10.296   5.924  2.0519  0.5184 -0.2655
 9546SOL     OW31592   6.678   0.128   1.321  0.0978 -0.3600  0.4299
 9546SOL    HW131593   6.767   0.107   1.291  0.8383 -0.1919  2.3362
 9546SOL    HW231594   6.640   0.044   1.345 -0.1922 -0.4083 -0.1829
 9547SOL     OW31595   5.961   6.095   2.901 -0.1888 -0.1465  0.6438
 9547SOL    HW131596   5.989   6.175   2.945 -0.2783  1.1430 -1.5066
 9547SOL    HW231597   5.988   6.024   2.959  2.0419  1.3297  1.5065
 9548SOL     OW31598   0.461   7.954   4.796  0.0639 -0.0225 -0.0721
 9548SOL    HW131599   0.474   7.876   4.741 -0.3080  0.3026 -0.6349
 9548SOL    HW231600   0.426   8.020   4.736  0.1994  0.5254  0.4381
 9549SOL     OW31601   3.385   6.374   0.749  0.7231 -0.2817 -0.0956
 9549SOL    HW131602   3.301   6.408   0.717  1.4901  3.3093  1.2855
 9549SOL    HW231603   3.438   6.362   0.670 -0.2663 -0.2542 -0.7909
 9550SOL     OW31604  10.687   5.144   7.959  0.6164  0.1811  0.1181
 9550SOL    HW131605  10.715   5.193   8.036 -1.2655 -1.6181  2.0558
 9550SOL    HW231606  10.652   5.062   7.993 -0.1570 -0.7772 -2.6843
 9551SOL     OW31607   1.549   4.571   3.184  0.1038 -0.1115 -0.2587
 9551SOL    HW131608   1.555   4.519   3.263 -1.1563  1.8547  1.2423
 9551SOL    HW231609   1.505   4.652   3.211 -0.8121  0.4662 -3.0488
 9552SOL     OW31610   8.385   9.246   7.897  0.2899  0.7362  0.4781
 9552SOL    HW131611   8.403   9.180   7.964 -1.3438  1.1333  1.3800
 9552SOL    HW231612   8.290   9.262   7.904  0.1657  1.1828 -1.5855
 9553SOL     OW31613   2.078   6.690   3.644  0.9422 -0.2201  0.7669
 9553SOL    HW131614   2.017   6.657   3.579 -0.6306  1.1868  1.4486
 9553SOL    HW231615   2.127   6.758   3.599 -0.4750  1.0865  1.1043
 9554SOL     OW31616   2.285   0.453   7.024  0.0017 -0.0347  0.1763
 9554SOL    HW131617   2.271   0.489   6.936 -0.1646  1.5251  0.8020
 9554SOL    HW231618   2.380   0.455   7.036 -0.0715  2.1238  0.9100
 9555SOL     OW31619   4.799  10.067   2.224  0.0072  0.6603 -0.5709
 9555SOL    HW131620   4.745  10.133   2.181  0.3455  0.3502 -1.4813
 9555SOL    HW231621   4.781  10.080   2.318 -2.0568  0.2113 -0.8445
 9556SOL     OW31622   5.044   2.644   8.005 -0.3100  0.4382  0.0181
 9556SOL    HW131623   4.957   2.681   8.014 -0.6445 -0.5885  1.3447
 9556SOL    HW231624   5.029   2.553   7.980  0.3423  0.0045  1.1476
 9557SOL     OW31625   8.376   2.719   1.452  0.2361  0.3859 -0.1242
 9557SOL    HW131626   8.415   2.806   1.443  1.5018 -0.2420 -0.9528
 9557SOL    HW231627   8.315   2.711   1.379  0.7542  0.2698 -0.5516
 9558SOL     OW31628   1.015   1.544   4.395  0.1088 -0.2881 -0.1202
 9558SOL    HW131629   1.034   1.591   4.477  0.8574  0.4922 -0.7196
 9558SOL    HW231630   0.947   1.481   4.419  0.7215 -0.4691  1.2346
 9559SOL     OW31631   4.619   7.275   9.554 -0.4345  0.0242  0.3673
 9559SOL    HW131632   4.661   7.361   9.562 -1.6862  0.7083 -0.0445
 9559SOL    HW231633   4.587   7.272   9.464  1.0704 -1.6193 -0.1612
 9560SOL     OW31634   5.794   0.985   4.945  0.6001  0.0342  0.0900
 9560SOL    HW131635   5.749   0.906   4.917  0.8304  0.4098 -1.4101
 9560SOL    HW231636   5.886   0.960   4.952  1.0022  0.6171 -2.3805
 9561SOL     OW31637   1.930  10.375   8.150 -0.0517  0.0241 -0.3697
 9561SOL    HW131638   1.890  10.415   8.227 -0.4630  0.2444 -0.6982
 9561SOL    HW231639   1.926  10.281   8.166  0.6358  0.0898  0.2626
 9562SOL     OW31640   1.518   9.853   3.721  0.2581  0.1030  0.2238
 9562SOL    HW131641   1.424   9.871   3.726  0.0626 -0.7898  0.0306
 9562SOL    HW231642   1.523   9.764   3.687  1.1209 -0.5891  2.0034
 9563SOL     OW31643   7.463   2.581   6.858 -0.1457  0.2552  0.6646
 9563SOL    HW131644   7.455   2.565   6.764 -0.8699  1.7098  0.4596
 9563SOL    HW231645   7.432   2.670   6.871 -0.0253  0.1014  2.2925
 9564SOL     OW31646   9.633   7.088   1.254 -0.4728 -0.2587  0.1504
 9564SOL    HW131647   9.570   7.032   1.208 -0.0864 -0.2214 -0.4331
 9564SOL    HW231648   9.646   7.045   1.338 -0.6704 -0.7029 -0.0432
 9565SOL     OW31649   3.673   1.179   8.569 -0.1866  0.3185  0.1886
 9565SOL    HW131650   3.646   1.133   8.489 -3.5958  1.9764  0.2255
 9565SOL    HW231651   3.667   1.272   8.547 -1.5342  0.8234  2.3993
 9566SOL     OW31652   3.739   1.065   3.991 -0.3563  0.0478  0.3845
 9566SOL    HW131653   3.784   1.109   4.064 -0.4505 -1.0495  1.1281
 9566SOL    HW231654   3.801   0.999   3.961 -0.9375 -0.5759  0.5281
 9567SOL     OW31655   6.711   8.422   7.302 -0.1275  0.0572  0.2147
 9567SOL    HW131656   6.765   8.362   7.354  0.9720  1.8802  1.2830
 9567SOL    HW231657   6.774   8.473   7.250 -0.9649  0.8199 -0.0847
 9568SOL     OW31658   9.299   3.192   0.932 -0.8132  0.1870  0.0436
 9568SOL    HW131659   9.377   3.212   0.881 -0.0594 -0.4370  0.9231
 9568SOL    HW231660   9.242   3.144   0.872 -0.6719  0.9069 -0.6928
 9569SOL     OW31661   1.981   0.538   2.357  0.3050 -0.5941  0.2913
 9569SOL    HW131662   2.029   0.459   2.335 -0.2487 -0.0043 -3.6357
 9569SOL    HW231663   2.029   0.575   2.432  2.1861 -3.1505  0.4727
 9570SOL     OW31664   8.086   6.221   5.281  0.1029 -0.3627 -0.4057
 9570SOL    HW131665   8.037   6.140   5.299  0.1128 -0.1386  0.6349
 9570SOL    HW231666   8.075   6.274   5.359  0.1074  0.6548 -1.0755
 9571SOL     OW31667   3.853   1.282   6.460 -0.1490  0.1965 -0.1995
 9571SOL    HW131668   3.903   1.320   6.388  1.2704  0.8633  1.0679
 9571SOL    HW231669   3.879   1.190   6.462  0.7806  0.4516  0.1988
 9572SOL     OW31670   9.976   3.721   0.831  1.2682 -0.3922 -0.1977
 9572SOL    HW131671  10.007   3.701   0.919  1.7187  0.0097 -0.2603
 9572SOL    HW231672   9.903   3.781   0.844  0.3296 -1.5414 -0.0389
 9573SOL     OW31673   6.300   2.019   4.378  0.0949  0.2047 -0.0185
 9573SOL    HW131674   6.266   1.954   4.439  1.1306 -0.0561  0.2973
 9573SOL    HW231675   6.342   2.085   4.433  0.9386  0.0284 -0.4351
 9574SOL     OW31676   0.903   3.924   8.125 -0.3003  0.1124  0.0529
 9574SOL    HW131677   0.811   3.914   8.100 -0.0580  0.0585 -0.8396
 9574SOL    HW231678   0.951   3.868   8.064  0.3847  0.7010  0.0403
 9575SOL     OW31679   8.725   4.723   4.925  0.0516  0.0461 -0.0686
 9575SOL    HW131680   8.666   4.677   4.865 -0.5161  0.3033  0.2752
 9575SOL    HW231681   8.789   4.765   4.869  0.1081 -0.5129 -0.4335
 9576SOL     OW31682   1.596   3.293   9.378 -0.0373  0.3996  0.3147
 9576SOL    HW131683   1.583   3.210   9.424 -2.4755 -0.1563 -1.1658
 9576SOL    HW231684   1.512   3.309   9.334  1.2142  2.3549 -1.5489
 9577SOL     OW31685   7.831   4.615   1.538 -0.0115 -0.3559  0.0763
 9577SOL    HW131686   7.873   4.672   1.602 -1.6512  0.6831  0.2788
 9577SOL    HW231687   7.835   4.528   1.577  1.3767 -0.2002  0.3425
 9578SOL     OW31688   3.942   4.284   4.942 -0.3802  0.6329 -0.4137
 9578SOL    HW131689   4.012   4.263   5.003  2.0247  3.6204 -1.8647
 9578SOL    HW231690   3.972   4.248   4.858 -1.4174  0.5372 -0.7592
 9579SOL     OW31691   9.708   6.111   9.580  0.3851 -0.1967 -0.7120
 9579SOL    HW131692   9.740   6.153   9.500 -0.5806  0.0909 -0.9719
 9579SOL    HW231693   9.641   6.050   9.550  1.0800 -1.2109 -0.2420
 9580SOL     OW31694   6.524   7.977   1.051  0.0819 -0.7019  0.4524
 9580SOL    HW131695   6.614   7.947   1.044  0.5956  0.9783 -0.7841
 9580SOL    HW231696   6.530   8.064   1.090 -1.1523 -1.1797  1.8083
 9581SOL     OW31697   9.481   9.241   4.134 -0.2568  0.2135  0.1944
 9581SOL    HW131698   9.400   9.230   4.083  0.3121 -1.8793 -0.3251
 9581SOL    HW231699   9.549   9.201   4.081  0.3390 -2.3052  2.6283
 9582SOL     OW31700   4.958   9.887   0.735  0.2067 -0.4664  0.1382
 9582SOL    HW131701   4.896   9.816   0.722  0.0797 -0.5486  1.1267
 9582SOL    HW231702   4.983   9.881   0.828  0.4657  0.5525  0.1503
 9583SOL     OW31703   4.397   9.474   2.298 -0.4493  0.9791 -0.1070
 9583SOL    HW131704   4.384   9.557   2.251 -3.0692  1.2083  0.8685
 9583SOL    HW231705   4.401   9.500   2.390  1.6732  0.2343  0.0723
 9584SOL     OW31706   7.937   7.889   8.929 -0.2775  0.1029 -0.0907
 9584SOL    HW131707   7.856   7.922   8.891 -0.4517 -1.5086 -1.1922
 9584SOL    HW231708   7.909   7.830   8.999 -0.1029 -0.7004 -0.6755
 9585SOL     OW31709   9.011   0.018   1.744 -0.1223  0.3631 -0.0624
 9585SOL    HW131710   8.994   0.110   1.725 -1.1786 -0.1657 -1.9688
 9585SOL    HW231711   9.073  -0.009   1.676 -0.9832 -0.6949 -0.4387
 9586SOL     OW31712   3.024   0.266   5.735 -0.4783 -0.1670 -0.3996
 9586SOL    HW131713   3.059   0.194   5.682 -0.7566  0.5501 -1.5833
 9586SOL    HW231714   3.102   0.311   5.768 -0.3023 -0.7255 -0.0378
 9587SOL     OW31715   0.561   6.997   4.541  0.4316 -0.1927  0.3085
 9587SOL    HW131716   0.591   7.011   4.452 -0.6561  0.3822  0.0152
 9587SOL    HW231717   0.642   6.984   4.592  1.1711  1.1610 -0.4601
 9588SOL     OW31718   2.763   8.217   2.161  0.1179 -0.0862  0.3207
 9588SOL    HW131719   2.747   8.184   2.072  0.5809  0.7228 -0.0738
 9588SOL    HW231720   2.852   8.188   2.181 -0.0793 -0.4853  0.6244
 9589SOL     OW31721   7.292   1.695   7.153 -0.0526 -0.7953  0.1672
 9589SOL    HW131722   7.256   1.705   7.065 -0.6153  1.1040  0.5749
 9589SOL    HW231723   7.386   1.708   7.141 -0.1079 -0.6987 -0.1859
 9590SOL     OW31724   3.914   2.296   0.572 -0.1956  0.0837  0.2562
 9590SOL    HW131725   3.844   2.295   0.637 -0.8485  0.5531 -0.4191
 9590SOL    HW231726   3.869   2.284   0.488  0.5829 -0.0686 -0.1450
 9591SOL     OW31727   6.753   9.655   3.384  0.2385 -0.5811  0.0847
 9591SOL    HW131728   6.701   9.682   3.308 -1.2993 -2.4708  0.3919
 9591SOL    HW231729   6.695   9.671   3.459  0.1823 -2.4005  0.4693
 9592SOL     OW31730   2.657   9.717   6.670 -0.6172 -0.1551 -0.3268
 9592SOL    HW131731   2.716   9.789   6.691 -2.2439  1.2933 -0.4889
 9592SOL    HW231732   2.635   9.678   6.755  2.0368 -2.0437 -0.3750
 9593SOL     OW31733   3.792   7.679   0.458  0.9785 -0.5838  0.2543
 9593SOL    HW131734   3.811   7.680   0.551 -0.2782 -1.1748  0.5434
 9593SOL    HW231735   3.737   7.756   0.443 -0.3385 -1.4555  0.3880
 9594SOL     OW31736   0.415   6.021   0.354 -0.3412  0.2949 -0.0060
 9594SOL    HW131737   0.376   6.086   0.296 -2.3701  0.7619  1.7642
 9594SOL    HW231738   0.395   5.937   0.313 -0.8648  0.6498 -0.4939
 9595SOL     OW31739   4.326   0.425   3.501 -0.1310  0.3113 -0.3797
 9595SOL    HW131740   4.409   0.415   3.549 -0.4165 -0.2672  0.0028
 9595SOL    HW231741   4.351   0.419   3.409 -0.0349 -2.2827 -0.2469
 9596SOL     OW31742   8.939   3.772   7.543 -0.3770 -0.7689 -0.3148
 9596SOL    HW131743   9.032   3.747   7.536 -0.0462  0.5583 -0.8909
 9596SOL    HW231744   8.923   3.778   7.637 -0.2876 -2.4060 -0.1658
 9597SOL     OW31745   4.172   0.422  10.417 -0.0066  0.4301  0.4581
 9597SOL    HW131746   4.192   0.439  10.326 -3.0237  0.9596 -0.2324
 9597SOL    HW231747   4.216   0.340  10.437  0.5575  0.2024 -1.5161
 9598SOL     OW31748   3.386   6.952   0.866  0.3058 -0.4608  0.0500
 9598SOL    HW131749   3.426   6.885   0.921 -1.0284 -0.9738  0.4502
 9598SOL    HW231750   3.292   6.937   0.876  0.0130  0.5850 -0.9699
 9599SOL     OW31751   9.505   5.541   3.985 -0.1686 -0.0631 -0.2695
 9599SOL    HW131752   9.499   5.621   3.933 -0.0208 -0.0542 -0.2726
 9599SOL    HW231753   9.466   5.473   3.930 -0.1567 -0.0224 -0.3277
 9600SOL     OW31754   3.272   3.105   7.990  0.2847 -0.5037 -0.0216
 9600SOL    HW131755   3.305   3.019   8.014  0.4682 -0.4854 -0.2010
 9600SOL    HW231756   3.211   3.088   7.917  0.3105 -0.4837 -0.0479
 9601SOL     OW31757   6.610   9.795   1.920  0.0952  0.0632  0.2022
 9601SOL    HW131758   6.604   9.725   1.855  1.1583  1.2650 -1.2576
 9601SOL    HW231759   6.527   9.841   1.913  1.1416  1.7608 -2.2548
 9602SOL     OW31760   7.683   8.834   5.259  0.3044 -0.9998  0.1546
 9602SOL    HW131761   7.664   8.744   5.235 -0.3664 -0.8957  0.2623
 9602SOL    HW231762   7.665   8.885   5.180  2.8844 -1.1906 -0.6212
 9603SOL     OW31763   4.476   7.308   7.506 -0.0095 -0.2404  0.2271
 9603SOL    HW131764   4.474   7.403   7.496  0.1860 -0.3672 -1.1748
 9603SOL    HW231765   4.404   7.277   7.451  0.1629 -0.9271  0.3801
 9604SOL     OW31766   0.385   1.444   0.696  0.0129  0.1208 -0.2438
 9604SOL    HW131767   0.342   1.528   0.707 -0.0021 -0.1689  2.7781
 9604SOL    HW231768   0.313   1.381   0.690  0.0050  0.0447  0.5781
 9605SOL     OW31769   0.992   0.277   9.347  0.1548 -0.2899 -0.7069
 9605SOL    HW131770   1.034   0.323   9.419  1.4819  0.5977 -1.9886
 9605SOL    HW231771   1.063   0.259   9.285 -1.3790  2.0368 -3.3859
 9606SOL     OW31772   5.728   4.583   5.115 -0.2693 -0.1074 -0.0140
 9606SOL    HW131773   5.750   4.538   5.034 -0.5552  1.2634 -0.8938
 9606SOL    HW231774   5.680   4.519   5.166  0.0740 -1.0538 -0.8503
 9607SOL     OW31775   9.699   2.059   9.460  0.8271 -0.3141 -0.1414
 9607SOL    HW131776   9.716   2.137   9.513  2.9155 -0.2134 -0.8715
 9607SOL    HW231777   9.700   1.987   9.523  0.9197  0.0443  0.2733
 9608SOL     OW31778   4.683  10.316   9.520  0.0367  0.6679 -0.3748
 9608SOL    HW131779   4.730  10.275   9.447  1.2740 -0.4247  0.9679
 9608SOL    HW231780   4.609  10.361   9.479  0.5159 -0.1652 -2.2579
 9609SOL     OW31781   4.125   4.661   6.556  0.2050 -0.0572  0.6362
 9609SOL    HW131782   4.045   4.615   6.582 -0.0560  0.6176  1.0693
 9609SOL    HW231783   4.120   4.745   6.602  1.1300  0.0242  0.6033
 9610SOL     OW31784   6.036   0.047   7.930  0.7199 -0.8099 -0.0534
 9610SOL    HW131785   6.072   0.055   7.842  0.2090 -2.8917 -0.5085
 9610SOL    HW231786   6.105   0.079   7.988  1.6686 -0.8492 -1.1426
 9611SOL     OW31787  10.019  10.093   0.302 -0.2276 -0.2159  0.4458
 9611SOL    HW131788  10.036  10.187   0.305 -0.6170 -0.1463  0.5368
 9611SOL    HW231789   9.960  10.081   0.229  0.1145 -0.4423  0.2016
 9612SOL     OW31790   0.753   3.082   2.361  0.2966 -0.5224 -0.1173
 9612SOL    HW131791   0.816   3.047   2.298  1.0580 -1.7278  1.2425
 9612SOL    HW231792   0.689   3.012   2.371  0.8741 -0.8825  1.3411
 9613SOL     OW31793   7.661   3.522   8.190  0.5094 -0.2734  0.1191
 9613SOL    HW131794   7.581   3.513   8.139 -0.5238  0.3746  1.5588
 9613SOL    HW231795   7.721   3.568   8.131 -0.5542  0.2327 -0.6045
 9614SOL     OW31796   2.249   0.488   0.431  0.3850  0.4726 -0.2590
 9614SOL    HW131797   2.238   0.567   0.484  2.4822 -0.6225  1.9915
 9614SOL    HW231798   2.335   0.497   0.391 -0.1914  0.1887 -1.6341
 9615SOL     OW31799   4.110   4.475   3.661 -0.2129  0.0410 -0.1465
 9615SOL    HW131800   4.173   4.538   3.696  0.0996  0.1272 -0.8458
 9615SOL    HW231801   4.084   4.511   3.576 -0.5596 -0.4245 -0.2443
 9616SOL     OW31802   4.428   4.877   3.174  0.1062  0.1240 -0.0779
 9616SOL    HW131803   4.384   4.949   3.220 -0.8405 -0.3526 -0.2190
 9616SOL    HW231804   4.422   4.803   3.235 -0.5408 -0.3237 -0.6767
 9617SOL     OW31805   8.381   5.037  10.194  0.3144 -0.1466  0.2315
 9617SOL    HW131806   8.435   4.971  10.237  1.5905 -0.8496 -2.2426
 9617SOL    HW231807   8.291   5.004  10.202  0.8257 -1.7401 -0.1220
 9618SOL     OW31808   4.678   1.089   2.403  0.3604 -0.0406  0.6381
 9618SOL    HW131809   4.613   1.020   2.387 -1.0308  1.0614  1.2713
 9618SOL    HW231810   4.739   1.082   2.329 -0.3057 -1.2951  0.1670
 9619SOL     OW31811   1.255   2.405   9.395  0.2215 -0.6271 -0.2635
 9619SOL    HW131812   1.322   2.337   9.390 -0.3374 -1.1208 -1.5423
 9619SOL    HW231813   1.291   2.477   9.344  0.2082 -0.5074 -0.1031
 9620SOL     OW31814   2.633   3.206   5.456 -1.0644  0.7380  0.0010
 9620SOL    HW131815   2.683   3.283   5.428 -0.8119  0.9690  1.0368
 9620SOL    HW231816   2.656   3.138   5.393  1.0201  0.6836  0.7433
 9621SOL     OW31817   2.975   7.911   0.566  0.6494  0.5987  0.3067
 9621SOL    HW131818   3.014   7.979   0.621  1.5665  0.3258  0.0064
 9621SOL    HW231819   3.013   7.829   0.598  0.3650  0.3294 -0.0321
 9622SOL     OW31820   9.401  10.680   4.354 -0.6392 -0.0327 -0.0697
 9622SOL    HW131821   9.315  10.647   4.329 -1.9261  2.0531  1.2665
 9622SOL    HW231822   9.417  10.752   4.292 -0.2056  0.0524  0.1428
 9623SOL     OW31823  10.372   5.215   4.249  0.1022 -0.2601  0.0666
 9623SOL    HW131824  10.420   5.298   4.248  0.7995 -0.6441  0.4536
 9623SOL    HW231825  10.280   5.241   4.250  0.3102  0.5333  0.9349
 9624SOL     OW31826   3.859   8.643   6.267 -0.3139  0.1522 -0.2221
 9624SOL    HW131827   3.906   8.701   6.327  0.7397 -2.2870  1.4625
 9624SOL    HW231828   3.927   8.588   6.228 -1.4092 -1.2960 -0.1972
 9625SOL     OW31829   3.250   2.423   7.071  0.4580  0.2110  0.7873
 9625SOL    HW131830   3.287   2.510   7.087 -1.7106  1.2082  0.8165
 9625SOL    HW231831   3.237   2.387   7.159  1.4848 -0.2333  0.7722
 9626SOL     OW31832   5.520   6.887   0.412 -0.1589  0.0701 -0.2120
 9626SOL    HW131833   5.597   6.911   0.361 -0.0018  2.0973  0.8833
 9626SOL    HW231834   5.446   6.917   0.360 -0.1147 -0.0459 -0.3417
 9627SOL     OW31835   7.594   7.538   8.627  0.1420  0.1465 -0.7430
 9627SOL    HW131836   7.519   7.592   8.603  0.6141  0.3641 -1.7727
 9627SOL    HW231837   7.663   7.601   8.647 -0.3254  0.0064  1.6875
 9628SOL     OW31838   9.707   4.281   7.919 -0.0739  0.6023  0.5299
 9628SOL    HW131839   9.651   4.220   7.967  1.2237  0.4464  1.8976
 9628SOL    HW231840   9.758   4.225   7.860 -0.7960  0.6741 -0.1887
 9629SOL     OW31841  10.156   6.906   1.319  0.4892 -0.6665 -0.2561
 9629SOL    HW131842  10.103   6.953   1.255 -0.3601 -3.1852 -1.5348
 9629SOL    HW231843  10.102   6.904   1.398 -0.1614 -0.9049 -0.7048
 9630SOL     OW31844   4.744   6.444   2.404 -0.6635 -0.4393 -0.4708
 9630SOL    HW131845   4.722   6.447   2.311 -1.6623 -0.4621 -0.2452
 9630SOL    HW231846   4.665   6.471   2.449 -0.6955 -1.8787  0.4357
 9631SOL     OW31847   5.273   9.469   8.123 -0.4575 -0.0116  0.4357
 9631SOL    HW131848   5.309   9.442   8.039 -1.9943 -1.9891  0.3377
 9631SOL    HW231849   5.252   9.562   8.112  1.6455  0.4063 -0.4823
 9632SOL     OW31850   3.293   0.569   6.958 -0.0410 -0.4199  0.0887
 9632SOL    HW131851   3.248   0.652   6.940  0.2912 -0.4739 -1.0726
 9632SOL    HW231852   3.363   0.592   7.019 -1.7550 -0.3776  2.1512
 9633SOL     OW31853   2.248   0.598   6.802  0.0494  0.6456 -0.5174
 9633SOL    HW131854   2.257   0.693   6.797  1.1973  0.5125 -1.4805
 9633SOL    HW231855   2.245   0.569   6.711  0.8879 -0.3283 -0.2493
 9634SOL     OW31856   6.329   4.267   4.391  0.2545 -0.1949 -0.2173
 9634SOL    HW131857   6.344   4.345   4.445  0.0979 -1.7771  2.2535
 9634SOL    HW231858   6.235   4.269   4.373  0.1042 -0.1905  0.5115
 9635SOL     OW31859   8.215   3.719   6.084  0.5173 -0.3257  0.5437
 9635SOL    HW131860   8.249   3.762   6.006  3.1061 -0.4412  1.5072
 9635SOL    HW231861   8.199   3.628   6.056 -0.2990  0.0367 -0.2440
 9636SOL     OW31862  10.078   7.128   6.051 -0.5586 -0.3445  0.2993
 9636SOL    HW131863  10.051   7.217   6.073 -0.9022 -0.2220 -0.5919
 9636SOL    HW231864  10.013   7.099   5.987  1.0966 -0.2442 -1.4930
 9637SOL     OW31865   4.193  10.248   5.878  0.2407  0.0181 -0.1530
 9637SOL    HW131866   4.160  10.319   5.823  1.0053  1.9646  1.7705
 9637SOL    HW231867   4.144  10.256   5.960  2.4992  0.3666  1.2514
 9638SOL     OW31868   6.636   5.379   4.495  0.6918 -0.2757  0.0920
 9638SOL    HW131869   6.697   5.336   4.556 -0.0016 -0.4614  0.6686
 9638SOL    HW231870   6.650   5.333   4.412  0.4824 -1.1536  0.5203
 9639SOL     OW31871   4.310   9.288   3.538 -0.1219 -0.3397  0.3051
 9639SOL    HW131872   4.262   9.369   3.520  0.7974  0.1993  0.2526
 9639SOL    HW231873   4.401   9.309   3.521  0.1845 -1.2656  0.7173
 9640SOL     OW31874   0.495   5.612   9.554 -0.3638 -0.5652  0.2164
 9640SOL    HW131875   0.438   5.634   9.628 -0.1010 -0.5214  0.4069
 9640SOL    HW231876   0.584   5.617   9.590  0.0562  2.8810 -0.9028
 9641SOL     OW31877   4.330   2.681   3.467 -0.0595 -0.3920 -0.4337
 9641SOL    HW131878   4.420   2.709   3.448  0.7404 -2.2263  0.3716
 9641SOL    HW231879   4.275   2.753   3.436  1.8149  2.5336  2.3649
 9642SOL     OW31880   2.183   2.277   0.751  0.1485 -0.1088 -0.2355
 9642SOL    HW131881   2.268   2.290   0.793  0.6906  1.2170 -1.6454
 9642SOL    HW231882   2.203   2.228   0.671 -0.6329 -1.0683  0.1346
 9643SOL     OW31883   7.730   9.979   4.080 -0.2892  0.3212  0.6883
 9643SOL    HW131884   7.812  10.022   4.103 -0.0369  0.8295 -1.0210
 9643SOL    HW231885   7.757   9.897   4.039 -0.6958 -0.3102  1.6747
 9644SOL     OW31886   1.391   1.695   6.373 -0.2648 -0.4367  0.1848
 9644SOL    HW131887   1.470   1.674   6.324  2.2647  0.3577  3.6103
 9644SOL    HW231888   1.381   1.790   6.365 -1.8600 -0.6790 -1.4389
 9645SOL     OW31889   9.089   9.961   3.151  0.3821  0.3226  0.1916
 9645SOL    HW131890   9.171   9.915   3.131  1.0739  1.6021 -0.0560
 9645SOL    HW231891   9.072  10.015   3.074 -1.1731 -0.5562 -0.1101
 9646SOL     OW31892   9.448   7.941  10.082 -0.3719  0.5581 -0.5434
 9646SOL    HW131893   9.361   7.974  10.062 -1.8241 -1.3262  1.9797
 9646SOL    HW231894   9.463   7.966  10.173 -0.2242 -2.6910  0.4770
 9647SOL     OW31895   4.415   4.196   7.364 -0.4163  0.1498 -0.3419
 9647SOL    HW131896   4.424   4.137   7.439  1.0276 -2.0263 -2.0785
 9647SOL    HW231897   4.497   4.245   7.362 -1.2733  1.6910  0.6065
 9648SOL     OW31898   0.673   5.609   8.828 -0.0824  0.4848 -0.4874
 9648SOL    HW131899   0.625   5.657   8.896 -2.1184  0.0136 -1.5176
 9648SOL    HW231900   0.717   5.538   8.876 -0.0698  1.1651  0.5422
 9649SOL     OW31901   5.841   8.796   6.850 -0.4827 -0.1548 -0.1511
 9649SOL    HW131902   5.930   8.775   6.880 -1.0440 -0.9884  1.0335
 9649SOL    HW231903   5.814   8.869   6.906 -0.6489 -0.0846 -0.3241
 9650SOL     OW31904   3.848   0.999   4.407  0.0447 -0.4843 -0.2005
 9650SOL    HW131905   3.905   1.047   4.467 -0.1978 -0.8277  0.3100
 9650SOL    HW231906   3.848   0.910   4.440 -3.4029  0.0879  1.8972
 9651SOL     OW31907   6.653   5.454   0.368  0.0947 -0.1914  0.0739
 9651SOL    HW131908   6.632   5.460   0.275  0.4149 -1.5863 -0.1106
 9651SOL    HW231909   6.690   5.540   0.389  0.2963  0.0540 -1.1614
 9652SOL     OW31910   0.935   7.244   3.519 -0.1380  0.1304  0.0688
 9652SOL    HW131911   0.959   7.326   3.476 -0.0516 -0.2030 -0.5287
 9652SOL    HW231912   0.876   7.201   3.457 -1.8278  0.6664  1.2567
 9653SOL     OW31913   5.305  10.289   7.558 -0.2111 -0.1951  0.2507
 9653SOL    HW131914   5.234  10.226   7.558 -0.5458  0.1645  1.4759
 9653SOL    HW231915   5.313  10.318   7.649  0.0701  1.3758 -0.2356
 9654SOL     OW31916   7.363  10.052   2.004 -0.1453 -0.3115  0.1577
 9654SOL    HW131917   7.417  10.000   1.944 -2.1357 -0.5246 -1.5795
 9654SOL    HW231918   7.426  10.102   2.056  1.7151 -0.2306 -2.0183
 9655SOL     OW31919   1.419   9.269   1.874  0.2824 -0.5467  0.7124
 9655SOL    HW131920   1.356   9.294   1.943 -1.6612 -0.3210 -1.0438
 9655SOL    HW231921   1.497   9.321   1.894  0.1290 -1.1294  3.2178
 9656SOL     OW31922   9.740   3.621   1.363  0.4628  0.3806 -0.7009
 9656SOL    HW131923   9.822   3.660   1.396 -1.2070  1.2827  2.9640
 9656SOL    HW231924   9.756   3.526   1.367  1.0197  0.5031  1.1910
 9657SOL     OW31925   8.686   5.320   3.055 -0.5938 -0.4231  0.0092
 9657SOL    HW131926   8.672   5.327   3.149  0.5146 -0.2239  0.1763
 9657SOL    HW231927   8.688   5.410   3.024  0.1611 -0.4411 -0.0143
 9658SOL     OW31928   6.342   9.226   3.595  0.3662 -0.5354  0.1779
 9658SOL    HW131929   6.314   9.308   3.553 -0.6203 -0.8200  0.2515
 9658SOL    HW231930   6.330   9.160   3.527  0.6631 -0.6999  0.2866
 9659SOL     OW31931   8.491   1.041  10.502 -0.3292  0.2902  0.6343
 9659SOL    HW131932   8.454   1.065  10.417 -3.5040 -4.2776  0.3800
 9659SOL    HW231933   8.441   1.093  10.565 -1.1550  0.4140 -0.1079
 9660SOL     OW31934   7.032  10.092  10.645 -0.4551  0.2242 -0.5226
 9660SOL    HW131935   6.952  10.055  10.681 -0.3745  0.9756  0.4612
 9660SOL    HW231936   7.002  10.170  10.597 -0.3069  0.5871 -0.0328
 9661SOL     OW31937   2.816   8.702   0.376 -0.0970 -0.0010 -0.1860
 9661SOL    HW131938   2.862   8.634   0.424 -0.1093 -1.2032 -1.8020
 9661SOL    HW231939   2.746   8.731   0.435  1.4284  0.4356  1.5068
 9662SOL     OW31940   7.954   2.878   9.872  0.0981  0.0065 -0.3600
 9662SOL    HW131941   7.878   2.837   9.915 -0.8367  1.6183 -0.4032
 9662SOL    HW231942   7.960   2.965   9.912  1.7916  0.0028 -0.5527
 9663SOL     OW31943   3.974   5.867   3.547 -0.0992 -0.7854 -0.2707
 9663SOL    HW131944   3.951   5.900   3.460  1.9387 -0.1467 -0.6149
 9663SOL    HW231945   3.893   5.874   3.597 -0.6686  1.3505 -1.3713
 9664SOL     OW31946   8.904   7.335   1.954 -0.5422 -0.9917  0.9466
 9664SOL    HW131947   8.978   7.356   2.011 -0.8098 -0.0459  0.9588
 9664SOL    HW231948   8.856   7.417   1.946 -0.8021 -1.2436 -0.2132
 9665SOL     OW31949  10.660  10.566  10.331 -0.1886 -0.4554 -0.1997
 9665SOL    HW131950  10.638  10.601  10.246 -0.1668  0.6129  0.2247
 9665SOL    HW231951  10.626  10.476  10.330  0.1915 -0.5951 -1.4732
 9666SOL     OW31952   3.034   0.345   6.595 -0.1275 -0.2822 -0.5410
 9666SOL    HW131953   3.110   0.351   6.652 -0.1136  2.4110 -0.7338
 9666SOL    HW231954   3.070   0.341   6.507  0.0717  5.1372 -1.0285
 9667SOL     OW31955   8.220   2.678   9.275  0.0964 -0.0609 -0.2881
 9667SOL    HW131956   8.157   2.646   9.339  0.2314  0.6220  0.1980
 9667SOL    HW231957   8.264   2.599   9.243 -2.0605 -0.7420 -1.8143
 9668SOL     OW31958  10.567   4.862   7.833 -0.3047 -0.5952  0.9381
 9668SOL    HW131959  10.616   4.786   7.865  0.5277  0.0595  1.2575
 9668SOL    HW231960  10.593   4.869   7.741  2.3144  1.2748  1.7032
 9669SOL     OW31961   8.937   9.243   1.208  0.1371 -0.0297 -0.0800
 9669SOL    HW131962   8.977   9.209   1.127 -1.2380  0.4903 -1.0044
 9669SOL    HW231963   8.957   9.336   1.207 -0.2112  0.0445 -0.0145
 9670SOL     OW31964   3.670   1.677   8.535 -0.0113  0.6056  0.4336
 9670SOL    HW131965   3.589   1.682   8.485 -1.6392 -1.5175  2.6444
 9670SOL    HW231966   3.715   1.600   8.499  1.0233  1.6922 -0.6883
 9671SOL     OW31967   2.795   3.134   4.405  0.1665  0.2443 -0.3623
 9671SOL    HW131968   2.800   3.178   4.320  0.8426  1.0094  0.0668
 9671SOL    HW231969   2.848   3.188   4.463 -0.2736 -0.2862  0.5454
 9672SOL     OW31970   2.264   9.350  10.278  0.2671 -0.0456 -0.8290
 9672SOL    HW131971   2.341   9.358  10.334 -2.2350  0.4891  2.8601
 9672SOL    HW231972   2.270   9.262  10.241  1.6879 -0.7451  0.9490
 9673SOL     OW31973   7.350   8.515   3.133  0.1645  0.4782 -0.3996
 9673SOL    HW131974   7.414   8.444   3.132  1.0793  1.2708 -1.3181
 9673SOL    HW231975   7.268   8.473   3.158  0.6747 -0.9096 -0.9275
 9674SOL     OW31976   2.497   9.886   9.169  0.4945 -0.0058  0.1193
 9674SOL    HW131977   2.416   9.934   9.189  0.9168  0.9496 -0.4266
 9674SOL    HW231978   2.561   9.922   9.230  1.5137  2.1381 -2.0618
 9675SOL     OW31979   0.047   7.626   9.333 -0.1525 -0.6455  0.2358
 9675SOL    HW131980   0.051   7.601   9.240  1.5913 -0.2614  0.1860
 9675SOL    HW231981  -0.024   7.690   9.337  0.3209  0.0037 -1.0166
 9676SOL     OW31982   5.964  10.035   0.694 -0.3767 -0.0001  0.3018
 9676SOL    HW131983   5.946  10.122   0.728 -1.4403 -0.2535  0.4214
 9676SOL    HW231984   5.954   9.977   0.769  0.6206 -0.2154  0.2934
 9677SOL     OW31985   7.254   7.239   8.084 -0.1631  0.2443 -0.5731
 9677SOL    HW131986   7.243   7.268   7.993 -1.5603  2.7402  0.2935
 9677SOL    HW231987   7.165   7.227   8.117  0.3207 -0.5901  0.4842
 9678SOL     OW31988   2.211   0.358   3.608  0.0112 -0.2437  0.2939
 9678SOL    HW131989   2.155   0.324   3.538 -0.9114  1.0329  0.3779
 9678SOL    HW231990   2.237   0.445   3.578  1.0019 -0.3594  0.7908
 9679SOL     OW31991  10.487   2.520   5.581 -0.1501  0.3440 -0.0364
 9679SOL    HW131992  10.510   2.443   5.633  0.9480  0.6025 -0.1105
 9679SOL    HW231993  10.408   2.494   5.533  1.3158 -1.4884 -1.6226
 9680SOL     OW31994   6.955   8.361   1.823 -0.2995 -0.0223 -0.0077
 9680SOL    HW131995   7.045   8.390   1.842  0.0492 -0.6822 -0.5941
 9680SOL    HW231996   6.914   8.353   1.909  0.8217 -1.6326  0.4176
 9681SOL     OW31997   1.539   5.878   6.966 -0.2507 -0.7095  0.4470
 9681SOL    HW131998   1.491   5.847   7.042 -1.6770  0.6377  0.1569
 9681SOL    HW231999   1.478   5.938   6.923  1.9216  1.6220  0.4157
 9682SOL     OW32000   2.815   5.595   5.333 -0.6210 -0.2214  0.1069
 9682SOL    HW132001   2.849   5.513   5.296  4.2025  1.8055 -0.7135
 9682SOL    HW232002   2.756   5.629   5.266 -0.8898 -1.8622 -0.5481
 9683SOL     OW32003   6.152   5.081   5.898 -0.5106  0.3926  0.0261
 9683SOL    HW132004   6.246   5.101   5.900  0.1768 -2.3253 -0.2336
 9683SOL    HW232005   6.123   5.097   5.988  0.9910 -1.5851  0.9720
 9684SOL     OW32006  10.476  10.433   4.840  0.1751  0.0639  0.7708
 9684SOL    HW132007  10.473  10.399   4.929  0.3273  0.3505  0.8858
 9684SOL    HW232008  10.392  10.408   4.802 -0.6986  1.6067  1.6036
 9685SOL     OW32009   8.455   7.044   6.040  0.0896 -0.4344  0.2467
 9685SOL    HW132010   8.525   7.095   6.082 -1.1402  1.8267 -0.2878
 9685SOL    HW232011   8.443   7.086   5.954 -2.8990  0.2876  0.8918
 9686SOL     OW32012   5.807   1.932   5.946 -0.4073 -0.2730 -0.4131
 9686SOL    HW132013   5.749   1.980   5.887 -0.2938  0.1987 -0.1428
 9686SOL    HW232014   5.895   1.956   5.919 -0.3251 -1.0258 -0.8521
 9687SOL     OW32015   8.033   4.218   9.832 -0.1342 -0.5861  0.4996
 9687SOL    HW132016   8.033   4.310   9.859  0.6068  0.1487 -1.7805
 9687SOL    HW232017   8.126   4.195   9.825 -0.3167 -1.2437  0.1717
 9688SOL     OW32018   4.970   3.852   0.538  0.5987 -0.2603  0.0567
 9688SOL    HW132019   5.024   3.914   0.487  1.0171 -0.5241  0.1720
 9688SOL    HW232020   4.993   3.871   0.629 -0.9979  0.9973  0.2367
 9689SOL     OW32021   7.345  10.389   6.789  0.1599 -0.7320  0.7276
 9689SOL    HW132022   7.365  10.474   6.749  0.6593 -0.6587  1.1358
 9689SOL    HW232023   7.372  10.325   6.723  1.3103 -0.6219  1.0757
 9690SOL     OW32024   1.609   3.312   0.024 -0.3932  0.1027  0.5294
 9690SOL    HW132025   1.689   3.326   0.075 -0.3077  1.3393  0.1027
 9690SOL    HW232026   1.538   3.330   0.086 -0.4188 -2.0497  1.2153
 9691SOL     OW32027   7.755   6.092   6.480  0.1174  0.1191 -0.1584
 9691SOL    HW132028   7.696   6.026   6.442  0.9719  0.2971 -1.9312
 9691SOL    HW232029   7.840   6.049   6.483  0.1532  0.2373  1.3278
 9692SOL     OW32030   6.918   5.259   2.367 -0.7510  0.1703 -0.1740
 9692SOL    HW132031   6.848   5.316   2.337 -0.3871  1.0467  0.6092
 9692SOL    HW232032   6.978   5.254   2.293 -1.5993 -0.5555 -0.8370
 9693SOL     OW32033   3.203   1.739   3.946 -0.0896 -0.1656  0.0958
 9693SOL    HW132034   3.252   1.750   4.027 -0.8209  0.4031  0.4772
 9693SOL    HW232035   3.173   1.828   3.924 -0.7577 -0.4690 -0.2379
 9694SOL     OW32036   5.666   1.977   3.525  0.0449  0.1187 -0.2128
 9694SOL    HW132037   5.708   1.905   3.573  0.8745  0.7588  0.0302
 9694SOL    HW232038   5.573   1.954   3.526  0.0116  0.1500  1.8178
 9695SOL     OW32039   8.563   4.401   6.960 -0.0277  0.6903 -0.2561
 9695SOL    HW132040   8.515   4.429   6.882 -2.2192 -1.2928  0.2238
 9695SOL    HW232041   8.593   4.312   6.939  2.2925  1.3512  0.0082
 9696SOL     OW32042   5.329   6.895  10.149  0.3577  0.2002 -0.1244
 9696SOL    HW132043   5.391   6.949  10.198 -0.6761  0.8317  0.5318
 9696SOL    HW232044   5.278   6.958  10.097  0.0302 -0.2679 -0.3769
 9697SOL     OW32045   0.959   7.487   4.441  0.2104  0.2310 -0.0824
 9697SOL    HW132046   0.899   7.561   4.434  0.1376 -0.0071 -3.6226
 9697SOL    HW232047   0.907   7.417   4.481 -1.1808  0.7529 -0.8966
 9698SOL     OW32048   8.237   4.571  10.067  0.4214  0.0845  0.3137
 9698SOL    HW132049   8.153   4.617  10.062  0.6379  0.4061 -0.5489
 9698SOL    HW232050   8.228   4.514  10.144 -0.9272 -0.5815 -0.2981
 9699SOL     OW32051   6.106   6.823   7.664 -0.2113 -0.2304 -0.0268
 9699SOL    HW132052   6.112   6.815   7.759  0.1447 -0.6227 -0.0809
 9699SOL    HW232053   6.195   6.808   7.633 -0.5903 -1.5405 -0.5221
 9700SOL     OW32054   3.332   9.330   3.460 -0.2653  0.5184  0.0326
 9700SOL    HW132055   3.273   9.390   3.506 -0.0369  0.8376 -0.0895
 9700SOL    HW232056   3.288   9.312   3.377 -0.2987  0.5755  0.0379
 9701SOL     OW32057   8.504   9.087   6.527 -0.2402 -0.1301  0.1027
 9701SOL    HW132058   8.546   9.015   6.574 -3.0807 -1.5551  0.6870
 9701SOL    HW232059   8.486   9.052   6.440 -0.2345  0.4504 -0.1399
 9702SOL     OW32060   8.088   4.994   2.029  0.1237  0.6113  0.3582
 9702SOL    HW132061   8.049   4.942   2.099 -0.2960  2.0060  1.1990
 9702SOL    HW232062   8.182   4.973   2.032 -0.1204 -0.5458  0.2575
 9703SOL     OW32063   7.648   3.140  10.228 -0.4927  0.1125 -0.4087
 9703SOL    HW132064   7.653   3.234  10.242  0.4381 -0.0173  0.1546
 9703SOL    HW232065   7.739   3.110  10.225 -0.6759 -0.4263 -3.0874
 9704SOL     OW32066   8.241  10.262   7.520 -0.7300  0.3634  0.3288
 9704SOL    HW132067   8.192  10.344   7.521 -1.3716  0.0925 -2.1697
 9704SOL    HW232068   8.298  10.267   7.597 -1.1395  2.8842  0.5509
 9705SOL     OW32069   2.390   7.646   6.962 -0.5489 -0.3134  0.6646
 9705SOL    HW132070   2.418   7.673   6.874  1.1122  1.2346  1.5808
 9705SOL    HW232071   2.412   7.721   7.017 -0.7179 -1.5946  2.5546
 9706SOL     OW32072   3.438   3.397   0.990 -0.8129 -0.5355  0.6991
 9706SOL    HW132073   3.404   3.409   1.079  0.6066 -2.4950  1.5706
 9706SOL    HW232074   3.404   3.312   0.963  1.3589 -1.4471  0.6770
 9707SOL     OW32075   5.287   7.854   0.289 -0.0461 -0.2022 -0.1954
 9707SOL    HW132076   5.341   7.827   0.215 -0.1656  0.5260 -0.5621
 9707SOL    HW232077   5.342   7.841   0.366  0.3913 -0.1450 -0.4971
 9708SOL     OW32078   4.949   0.138   8.019  0.2324 -0.6710  0.0391
 9708SOL    HW132079   4.927   0.045   8.028  2.6171 -1.2585  0.5828
 9708SOL    HW232080   5.035   0.138   7.976  0.0676  1.3027 -0.3548
 9709SOL     OW32081   2.261   7.572   1.619  0.3093 -0.4689  0.3219
 9709SOL    HW132082   2.204   7.602   1.690  0.3197 -0.0573  0.1626
 9709SOL    HW232083   2.348   7.566   1.658  0.1260 -1.3087  0.6218
 9710SOL     OW32084   6.432   8.516   8.353 -0.6052 -0.1093 -0.5139
 9710SOL    HW132085   6.372   8.501   8.279 -0.1494  0.0869 -0.9323
 9710SOL    HW232086   6.447   8.429   8.390 -0.2525 -0.3159 -1.1240
 9711SOL     OW32087   5.986   8.663   2.540  0.5052 -0.4582 -0.2327
 9711SOL    HW132088   6.054   8.649   2.606 -1.5502 -0.7512  1.9959
 9711SOL    HW232089   5.996   8.755   2.514  0.7457 -0.0028  1.3376
 9712SOL     OW32090  10.094   2.186   2.099  0.1813  0.8677 -0.1518
 9712SOL    HW132091  10.153   2.245   2.146  0.4808  0.7297 -0.3455
 9712SOL    HW232092  10.067   2.121   2.164  2.8663 -1.0587 -0.7703
 9713SOL     OW32093   6.769   6.670   4.157  0.0524  0.2567 -0.2069
 9713SOL    HW132094   6.792   6.594   4.104  0.0201 -0.2871  0.5440
 9713SOL    HW232095   6.840   6.733   4.141  0.5144 -0.2533 -0.2019
 9714SOL     OW32096   7.417   0.016   0.805  0.2213  0.2054  0.1227
 9714SOL    HW132097   7.419   0.110   0.825  1.2410  0.0755  0.6996
 9714SOL    HW232098   7.472  -0.024   0.873 -1.0019 -0.9254  0.4877
 9715SOL     OW32099   1.208   4.338   0.658  0.3333  0.3787  0.6096
 9715SOL    HW132100   1.193   4.366   0.749  0.3567 -3.1674  1.8710
 9715SOL    HW232101   1.122   4.341   0.617  0.3468  2.1574  0.6173
 9716SOL     OW32102   0.515   4.438   0.333 -0.3805  0.0907 -0.1844
 9716SOL    HW132103   0.496   4.528   0.359 -0.8249  0.6316 -2.2060
 9716SOL    HW232104   0.591   4.445   0.276  1.0811 -1.1461  1.4786
 9717SOL     OW32105   3.378   1.932   3.163  0.0402  0.3418 -0.7416
 9717SOL    HW132106   3.322   1.957   3.090 -1.8164  1.1333  0.8476
 9717SOL    HW232107   3.439   2.005   3.173 -0.6963  0.9350 -0.5531
 9718SOL     OW32108   7.302   6.036   1.479 -0.2287  0.1419  0.1315
 9718SOL    HW132109   7.307   6.082   1.395 -2.7397 -1.1065 -0.7891
 9718SOL    HW232110   7.216   6.058   1.514 -0.2866 -1.4524  1.1026
 9719SOL     OW32111   3.295   7.879   7.278  0.5801 -0.1023 -0.0867
 9719SOL    HW132112   3.285   7.953   7.338 -2.0971 -0.1203 -0.3994
 9719SOL    HW232113   3.264   7.911   7.194  0.8542 -1.1388 -0.6071
 9720SOL     OW32114   9.022   9.568   4.467 -0.3391 -0.3254  0.3838
 9720SOL    HW132115   9.037   9.607   4.381  1.2561  0.1307  0.8403
 9720SOL    HW232116   8.994   9.479   4.448  1.6140 -0.7639 -0.6053
 9721SOL     OW32117   1.847   4.874   9.366 -0.3641 -0.5274 -0.1609
 9721SOL    HW132118   1.935   4.845   9.344 -0.7397 -1.4243 -0.5450
 9721SOL    HW232119   1.821   4.821   9.441  0.6348  2.0327  2.1590
 9722SOL     OW32120   1.575   2.260   1.483 -0.6235  0.3099  0.0099
 9722SOL    HW132121   1.499   2.205   1.498 -0.7938  0.3604 -0.6727
 9722SOL    HW232122   1.636   2.205   1.434 -0.9832  0.8680 -1.0913
 9723SOL     OW32123   6.141   3.757   9.471 -0.6690 -0.1638  0.2364
 9723SOL    HW132124   6.142   3.729   9.379  1.2444 -0.1452  0.2151
 9723SOL    HW232125   6.166   3.679   9.520 -1.2909 -0.0647  0.7101
 9724SOL     OW32126   3.130   4.767  10.346  0.0894  0.5405  0.2887
 9724SOL    HW132127   3.202   4.750  10.285  0.2336  1.0878  0.2994
 9724SOL    HW232128   3.168   4.823  10.413 -0.4184  1.0890  0.1326
 9725SOL     OW32129   8.524   1.792   0.941 -0.7144  0.1046  0.3788
 9725SOL    HW132130   8.504   1.700   0.958  1.8005 -0.1773  2.6303
 9725SOL    HW232131   8.492   1.838   1.019  0.6093  0.6607  0.6207
 9726SOL     OW32132   5.847   4.447   7.412  0.3875 -0.0322  0.3431
 9726SOL    HW132133   5.923   4.440   7.470 -0.6661  1.0025  1.9107
 9726SOL    HW232134   5.783   4.498   7.461 -0.6202  0.8021 -1.7017
 9727SOL     OW32135   7.498  10.351   4.202  0.5086  0.0898 -0.5486
 9727SOL    HW132136   7.450  10.430   4.178  1.1277  0.2206 -1.3867
 9727SOL    HW232137   7.468  10.285   4.139  0.8097 -0.0476 -0.5500
 9728SOL     OW32138   4.705   8.360   1.738  0.0414  0.0434  0.2293
 9728SOL    HW132139   4.744   8.277   1.710 -1.1992 -0.7346  0.7089
 9728SOL    HW232140   4.612   8.339   1.753 -0.6210  1.8511 -1.0072
 9729SOL     OW32141   4.410   0.680   3.289  0.2881 -0.3168  0.3930
 9729SOL    HW132142   4.457   0.712   3.366 -0.6572  2.7563 -0.1847
 9729SOL    HW232143   4.474   0.628   3.241  1.4531 -0.6993  2.2715
 9730SOL     OW32144   9.813   9.495   7.673 -0.2027 -0.0409 -0.0941
 9730SOL    HW132145   9.793   9.514   7.581 -0.6880  1.4854  0.2994
 9730SOL    HW232146   9.729   9.503   7.718  0.0271 -0.8039  0.4828
 9731SOL     OW32147   9.054   6.045   5.098  0.0466  0.6390 -0.0938
 9731SOL    HW132148   9.081   5.959   5.128  0.6869  1.2732  1.2391
 9731SOL    HW232149   8.970   6.030   5.054  0.6021 -0.7788 -0.7197
 9732SOL     OW32150   3.908   6.480   5.603  0.5790  0.1581 -0.8102
 9732SOL    HW132151   3.966   6.556   5.596  2.0912 -0.9881 -1.0354
 9732SOL    HW232152   3.947   6.414   5.546  0.9826 -1.8549  1.6497
 9733SOL     OW32153   8.192   3.151  10.506 -0.3803 -0.1521 -0.2608
 9733SOL    HW132154   8.157   3.148  10.595  0.2649 -1.5270 -0.0212
 9733SOL    HW232155   8.116   3.138  10.449 -0.7308  0.2900  0.0983
 9734SOL     OW32156   5.424   2.543   5.725  0.4629  0.0721 -0.7457
 9734SOL    HW132157   5.452   2.547   5.633 -0.9736 -0.2635 -1.2259
 9734SOL    HW232158   5.356   2.610   5.732  0.4953  0.0284  0.0549
 9735SOL     OW32159   3.320   6.175  10.051  0.1988  0.0488  0.1224
 9735SOL    HW132160   3.350   6.177   9.960  1.5666  1.4071  0.5804
 9735SOL    HW232161   3.366   6.100  10.090 -0.3615 -0.5119 -0.2673
 9736SOL     OW32162   8.058   1.185   9.954  0.5745  0.2461  0.4339
 9736SOL    HW132163   8.032   1.263   9.905 -0.2935 -0.6575 -0.6158
 9736SOL    HW232164   8.011   1.191  10.037  0.0411  0.5368  0.1134
 9737SOL     OW32165   9.398   6.132   0.176 -0.2185 -0.1781  0.3339
 9737SOL    HW132166   9.394   6.050   0.127 -1.7641  0.5323 -0.7767
 9737SOL    HW232167   9.395   6.104   0.268  0.6335 -1.4161  0.0125
 9738SOL     OW32168   7.908   5.301  10.118  0.0096  0.1465  0.0738
 9738SOL    HW132169   7.853   5.363  10.166  0.0286  1.4210 -1.4945
 9738SOL    HW232170   7.901   5.219  10.168 -2.3462  0.5959  0.5822
 9739SOL     OW32171   5.959   3.610   4.520 -0.3474 -0.3963  0.8150
 9739SOL    HW132172   5.967   3.661   4.601  0.6267 -1.8662  1.6893
 9739SOL    HW232173   5.865   3.609   4.501 -0.3477  2.3620  0.2879
 9740SOL     OW32174   4.457   4.368   4.561  0.4812 -0.9747  0.7041
 9740SOL    HW132175   4.367   4.379   4.594  0.0004  1.3720 -1.0637
 9740SOL    HW232176   4.452   4.294   4.501 -1.3715  1.3149 -2.2926
 9741SOL     OW32177   9.010   8.321   8.782  0.5806 -0.3094 -0.3779
 9741SOL    HW132178   9.012   8.314   8.686  0.2546 -1.8202 -0.3006
 9741SOL    HW232179   8.979   8.410   8.799  3.2646  0.9696 -1.6490
 9742SOL     OW32180   0.858   9.016   7.064 -0.0797 -0.0810  0.0499
 9742SOL    HW132181   0.937   9.006   7.117  0.4396  0.0959 -0.6735
 9742SOL    HW232182   0.786   9.001   7.125  0.3873  2.6085  1.4071
 9743SOL     OW32183   3.249   2.939   2.095  0.2094  0.3567 -0.4868
 9743SOL    HW132184   3.242   2.885   2.173  0.4215  1.3683  0.2536
 9743SOL    HW232185   3.318   3.003   2.116  0.0536  0.8361 -1.3780
 9744SOL     OW32186   3.302   1.023   4.578 -0.6110 -0.8506  0.2407
 9744SOL    HW132187   3.390   0.991   4.599 -0.1214 -0.5368 -1.1889
 9744SOL    HW232188   3.257   0.946   4.542  0.0314 -0.3854 -1.6651
 9745SOL     OW32189   0.013   2.333   5.859 -0.1847 -0.3558  0.2725
 9745SOL    HW132190   0.012   2.265   5.793  1.3903  0.7793 -1.0009
 9745SOL    HW232191  -0.073   2.329   5.900 -1.0568 -1.3463 -1.5798
 9746SOL     OW32192   8.636   5.267  10.159  0.3616  0.0988 -0.1254
 9746SOL    HW132193   8.636   5.257  10.064 -0.0707 -1.4757  0.0025
 9746SOL    HW232194   8.659   5.358  10.174  0.8510  0.2652 -1.7251
 9747SOL     OW32195   9.856   2.460   2.199  0.2074 -0.0500  0.5484
 9747SOL    HW132196   9.873   2.366   2.185 -1.0516 -0.2237  0.0763
 9747SOL    HW232197   9.780   2.462   2.257 -0.2344  0.6706 -0.0448
 9748SOL     OW32198   3.100   6.371   9.630  0.3510  0.3462  0.2582
 9748SOL    HW132199   3.152   6.441   9.670 -0.4637  1.3965 -0.4549
 9748SOL    HW232200   3.037   6.346   9.697  1.1356 -0.2822  0.7923
 9749SOL     OW32201   9.536   1.807   3.607 -0.2311  0.1721  0.0673
 9749SOL    HW132202   9.541   1.730   3.549  0.0133 -0.5571  1.0307
 9749SOL    HW232203   9.615   1.857   3.587 -1.0625  0.9081 -1.5399
 9750SOL     OW32204   0.067   3.596   0.073  0.0272  0.1195  0.2286
 9750SOL    HW132205   0.105   3.527   0.127  0.2184  0.2617  0.2785
 9750SOL    HW232206   0.129   3.669   0.081 -0.3143  0.3953  0.4048
 9751SOL     OW32207   8.725   1.052   1.691 -0.1413 -0.1741  0.0783
 9751SOL    HW132208   8.685   1.036   1.777 -0.7199  1.1746  0.0856
 9751SOL    HW232209   8.675   0.996   1.631  1.0917 -2.1042  0.7668
 9752SOL     OW32210   6.218   6.343  10.093 -0.1880 -0.1420 -0.4963
 9752SOL    HW132211   6.296   6.287  10.103 -1.0117 -1.2142  0.2057
 9752SOL    HW232212   6.160   6.293  10.036 -0.7103  0.2566 -0.3224
 9753SOL     OW32213   4.514   8.521   6.668 -0.3793  0.2635 -0.0397
 9753SOL    HW132214   4.579   8.549   6.603 -1.0297 -1.4734 -1.5142
 9753SOL    HW232215   4.565   8.470   6.731 -0.3583 -2.0667 -1.8044
 9754SOL     OW32216   0.303   5.748   1.400  0.0509  0.0040 -0.1728
 9754SOL    HW132217   0.363   5.815   1.430 -0.6321  0.4381  0.2567
 9754SOL    HW232218   0.225   5.796   1.373 -0.2549 -0.5777 -0.3440
 9755SOL     OW32219   5.890   2.226   4.095 -0.3666 -0.6852 -0.1747
 9755SOL    HW132220   5.976   2.191   4.119  0.6215  1.7768  0.2099
 9755SOL    HW232221   5.899   2.253   4.004 -0.1144  1.1160  0.3371
 9756SOL     OW32222   4.408   9.940   5.487  0.2145  0.2782  0.0485
 9756SOL    HW132223   4.371  10.027   5.500 -1.7580 -0.4862 -0.1699
 9756SOL    HW232224   4.502   9.952   5.499 -0.2177  1.9601  2.5034
 9757SOL     OW32225  10.559   0.577   0.205  0.2295  0.2481 -0.1703
 9757SOL    HW132226  10.556   0.652   0.264  1.6483  2.2075 -2.3952
 9757SOL    HW232227  10.560   0.500   0.262 -0.1068  1.9493  2.2381
 9758SOL     OW32228   7.833  10.448   7.880  0.3400  0.3982  0.1821
 9758SOL    HW132229   7.751  10.434   7.832  0.4013  1.5829 -0.3252
 9758SOL    HW232230   7.883  10.368   7.867 -0.4419 -0.0568 -0.1036
 9759SOL     OW32231   2.982   5.443   2.664 -0.0359 -0.1113 -0.1693
 9759SOL    HW132232   2.921   5.517   2.662  1.0487  0.8192 -2.0140
 9759SOL    HW232233   2.937   5.376   2.716 -1.6366  1.3435  0.4115
 9760SOL     OW32234   4.981   9.131   1.829  0.0842 -0.3608 -0.2074
 9760SOL    HW132235   4.905   9.186   1.810  0.3180  1.0586  2.5091
 9760SOL    HW232236   5.054   9.192   1.838  0.7549 -1.2812  1.0046
 9761SOL     OW32237   6.269   1.604   1.628  0.0403 -0.0040  0.0415
 9761SOL    HW132238   6.248   1.568   1.542  0.7413 -0.4360  0.0496
 9761SOL    HW232239   6.350   1.561   1.654  1.1109  1.8113 -0.0850
 9762SOL     OW32240  10.046   3.179   6.185  0.3581 -0.0361 -0.2737
 9762SOL    HW132241  10.124   3.229   6.161 -0.6790  2.3489  1.0418
 9762SOL    HW232242  10.000   3.165   6.102  0.0002  2.4822 -0.5744
 9763SOL     OW32243   8.650   9.637   9.933  0.0768 -0.3079 -0.2917
 9763SOL    HW132244   8.697   9.712   9.896 -1.5418  1.6064  1.2926
 9763SOL    HW232245   8.662   9.646  10.028  0.8053 -2.7820 -0.0675
 9764SOL     OW32246   4.001   3.633  10.561 -0.0237  0.0619 -0.3519
 9764SOL    HW132247   4.040   3.712  10.523  0.0400  0.6294  0.8296
 9764SOL    HW232248   4.051   3.561  10.523  1.1825  0.7021 -0.0375
 9765SOL     OW32249   5.336   8.985   3.645  0.4589 -0.2310 -0.3809
 9765SOL    HW132250   5.404   8.928   3.608 -0.1174 -0.5157 -1.0366
 9765SOL    HW232251   5.373   9.073   3.642  0.8224 -0.3925 -0.6548
 9766SOL     OW32252   1.260   6.293   7.853  0.3881 -0.6861 -0.1935
 9766SOL    HW132253   1.266   6.220   7.915 -2.5823 -1.1000 -0.2258
 9766SOL    HW232254   1.301   6.260   7.773  0.8316 -1.5926  0.3888
 9767SOL     OW32255   9.492   9.146  10.530 -0.7521  0.0064 -0.9014
 9767SOL    HW132256   9.442   9.213  10.576  0.2208 -0.5019  1.0348
 9767SOL    HW232257   9.427   9.083  10.500 -1.4545  0.4953 -0.4278
 9768SOL     OW32258   4.203   5.150   7.029 -1.0497 -0.2394  0.6121
 9768SOL    HW132259   4.140   5.144   6.957 -3.1782  0.0506  2.3333
 9768SOL    HW232260   4.265   5.079   7.013 -2.0785 -0.8497 -0.9088
 9769SOL     OW32261   0.163   2.437   2.259  0.2434 -0.9572  0.2757
 9769SOL    HW132262   0.237   2.469   2.208  2.0174  0.5033  3.4623
 9769SOL    HW232263   0.088   2.487   2.227  1.4792  0.6661 -0.1965
 9770SOL     OW32264   0.044   6.364   7.264 -0.0462 -0.0420 -0.1022
 9770SOL    HW132265   0.010   6.328   7.182  1.8494 -2.4538  0.0458
 9770SOL    HW232266   0.104   6.434   7.236 -0.2206 -0.1222 -0.7069
 9771SOL     OW32267   6.550   8.876   0.210  0.0439  0.2314  0.2900
 9771SOL    HW132268   6.507   8.962   0.202  0.1292  0.1285 -1.8362
 9771SOL    HW232269   6.594   8.880   0.294  0.1334  2.3439  0.2142
 9772SOL     OW32270   0.784   7.940   5.215  0.0187 -0.1208  0.6265
 9772SOL    HW132271   0.811   7.982   5.133  2.0549  0.5178  1.5613
 9772SOL    HW232272   0.792   8.008   5.281  0.3830 -1.1604  1.6907
 9773SOL     OW32273   7.474   4.906   7.406 -0.1474 -0.5120  0.4512
 9773SOL    HW132274   7.412   4.840   7.374  0.9401 -1.6467  0.6259
 9773SOL    HW232275   7.423   4.959   7.468 -1.3050 -0.5412 -0.4485
 9774SOL     OW32276   0.447   9.674  10.251  0.3415 -0.0515  0.3387
 9774SOL    HW132277   0.416   9.724  10.175 -1.3345 -1.0321  0.3311
 9774SOL    HW232278   0.367   9.645  10.295  1.2640 -1.5588  1.1014
 9775SOL     OW32279   9.522   8.716   9.035 -0.3089  0.2290 -0.1738
 9775SOL    HW132280   9.478   8.754   8.959  1.5745 -1.5515 -2.3078
 9775SOL    HW232281   9.607   8.760   9.038 -0.6174  0.8102  1.4523
 9776SOL     OW32282   1.684   8.044   5.728 -0.3847  0.1329 -0.5631
 9776SOL    HW132283   1.598   8.035   5.687 -0.3531  0.8529 -0.8132
 9776SOL    HW232284   1.726   8.115   5.679 -0.2697  0.8702  0.5731
 9777SOL     OW32285   8.368   2.454   0.569 -0.2017  0.0480  0.2630
 9777SOL    HW132286   8.281   2.492   0.562  0.2309  1.0405  0.1347
 9777SOL    HW232287   8.388   2.456   0.662 -0.3121 -0.1805  0.2925
 9778SOL     OW32288   4.708   7.024   8.418  0.0526  0.2354 -0.3494
 9778SOL    HW132289   4.707   6.971   8.339 -0.8017 -1.2447  0.6114
 9778SOL    HW232290   4.721   7.114   8.386 -2.1778 -0.0387 -2.3415
 9779SOL     OW32291   6.965   6.437   0.523  0.3549 -0.1793  0.3012
 9779SOL    HW132292   7.027   6.481   0.582  0.1719  1.2289 -0.5048
 9779SOL    HW232293   6.888   6.494   0.522  0.5503  0.1218 -1.6666
 9780SOL     OW32294   0.348   5.664   1.846  0.5126  0.3289  0.6274
 9780SOL    HW132295   0.342   5.615   1.764 -0.1594 -1.1179  1.4813
 9780SOL    HW232296   0.377   5.599   1.910  0.5315  1.2952  1.6356
 9781SOL     OW32297   9.173  10.281   9.845  0.0249  0.3979  0.0877
 9781SOL    HW132298   9.201  10.195   9.877  0.9082 -0.0139 -1.7014
 9781SOL    HW232299   9.253  10.324   9.816 -0.8076  0.2417 -2.7061
 9782SOL     OW32300   5.437   8.534   9.095  0.1854  0.4730 -0.4607
 9782SOL    HW132301   5.528   8.548   9.119  0.4590 -0.4559 -0.9184
 9782SOL    HW232302   5.393   8.514   9.178  0.7990 -1.0399 -0.4540
 9783SOL     OW32303   2.647   1.214   0.978 -0.3057 -0.1730 -0.0819
 9783SOL    HW132304   2.591   1.136   0.980  0.0085 -0.3863  1.1343
 9783SOL    HW232305   2.621   1.259   0.898  0.0894 -1.9370 -1.2766
 9784SOL     OW32306   9.700   3.148   5.066 -0.2131  0.0513 -0.0674
 9784SOL    HW132307   9.689   3.130   5.159 -0.5229  0.8868  0.0689
 9784SOL    HW232308   9.680   3.064   5.023 -0.2515 -0.2912  0.6033
 9785SOL     OW32309   3.962   8.867   4.682  0.1247 -0.5576  0.3012
 9785SOL    HW132310   3.912   8.787   4.673  0.6998 -0.8339 -0.5222
 9785SOL    HW232311   4.049   8.839   4.710  0.5712 -0.3026 -0.7804
 9786SOL     OW32312   5.195   6.713   0.241  0.4296  0.5698 -0.1779
 9786SOL    HW132313   5.202   6.808   0.234 -0.2612  0.7497  1.1619
 9786SOL    HW232314   5.285   6.683   0.250  0.5413  1.3322  1.6260
 9787SOL     OW32315  10.392   3.369   4.409  0.9107  0.0130 -0.0746
 9787SOL    HW132316  10.485   3.388   4.420  1.1643 -1.7679  1.6283
 9787SOL    HW232317  10.370   3.314   4.485 -1.0511 -1.2242 -1.4258
 9788SOL     OW32318   3.927   1.040   6.353  0.2379  0.2460 -0.2905
 9788SOL    HW132319   3.897   0.978   6.421  0.0953 -1.3905 -1.7735
 9788SOL    HW232320   3.922   0.990   6.272  2.2803  1.5143 -1.2776
 9789SOL     OW32321   9.286   4.098  10.545 -0.7047 -0.0262  0.3229
 9789SOL    HW132322   9.287   4.124  10.638 -0.4551 -0.8375  0.5532
 9789SOL    HW232323   9.311   4.177  10.498 -0.1806  0.2169  0.9957
 9790SOL     OW32324   5.463  10.378   2.119  0.0370 -0.4572  0.4401
 9790SOL    HW132325   5.500  10.466   2.124 -2.9204  0.9272  0.1316
 9790SOL    HW232326   5.444  10.365   2.026 -0.6221 -0.9152  0.6291
 9791SOL     OW32327   3.685   8.848   9.735 -0.1228 -0.3343  0.1552
 9791SOL    HW132328   3.715   8.937   9.716  0.6763 -0.3233  1.3504
 9791SOL    HW232329   3.617   8.859   9.802  2.7939 -0.7235  3.5299
 9792SOL     OW32330   7.738   0.325   8.961 -0.2658 -0.3721  0.6535
 9792SOL    HW132331   7.783   0.295   9.039  0.6125  0.0177  0.3091
 9792SOL    HW232332   7.789   0.400   8.931 -1.5505  0.5405  0.6510
 9793SOL     OW32333   9.280   1.720   2.553  0.7410 -0.2458  0.3696
 9793SOL    HW132334   9.215   1.779   2.591 -0.4650 -0.2991 -1.4874
 9793SOL    HW232335   9.264   1.635   2.595 -0.9087 -0.4305 -0.5541
 9794SOL     OW32336   3.461   0.153   7.355 -0.3310 -0.0643  0.7365
 9794SOL    HW132337   3.438   0.164   7.263  0.4800 -0.9996  0.3995
 9794SOL    HW232338   3.386   0.107   7.393 -1.0877  1.1682  0.7789
 9795SOL     OW32339   8.060   9.115   7.340 -0.1941 -0.7421 -0.0750
 9795SOL    HW132340   8.138   9.059   7.338  0.0483 -0.3918 -0.8978
 9795SOL    HW232341   8.074   9.173   7.415  0.7852 -0.0662 -0.7479
 9796SOL     OW32342   6.155   1.337  10.466  0.6927 -0.0300  0.1361
 9796SOL    HW132343   6.227   1.284  10.500  1.1237  0.4930  0.0717
 9796SOL    HW232344   6.102   1.358  10.542  1.5731  1.0176  0.4842
 9797SOL     OW32345  10.480   3.717   6.902 -0.3989 -0.2598  0.0821
 9797SOL    HW132346  10.486   3.682   6.991 -0.5571  1.9991  1.0460
 9797SOL    HW232347  10.554   3.676   6.856  1.1268  0.2646  1.9227
 9798SOL     OW32348   2.724   7.205   5.203 -0.0930 -0.4436  0.1997
 9798SOL    HW132349   2.690   7.294   5.203 -0.8038 -0.7038  0.6824
 9798SOL    HW232350   2.728   7.180   5.295  0.7134 -0.6941  0.1088
 9799SOL     OW32351  10.463   2.667   7.579  0.8436  0.5599  0.7027
 9799SOL    HW132352  10.511   2.684   7.498  1.1732 -0.0146  0.7763
 9799SOL    HW232353  10.465   2.751   7.626  0.6050  0.9135  0.0980
 9800SOL     OW32354   1.148   0.054   2.758 -0.3174  0.2076 -0.4704
 9800SOL    HW132355   1.115  -0.036   2.749 -1.7936  0.5523  0.9753
 9800SOL    HW232356   1.097   0.091   2.830  1.8572  1.4973  0.4927
 9801SOL     OW32357   7.680   1.629   3.983 -0.1707 -0.4085 -0.5665
 9801SOL    HW132358   7.750   1.676   3.938  0.7417  0.5570  1.7023
 9801SOL    HW232359   7.661   1.554   3.927  0.6589  0.8397 -2.6575
 9802SOL     OW32360   6.677   8.386   0.718  0.1383 -0.4965 -0.9476
 9802SOL    HW132361   6.772   8.378   0.723  0.0656 -1.2226 -0.7461
 9802SOL    HW232362   6.657   8.371   0.625  0.0563 -2.1863 -0.6792
 9803SOL     OW32363   6.990   9.169   8.740 -0.3513 -0.2555 -0.5776
 9803SOL    HW132364   6.971   9.088   8.691 -2.5099  0.2150 -0.5688
 9803SOL    HW232365   6.940   9.237   8.695  1.0717  1.0302 -0.2952
 9804SOL     OW32366   7.536   2.700   4.610 -0.0606 -0.1946 -0.6005
 9804SOL    HW132367   7.451   2.703   4.654  0.8511 -0.8163  1.3004
 9804SOL    HW232368   7.596   2.667   4.677  1.4473 -0.9745 -2.2798
 9805SOL     OW32369  10.344   6.516   2.329  0.0572 -0.1955 -0.1440
 9805SOL    HW132370  10.294   6.477   2.257 -1.0762 -0.1081  0.5751
 9805SOL    HW232371  10.428   6.470   2.327 -0.0797 -0.4226 -1.3071
 9806SOL     OW32372   5.066   6.742   4.991 -0.0963 -0.6108  0.3018
 9806SOL    HW132373   5.024   6.814   4.944  2.3837  0.7871  0.0993
 9806SOL    HW232374   5.044   6.664   4.940  0.1978  0.4946 -1.6102
 9807SOL     OW32375   8.396   4.945   3.091 -0.1646  0.1145 -0.3479
 9807SOL    HW132376   8.408   4.899   3.008  0.1487 -2.6120  1.0934
 9807SOL    HW232377   8.485   4.949   3.128 -0.4210  0.5351  0.2286
 9808SOL     OW32378   6.932   2.735   7.635  0.1655 -0.0198  0.0361
 9808SOL    HW132379   6.921   2.641   7.620  1.0681 -0.1629  0.1961
 9808SOL    HW232380   6.893   2.751   7.720 -0.3349 -0.1742 -0.1617
 9809SOL     OW32381  10.520   3.493   5.435  0.1056 -0.2677 -0.0981
 9809SOL    HW132382  10.430   3.523   5.423  0.4097 -0.0840 -2.4175
 9809SOL    HW232383  10.518   3.400   5.414  0.6291  0.0015 -1.5163
 9810SOL     OW32384   8.383   3.247   6.725 -0.4765  0.1447 -0.7272
 9810SOL    HW132385   8.404   3.320   6.668  1.9128  0.9450  0.9925
 9810SOL    HW232386   8.431   3.265   6.806  1.0247 -3.7423 -0.5189
 9811SOL     OW32387   0.969  10.194   1.774 -0.0750 -0.1302  0.3742
 9811SOL    HW132388   0.883  10.168   1.809  0.2819 -2.4120 -0.2601
 9811SOL    HW232389   0.971  10.157   1.686  1.1919  0.7349  0.0128
 9812SOL     OW32390   4.889   9.109   8.446  0.1149  0.1061  0.1170
 9812SOL    HW132391   4.910   9.095   8.539  0.1487  0.1733  0.1193
 9812SOL    HW232392   4.888   9.021   8.409  3.6063  0.2355 -0.5764
 9813SOL     OW32393   1.275   0.600   0.274 -0.3581  0.1322 -0.8155
 9813SOL    HW132394   1.319   0.621   0.357 -1.5242  0.2236 -0.2102
 9813SOL    HW232395   1.248   0.509   0.284 -1.1937  0.3796 -0.7747
 9814SOL     OW32396   4.303   9.203   7.361  0.2611 -0.3730  0.1852
 9814SOL    HW132397   4.228   9.148   7.382  0.6243 -1.2991 -0.8523
 9814SOL    HW232398   4.370   9.176   7.424 -0.5805  1.2476  1.8645
 9815SOL     OW32399   0.783   3.225   0.250  0.5453 -0.5010  0.2751
 9815SOL    HW132400   0.759   3.228   0.158  0.0966 -0.3868  0.3958
 9815SOL    HW232401   0.803   3.133   0.267 -0.3978 -0.7035  0.3245
 9816SOL     OW32402   6.048   2.969   2.403  0.2849  0.1163 -0.2804
 9816SOL    HW132403   6.137   2.947   2.379  0.0409 -0.2807 -0.8435
 9816SOL    HW232404   6.057   3.029   2.477  0.9862 -1.9066  1.3903
 9817SOL     OW32405   7.998   0.956   3.975  0.5934 -0.1045  0.4182
 9817SOL    HW132406   8.025   0.995   3.892  2.2401  1.1683  1.4947
 9817SOL    HW232407   8.034   0.868   3.973  1.0965  0.1059  0.0129
 9818SOL     OW32408   6.690   0.613   9.548  0.7702 -0.3389  0.2137
 9818SOL    HW132409   6.624   0.578   9.488  0.5752 -1.5065  1.0714
 9818SOL    HW232410   6.746   0.538   9.569  0.0459 -0.3196  2.4989
 9819SOL     OW32411   2.699   4.444   3.456  0.2542 -0.5766 -0.1774
 9819SOL    HW132412   2.756   4.384   3.504  2.3979  0.4808 -1.2692
 9819SOL    HW232413   2.645   4.484   3.524  3.1294  0.8075  1.4599
 9820SOL     OW32414   0.707   0.690   8.120 -0.0229 -0.4777 -0.0523
 9820SOL    HW132415   0.760   0.738   8.185 -1.1827 -3.2803  3.2768
 9820SOL    HW232416   0.629   0.743   8.109  0.0344 -0.0889  1.2085
 9821SOL     OW32417   9.618  10.418   0.550  0.5046 -0.3495  0.5873
 9821SOL    HW132418   9.573  10.502   0.563 -0.0456 -0.5275 -0.1005
 9821SOL    HW232419   9.600  10.369   0.630  0.0064 -0.1709  0.5899
 9822SOL     OW32420   0.550   0.385   1.975  0.1422 -0.4755 -0.2139
 9822SOL    HW132421   0.542   0.451   2.043 -1.8768 -1.1800  0.3141
 9822SOL    HW232422   0.644   0.374   1.963  0.5322  0.9351  1.1852
 9823SOL     OW32423   8.410   1.518   8.437 -0.0350  0.4648  0.5045
 9823SOL    HW132424   8.435   1.481   8.352 -1.1683  0.6528  0.0668
 9823SOL    HW232425   8.492   1.526   8.485  0.8776  1.7574 -1.1330
 9824SOL     OW32426   7.034   6.052   1.852  0.2331  0.2319  0.3386
 9824SOL    HW132427   7.005   5.984   1.790 -1.3317  1.6060 -0.5237
 9824SOL    HW232428   7.116   6.018   1.888  0.3530 -1.3622 -1.2756
 9825SOL     OW32429   6.919   4.028   2.511 -0.2282  0.5570  0.3476
 9825SOL    HW132430   6.903   3.960   2.445  4.6359 -0.3556 -0.2971
 9825SOL    HW232431   6.911   3.982   2.595 -0.9465  0.2537  0.1211
 9826SOL     OW32432   6.132  10.201   9.812  0.3153 -0.6133  0.3351
 9826SOL    HW132433   6.046  10.160   9.807 -0.1907  0.5173 -0.6486
 9826SOL    HW232434   6.148  10.212   9.906  0.1688 -2.3735  0.6057
 9827SOL     OW32435   5.379   8.712   3.472 -0.4014  0.7336 -0.0469
 9827SOL    HW132436   5.455   8.693   3.418  0.7846  0.2387  1.7064
 9827SOL    HW232437   5.329   8.777   3.422  1.4000  1.4065 -1.0573
 9828SOL     OW32438   9.495   7.497   8.148  0.1559 -0.0964  0.0657
 9828SOL    HW132439   9.511   7.585   8.113  1.4895 -0.3601 -0.0542
 9828SOL    HW232440   9.445   7.512   8.228 -0.2419  0.7287 -0.3250
 9829SOL     OW32441   5.650   8.001   0.916  0.2707  0.2986  0.8623
 9829SOL    HW132442   5.720   7.950   0.874 -1.1490  2.1232 -4.5545
 9829SOL    HW232443   5.569   7.964   0.881 -1.0472  2.7644  1.1073
 9830SOL     OW32444   5.000   1.352   7.650 -0.7385 -0.3200 -0.1637
 9830SOL    HW132445   5.070   1.415   7.632 -1.3983  0.1415 -1.2597
 9830SOL    HW232446   5.044   1.268   7.657  0.2303  0.2873  1.8112
 9831SOL     OW32447   2.659  10.419   9.698  0.3609  0.6107  0.6076
 9831SOL    HW132448   2.754  10.417   9.695  0.4412  1.1813  1.9281
 9831SOL    HW232449   2.631  10.430   9.607  1.5470  0.4349  0.2130
 9832SOL     OW32450   9.331   7.670   9.059 -0.1235  0.2247  0.1195
 9832SOL    HW132451   9.279   7.701   8.984 -0.8240 -0.3698  0.3430
 9832SOL    HW232452   9.283   7.702   9.135 -0.8084 -1.2559  0.3575
 9833SOL     OW32453   6.046   0.864   2.380 -0.3701 -0.3158 -0.4228
 9833SOL    HW132454   6.074   0.934   2.322  0.1804 -0.1684  0.0119
 9833SOL    HW232455   5.973   0.901   2.429  1.5148  0.9019  1.6504
 9834SOL     OW32456   6.050   8.305   5.933  0.1312  0.3188  0.2017
 9834SOL    HW132457   6.006   8.290   6.017  0.4756  0.5949  0.4322
 9834SOL    HW232458   6.143   8.294   5.952  0.4026  2.4530  0.3423
 9835SOL     OW32459   2.634   0.280   0.512  0.1226 -0.1886 -0.1779
 9835SOL    HW132460   2.628   0.261   0.606 -0.6253 -0.4699 -0.2788
 9835SOL    HW232461   2.632   0.194   0.470 -2.0214 -0.0041 -0.5654
 9836SOL     OW32462   5.939   3.365  10.437 -0.3389  0.2249  0.8025
 9836SOL    HW132463   5.973   3.449  10.467 -0.4782  0.6956 -0.2999
 9836SOL    HW232464   6.010   3.328  10.384 -1.2682  0.9583 -1.0518
 9837SOL     OW32465   8.658   1.715   8.239 -0.6438  0.6206 -0.2505
 9837SOL    HW132466   8.613   1.650   8.185  1.1626  1.9466 -3.6452
 9837SOL    HW232467   8.724   1.664   8.286 -1.1207 -0.3657 -0.6131
 9838SOL     OW32468   6.353   9.473   7.493  0.1517 -0.1331 -0.2928
 9838SOL    HW132469   6.261   9.450   7.510 -0.1676  0.3949 -1.2353
 9838SOL    HW232470   6.365   9.454   7.400  1.4982 -1.7856  0.1642
 9839SOL     OW32471   3.482   5.838   6.668  0.0303  0.5210  0.0329
 9839SOL    HW132472   3.475   5.869   6.578  0.1503  0.3619 -0.0326
 9839SOL    HW232473   3.576   5.839   6.687  0.0461  0.1294  0.0007
 9840SOL     OW32474   6.895   8.063   8.472  0.1610 -0.0782 -0.1927
 9840SOL    HW132475   6.871   7.986   8.421 -2.6464  0.3905  0.2616
 9840SOL    HW232476   6.975   8.095   8.431 -0.4506 -1.2993 -2.5273
 9841SOL     OW32477   2.439   8.909   8.750  0.1814  0.5135 -0.0811
 9841SOL    HW132478   2.527   8.939   8.773  0.6017  0.0134 -0.9760
 9841SOL    HW232479   2.404   8.874   8.832  0.5132  1.4013  0.4616
 9842SOL     OW32480   9.471   5.943   9.727 -0.3923  0.2489  0.1801
 9842SOL    HW132481   9.447   5.850   9.726 -0.1361  0.1837 -0.9075
 9842SOL    HW232482   9.566   5.943   9.739  0.0490  0.2213 -2.5468
 9843SOL     OW32483   3.440   5.728   7.648  0.1714  0.0584 -0.8488
 9843SOL    HW132484   3.530   5.733   7.615  1.1088  2.9655  1.6191
 9843SOL    HW232485   3.393   5.796   7.600 -0.0613  0.1515 -0.4908
 9844SOL     OW32486  10.307   6.640  10.084 -1.0420  0.6570 -0.1149
 9844SOL    HW132487  10.313   6.611  10.175 -1.5154 -0.6153 -0.4611
 9844SOL    HW232488  10.225   6.689  10.079 -2.5064 -1.6540 -0.4205
 9845SOL     OW32489   1.131   5.645   2.921 -0.5131  0.2975 -0.5087
 9845SOL    HW132490   1.050   5.691   2.898 -0.4287  0.0144 -1.4215
 9845SOL    HW232491   1.167   5.694   2.994 -0.5711  1.5094 -1.2714
 9846SOL     OW32492   9.914   4.011   4.523 -0.5283  0.1596 -0.3284
 9846SOL    HW132493   9.866   4.073   4.467  2.6211  2.1257 -1.0662
 9846SOL    HW232494   9.943   3.942   4.463  2.1903  1.8749 -1.1657
 9847SOL     OW32495   2.829   7.459   1.758 -0.1190 -0.2852  0.4162
 9847SOL    HW132496   2.845   7.541   1.711 -0.1200 -0.4661  0.0980
 9847SOL    HW232497   2.909   7.443   1.808  1.4374 -2.0179 -2.3817
 9848SOL     OW32498   1.971   8.315   9.901 -0.4695  0.5480  0.0320
 9848SOL    HW132499   2.046   8.311   9.960 -2.0201 -1.4343  2.0133
 9848SOL    HW232500   2.009   8.302   9.813  1.7864  2.6639  0.5733
 9849SOL     OW32501   9.561   3.002   3.139  0.5165 -0.6005 -0.1983
 9849SOL    HW132502   9.626   2.980   3.206  2.0133 -0.7221 -1.6390
 9849SOL    HW232503   9.525   3.086   3.168  1.9234 -0.1173  0.2007
 9850SOL     OW32504   7.114   8.973   8.079  0.0377  0.7507 -0.6327
 9850SOL    HW132505   7.165   9.034   8.133  1.1844  1.0209 -1.9700
 9850SOL    HW232506   7.094   8.901   8.138  0.5751  1.4047  0.3834
 9851SOL     OW32507   1.737   2.054  10.458  0.2664 -0.1218  0.1775
 9851SOL    HW132508   1.818   2.017  10.425  0.0184  0.5736 -1.3170
 9851SOL    HW232509   1.718   2.127  10.399 -1.7712 -0.6622  0.0615
 9852SOL     OW32510   1.315   7.394   5.438  0.0830 -0.0645 -0.1129
 9852SOL    HW132511   1.254   7.429   5.503  0.9834  0.8447  0.2669
 9852SOL    HW232512   1.265   7.326   5.393 -0.2513 -1.5855  2.3046
 9853SOL     OW32513   4.883   3.894   9.768  0.1086 -0.4933 -0.3445
 9853SOL    HW132514   4.900   3.932   9.682  0.9824 -0.3325 -0.1032
 9853SOL    HW232515   4.915   3.804   9.761  0.5208 -0.3705 -0.0775
 9854SOL     OW32516  10.341  10.161   1.815  0.0583 -0.0008 -0.3615
 9854SOL    HW132517  10.289  10.238   1.838  0.2653  0.4025 -1.2149
 9854SOL    HW232518  10.423  10.173   1.864  0.3383  0.6480 -0.9701
 9855SOL     OW32519   8.555   8.459   2.051  0.1187  0.2615 -0.1464
 9855SOL    HW132520   8.565   8.366   2.073  0.4253  0.3306  0.0115
 9855SOL    HW232521   8.640   8.498   2.072  0.6815  0.2157 -2.0757
 9856SOL     OW32522   1.311   6.102   6.959  0.1993 -0.1547 -0.1624
 9856SOL    HW132523   1.263   6.174   6.918  0.1200 -0.0850  0.0508
 9856SOL    HW232524   1.276   6.097   7.048  0.1877 -0.4729 -0.1836
 9857SOL     OW32525   6.694   2.687   5.921 -0.3727 -0.5250 -0.1503
 9857SOL    HW132526   6.672   2.763   5.868  1.4680 -0.5061 -0.9540
 9857SOL    HW232527   6.747   2.631   5.864 -1.0244 -2.0545  0.6641
 9858SOL     OW32528   7.043   5.777   2.520 -0.3274 -0.2500 -0.3273
 9858SOL    HW132529   7.132   5.810   2.506 -0.6109  0.0840 -1.4977
 9858SOL    HW232530   6.986   5.850   2.495 -0.9505 -0.9950 -1.1445
 9859SOL     OW32531   8.748   4.721   1.720  0.2400  0.1292 -0.2045
 9859SOL    HW132532   8.655   4.733   1.702  0.2392  1.0500  0.3328
 9859SOL    HW232533   8.772   4.642   1.673 -0.7605  0.0200 -0.5478
 9860SOL     OW32534   8.144   6.914   9.536  0.1337 -0.2808 -0.2253
 9860SOL    HW132535   8.215   6.850   9.536 -0.4498 -1.0170 -2.5426
 9860SOL    HW232536   8.188   6.999   9.527  1.0859  0.1241  4.8922
 9861SOL     OW32537   2.888   4.334   2.752  0.5724  0.3340 -0.1401
 9861SOL    HW132538   2.866   4.335   2.845 -0.7780  1.1900 -0.4433
 9861SOL    HW232539   2.932   4.419   2.737 -0.4694  0.8148 -0.5478
 9862SOL     OW32540   5.988  10.367   4.898 -0.6667  0.4405  0.7453
 9862SOL    HW132541   5.959  10.275   4.896 -0.2886  0.2975  1.3449
 9862SOL    HW232542   5.928  10.408   4.960  0.6900  0.0233  2.4144
 9863SOL     OW32543   3.550   9.883   5.931  0.8202  0.2211 -0.1249
 9863SOL    HW132544   3.621   9.834   5.972  1.1920 -0.5021 -1.5594
 9863SOL    HW232545   3.491   9.815   5.897  1.0509  0.7407 -1.6370
 9864SOL     OW32546   6.407   4.033   3.155 -0.1442 -0.2187  0.1847
 9864SOL    HW132547   6.345   4.076   3.214 -0.2520 -0.3786  0.1888
 9864SOL    HW232548   6.460   3.978   3.211 -0.7906 -1.0130  0.0360
 9865SOL     OW32549   1.228   3.122   5.932 -0.2402  0.1267  0.0615
 9865SOL    HW132550   1.232   3.218   5.926  0.1964  0.0218 -1.6955
 9865SOL    HW232551   1.232   3.105   6.026  0.7404  1.7993  0.3735
 9866SOL     OW32552   8.279   3.324   1.945  0.0970 -0.0564  0.5854
 9866SOL    HW132553   8.316   3.314   1.857  1.0764  1.0266  0.8461
 9866SOL    HW232554   8.343   3.284   2.003 -0.1633 -0.0557  0.8771
 9867SOL     OW32555   8.633   1.938   3.662  0.6864 -0.2352  0.1725
 9867SOL    HW132556   8.717   1.894   3.674 -0.2655 -2.0932  0.3602
 9867SOL    HW232557   8.611   1.972   3.749  1.4603  0.7344  0.0089
 9868SOL     OW32558  10.187   2.208   4.349 -0.2249 -0.5525 -0.0118
 9868SOL    HW132559  10.152   2.295   4.370  0.3769 -0.3573  0.2052
 9868SOL    HW232560  10.278   2.224   4.325 -0.1039 -1.1319  0.0514
 9869SOL     OW32561   2.321   7.697   3.348 -0.1479 -0.5204 -0.3269
 9869SOL    HW132562   2.337   7.674   3.440  0.2636  1.0514  0.0143
 9869SOL    HW232563   2.226   7.688   3.338 -0.3887  0.6555  0.6612
 9870SOL     OW32564   8.214   4.440   7.489  0.2380  0.6403 -0.5992
 9870SOL    HW132565   8.129   4.485   7.489 -1.1900 -1.8852 -0.6552
 9870SOL    HW232566   8.257   4.471   7.569 -2.1663 -0.4102  1.2577
 9871SOL     OW32567   6.566   0.768   9.752  0.2301 -0.0281 -0.5787
 9871SOL    HW132568   6.642   0.777   9.808 -0.7171 -0.5257  0.8460
 9871SOL    HW232569   6.578   0.683   9.708  0.8279  0.2179 -0.8878
 9872SOL     OW32570   3.065   0.640   2.429  0.2476  0.1398  0.1795
 9872SOL    HW132571   3.123   0.575   2.468  1.0345 -0.2802 -1.5933
 9872SOL    HW232572   2.978   0.601   2.435  0.4075 -0.0976  1.0831
 9873SOL     OW32573   1.805   7.324   5.276  0.1419  0.3897 -0.2138
 9873SOL    HW132574   1.729   7.378   5.297 -0.3740 -0.5284  0.3893
 9873SOL    HW232575   1.862   7.381   5.224 -0.5338  1.3829  0.1032
 9874SOL     OW32576   1.225   7.063   3.818  0.7763  0.9050  0.0663
 9874SOL    HW132577   1.286   7.001   3.777 -0.1032 -2.3498  3.1111
 9874SOL    HW232578   1.141   7.044   3.777  0.8147  1.3008 -0.1916
 9875SOL     OW32579   3.196   2.663   1.614 -0.8216  0.4963 -0.3091
 9875SOL    HW132580   3.107   2.636   1.592  0.1906 -0.8630 -3.1264
 9875SOL    HW232581   3.247   2.582   1.613  0.9635  1.5760 -1.6808
 9876SOL     OW32582   2.889   5.935   7.465  0.4274  0.1174  0.7717
 9876SOL    HW132583   2.831   5.959   7.392  1.3515 -0.4923 -0.1946
 9876SOL    HW232584   2.896   6.015   7.517 -0.7941  0.3728  0.5772
 9877SOL     OW32585   9.222   2.231   4.278  0.0249 -0.5111 -0.1998
 9877SOL    HW132586   9.181   2.263   4.358 -1.0797 -1.7423 -0.2389
 9877SOL    HW232587   9.204   2.298   4.213 -0.3505 -0.1883  0.2311
 9878SOL     OW32588   3.249   5.621   6.467 -0.3159  0.0872 -0.9896
 9878SOL    HW132589   3.306   5.558   6.421  0.6056  0.4209 -0.3469
 9878SOL    HW232590   3.189   5.566   6.518  0.4307 -0.3011 -0.4958
 9879SOL     OW32591   2.122  10.065   1.267 -0.0989 -0.4564 -0.7694
 9879SOL    HW132592   2.031  10.076   1.240 -0.0997 -0.4083 -0.7451
 9879SOL    HW232593   2.139  10.137   1.327  0.3233  0.2430 -1.7064
 9880SOL     OW32594   1.408   7.442   7.024  0.5039  0.2794 -0.0733
 9880SOL    HW132595   1.475   7.428   6.957  0.5386  1.9949 -0.4409
 9880SOL    HW232596   1.388   7.536   7.019 -0.9395  0.0575  0.9676
 9881SOL     OW32597   0.880   1.672   5.508  0.2813 -0.0404 -0.4337
 9881SOL    HW132598   0.795   1.642   5.539 -0.0266  1.2313  0.0233
 9881SOL    HW232599   0.940   1.601   5.529 -0.5350 -0.6311 -0.0624
 9882SOL     OW32600   0.702   4.107   2.682 -0.2989 -0.0458  0.0723
 9882SOL    HW132601   0.689   4.191   2.725  0.0800 -0.0280  0.1530
 9882SOL    HW232602   0.786   4.115   2.637 -0.9876  0.1537 -1.2097
 9883SOL     OW32603   3.998   9.313   1.233 -0.1592  0.1453  0.6185
 9883SOL    HW132604   4.058   9.379   1.197 -0.0606 -0.1995  0.1469
 9883SOL    HW232605   3.965   9.266   1.156 -0.5433 -0.0875  0.9232
 9884SOL     OW32606   3.923   1.834   3.640  0.0147 -0.6173 -0.5474
 9884SOL    HW132607   3.840   1.803   3.603 -0.1382 -1.3609  0.4046
 9884SOL    HW232608   3.973   1.755   3.659  0.4574 -0.2122  0.0064
 9885SOL     OW32609   9.099  10.464  10.070 -0.0550 -0.3925  0.7408
 9885SOL    HW132610   9.098  10.378  10.028  0.1658 -0.1364  0.2106
 9885SOL    HW232611   9.007  10.481  10.091 -0.3012 -0.1036 -0.4953
 9886SOL     OW32612   1.033   2.682  10.480 -0.5040  0.1750  0.1446
 9886SOL    HW132613   1.111   2.707  10.430  1.1272 -2.5318  1.1324
 9886SOL    HW232614   1.014   2.759  10.535  2.9723  0.1531  1.6243
 9887SOL     OW32615   7.502   4.479   0.479  0.4503  0.6444  0.0642
 9887SOL    HW132616   7.558   4.553   0.504 -0.5992  0.9639  1.6854
 9887SOL    HW232617   7.513   4.416   0.550  0.7206 -0.4282 -0.9126
 9888SOL     OW32618   3.653   8.395   4.771  0.4041  0.2781 -0.0923
 9888SOL    HW132619   3.585   8.450   4.733  0.9420  0.3326 -1.0047
 9888SOL    HW232620   3.643   8.406   4.866 -1.6468 -0.7023 -0.1395
 9889SOL     OW32621   2.541  10.348   1.195  0.4599 -0.0888  0.5838
 9889SOL    HW132622   2.626  10.392   1.191 -0.6459  2.1649 -0.0588
 9889SOL    HW232623   2.517  10.333   1.103  0.0936 -0.5224  0.7470
 9890SOL     OW32624   4.046   6.069   8.009 -0.4881  0.0873  0.0623
 9890SOL    HW132625   3.977   6.032   8.063 -0.8540  0.5078 -0.1181
 9890SOL    HW232626   4.001   6.109   7.935 -0.0239 -0.0454 -0.3033
 9891SOL     OW32627   5.118   7.821   3.299 -0.0959 -0.4733  0.3259
 9891SOL    HW132628   5.058   7.890   3.271 -1.8958 -1.7849  0.7851
 9891SOL    HW232629   5.160   7.792   3.217  0.7336  1.1427  0.1355
 9892SOL     OW32630   1.785   9.380   1.193 -0.2171 -0.0715 -0.3570
 9892SOL    HW132631   1.774   9.286   1.179  2.1455 -0.1508 -2.4104
 9892SOL    HW232632   1.779   9.391   1.288 -1.0736 -2.1882 -0.1154
 9893SOL     OW32633   0.593   1.150   7.818 -0.4578 -0.2577  0.1960
 9893SOL    HW132634   0.657   1.102   7.871 -1.0047  0.9823  2.0455
 9893SOL    HW232635   0.549   1.209   7.879 -0.5574  1.8567 -1.7567
 9894SOL     OW32636   4.497   4.774   9.020 -0.0662  0.3588  0.3158
 9894SOL    HW132637   4.572   4.745   9.072 -0.2855 -0.7460  0.0520
 9894SOL    HW232638   4.450   4.835   9.078 -0.1237 -0.5927  1.3125
 9895SOL     OW32639   8.772   5.846   3.106 -0.0336  0.1743  0.1239
 9895SOL    HW132640   8.788   5.911   3.038 -2.8771  0.0963 -0.7466
 9895SOL    HW232641   8.828   5.873   3.179  0.9768  1.8989 -1.2170
 9896SOL     OW32642   9.778   9.516   6.909 -0.4427 -0.1412 -0.2564
 9896SOL    HW132643   9.851   9.513   6.971 -1.1257 -0.7429  0.5498
 9896SOL    HW232644   9.786   9.601   6.866 -1.3524  1.4415  2.4424
 9897SOL     OW32645   5.990  10.222   3.213 -0.2437 -0.5932 -0.4910
 9897SOL    HW132646   6.066  10.214   3.155 -1.4927 -0.9138 -2.1712
 9897SOL    HW232647   5.934  10.285   3.169 -0.9032 -0.2545  0.8022
 9898SOL     OW32648   1.983   1.692   1.562  0.2983 -0.2273  0.1598
 9898SOL    HW132649   1.892   1.674   1.537 -0.1414  1.5445  0.3820
 9898SOL    HW232650   2.031   1.692   1.480 -0.4349  1.6430 -0.3140
 9899SOL     OW32651   2.371   1.888   8.138 -0.1814  0.6670  0.0662
 9899SOL    HW132652   2.368   1.818   8.073 -0.0427 -1.9194  2.6386
 9899SOL    HW232653   2.316   1.857   8.210  4.7348 -0.1139  4.1583
 9900SOL     OW32654   2.545   4.119   4.018 -0.2342 -0.4734 -0.0761
 9900SOL    HW132655   2.641   4.123   4.026 -0.2600 -0.2982  0.1758
 9900SOL    HW232656   2.529   4.058   3.946  0.0624 -0.8016  0.1315
 9901SOL     OW32657   7.732   1.344   1.427  0.4415 -0.0961 -0.0353
 9901SOL    HW132658   7.803   1.321   1.366  1.5332 -1.9476  1.7695
 9901SOL    HW232659   7.698   1.427   1.394  1.6751 -0.4494 -2.5001
 9902SOL     OW32660   6.661   2.026   2.671 -0.4456 -0.4710  0.2318
 9902SOL    HW132661   6.572   2.036   2.637  0.0259  0.8770 -0.7100
 9902SOL    HW232662   6.701   2.113   2.660  0.8014 -0.8866  1.1837
 9903SOL     OW32663   7.186   5.803   7.843 -0.1353  0.1083 -0.6043
 9903SOL    HW132664   7.188   5.898   7.836 -3.4281  0.4220  0.6459
 9903SOL    HW232665   7.209   5.785   7.934 -1.3590 -0.0557 -0.2995
 9904SOL     OW32666  10.394   6.407   6.382 -0.0790  0.2161 -0.2442
 9904SOL    HW132667  10.403   6.422   6.476  0.0957  2.9828 -0.6085
 9904SOL    HW232668  10.326   6.468   6.354 -0.1612 -0.5828 -1.9187
 9905SOL     OW32669   2.559   2.514   8.529 -0.0960 -0.6369 -0.3423
 9905SOL    HW132670   2.474   2.514   8.484 -0.0585  0.3047 -0.4284
 9905SOL    HW232671   2.589   2.423   8.524 -0.4760 -0.7161 -1.5132
 9906SOL     OW32672   9.322   9.442   8.277 -0.5751  0.6253 -0.2296
 9906SOL    HW132673   9.297   9.493   8.200 -0.4869 -1.1020 -1.4578
 9906SOL    HW232674   9.341   9.354   8.243  0.0565 -0.0334  1.6822
 9907SOL     OW32675   7.519   3.616   9.618  0.3518  0.2320 -0.6503
 9907SOL    HW132676   7.536   3.526   9.648 -1.6858 -0.0942 -0.3591
 9907SOL    HW232677   7.507   3.607   9.523 -0.2671  0.1139 -0.5655
 9908SOL     OW32678   2.125   9.558   6.531  0.5077  0.5002 -0.4218
 9908SOL    HW132679   2.177   9.501   6.473  1.6427  1.9446 -0.8836
 9908SOL    HW232680   2.170   9.642   6.527 -1.1761  1.4574  0.1905
 9909SOL     OW32681   9.048   7.391  10.481  0.1605 -0.8538  0.2772
 9909SOL    HW132682   9.011   7.440  10.555  1.6597  0.6777  0.0753
 9909SOL    HW232683   9.017   7.302  10.494 -2.6874  0.0887  0.6903
 9910SOL     OW32684   1.778   4.627   4.702 -0.1756 -0.1504  0.2033
 9910SOL    HW132685   1.779   4.531   4.702  1.2399 -0.1624 -0.5026
 9910SOL    HW232686   1.833   4.651   4.628  0.7479  1.2057  1.2753
 9911SOL     OW32687   5.066   3.187  10.087  0.3862 -0.0723  0.3379
 9911SOL    HW132688   5.048   3.120  10.153 -0.5944  0.0805  0.2480
 9911SOL    HW232689   5.143   3.233  10.119  1.2808 -1.4466  0.2444
 9912SOL     OW32690   9.719   7.570   6.076  0.3645 -0.5655  0.2844
 9912SOL    HW132691   9.746   7.485   6.041  0.8562 -1.1357  1.9922
 9912SOL    HW232692   9.691   7.552   6.165 -3.4344  0.3739 -0.5230
 9913SOL     OW32693  10.654   0.671   3.047  0.0314 -0.3268 -0.0964
 9913SOL    HW132694  10.590   0.602   3.060 -1.6248  0.9370 -1.1920
 9913SOL    HW232695  10.609   0.737   2.995  1.1135  2.1532  1.8877
 9914SOL     OW32696   9.661   9.744   8.297  0.3682 -0.4268 -0.3240
 9914SOL    HW132697   9.658   9.819   8.238 -1.5508 -0.5403 -0.4153
 9914SOL    HW232698   9.754   9.722   8.302  1.0824  2.4376  0.3583
 9915SOL     OW32699   4.326   4.240   8.855 -0.3517  0.7007 -0.1109
 9915SOL    HW132700   4.256   4.199   8.906 -0.1174  0.7302  0.2365
 9915SOL    HW232701   4.311   4.210   8.765 -0.1264 -0.2358  0.1489
 9916SOL     OW32702   7.964   1.830   5.414 -0.3714  0.0186  0.0057
 9916SOL    HW132703   7.960   1.759   5.350  1.1706 -0.0004 -0.0885
 9916SOL    HW232704   8.057   1.842   5.433 -0.7756 -1.0957  3.4956
 9917SOL     OW32705   2.078   0.249   7.194 -0.2070  0.2287 -0.2762
 9917SOL    HW132706   2.112   0.295   7.271  2.5868 -1.2263 -0.4969
 9917SOL    HW232707   2.029   0.175   7.230 -1.2187  1.0586  0.0804
 9918SOL     OW32708   3.421   9.578   5.450  0.2055  0.3129  0.3572
 9918SOL    HW132709   3.389   9.545   5.534  1.1264  1.4474  1.1858
 9918SOL    HW232710   3.493   9.518   5.427  0.8468  0.7811  1.0761
 9919SOL     OW32711   2.389   9.490   7.598  0.5798 -0.4276  0.4488
 9919SOL    HW132712   2.468   9.534   7.567  0.7481 -0.7248  0.4549
 9919SOL    HW232713   2.329   9.562   7.619 -0.2116 -0.1905 -2.1987
 9920SOL     OW32714   4.046   0.724   9.430  0.0405 -0.5411  0.5531
 9920SOL    HW132715   4.122   0.718   9.372 -0.8932  1.5854 -1.0039
 9920SOL    HW232716   3.975   0.682   9.382 -0.4730  0.1787  0.6791
 9921SOL     OW32717   9.362   8.336   6.935  0.2588 -0.0244 -0.3876
 9921SOL    HW132718   9.416   8.372   7.005 -2.2981  1.2393  1.0929
 9921SOL    HW232719   9.348   8.245   6.960 -0.0570  0.2307  0.4255
 9922SOL     OW32720   0.388   9.321   9.031 -0.7743 -0.4827 -0.1041
 9922SOL    HW132721   0.434   9.340   8.950 -1.1300 -0.5362 -0.3203
 9922SOL    HW232722   0.458   9.304   9.095 -0.4998 -1.0728 -0.5496
 9923SOL     OW32723   8.552   3.560   8.675  0.2208 -0.4585  0.7200
 9923SOL    HW132724   8.540   3.467   8.694  0.3916 -0.1644  2.3936
 9923SOL    HW232725   8.643   3.568   8.649  1.0556 -0.3831  3.3882
 9924SOL     OW32726   2.294   4.742   6.355 -0.3102  0.6368 -0.3351
 9924SOL    HW132727   2.215   4.787   6.385 -1.3985 -0.7191 -1.0331
 9924SOL    HW232728   2.315   4.680   6.426  0.6814  1.6105  0.2479
 9925SOL     OW32729   4.808   7.303   7.285  0.1302 -0.1150  0.4380
 9925SOL    HW132730   4.812   7.209   7.306 -0.7307  0.2372  2.4554
 9925SOL    HW232731   4.889   7.339   7.322  0.1557  0.0400  0.2337
 9926SOL     OW32732   0.725   0.480   6.331 -0.2097  0.0351  0.0755
 9926SOL    HW132733   0.666   0.555   6.344 -0.3729  0.0779 -0.8630
 9926SOL    HW232734   0.803   0.518   6.291 -0.0113 -0.2003  0.2373
 9927SOL     OW32735   1.013   7.666   1.337 -0.2774  0.0963  0.0897
 9927SOL    HW132736   1.057   7.658   1.422 -0.5302 -0.0917  0.2015
 9927SOL    HW232737   1.077   7.633   1.274 -0.6810 -1.2552  0.3712
 9928SOL     OW32738   0.172   9.942   8.221 -0.3638  0.4465  0.1476
 9928SOL    HW132739   0.133   9.911   8.303 -1.3919 -1.4969 -0.9856
 9928SOL    HW232740   0.145  10.034   8.215 -2.8470 -0.1598  0.6061
 9929SOL     OW32741   0.861   4.431  10.150  0.3283  0.2913  0.2420
 9929SOL    HW132742   0.776   4.404  10.117  0.7389  1.0345 -1.5182
 9929SOL    HW232743   0.846   4.519  10.186 -0.0105 -0.3116  1.6205
 9930SOL     OW32744   8.004   4.701   7.532  0.0934  0.2128 -0.1320
 9930SOL    HW132745   8.037   4.713   7.621 -0.4786 -0.8710  0.2555
 9930SOL    HW232746   7.982   4.789   7.502 -0.0770  0.5556  0.9563
 9931SOL     OW32747   7.257   0.295   3.508 -0.2773  0.2940  0.5349
 9931SOL    HW132748   7.343   0.319   3.542  0.0311 -0.0477  0.0092
 9931SOL    HW232749   7.274   0.260   3.421 -0.7773 -1.2776  1.0465
 9932SOL     OW32750   1.932   2.418   1.407 -0.6464 -0.1214 -0.3471
 9932SOL    HW132751   1.938   2.514   1.409  0.3027 -0.1441 -1.1272
 9932SOL    HW232752   1.959   2.390   1.494 -3.1531  0.3776  0.6716
 9933SOL     OW32753   6.958  10.072   7.532 -0.1470 -0.2980  0.3067
 9933SOL    HW132754   7.013  10.103   7.604 -0.1398  0.0655  0.1476
 9933SOL    HW232755   6.903  10.148   7.510  0.0952 -0.2949 -0.3006
 9934SOL     OW32756   3.092   8.550   0.055 -0.0157  0.2808 -0.0022
 9934SOL    HW132757   3.150   8.622   0.080  0.5180 -0.7402  1.9307
 9934SOL    HW232758   3.151   8.478   0.035 -0.5920 -0.3497  0.5533
 9935SOL     OW32759   4.405   0.943   2.409 -0.8114  0.0821  0.0645
 9935SOL    HW132760   4.316   0.909   2.403 -1.5953  2.1759 -1.5352
 9935SOL    HW232761   4.395   1.027   2.454  0.0275  1.1433 -1.6062
 9936SOL     OW32762   7.973   8.030   7.810  0.3612 -0.0329  0.5624
 9936SOL    HW132763   8.025   8.109   7.799  0.6463  0.0413  2.1805
 9936SOL    HW232764   7.941   8.035   7.900 -0.1035 -1.4836  0.5021
 9937SOL     OW32765   0.353   5.393   8.491  0.3323  0.4277  0.2156
 9937SOL    HW132766   0.342   5.316   8.435  0.7840 -0.3097  1.1132
 9937SOL    HW232767   0.443   5.386   8.523  0.4088  1.3913  0.2244
 9938SOL     OW32768   7.250   8.948   5.281 -0.6810 -0.6827  0.1436
 9938SOL    HW132769   7.313   8.878   5.296 -0.4306 -0.3181  0.8594
 9938SOL    HW232770   7.165   8.904   5.278 -0.6850 -0.9035  2.0100
 9939SOL     OW32771   1.531   5.329   7.872 -0.6316 -0.4638  0.3076
 9939SOL    HW132772   1.566   5.356   7.787  1.0692 -1.9106  0.4723
 9939SOL    HW232773   1.597   5.360   7.935 -0.4845 -1.7453  0.8082
 9940SOL     OW32774  10.587   2.323   2.893 -0.4570 -0.0789  0.5436
 9940SOL    HW132775  10.566   2.337   2.986  1.2851  1.1658  0.7961
 9940SOL    HW232776  10.591   2.411   2.856  1.5200 -0.3822 -0.0532
 9941SOL     OW32777   8.680   9.411   3.564 -0.0672 -0.6532  0.8748
 9941SOL    HW132778   8.591   9.429   3.535  0.3323  0.1687  0.0783
 9941SOL    HW232779   8.671   9.352   3.638 -1.3138  0.1102  1.3466
 9942SOL     OW32780   1.665   2.498   2.647 -0.3792  0.0256 -0.3051
 9942SOL    HW132781   1.688   2.495   2.740 -0.5224  0.2292 -0.2627
 9942SOL    HW232782   1.628   2.412   2.629 -0.3209 -0.0268 -0.1801
 9943SOL     OW32783   2.219   1.929   8.680 -0.6117 -0.1093  0.1083
 9943SOL    HW132784   2.147   1.989   8.656 -0.7543 -0.8078 -1.3274
 9943SOL    HW232785   2.194   1.896   8.766 -1.4654  0.4911  0.1163
 9944SOL     OW32786   2.578   0.964  10.105 -0.4900  0.1412  0.0776
 9944SOL    HW132787   2.603   0.945  10.015 -0.5300  0.3274  0.0257
 9944SOL    HW232788   2.487   0.994  10.099 -0.1058  1.3626  0.0230
 9945SOL     OW32789   5.312   3.874   0.894 -0.2615  0.9408 -0.0986
 9945SOL    HW132790   5.264   3.795   0.872  0.9425  1.0038 -3.6391
 9945SOL    HW232791   5.250   3.946   0.878  0.2586  0.9151 -2.8542
 9946SOL     OW32792   0.449   2.129   1.312  0.4949  0.3695 -0.2948
 9946SOL    HW132793   0.496   2.199   1.267  0.7477  1.1625  1.1365
 9946SOL    HW232794   0.425   2.167   1.396 -1.2607 -0.5685 -0.3260
 9947SOL     OW32795   3.783   4.912   2.755  0.5193 -0.0680 -0.0545
 9947SOL    HW132796   3.834   4.836   2.783 -0.3312 -0.5119  0.3404
 9947SOL    HW232797   3.825   4.941   2.674  0.9846 -0.8264 -0.0948
 9948SOL     OW32798   1.767   4.164   9.393 -0.0065  0.2571 -0.1031
 9948SOL    HW132799   1.803   4.253   9.396 -1.5996  0.9106  1.2607
 9948SOL    HW232800   1.674   4.177   9.373 -0.5085 -0.9942  1.2510
 9949SOL     OW32801   3.093   5.577   4.781 -0.5192  0.3114 -0.3483
 9949SOL    HW132802   3.074   5.671   4.778 -0.9704  0.2467  0.2757
 9949SOL    HW232803   3.048   5.546   4.859 -0.4395 -0.4433 -0.5947
 9950SOL     OW32804   5.774   5.942  10.378 -0.3812  0.3354  0.1951
 9950SOL    HW132805   5.748   5.884  10.449 -0.2045 -1.0484 -0.8407
 9950SOL    HW232806   5.693   5.985  10.350 -0.6640 -0.0819  0.3740
 9951SOL     OW32807   0.112   8.484   6.695  0.0417 -0.3579  0.1484
 9951SOL    HW132808   0.171   8.415   6.663  0.7687 -0.7378  2.1744
 9951SOL    HW232809   0.098   8.540   6.619  1.0365 -1.6356 -1.0367
 9952SOL     OW32810   6.949   1.879   5.139 -0.1992  0.2815 -0.1078
 9952SOL    HW132811   6.967   1.968   5.109  2.4356 -0.0468  0.3022
 9952SOL    HW232812   6.931   1.829   5.060  0.6401  0.7111 -0.5815
 9953SOL     OW32813   4.756   4.174   5.865 -0.2046 -0.1894  0.0189
 9953SOL    HW132814   4.674   4.169   5.816 -0.0041 -0.8205 -0.2552
 9953SOL    HW232815   4.732   4.149   5.955 -0.2531 -0.6611 -0.1265
 9954SOL     OW32816   2.907   4.189   9.384 -0.4033  0.2301 -0.6942
 9954SOL    HW132817   2.958   4.218   9.309  0.3537  0.2792 -0.1657
 9954SOL    HW232818   2.931   4.098   9.397 -1.3886 -0.1222 -1.1968
 9955SOL     OW32819   4.347   9.251  10.270  0.2214  0.3392 -0.4485
 9955SOL    HW132820   4.380   9.198  10.198 -1.8549 -1.1022 -0.4262
 9955SOL    HW232821   4.273   9.299  10.233  0.0151  0.6778  0.3768
 9956SOL     OW32822   9.642   5.397   7.807  0.6127 -0.1731 -0.1285
 9956SOL    HW132823   9.720   5.355   7.843  0.5842 -0.6335 -0.5983
 9956SOL    HW232824   9.627   5.354   7.723 -0.3102 -0.2930  0.0808
 9957SOL     OW32825   8.794   4.474   7.480  0.2347 -0.0056  0.2038
 9957SOL    HW132826   8.840   4.555   7.502  1.4549 -1.2094  2.3490
 9957SOL    HW232827   8.759   4.442   7.563 -1.3964 -1.0245 -0.8121
 9958SOL     OW32828   2.077  10.133   0.713 -0.4138  0.5336  0.0472
 9958SOL    HW132829   2.059  10.105   0.623  1.4812 -2.0404  0.3431
 9958SOL    HW232830   2.011  10.088   0.766 -0.9428  1.3003  0.0560
 9959SOL     OW32831  10.251   6.146   4.658 -0.6737 -0.3164  0.3428
 9959SOL    HW132832  10.302   6.073   4.622  1.3752  0.4544  1.4882
 9959SOL    HW232833  10.212   6.110   4.738  1.0609  0.0140  1.3901
 9960SOL     OW32834   5.037   6.972   3.010  0.1584 -0.6025  0.1371
 9960SOL    HW132835   5.001   7.039   2.952 -0.4557 -0.2134  0.9499
 9960SOL    HW232836   4.975   6.966   3.082  1.5663 -0.1031  1.4557
 9961SOL     OW32837   7.978   1.090   0.310 -0.2282  0.3306  0.0254
 9961SOL    HW132838   7.939   1.087   0.398  0.4527 -0.9216  0.3133
 9961SOL    HW232839   7.906   1.113   0.252 -1.0180 -0.2973  0.7418
 9962SOL     OW32840  10.229   5.872   6.040 -0.1416  0.8194 -0.3123
 9962SOL    HW132841  10.191   5.903   6.122 -0.1433 -1.1815  0.4742
 9962SOL    HW232842  10.323   5.868   6.057 -0.2314 -0.5618 -0.0360
 9963SOL     OW32843   3.512   2.452   5.347 -0.0557 -0.2124  0.3523
 9963SOL    HW132844   3.567   2.378   5.372 -0.9599 -1.9836 -2.4262
 9963SOL    HW232845   3.570   2.527   5.349  1.2330 -1.1773  1.9866
 9964SOL     OW32846   5.677   8.207   3.694  0.4459  0.3021  0.3863
 9964SOL    HW132847   5.617   8.150   3.645  0.1882  0.0782  0.9504
 9964SOL    HW232848   5.745   8.231   3.631  0.2292 -0.1439 -0.0223
 9965SOL     OW32849   6.193   4.731   9.308 -0.1694  0.1372 -0.3138
 9965SOL    HW132850   6.195   4.693   9.395  1.2302 -0.1197 -0.4267
 9965SOL    HW232851   6.102   4.754   9.293 -0.8216 -1.8570  0.3250
 9966SOL     OW32852   9.432   2.498  10.663 -0.2865  0.4242 -0.3942
 9966SOL    HW132853   9.510   2.552  10.681  0.2232 -0.8016  1.2919
 9966SOL    HW232854   9.365   2.562  10.638  0.6259  1.7377  0.3441
 9967SOL     OW32855  10.105   8.833   0.730  0.1963  0.3715 -0.4875
 9967SOL    HW132856  10.172   8.864   0.669  0.6826  0.1692 -0.0649
 9967SOL    HW232857  10.037   8.795   0.675 -0.6130  2.4964 -1.0820
 9968SOL     OW32858   4.914   2.091   5.213  0.4536 -0.0161  0.4804
 9968SOL    HW132859   4.908   2.185   5.197 -2.6995 -0.3188 -0.6614
 9968SOL    HW232860   4.940   2.054   5.128  0.4792 -0.2840  0.6041
 9969SOL     OW32861   2.763   3.962   8.690 -0.1339  0.0965  0.2596
 9969SOL    HW132862   2.769   3.896   8.759  0.8900  0.5323  0.6034
 9969SOL    HW232863   2.670   3.982   8.684 -0.2897 -0.3164  1.1621
 9970SOL     OW32864   6.866   1.913   2.836 -0.0108 -0.0017 -0.1585
 9970SOL    HW132865   6.806   1.975   2.794  1.5349  0.6607 -1.4886
 9970SOL    HW232866   6.952   1.952   2.824  0.6543 -0.4567  2.5422
 9971SOL     OW32867   2.741   2.735   2.279 -0.0593 -0.0902  0.2715
 9971SOL    HW132868   2.653   2.729   2.316 -0.3053  0.0833 -0.2755
 9971SOL    HW232869   2.772   2.644   2.276  0.1566 -0.0616  1.3398
 9972SOL     OW32870   8.801   3.295  10.496 -0.0610 -0.5146 -0.3837
 9972SOL    HW132871   8.794   3.206  10.532  1.1240  0.1549  1.6752
 9972SOL    HW232872   8.891   3.322  10.515 -0.0944  0.7990 -1.8571
 9973SOL     OW32873   4.905   5.103   7.359 -0.5998  0.4577  0.6825
 9973SOL    HW132874   4.950   5.179   7.395  0.9104 -0.2587  0.3593
 9973SOL    HW232875   4.929   5.030   7.417  1.8785 -0.7232 -1.6186
 9974SOL     OW32876   9.029   0.544  10.450  0.3765  0.1915  0.2116
 9974SOL    HW132877   8.951   0.574  10.403  1.1169  2.9874  0.5747
 9974SOL    HW232878   9.084   0.504  10.383  0.1451  1.4544 -0.7669
 9975SOL     OW32879   3.085   7.157   9.697  0.2700  0.1948  0.0725
 9975SOL    HW132880   3.083   7.245   9.658 -2.0130  1.0425  1.8344
 9975SOL    HW232881   3.047   7.101   9.630  1.3764  0.6032 -0.9280
 9976SOL     OW32882   9.951   1.576   6.747 -0.1456  0.3835  0.3225
 9976SOL    HW132883   9.970   1.491   6.709  0.1516  0.5553  0.0926
 9976SOL    HW232884   9.963   1.563   6.841 -0.6344  0.0286  0.3390
 9977SOL     OW32885   4.900   2.648   0.884 -0.0517  0.1334  0.1036
 9977SOL    HW132886   4.864   2.722   0.934  1.7191  1.3427 -0.3402
 9977SOL    HW232887   4.940   2.592   0.951 -1.5507 -0.5883  0.4602
 9978SOL     OW32888   3.682  10.048   7.283  0.0153 -0.4236 -0.4411
 9978SOL    HW132889   3.588  10.034   7.299 -0.4994  2.8714 -0.0095
 9978SOL    HW232890   3.695  10.019   7.193 -1.6775  0.1231 -0.8890
 9979SOL     OW32891   4.898   1.309   6.866 -0.2412 -0.0081  0.1370
 9979SOL    HW132892   4.820   1.258   6.892  1.0824 -1.7513  0.8918
 9979SOL    HW232893   4.922   1.273   6.781  1.2059 -1.3519  1.0566
 9980SOL     OW32894   9.143   3.462   7.802  0.3264  0.1448 -0.0920
 9980SOL    HW132895   9.051   3.458   7.828  0.3898 -1.1639 -0.0074
 9980SOL    HW232896   9.180   3.532   7.856 -0.1460 -0.7324  1.4134
 9981SOL     OW32897   1.752   7.573   8.735  0.1663  0.0376 -0.2155
 9981SOL    HW132898   1.804   7.495   8.756 -0.1837 -0.1299  0.0286
 9981SOL    HW232899   1.702   7.548   8.657  0.6274  0.2802 -0.5937
 9982SOL     OW32900   1.971   2.379   5.361 -0.2382  0.0376 -0.8989
 9982SOL    HW132901   1.880   2.403   5.349 -0.9672 -2.1140 -0.2124
 9982SOL    HW232902   2.008   2.450   5.414 -1.6115  0.7354 -0.8272
 9983SOL     OW32903   0.051   1.135   8.365 -0.4833 -0.2874  0.4544
 9983SOL    HW132904   0.059   1.061   8.426  2.0823 -2.0117 -1.7188
 9983SOL    HW232905  -0.027   1.114   8.312  0.2397 -1.5424 -0.1661
 9984SOL     OW32906   4.917   9.579   0.983  0.7059  0.1562  0.0140
 9984SOL    HW132907   4.922   9.563   0.889  1.2384  0.6266 -0.0376
 9984SOL    HW232908   4.987   9.641   1.001  0.0885  0.7042  0.5877
 9985SOL     OW32909   9.025   7.057   3.989 -0.7033  0.5041 -0.5959
 9985SOL    HW132910   8.935   7.042   3.959 -1.2513  0.7519  0.8667
 9985SOL    HW232911   9.033   7.005   4.069  0.6601  0.0204 -1.0147
 9986SOL     OW32912   9.233   0.524   3.252  0.2631  0.4238  0.8350
 9986SOL    HW132913   9.194   0.594   3.199 -0.7164 -0.0343  0.9309
 9986SOL    HW232914   9.206   0.543   3.342  0.6655  0.3726  0.9657
 9987SOL     OW32915   5.994   2.633   1.856  0.2098 -0.0249  0.6248
 9987SOL    HW132916   6.044   2.578   1.796  0.0441  0.0629  0.4049
 9987SOL    HW232917   5.911   2.587   1.867 -0.6309  1.0043 -0.9196
 9988SOL     OW32918   5.308   0.180   9.616 -0.0487 -0.3370 -0.4863
 9988SOL    HW132919   5.342   0.268   9.600 -0.0674 -0.5334 -1.7051
 9988SOL    HW232920   5.374   0.139   9.672  1.6427 -0.6026 -2.5350
 9989SOL     OW32921   2.932   6.885   3.907  0.2245 -0.1804 -0.0030
 9989SOL    HW132922   2.932   6.980   3.914 -1.2693 -0.0909 -0.7719
 9989SOL    HW232923   2.961   6.854   3.993  0.8261  0.9510  0.2192
 9990SOL     OW32924   3.172  10.312  10.187 -0.8840  0.0522  0.0565
 9990SOL    HW132925   3.208  10.262  10.260 -1.4323 -0.3011  0.0872
 9990SOL    HW232926   3.101  10.363  10.226 -0.0887  1.1650  0.1095
 9991SOL     OW32927   6.144   2.477   2.675  0.5996  0.3158 -0.4063
 9991SOL    HW132928   6.128   2.399   2.622  1.0206  0.3246 -0.5436
 9991SOL    HW232929   6.056   2.511   2.694  0.3179 -1.0048  0.8899
 9992SOL     OW32930   9.861   7.440   7.481 -0.5942  0.2531 -0.2118
 9992SOL    HW132931   9.852   7.375   7.411 -0.1416  0.0690 -0.1003
 9992SOL    HW232932   9.838   7.393   7.561  1.0548 -0.1541  0.0447
 9993SOL     OW32933   2.113   3.433   7.764  0.7553  0.2921  0.5040
 9993SOL    HW132934   2.071   3.466   7.684 -2.5841  0.5665  2.2080
 9993SOL    HW232935   2.145   3.511   7.809 -0.2153  0.4656  0.9060
 9994SOL     OW32936   3.818   1.130   1.055 -0.1187 -0.3502 -0.1867
 9994SOL    HW132937   3.774   1.215   1.062 -0.0779 -0.4250  1.2585
 9994SOL    HW232938   3.889   1.145   0.993 -0.2242  0.6231 -0.0926
 9995SOL     OW32939   9.092   8.007   5.042 -0.2243 -0.4665 -0.4388
 9995SOL    HW132940   9.141   8.025   4.962  0.0804 -1.1692 -0.4178
 9995SOL    HW232941   9.136   7.931   5.080 -0.9492 -0.7212 -0.0965
 9996SOL     OW32942   5.177  10.027   3.543  0.5038  0.2818 -0.3184
 9996SOL    HW132943   5.229   9.953   3.511  2.2758 -0.2293  3.2205
 9996SOL    HW232944   5.091   9.989   3.561  0.7568 -0.3936 -0.4851
 9997SOL     OW32945   4.547   7.490   8.978  0.0925  0.1440 -0.5070
 9997SOL    HW132946   4.589   7.482   9.064  1.0779 -0.1141 -0.9913
 9997SOL    HW232947   4.530   7.400   8.951 -1.5863  0.2648  0.0410
 9998SOL     OW32948   0.149   0.222   5.352  0.1570  0.1369  0.5833
 9998SOL    HW132949   0.154   0.129   5.330 -0.6621  0.1966  0.1074
 9998SOL    HW232950   0.172   0.267   5.271  2.8435  0.3946  1.3781
 9999SOL     OW32951   1.157   8.439   7.598  0.3143 -0.1768  0.0710
 9999SOL    HW132952   1.184   8.441   7.690  1.3940  1.2647 -0.2353
 9999SOL    HW232953   1.191   8.356   7.565 -0.0496 -0.6869  0.9643
10000SOL     OW32954   5.310   2.804   7.189 -0.1349  0.0820 -0.0442
10000SOL    HW132955   5.354   2.719   7.185 -1.8296 -0.8030 -0.5882
10000SOL    HW232956   5.376   2.863   7.228  0.5277 -1.8325  1.9531
10001SOL     OW32957   5.413   3.694   7.016 -0.3957  0.5651  0.0986
10001SOL    HW132958   5.412   3.600   7.032  0.3894  0.7050  1.0975
10001SOL    HW232959   5.487   3.707   6.956 -0.1262  0.5999  0.4324
10002SOL     OW32960   5.376   1.144   1.583 -0.4775 -0.1265 -0.3184
10002SOL    HW132961   5.300   1.099   1.620  0.5144 -0.8983  0.8750
10002SOL    HW232962   5.449   1.084   1.599  1.0778  2.1958  2.1907
10003SOL     OW32963   1.123   7.913   3.129 -0.2610  0.3699  0.3924
10003SOL    HW132964   1.045   7.863   3.105 -0.3068  0.7072 -0.1680
10003SOL    HW232965   1.196   7.863   3.093 -0.0180 -1.0407  2.6437
10004SOL     OW32966   2.074   8.790   8.224 -0.1376 -0.0485 -0.9050
10004SOL    HW132967   2.158   8.760   8.258  0.2810  1.6275 -0.3996
10004SOL    HW232968   2.009   8.748   8.281  0.4536  0.5012  0.2121
10005SOL     OW32969   1.064  10.492   2.780  0.1940 -0.2438 -0.1097
10005SOL    HW132970   1.134  10.431   2.804 -1.3328 -2.6295 -1.3322
10005SOL    HW232971   0.991  10.468   2.836 -1.1913 -1.2582 -2.2040
10006SOL     OW32972   3.772   4.671   4.212  0.3179 -0.0011 -0.2468
10006SOL    HW132973   3.710   4.669   4.139 -0.2502 -1.9736  0.2454
10006SOL    HW232974   3.718   4.672   4.291  0.8704 -1.4788  0.1897
10007SOL     OW32975  10.264   7.835   9.225 -0.5018 -0.1537 -0.0525
10007SOL    HW132976  10.210   7.902   9.267 -0.8280 -1.0228  0.9749
10007SOL    HW232977  10.201   7.768   9.197 -0.1273 -0.3012 -0.5598
10008SOL     OW32978   5.195   0.625   6.386 -0.2390  0.0852 -0.0397
10008SOL    HW132979   5.178   0.546   6.436  1.2319 -1.0816 -1.2750
10008SOL    HW232980   5.193   0.597   6.294 -0.5728  1.6715 -0.5569
10009SOL     OW32981   1.300   1.076   2.801 -0.2502  0.1881 -0.2980
10009SOL    HW132982   1.330   1.005   2.858 -0.7729 -0.3339 -0.6589
10009SOL    HW232983   1.238   1.125   2.855  2.2700  2.2004  0.9932
10010SOL     OW32984   3.513   0.478   2.294 -0.5579 -0.0546  0.0338
10010SOL    HW132985   3.519   0.422   2.217  0.9146 -0.4422  0.4036
10010SOL    HW232986   3.506   0.567   2.259  0.7915 -0.1612 -0.5697
10011SOL     OW32987   0.155   1.300   6.793 -0.0998 -0.8777  0.4283
10011SOL    HW132988   0.157   1.389   6.828 -1.8995 -0.8234  0.5050
10011SOL    HW232989   0.222   1.299   6.725 -0.7689  0.8542 -0.3009
10012SOL     OW32990   2.770  10.294  10.688 -0.0090  0.8157  0.2955
10012SOL    HW132991   2.853  10.308  10.642 -0.4853 -0.7215 -1.1181
10012SOL    HW232992   2.764  10.200  10.699 -2.1286  0.7654 -0.7624
10013SOL     OW32993   1.857   6.047   3.266 -0.5058 -0.1400 -0.0948
10013SOL    HW132994   1.913   6.021   3.339 -1.2834  1.7790  1.2619
10013SOL    HW232995   1.918   6.067   3.195  0.4362  0.2543  0.8045
10014SOL     OW32996   5.383   6.216   9.468  0.2026  1.0235 -0.7429
10014SOL    HW132997   5.423   6.164   9.399 -2.0556  0.0231 -1.3729
10014SOL    HW232998   5.355   6.296   9.424 -0.7054  0.6405 -0.8756
10015SOL     OW32999   1.323   8.649   7.565  0.1039 -0.5347 -0.3126
10015SOL    HW133000   1.273   8.567   7.573 -0.3805 -0.1891  0.2288
10015SOL    HW233001   1.263   8.710   7.523 -0.2438  0.1454  1.1378
10016SOL     OW33002   9.927   8.356   1.948  0.3631  0.0775  0.1112
10016SOL    HW133003   9.863   8.298   1.908 -1.5810  0.4167  2.4667
10016SOL    HW233004   9.918   8.341   2.042  2.2929  1.6650  0.6322
10017SOL     OW33005   7.034   3.028   0.245 -0.3872  0.0732  0.4320
10017SOL    HW133006   7.097   3.029   0.317  0.3487  1.4019 -0.1905
10017SOL    HW233007   6.964   3.086   0.274 -0.3796  0.1404  0.3135
10018SOL     OW33008   9.314   0.381   2.370  0.3980  0.1768 -0.3283
10018SOL    HW133009   9.303   0.424   2.454 -1.0270  0.4965 -0.6576
10018SOL    HW233010   9.393   0.422   2.333  0.6341  0.5301  0.5454
10019SOL     OW33011   8.345   4.640   0.528 -0.1271  0.2425  0.4467
10019SOL    HW133012   8.300   4.692   0.461  0.1421 -1.4683 -1.1484
10019SOL    HW233013   8.278   4.619   0.592 -1.3345 -1.1581 -1.2062
10020SOL     OW33014   7.181   5.653   4.998 -0.6001  0.2774 -0.5356
10020SOL    HW133015   7.164   5.576   5.052 -1.3068  0.3953 -0.5749
10020SOL    HW233016   7.274   5.648   4.976 -0.6617 -0.6104 -0.6159
10021SOL     OW33017   0.504   9.942  10.534 -0.3419 -0.4590 -0.3726
10021SOL    HW133018   0.560   9.988  10.596 -0.9840  0.2757 -0.3230
10021SOL    HW233019   0.536   9.969  10.448 -1.7227  1.4002 -0.3586
10022SOL     OW33020   3.725   3.304  10.425  0.1997  0.0272 -0.5661
10022SOL    HW133021   3.633   3.322  10.406 -0.0970 -1.0134 -0.1715
10022SOL    HW233022   3.759   3.267  10.343  0.6832  1.8251 -1.2165
10023SOL     OW33023   2.534   2.329   9.263 -0.4486  0.5636  0.2578
10023SOL    HW133024   2.555   2.290   9.347  1.6386  0.3432 -0.3062
10023SOL    HW233025   2.523   2.422   9.282  1.8864  0.8473  0.5772
10024SOL     OW33026   6.330   6.139   2.640 -0.1090 -0.2532 -0.2514
10024SOL    HW133027   6.412   6.102   2.674 -1.0743 -2.1546  0.1345
10024SOL    HW233028   6.303   6.203   2.706 -0.1004 -1.2819  0.7781
10025SOL     OW33029   7.214   6.184   5.947 -0.1762 -0.7980 -0.2823
10025SOL    HW133030   7.165   6.132   5.883 -1.2295 -0.2518  0.0436
10025SOL    HW233031   7.149   6.207   6.013  0.4699  0.1622  0.0417
10026SOL     OW33032   9.041   0.271   6.863  0.3143 -0.1187 -0.0637
10026SOL    HW133033   8.992   0.299   6.940 -2.4412  0.5351 -1.9030
10026SOL    HW233034   9.087   0.350   6.834 -1.4498  0.6430 -0.9755
10027SOL     OW33035   3.988   1.978   2.718 -0.5639  0.4008 -0.1234
10027SOL    HW133036   4.056   2.013   2.661 -0.2624  0.1787  0.0914
10027SOL    HW233037   3.918   2.043   2.717 -0.8343  0.1165 -1.2395
10028SOL     OW33038   9.687   5.325   5.095 -0.5100 -0.3496 -0.5894
10028SOL    HW133039   9.700   5.329   5.000  4.6218 -1.0997 -0.2452
10028SOL    HW233040   9.728   5.404   5.129 -1.9894 -0.2293  1.0827
10029SOL     OW33041   1.674   8.845   3.459 -0.3698 -0.2807 -0.0928
10029SOL    HW133042   1.605   8.872   3.519  0.0034 -0.3115  0.3517
10029SOL    HW233043   1.683   8.919   3.398 -0.3116  0.0155  0.2735
10030SOL     OW33044  10.505   3.570   6.604  0.0831  0.2283 -0.5254
10030SOL    HW133045  10.559   3.559   6.525 -2.2662 -0.9081 -2.0849
10030SOL    HW233046  10.428   3.617   6.573 -1.4959 -1.3869  0.7706
10031SOL     OW33047   0.140   1.099   0.459  0.5862  0.4129  0.4476
10031SOL    HW133048   0.160   1.033   0.392  0.8411  0.4499  0.4845
10031SOL    HW233049   0.144   1.182   0.412 -1.0090  0.3215  0.1172
10032SOL     OW33050   2.302   2.756   9.245  0.1480  0.0566  0.4420
10032SOL    HW133051   2.222   2.761   9.298 -0.8255  1.6740 -1.0537
10032SOL    HW233052   2.290   2.677   9.192 -0.1201 -0.1074  0.7412
10033SOL     OW33053   0.902   5.142   3.921 -0.4176  0.3798 -0.1206
10033SOL    HW133054   0.947   5.225   3.905 -1.6909  1.1360  0.0584
10033SOL    HW233055   0.812   5.167   3.941 -0.7672 -1.0372  0.2162
10034SOL     OW33056   0.246   4.786   6.509  0.0713  0.5232 -0.1016
10034SOL    HW133057   0.318   4.841   6.480 -0.0109  0.5983 -0.1637
10034SOL    HW233058   0.288   4.708   6.545  0.1594  0.2277 -0.8399
10035SOL     OW33059   4.968   9.400  10.504  0.2950  0.5435  0.1656
10035SOL    HW133060   5.049   9.408  10.454 -0.0718  1.2093 -0.3554
10035SOL    HW233061   4.971   9.313  10.542  1.1284  0.4603 -0.0663
10036SOL     OW33062   3.296   7.799   1.811 -0.3112  0.2035 -0.2854
10036SOL    HW133063   3.253   7.884   1.816  0.4109  0.5579  0.0459
10036SOL    HW233064   3.259   7.748   1.883 -1.6704 -0.2148 -1.2369
10037SOL     OW33065   2.082   4.770   4.386 -0.2564  0.5206 -0.4902
10037SOL    HW133066   2.056   4.761   4.294 -0.9844 -1.5262 -0.1327
10037SOL    HW233067   2.163   4.720   4.393 -1.0956 -0.8052  0.2907
10038SOL     OW33068   7.871   3.757   1.070  0.2319  0.1299 -0.2914
10038SOL    HW133069   7.795   3.720   1.115  0.6160  0.1326  0.3616
10038SOL    HW233070   7.918   3.680   1.037 -0.7261  0.1564 -1.8519
10039SOL     OW33071   6.549   5.628   1.607  0.0760 -1.1214 -0.2531
10039SOL    HW133072   6.576   5.536   1.604  1.1814 -0.8378  0.3135
10039SOL    HW233073   6.613   5.673   1.551 -0.5443 -0.7181 -0.6384
10040SOL     OW33074   5.090   1.734  10.264 -0.2963  0.5051 -0.1129
10040SOL    HW133075   5.004   1.693  10.268  0.0721 -0.4707 -1.6070
10040SOL    HW233076   5.140   1.681  10.202  0.9850  1.7957 -0.2453
10041SOL     OW33077   0.543   6.461   5.260 -0.0175 -0.2895  0.2499
10041SOL    HW133078   0.479   6.438   5.328  0.6270  0.0064  0.9673
10041SOL    HW233079   0.490   6.482   5.183 -0.7576 -0.6375  0.6540
10042SOL     OW33080   3.482  10.675   3.076  0.3502 -0.5905  0.1818
10042SOL    HW133081   3.519  10.588   3.086 -1.1964 -1.0571  2.6712
10042SOL    HW233082   3.388  10.663   3.089  0.2838  1.6287  2.6634
10043SOL     OW33083   4.066   1.872   8.011  0.0278 -0.5491  0.4507
10043SOL    HW133084   4.011   1.950   8.003 -0.7798 -0.9996  1.4272
10043SOL    HW233085   4.156   1.906   8.007 -0.2959  0.2358 -0.7720
10044SOL     OW33086   0.601   6.305   4.097  0.2947  0.1136 -0.3261
10044SOL    HW133087   0.583   6.399   4.104  0.3439  0.1414 -0.5595
10044SOL    HW233088   0.696   6.299   4.089  0.3179  0.0234 -0.0140
10045SOL     OW33089  10.143   7.300   0.284  0.3992 -0.2989 -0.0642
10045SOL    HW133090  10.226   7.318   0.240  0.9705  0.2981  1.2248
10045SOL    HW233091  10.077   7.309   0.215  1.4935 -2.2966 -1.4700
10046SOL     OW33092   7.626   9.482   9.054  0.3600  0.1442 -0.0452
10046SOL    HW133093   7.533   9.501   9.039 -0.5475 -2.0719  2.1484
10046SOL    HW233094   7.653   9.432   8.977 -0.4860  0.1980 -0.3868
10047SOL     OW33095   0.907   4.243   7.996 -0.3828  0.2085  0.1439
10047SOL    HW133096   0.978   4.307   8.005 -0.9441  1.2010 -1.7949
10047SOL    HW233097   0.886   4.217   8.085  2.7696 -0.5571  0.7894
10048SOL     OW33098   5.115   2.529   7.232 -0.8594 -0.5873  0.7940
10048SOL    HW133099   5.150   2.442   7.252 -0.0012 -0.6970 -0.9819
10048SOL    HW233100   5.028   2.512   7.195 -1.5478 -0.5236  2.3195
10049SOL     OW33101   7.176   9.966   5.393  0.7994  0.4307  0.0883
10049SOL    HW133102   7.191  10.032   5.325 -0.5285 -1.4711 -2.2037
10049SOL    HW233103   7.240   9.897   5.373 -1.4220 -1.4185 -1.1067
10050SOL     OW33104   7.239   2.414   7.266 -0.0148 -0.4400  0.3991
10050SOL    HW133105   7.150   2.446   7.252  0.8121  1.5994 -0.6778
10050SOL    HW233106   7.244   2.334   7.214 -1.1094 -0.4046  0.2126
10051SOL     OW33107   7.664   8.268   5.459 -0.3234 -0.3274  0.6164
10051SOL    HW133108   7.730   8.199   5.452  0.8794  0.6758  1.6397
10051SOL    HW233109   7.604   8.251   5.387  1.4629 -0.8361 -0.8164
10052SOL     OW33110   5.858   1.841   7.409 -0.0972 -0.1662 -0.0739
10052SOL    HW133111   5.911   1.762   7.415  0.0925 -0.0068  0.4699
10052SOL    HW233112   5.807   1.831   7.329  0.9544 -0.2047 -0.7466
10053SOL     OW33113   6.644   9.366   4.906  0.5647  0.0889 -0.3134
10053SOL    HW133114   6.712   9.388   4.842  2.0449 -1.0064  0.8167
10053SOL    HW233115   6.567   9.346   4.853  1.6842 -0.5788 -1.7601
10054SOL     OW33116   2.517   9.516   7.186  0.2410 -0.1095 -0.1157
10054SOL    HW133117   2.422   9.531   7.183  0.2635 -0.0428 -0.5021
10054SOL    HW233118   2.526   9.429   7.224 -0.0777 -1.1335 -2.2123
10055SOL     OW33119   0.294   2.995   3.574  0.1335 -0.6886 -0.2687
10055SOL    HW133120   0.321   2.915   3.619  0.9494 -0.7173 -0.7991
10055SOL    HW233121   0.298   3.062   3.642 -1.3671 -1.2085  0.3995
10056SOL     OW33122   6.294   1.550   3.801  0.1366 -1.0078  0.3373
10056SOL    HW133123   6.293   1.614   3.873  0.1936 -0.5969 -0.0191
10056SOL    HW233124   6.298   1.465   3.844  1.4263 -0.7352  0.8215
10057SOL     OW33125   9.171   4.212   6.854 -0.2570 -0.0274 -0.5793
10057SOL    HW133126   9.145   4.149   6.786  2.3370 -0.8702 -0.9473
10057SOL    HW233127   9.139   4.296   6.822 -0.7202 -0.6775 -1.9150
10058SOL     OW33128   8.542   6.917  10.149 -0.5036  0.0916 -0.0354
10058SOL    HW133129   8.523   6.862  10.225 -0.6848  1.2641  0.7814
10058SOL    HW233130   8.549   7.006  10.184  1.5254  0.3795 -1.0655
10059SOL     OW33131   7.449   3.498   8.044 -0.3832  0.1700 -0.1028
10059SOL    HW133132   7.481   3.497   7.954  0.5657 -0.4534  0.2364
10059SOL    HW233133   7.374   3.439   8.044  0.0768 -0.4243 -0.3285
10060SOL     OW33134   9.040   3.968   8.669 -0.0059  0.1842  0.0372
10060SOL    HW133135   9.062   4.034   8.603 -1.6635  0.1776 -0.5653
10060SOL    HW233136   9.108   3.901   8.660  0.9356  1.1537 -0.2598
10061SOL     OW33137   0.418   9.062   0.463 -0.1665  0.3576  0.7541
10061SOL    HW133138   0.385   9.111   0.388 -1.1136 -0.1616  0.8071
10061SOL    HW233139   0.342   9.014   0.495  0.6627 -0.9562  0.8455
10062SOL     OW33140   4.786   8.971   0.674 -0.6318 -0.3389 -0.2184
10062SOL    HW133141   4.856   8.913   0.643  0.1927  0.3924  0.2220
10062SOL    HW233142   4.723   8.912   0.714 -0.2543 -1.0194 -0.6013
10063SOL     OW33143   7.024   3.361   3.305  0.2135  0.0955  0.1059
10063SOL    HW133144   6.935   3.389   3.281  0.6553  0.5272 -1.1227
10063SOL    HW233145   7.077   3.439   3.291  1.3893 -1.0748 -2.8446
10064SOL     OW33146   6.745   5.984   6.676  0.3613  0.0826  0.1984
10064SOL    HW133147   6.727   6.074   6.649  0.8462  0.1523  0.1001
10064SOL    HW233148   6.667   5.935   6.650  0.0172  0.5047  0.4116
10065SOL     OW33149   0.116   1.847   5.075  0.1253  0.1722  0.0709
10065SOL    HW133150   0.053   1.786   5.039  0.8964  0.9331 -2.7836
10065SOL    HW233151   0.082   1.868   5.162 -3.4417  0.3877 -1.2102
10066SOL     OW33152   7.475   5.734   8.236  0.0194  0.2539  0.4063
10066SOL    HW133153   7.523   5.816   8.238 -0.4712  0.5858 -0.8644
10066SOL    HW233154   7.517   5.683   8.167 -0.9585  0.2428 -0.1929
10067SOL     OW33155   4.349   0.474  10.196 -0.0662 -0.3223 -0.3325
10067SOL    HW133156   4.407   0.507  10.265 -0.9723  0.0107  0.3043
10067SOL    HW233157   4.379   0.517  10.116  0.7360 -0.3854 -0.0760
10068SOL     OW33158   9.054   4.710   5.921 -0.3798 -0.0262 -0.4481
10068SOL    HW133159   9.117   4.662   5.866 -1.5522 -0.6383 -1.2918
10068SOL    HW233160   9.085   4.696   6.010  0.0441 -1.2782 -0.7720
10069SOL     OW33161   8.219   3.736   8.449 -0.2189  0.0686  0.1620
10069SOL    HW133162   8.215   3.803   8.380 -4.3251 -0.2779 -0.1636
10069SOL    HW233163   8.128   3.720   8.472  0.8127 -2.7032  2.9753
10070SOL     OW33164   1.737   8.230   4.193  0.2673  0.3882 -0.6216
10070SOL    HW133165   1.744   8.226   4.098  1.0584  1.6662 -0.6336
10070SOL    HW233166   1.811   8.177   4.224 -0.2388 -0.3814 -0.7039
10071SOL     OW33167  10.617   6.346   6.980  0.1089  0.0943 -0.2416
10071SOL    HW133168  10.573   6.278   6.929  0.9380 -1.4884  1.0723
10071SOL    HW233169  10.546   6.391   7.026 -0.4915  0.5007 -1.5056
10072SOL     OW33170   2.873   9.456   3.567  0.5585  0.7112 -0.3181
10072SOL    HW133171   2.897   9.375   3.523 -0.0522  1.4633 -2.1454
10072SOL    HW233172   2.827   9.428   3.646  0.5961 -0.7045 -0.7705
10073SOL     OW33173   8.660   2.448   3.879 -0.0789 -0.2879  0.3380
10073SOL    HW133174   8.719   2.373   3.874  1.0175  0.6435 -1.9982
10073SOL    HW233175   8.716   2.524   3.865 -1.5493  0.7827 -0.0022
10074SOL     OW33176  10.132   6.410   2.477 -0.2014  0.4085 -0.3688
10074SOL    HW133177  10.180   6.393   2.558 -0.6130  0.5842 -0.0823
10074SOL    HW233178  10.200   6.429   2.412  0.1410  0.0257 -0.1240
10075SOL     OW33179   4.781   0.247   4.752  0.3836  0.2126 -0.1442
10075SOL    HW133180   4.696   0.242   4.708  0.2989 -4.4834 -0.0168
10075SOL    HW233181   4.759   0.240   4.845  0.8627  2.1911  0.1474
10076SOL     OW33182   9.652   4.805   1.718  0.0499  0.4686  0.3085
10076SOL    HW133183   9.641   4.719   1.757  1.5623 -0.1754 -0.5836
10076SOL    HW233184   9.614   4.866   1.782  0.5394 -0.7146  1.7784
10077SOL     OW33185   4.589   1.533   7.006 -0.7417 -0.5657 -0.2225
10077SOL    HW133186   4.621   1.590   6.936 -0.5333  0.2078  0.4926
10077SOL    HW233187   4.593   1.445   6.968  1.9278 -0.4959 -0.2928
10078SOL     OW33188   9.352   5.311   4.535  0.7413  0.4860 -0.1125
10078SOL    HW133189   9.363   5.394   4.580 -0.4457  0.6752 -0.1347
10078SOL    HW233190   9.430   5.302   4.481  0.6451  1.8293 -0.4952
10079SOL     OW33191   7.438   9.383   0.742 -0.0461  0.2889 -0.0325
10079SOL    HW133192   7.447   9.393   0.837 -1.9545  0.3798  0.1762
10079SOL    HW233193   7.524   9.405   0.707  0.8435 -0.2607  1.7122
10080SOL     OW33194   4.690   4.573   4.048  0.4416 -0.3562 -0.2846
10080SOL    HW133195   4.683   4.651   3.993  0.0242  0.2409  0.5853
10080SOL    HW233196   4.608   4.572   4.098  1.8411  0.6277  2.2489
10081SOL     OW33197   9.746   2.313   5.453  0.0938  0.2054  0.5694
10081SOL    HW133198   9.657   2.279   5.440  0.3676 -0.1669 -0.4208
10081SOL    HW233199   9.743   2.401   5.415 -0.3752  1.0027  2.3431
10082SOL     OW33200   3.882   0.691   6.401  0.1761 -0.2515 -0.6534
10082SOL    HW133201   3.855   0.603   6.429 -0.6899  0.1949 -0.0389
10082SOL    HW233202   3.940   0.721   6.470 -0.1919 -0.0169 -0.4447
10083SOL     OW33203   6.822   8.391   3.219  0.0248 -0.1384 -0.0235
10083SOL    HW133204   6.812   8.301   3.251  0.5252 -0.7913 -1.5751
10083SOL    HW233205   6.746   8.438   3.252  0.5518 -0.7051  2.1425
10084SOL     OW33206   1.464   3.443   9.690  0.3178  0.0521 -0.1120
10084SOL    HW133207   1.542   3.480   9.648 -0.6263  2.5312  0.1416
10084SOL    HW233208   1.475   3.464   9.783 -0.8474  0.9095 -0.1477
10085SOL     OW33209   8.937   2.283   6.845  0.7270  0.1620 -0.3099
10085SOL    HW133210   8.862   2.294   6.787  2.5625  0.8658 -2.7174
10085SOL    HW233211   8.925   2.349   6.913 -1.3018 -0.4315 -0.0073
10086SOL     OW33212   4.780   5.289  10.272 -0.2884  0.4289  0.3429
10086SOL    HW133213   4.830   5.234  10.211  0.9451  1.3857  0.4384
10086SOL    HW233214   4.726   5.344  10.216 -0.9714 -0.3353  0.2231
10087SOL     OW33215   3.566   4.141   7.355  0.0159 -0.0712  0.1797
10087SOL    HW133216   3.617   4.130   7.274  0.3036  0.0745  0.3369
10087SOL    HW233217   3.511   4.218   7.339 -0.2405 -0.2983 -0.0342
10088SOL     OW33218   8.172   1.850   4.718  0.1287  0.1183  0.0142
10088SOL    HW133219   8.160   1.944   4.701  1.5721  0.1950 -0.7188
10088SOL    HW233220   8.204   1.815   4.635  1.1993 -0.7198  0.7664
10089SOL     OW33221   3.834  10.502   7.657 -0.0821 -0.3686 -0.1558
10089SOL    HW133222   3.922  10.510   7.621  0.2299 -0.1909  0.6162
10089SOL    HW233223   3.820  10.585   7.704 -0.0717 -0.9709  0.9506
10090SOL     OW33224   3.594   9.037   8.881 -0.3580 -0.2726  0.1877
10090SOL    HW133225   3.542   8.964   8.846 -0.8852 -0.4627  1.3262
10090SOL    HW233226   3.538   9.076   8.949  0.5844  0.1517  0.7389
10091SOL     OW33227   5.828   3.922   0.255  0.2070  0.4113 -0.4263
10091SOL    HW133228   5.880   3.938   0.334  1.8361  0.9106 -1.5420
10091SOL    HW233229   5.742   3.898   0.288  0.9695  0.1034  1.5102
10092SOL     OW33230   7.887   3.468   1.909 -0.0748 -0.1197  0.1245
10092SOL    HW133231   7.803   3.451   1.867  0.8038 -0.3611 -1.6355
10092SOL    HW233232   7.892   3.563   1.916 -0.7889 -0.1303  0.9089
10093SOL     OW33233   3.638   0.718   7.792  0.0809 -0.2237  0.3583
10093SOL    HW133234   3.688   0.704   7.712 -0.2350 -1.2356  0.3278
10093SOL    HW233235   3.698   0.765   7.850  0.1635  0.9416 -0.6154
10094SOL     OW33236   9.351   8.217   6.257 -0.1039 -0.1351  0.4258
10094SOL    HW133237   9.400   8.194   6.178  0.9264 -1.6524  1.4538
10094SOL    HW233238   9.418   8.246   6.319 -0.6000 -1.1569  1.4831
10095SOL     OW33239   4.426   0.062   6.342  0.0452 -0.6745  0.3083
10095SOL    HW133240   4.441   0.029   6.253  1.7589 -0.5948  0.5262
10095SOL    HW233241   4.471   0.146   6.343 -2.1480  0.5571  0.5163
10096SOL     OW33242   1.518   5.450   7.036 -0.6212  0.1499 -0.2303
10096SOL    HW133243   1.609   5.456   7.067 -0.5033 -0.3715 -0.4634
10096SOL    HW233244   1.521   5.490   6.949 -0.5746 -0.0487 -0.3196
10097SOL     OW33245   8.048   0.593   6.625 -0.4355 -0.4216  0.2248
10097SOL    HW133246   8.068   0.500   6.613 -1.0703 -0.3822 -1.3207
10097SOL    HW233247   8.060   0.632   6.539 -0.9469  0.7934  0.6782
10098SOL     OW33248   2.454   8.469  10.392 -0.4216  0.4102  0.5650
10098SOL    HW133249   2.528   8.462  10.451  0.9510 -0.6178 -1.1850
10098SOL    HW233250   2.473   8.545  10.338 -0.6764  0.1774  0.1412
10099SOL     OW33251   7.953   9.291  10.296  0.3236  0.4398 -0.5325
10099SOL    HW133252   7.962   9.196  10.293  2.8408  0.6157 -0.2381
10099SOL    HW233253   7.913   9.309  10.381 -0.0626 -0.3341 -0.5415
10100SOL     OW33254   0.263   9.772   2.680  0.2559  0.3268  0.1477
10100SOL    HW133255   0.355   9.749   2.666  0.0966  0.7332 -1.7377
10100SOL    HW233256   0.245   9.840   2.616 -1.1262  0.9445  1.1407
10101SOL     OW33257   6.160   1.150  10.102  0.1858  0.0449 -0.5871
10101SOL    HW133258   6.134   1.059  10.087 -0.3754  0.0669  0.1893
10101SOL    HW233259   6.252   1.144  10.129  0.4035 -0.2079 -1.3544
10102SOL     OW33260   9.196   6.540   5.365  0.2792  0.0388  0.6801
10102SOL    HW133261   9.104   6.529   5.389  0.3074 -2.4061  0.0236
10102SOL    HW233262   9.242   6.554   5.448 -0.3863 -1.5193  1.3472
10103SOL     OW33263   1.834   5.083   8.344  0.2674 -0.2005 -0.2265
10103SOL    HW133264   1.878   5.084   8.259  0.9435 -0.5549  0.1068
10103SOL    HW233265   1.800   4.995   8.353  3.6368 -1.5157  1.5322
10104SOL     OW33266   8.934   6.249   7.792  0.2483 -0.0469  0.0381
10104SOL    HW133267   8.899   6.207   7.714  0.5401 -1.3844  0.5996
10104SOL    HW233268   8.919   6.186   7.863  2.0704  0.1127  0.6292
10105SOL     OW33269   0.188   3.428   3.511  0.5384 -0.3228  0.0800
10105SOL    HW133270   0.100   3.445   3.479  0.7243  0.3854 -0.0808
10105SOL    HW233271   0.242   3.423   3.432  0.8045  0.2508  0.2172
10106SOL     OW33272   2.385   8.460  10.005 -0.0170  0.2648 -0.0213
10106SOL    HW133273   2.466   8.410  10.007  0.8555  1.5169 -1.8513
10106SOL    HW233274   2.338   8.432  10.084  0.9761 -2.4421 -0.2929
10107SOL     OW33275   1.750   4.799   8.432  0.5115  0.6917  0.0575
10107SOL    HW133276   1.698   4.720   8.417  0.4973  0.4961  1.0578
10107SOL    HW233277   1.760   4.803   8.527 -0.4061  2.4993  0.1110
10108SOL     OW33278   0.160   4.579   6.954  0.4894 -0.0420 -1.0400
10108SOL    HW133279   0.067   4.585   6.976  0.7420 -0.3593  0.2058
10108SOL    HW233280   0.191   4.670   6.953  0.2320  0.0433 -1.1451
10109SOL     OW33281   8.607   1.690   6.547 -0.3990 -0.4609  0.1654
10109SOL    HW133282   8.525   1.650   6.518 -0.6398 -0.2301  0.5244
10109SOL    HW233283   8.586   1.729   6.632 -0.0517  0.0297  0.0298
10110SOL     OW33284   7.345   4.520   3.817  0.1879  0.5166 -0.0227
10110SOL    HW133285   7.332   4.434   3.858  0.5353  0.5159  0.0866
10110SOL    HW233286   7.414   4.560   3.868  0.8870  0.3719 -0.8378
10111SOL     OW33287   3.763   3.604   0.474 -0.2386 -0.2864 -0.8157
10111SOL    HW133288   3.779   3.554   0.394 -0.3153 -1.2378 -0.2562
10111SOL    HW233289   3.674   3.578   0.500  0.0511 -0.5260 -0.0507
10112SOL     OW33290   9.706   5.327   6.558 -0.4037 -0.4126 -0.2262
10112SOL    HW133291   9.757   5.400   6.523  0.0366 -1.3575 -1.6802
10112SOL    HW233292   9.624   5.328   6.509 -0.0281 -1.4001 -0.9168
10113SOL     OW33293   9.766   1.161   9.443  0.2625 -0.2070 -0.4646
10113SOL    HW133294   9.754   1.066   9.437 -0.8843 -0.1322  0.2684
10113SOL    HW233295   9.799   1.175   9.531 -0.0182  0.1039 -0.4068
10114SOL     OW33296   9.378   5.856   2.342  0.4417  0.0760 -0.2939
10114SOL    HW133297   9.286   5.857   2.366  0.6942  0.5335  0.7020
10114SOL    HW233298   9.421   5.808   2.414  1.2457  1.6857  0.3451
10115SOL     OW33299   7.367   9.867   1.133 -0.0939  0.1055  0.2348
10115SOL    HW133300   7.282   9.825   1.138 -0.1406  0.2482  0.7186
10115SOL    HW233301   7.413   9.838   1.212  1.7890 -3.1330 -1.8262
10116SOL     OW33302   1.938   9.617   4.319  0.3255 -0.1916 -0.5154
10116SOL    HW133303   1.956   9.586   4.407  1.7258  0.8391 -0.3973
10116SOL    HW233304   1.852   9.659   4.325  1.2715  1.6737  0.8920
10117SOL     OW33305   8.671   2.192   4.883 -0.0245  0.0290 -0.7402
10117SOL    HW133306   8.601   2.134   4.910  1.7731 -2.1232 -0.4021
10117SOL    HW233307   8.628   2.275   4.863 -2.4341 -0.7733  0.7960
10118SOL     OW33308   3.817   2.373   5.955  0.7360 -0.1156  0.3053
10118SOL    HW133309   3.795   2.427   5.879  1.4599  0.1307  0.2624
10118SOL    HW233310   3.742   2.382   6.014  0.7839  0.8248  0.2341
10119SOL     OW33311   2.845   2.038   3.467  0.2020 -0.3867  0.2033
10119SOL    HW133312   2.808   2.125   3.452  1.3012 -0.2058 -1.8216
10119SOL    HW233313   2.770   1.984   3.490 -0.4420  1.1721  2.1045
10120SOL     OW33314   6.329   5.767   4.509 -0.3743  0.6584 -0.3723
10120SOL    HW133315   6.362   5.728   4.428  1.9726 -1.4389  1.4000
10120SOL    HW233316   6.253   5.714   4.531 -0.5241  0.6984 -0.7791
10121SOL     OW33317   4.585   6.262   5.016 -0.0181 -0.0074  0.2312
10121SOL    HW133318   4.628   6.237   4.934 -1.3857 -3.3093  0.3491
10121SOL    HW233319   4.492   6.242   5.000 -0.1407 -2.2248  2.9720
10122SOL     OW33320   6.008   9.890   3.574  0.0124  0.1323 -0.2970
10122SOL    HW133321   6.009   9.800   3.541 -0.9192  0.7002 -1.9940
10122SOL    HW233322   6.081   9.932   3.529  1.2056 -0.0170  1.3884
10123SOL     OW33323   4.335   3.701   5.657  0.1330  0.0622 -0.6463
10123SOL    HW133324   4.262   3.724   5.714  0.2444 -0.9719 -0.0536
10123SOL    HW233325   4.298   3.699   5.569 -0.4760 -0.1697 -0.3874
10124SOL     OW33326   7.575   1.501   2.180  0.1070  0.8526  0.1355
10124SOL    HW133327   7.628   1.422   2.168 -1.8192 -0.4237 -0.4759
10124SOL    HW233328   7.550   1.501   2.272  0.8736  1.2942  0.3548
10125SOL     OW33329   8.485   8.542   2.342  0.5552 -0.8478 -0.1192
10125SOL    HW133330   8.525   8.627   2.357  0.9441 -0.9560 -0.5243
10125SOL    HW233331   8.522   8.512   2.259  2.1875 -2.4583  1.1234
10126SOL     OW33332   2.464   6.614   8.475  0.0410  0.0567 -0.0273
10126SOL    HW133333   2.445   6.526   8.441  0.0002  0.7010 -1.8013
10126SOL    HW233334   2.515   6.656   8.405 -0.9330  1.8185  0.2587
10127SOL     OW33335   0.297   5.849   2.297 -0.4215  0.2014  0.0455
10127SOL    HW133336   0.320   5.877   2.386  0.1559  1.5663 -0.5143
10127SOL    HW233337   0.284   5.931   2.248 -2.2489 -0.5067 -0.7651
10128SOL     OW33338  10.632   3.436   7.573  0.6236 -0.7449  0.1080
10128SOL    HW133339  10.688   3.505   7.538 -1.1848  1.5493  1.4198
10128SOL    HW233340  10.607   3.385   7.497  3.2597 -0.9836 -0.7021
10129SOL     OW33341   6.672   8.312   4.241  0.4530 -0.2255  0.3393
10129SOL    HW133342   6.647   8.263   4.162 -0.0967  0.3595  0.1414
10129SOL    HW233343   6.765   8.296   4.250  0.0859 -2.2915  0.9611
10130SOL     OW33344   4.189   7.116  10.144 -0.2228 -0.0490  0.2734
10130SOL    HW133345   4.127   7.063  10.195 -1.7442  1.0065 -0.4250
10130SOL    HW233346   4.163   7.206  10.160  0.9738  0.4132 -0.2670
10131SOL     OW33347   1.068   9.586   0.939  0.3984  0.9296  0.0112
10131SOL    HW133348   1.133   9.595   0.869 -2.2425 -2.8119 -3.3692
10131SOL    HW233349   1.097   9.510   0.990 -1.1824 -0.8374 -1.5914
10132SOL     OW33350  10.567   6.881  10.461 -0.3573 -0.0382  0.2916
10132SOL    HW133351  10.587   6.951  10.399  0.3680 -0.5075 -0.0111
10132SOL    HW233352  10.485   6.909  10.503 -0.2556  0.8206 -0.0690
10133SOL     OW33353   5.040   0.345   5.330 -0.4584  0.1888 -0.0200
10133SOL    HW133354   5.002   0.257   5.329 -0.3045  0.0781 -2.8558
10133SOL    HW233355   5.123   0.336   5.283  0.2118  1.6096  0.8246
10134SOL     OW33356   1.990   3.052   3.199 -0.6769  0.5039 -0.5249
10134SOL    HW133357   2.008   3.004   3.118  0.5428  1.5530 -0.9017
10134SOL    HW233358   2.007   3.143   3.178 -0.9614  0.8806  0.7559
10135SOL     OW33359   7.563   8.013   0.622 -0.1225 -0.5474 -0.0591
10135SOL    HW133360   7.562   8.017   0.526 -0.8698  1.1703 -0.0274
10135SOL    HW233361   7.652   8.036   0.646  0.6370 -2.9288 -0.3294
10136SOL     OW33362   7.539   6.491   7.304 -0.2737 -0.3673 -0.2601
10136SOL    HW133363   7.528   6.548   7.228  0.9227 -1.0130 -0.9475
10136SOL    HW233364   7.458   6.441   7.308 -0.7884  0.4350 -0.4568
10137SOL     OW33365   0.417   7.217   2.049 -0.1012 -0.0659  0.6470
10137SOL    HW133366   0.475   7.171   2.110 -1.1453  0.4609  2.0706
10137SOL    HW233367   0.475   7.277   2.002  0.9651 -1.4861  0.0500
10138SOL     OW33368   6.538   4.388   7.243 -0.1345 -0.1145  0.1847
10138SOL    HW133369   6.511   4.472   7.282 -0.5938  0.3078 -0.9903
10138SOL    HW233370   6.459   4.335   7.246  0.1757 -0.5538  0.9925
10139SOL     OW33371   1.625   8.812   8.506 -0.2659  0.3256  0.0692
10139SOL    HW133372   1.642   8.787   8.597  1.2512  2.8197  0.5722
10139SOL    HW233373   1.661   8.739   8.454  0.4516 -0.3313  1.4298
10140SOL     OW33374   6.639   9.401   3.506  0.4168 -0.9080  0.4665
10140SOL    HW133375   6.719   9.448   3.529  0.3877 -0.2492 -0.6832
10140SOL    HW233376   6.629   9.335   3.575  0.3988  0.8185  2.1810
10141SOL     OW33377   3.638   0.968   5.856  0.2106  0.2565  0.1085
10141SOL    HW133378   3.640   1.037   5.790 -3.5566  3.0715  2.5564
10141SOL    HW233379   3.702   0.996   5.921 -0.6199  0.9554  0.6357
10142SOL     OW33380   0.619   7.433  10.520 -0.2005 -0.0737  0.3530
10142SOL    HW133381   0.556   7.491  10.477  1.3815  0.9985 -0.6520
10142SOL    HW233382   0.600   7.347  10.483 -1.8687 -0.0290  1.0269
10143SOL     OW33383   3.502  10.627   0.464  0.0451 -0.1636  0.0370
10143SOL    HW133384   3.515  10.690   0.535  0.7973 -1.1643  0.8125
10143SOL    HW233385   3.412  10.642   0.435 -0.7547 -0.6361  2.1234
10144SOL     OW33386   4.351   8.782   1.166 -0.1593 -0.2064  0.0591
10144SOL    HW133387   4.423   8.740   1.213 -0.7653  0.5075  1.6951
10144SOL    HW233388   4.335   8.863   1.214 -0.7629  0.6026 -1.4628
10145SOL     OW33389  10.155   2.075   8.716 -0.3148 -0.0790  0.2399
10145SOL    HW133390  10.194   2.089   8.802 -0.0612  0.1970  0.0820
10145SOL    HW233391  10.094   2.002   8.729 -0.5010  0.1597  0.7190
10146SOL     OW33392   2.094   8.225   5.223  0.4419  0.1760  0.1062
10146SOL    HW133393   2.178   8.184   5.203 -0.4617 -1.3579 -0.7265
10146SOL    HW233394   2.030   8.177   5.169 -1.1756  0.2858  1.8219
10147SOL     OW33395   3.119   1.180   2.110 -0.0995  0.1969  0.0351
10147SOL    HW133396   3.193   1.238   2.093 -1.5027  2.3994  0.9973
10147SOL    HW233397   3.043   1.237   2.106 -1.4689 -1.3039  2.2718
10148SOL     OW33398   5.751   9.206   4.951  0.0104 -0.2906  0.1359
10148SOL    HW133399   5.807   9.184   5.025  0.2447  0.3427  0.1491
10148SOL    HW233400   5.809   9.249   4.888 -0.3816  0.0445 -0.0026
10149SOL     OW33401   7.305   8.010   2.898 -0.5383  0.6666  0.2013
10149SOL    HW133402   7.386   8.061   2.900  0.5122 -0.9227  0.1070
10149SOL    HW233403   7.241   8.068   2.858  1.0025  1.3693 -1.3657
10150SOL     OW33404   1.435   1.209   8.744 -0.3278 -0.3779  0.2249
10150SOL    HW133405   1.346   1.206   8.779 -0.9868  0.7572 -1.2442
10150SOL    HW233406   1.423   1.220   8.650  1.3768 -0.6738 -0.0589
10151SOL     OW33407   6.269   0.963   4.758  0.6070 -0.3841 -0.2019
10151SOL    HW133408   6.309   0.877   4.746  2.2675  0.3396 -0.0080
10151SOL    HW233409   6.313   1.020   4.695 -0.4897  0.3371 -0.3516
10152SOL     OW33410   7.475   0.024   4.160 -0.0768  0.3960 -0.1360
10152SOL    HW133411   7.505   0.011   4.070  0.5271  0.2129  0.0853
10152SOL    HW233412   7.546   0.072   4.202 -0.8120  1.4406 -0.0299
10153SOL     OW33413  10.384   4.356   6.518 -0.0835  0.2275 -0.3892
10153SOL    HW133414  10.426   4.410   6.585 -0.0913 -1.8309  1.3994
10153SOL    HW233415  10.340   4.418   6.461  1.6640  2.2006  0.2842
10154SOL     OW33416   1.980   7.889   2.408 -0.3111  0.1131 -0.0317
10154SOL    HW133417   2.036   7.815   2.432  0.5744  0.9560  0.5515
10154SOL    HW233418   2.040   7.952   2.368 -1.1426  0.3137 -1.0079
10155SOL     OW33419   2.373   1.505   3.067 -0.2556  0.3435 -0.8048
10155SOL    HW133420   2.336   1.421   3.093  1.1943 -0.0447  0.1262
10155SOL    HW233421   2.297   1.558   3.043 -1.3780 -0.5556  0.6031
10156SOL     OW33422   1.784   5.206   9.684  0.1536  0.0005 -0.3251
10156SOL    HW133423   1.809   5.210   9.591 -0.2673 -1.4323 -0.5320
10156SOL    HW233424   1.773   5.112   9.701 -0.7027  0.3116  0.9262
10157SOL     OW33425   2.483   4.300   5.870  0.1119  0.1741 -0.2484
10157SOL    HW133426   2.405   4.302   5.815  0.7379  0.6851 -1.1360
10157SOL    HW233427   2.469   4.371   5.933 -0.6993 -0.5472  0.4122
10158SOL     OW33428   2.885   6.996   8.930 -0.1033 -0.3194 -0.6303
10158SOL    HW133429   2.906   6.965   8.842  0.2210 -0.3158 -0.5548
10158SOL    HW233430   2.905   7.089   8.929 -2.4256  0.2336 -1.2819
10159SOL     OW33431   5.568   0.684   8.407 -0.1955  0.6046  0.5378
10159SOL    HW133432   5.636   0.716   8.347  1.2406 -1.8993  0.7234
10159SOL    HW233433   5.488   0.688   8.355  0.8009 -0.2624 -1.1723
10160SOL     OW33434   1.162   3.228   7.726  0.2699  0.0127  0.1063
10160SOL    HW133435   1.140   3.153   7.670  1.4282 -1.5635  1.6282
10160SOL    HW233436   1.208   3.288   7.668 -0.2127 -0.6794 -1.0467
10161SOL     OW33437   5.025   8.598   7.898 -0.7511  0.4924  0.1947
10161SOL    HW133438   5.028   8.503   7.911  0.9243  0.5954  0.9183
10161SOL    HW233439   4.932   8.620   7.895 -1.2014 -1.3921 -1.8529
10162SOL     OW33440   4.027   7.084   4.194  0.5737 -0.3546  0.0332
10162SOL    HW133441   4.050   7.042   4.111  0.8887 -0.2569  0.0707
10162SOL    HW233442   4.099   7.063   4.252  1.5844  1.6458 -0.4264
10163SOL     OW33443   0.248   8.536   7.611 -0.2305 -0.6259 -0.3433
10163SOL    HW133444   0.297   8.484   7.547  0.9648 -0.3374  0.3189
10163SOL    HW233445   0.291   8.519   7.695 -0.2026  0.9206 -0.0123
10164SOL     OW33446   5.472  10.527   2.630 -0.3526  0.2522  0.5024
10164SOL    HW133447   5.412  10.600   2.646 -0.9846  0.4226 -2.1550
10164SOL    HW233448   5.417  10.449   2.633 -0.2006  0.1493  0.6375
10165SOL     OW33449   0.529   4.348   3.724 -0.3600 -0.4972  0.1430
10165SOL    HW133450   0.481   4.285   3.671 -0.3425 -1.1142  0.8400
10165SOL    HW233451   0.512   4.321   3.814 -0.8712  0.8652  0.4925
10166SOL     OW33452   2.119   8.109   0.420 -0.0026  0.4550  0.1590
10166SOL    HW133453   2.135   8.203   0.406  1.0250  0.5160  1.5422
10166SOL    HW233454   2.196   8.067   0.382  0.2080  0.2774  0.7716
10167SOL     OW33455   9.644  10.659   1.793  0.5144 -0.0895  0.2785
10167SOL    HW133456   9.693  10.579   1.811  0.7095  0.0346  0.3130
10167SOL    HW233457   9.594  10.676   1.873 -0.4113 -0.7895 -0.1320
10168SOL     OW33458   8.206   5.385   3.216  0.2474  0.3328  0.6179
10168SOL    HW133459   8.236   5.294   3.220 -0.2598 -0.1208 -2.5319
10168SOL    HW233460   8.276   5.431   3.168 -0.3296  1.1843  0.5686
10169SOL     OW33461  10.302   8.244   4.644 -0.2378 -0.0600 -0.6247
10169SOL    HW133462  10.285   8.161   4.599  1.7093  0.9250 -3.3933
10169SOL    HW233463  10.265   8.310   4.586  2.0220  1.2429 -0.6842
10170SOL     OW33464   3.929   7.299   1.715 -0.1852  0.7040 -0.0702
10170SOL    HW133465   3.986   7.375   1.729  0.4428  0.1596  0.3484
10170SOL    HW233466   3.875   7.295   1.793 -0.2281  0.7289 -0.0988
10171SOL     OW33467   3.587   4.138   1.437 -0.2749  0.2532 -0.1272
10171SOL    HW133468   3.574   4.072   1.369 -0.1475 -0.4783  0.5372
10171SOL    HW233469   3.673   4.175   1.419  0.6201 -1.2730  0.7017
10172SOL     OW33470   0.454   3.327   8.361  0.1269 -0.0916  0.1767
10172SOL    HW133471   0.420   3.307   8.448 -1.3621 -0.4677 -0.4625
10172SOL    HW233472   0.459   3.422   8.357 -1.4011  0.0084  0.1190
10173SOL     OW33473   4.147   6.970   3.963 -0.7673 -0.9295  0.1258
10173SOL    HW133474   4.211   6.929   4.022 -0.7104 -2.2831 -0.8426
10173SOL    HW233475   4.198   6.996   3.886 -1.0502 -0.2370  0.1622
10174SOL     OW33476  10.010   6.600   8.690  0.1388 -0.1678 -0.3393
10174SOL    HW133477  10.006   6.666   8.621  0.5109 -0.5505 -0.7351
10174SOL    HW233478  10.022   6.650   8.771 -1.4289  0.3553 -0.4010
10175SOL     OW33479   6.493   8.080   2.444  0.1940  0.0651  0.0307
10175SOL    HW133480   6.418   8.078   2.503 -0.8501  0.0635 -1.2364
10175SOL    HW233481   6.454   8.085   2.356  1.6680  3.3895 -0.5724
10176SOL     OW33482   0.811   5.102   2.010 -0.1416 -0.2459 -0.6065
10176SOL    HW133483   0.860   5.152   1.945 -0.5044 -0.4381 -1.0266
10176SOL    HW233484   0.758   5.041   1.959 -1.0075  0.1256 -0.1682
10177SOL     OW33485   3.219   1.816   0.233 -0.0502  0.5060 -0.1015
10177SOL    HW133486   3.144   1.758   0.250 -0.6341  1.3266  0.2250
10177SOL    HW233487   3.217   1.832   0.139 -0.3849  0.6397 -0.0741
10178SOL     OW33488   5.704   4.155   5.967  0.3599 -0.3447  0.1813
10178SOL    HW133489   5.700   4.068   6.008  0.9250  0.0575  1.1199
10178SOL    HW233490   5.660   4.212   6.030  0.1622  0.0818 -0.3448
10179SOL     OW33491   9.698   9.012   3.203 -0.2113  0.8263 -0.0872
10179SOL    HW133492   9.654   8.935   3.168  1.1016 -0.5252  1.0961
10179SOL    HW233493   9.631   9.057   3.255 -1.7027  1.9416 -2.7279
10180SOL     OW33494   8.500   2.016   5.010 -0.4544 -0.1727 -0.1600
10180SOL    HW133495   8.493   1.950   4.941 -3.3299  0.1643 -0.3250
10180SOL    HW233496   8.467   1.972   5.089 -1.0539  0.6034  0.0434
10181SOL     OW33497   6.647   7.359   6.905  0.1346  0.5241 -0.0988
10181SOL    HW133498   6.564   7.384   6.945 -0.5119  0.4797 -1.3400
10181SOL    HW233499   6.621   7.312   6.826  1.3350  1.4972 -1.1104
10182SOL     OW33500   0.490   1.456   6.170 -0.2992  0.4426  0.1417
10182SOL    HW133501   0.514   1.401   6.095  0.5876 -0.4047  1.0047
10182SOL    HW233502   0.408   1.417   6.202 -1.0510  1.2255 -0.7631
10183SOL     OW33503   4.172   2.184   6.628 -0.1394  0.2203 -0.3865
10183SOL    HW133504   4.251   2.237   6.634 -0.8231  1.3300 -1.0813
10183SOL    HW233505   4.122   2.208   6.706 -0.7042  1.0167 -0.9930
10184SOL     OW33506   6.834   3.634   9.274  0.1014  0.2962 -0.2913
10184SOL    HW133507   6.864   3.558   9.225 -0.1823  0.6875 -1.0965
10184SOL    HW233508   6.850   3.612   9.366  3.2899  0.6623 -0.6515
10185SOL     OW33509   9.932   6.499   6.347  0.7988  0.0023 -0.4439
10185SOL    HW133510   9.945   6.467   6.436  1.0281  0.7218 -0.2093
10185SOL    HW233511   9.894   6.586   6.358 -1.2769 -0.7762 -1.0855
10186SOL     OW33512   9.234   6.986   7.969  0.2904  0.1669 -0.2164
10186SOL    HW133513   9.208   7.077   7.956  0.2909  0.4815  1.7481
10186SOL    HW233514   9.152   6.937   7.971  0.2663  0.1736 -0.8127
10187SOL     OW33515   2.768   6.718   1.974 -0.2067  0.3120  0.1296
10187SOL    HW133516   2.861   6.736   1.962  0.0775 -0.2981  1.2695
10187SOL    HW233517   2.748   6.648   1.912 -0.7434  2.6874 -2.5766
10188SOL     OW33518   7.901   5.882   8.452 -0.3127 -0.3903 -0.5247
10188SOL    HW133519   7.948   5.872   8.369 -0.1708  0.4042 -0.5437
10188SOL    HW233520   7.900   5.794   8.489 -1.0470 -0.9036 -1.7219
10189SOL     OW33521   5.167   3.091   0.544  0.2697 -0.2726  0.0848
10189SOL    HW133522   5.252   3.100   0.587 -1.3044  0.2757  3.5147
10189SOL    HW233523   5.119   3.029   0.600 -1.3419 -1.2053 -2.1934
10190SOL     OW33524   8.541  10.695  10.219 -0.0652 -0.5399 -0.4666
10190SOL    HW133525   8.478  10.626  10.238 -2.1826  1.3979 -0.0197
10190SOL    HW233526   8.583  10.713  10.303  1.6317 -2.2694 -0.8924
10191SOL     OW33527   6.011   4.208   2.257 -0.2554 -0.1402 -0.4288
10191SOL    HW133528   5.956   4.263   2.314  0.3563  1.5302 -1.3775
10191SOL    HW233529   5.959   4.195   2.178  0.1545  0.2986 -0.7791
10192SOL     OW33530   2.443   9.176   4.081 -0.6303  0.0592 -0.8435
10192SOL    HW133531   2.424   9.262   4.117  0.5466  0.0461 -0.1605
10192SOL    HW233532   2.364   9.124   4.099 -1.5745  1.1127 -1.7576
10193SOL     OW33533   9.529   4.140   0.326 -0.3479 -0.6418  0.4430
10193SOL    HW133534   9.434   4.145   0.337 -0.2593 -1.0774  1.4758
10193SOL    HW233535   9.564   4.199   0.393  0.1256 -0.6324  0.1941
10194SOL     OW33536   3.137   5.670   5.687  0.1603 -0.1557 -0.2884
10194SOL    HW133537   3.203   5.605   5.663 -0.6491 -0.6934 -1.1242
10194SOL    HW233538   3.125   5.723   5.608  1.5718  1.7530  0.6687
10195SOL     OW33539   1.119   1.793   0.747  0.3697  0.4094 -0.3802
10195SOL    HW133540   1.106   1.871   0.801 -1.6033  0.2230 -0.5082
10195SOL    HW233541   1.160   1.826   0.667  0.8448  1.0902  0.1337
10196SOL     OW33542   2.917   6.648   4.542  0.1457 -0.2137  0.4286
10196SOL    HW133543   2.957   6.569   4.505  0.6857 -0.3530  1.2770
10196SOL    HW233544   2.949   6.719   4.487 -1.2194 -0.6650 -1.0312
10197SOL     OW33545   1.645   2.257   9.787 -0.2146  0.6801  0.7246
10197SOL    HW133546   1.615   2.166   9.791  0.8960  0.1953 -0.9731
10197SOL    HW233547   1.577   2.302   9.736  0.0646  0.4118  0.1043
10198SOL     OW33548   9.249   2.322   7.894  0.0233 -0.1053  0.1030
10198SOL    HW133549   9.273   2.275   7.974  0.0005  0.4551  0.4502
10198SOL    HW233550   9.171   2.278   7.862  0.9913 -1.4108 -0.5609
10199SOL     OW33551   2.980   2.742   0.924  0.4682  0.2604  0.7743
10199SOL    HW133552   2.925   2.679   0.878  1.6831 -1.2382  1.2937
10199SOL    HW233553   3.031   2.784   0.855  0.5092 -0.1853  0.5323
10200SOL     OW33554   8.980   5.355  10.473  0.1062 -0.1255  0.5671
10200SOL    HW133555   8.992   5.300  10.551  0.3587 -2.1000 -0.7823
10200SOL    HW233556   9.030   5.434  10.491 -0.1006 -0.3956  2.5240
10201SOL     OW33557   0.692   3.213   3.791 -0.3686  0.3338 -0.4731
10201SOL    HW133558   0.784   3.198   3.811 -0.2627  1.1214 -0.3189
10201SOL    HW233559   0.660   3.129   3.759 -0.5071 -0.9442  2.7266
10202SOL     OW33560   0.642   9.686   9.958 -0.1067  0.3425 -0.8988
10202SOL    HW133561   0.727   9.657   9.927  0.5792 -0.3473  1.4136
10202SOL    HW233562   0.582   9.615   9.933  0.1080  0.5410 -1.9903
10203SOL     OW33563   8.371   0.963   6.231 -0.3268 -0.1815 -0.1124
10203SOL    HW133564   8.277   0.978   6.227 -0.3775 -0.5437 -0.3559
10203SOL    HW233565   8.380   0.880   6.278 -0.1778 -0.6278 -0.9115
10204SOL     OW33566   6.268   9.335   8.768 -0.1876 -0.0831  0.0778
10204SOL    HW133567   6.310   9.252   8.791 -0.3760  0.1419  1.3306
10204SOL    HW233568   6.175   9.321   8.788 -0.3129  0.2326 -0.2805
10205SOL     OW33569   0.755   5.910   2.426 -0.0616 -0.6515  0.1647
10205SOL    HW133570   0.833   5.955   2.458 -0.7240  1.3988 -0.9409
10205SOL    HW233571   0.709   5.882   2.506  1.5218 -1.4480  0.8281
10206SOL     OW33572   1.144   6.713   8.288  0.2067 -0.1515 -0.5571
10206SOL    HW133573   1.103   6.725   8.203 -1.4946 -0.3761  0.1970
10206SOL    HW233574   1.076   6.674   8.343  1.2365  0.0426  0.9236
10207SOL     OW33575   8.325   0.673   7.451  0.0149 -0.2945 -0.7556
10207SOL    HW133576   8.264   0.734   7.410  1.2874  2.0390  0.6311
10207SOL    HW233577   8.379   0.727   7.508  0.8319 -2.8334  1.0663
10208SOL     OW33578   3.878   9.981  10.521  0.2188 -0.1167 -0.0880
10208SOL    HW133579   3.878   9.911  10.456  1.0352  0.5080 -0.7761
10208SOL    HW233580   3.815  10.045  10.488 -0.0066 -0.1909  0.1867
10209SOL     OW33581   8.625   4.723   7.591 -0.0579 -0.2260 -0.1916
10209SOL    HW133582   8.712   4.742   7.554  1.3220 -1.9015  1.9594
10209SOL    HW233583   8.642   4.658   7.659 -3.0458 -0.5958  0.3095
10210SOL     OW33584   7.642  10.386   8.816 -0.3373 -0.3391  0.4499
10210SOL    HW133585   7.551  10.410   8.796 -0.3016  0.5552  1.2858
10210SOL    HW233586   7.669  10.333   8.742 -0.8275  1.2562 -0.9372
10211SOL     OW33587  10.574   5.362   8.727  0.3828 -0.4507 -0.4861
10211SOL    HW133588  10.507   5.424   8.757 -0.9546 -1.2223 -1.7552
10211SOL    HW233589  10.638   5.361   8.798  0.3813  2.2242 -0.3306
10212SOL     OW33590   1.324   8.027  10.616  0.4059  0.6234  0.1544
10212SOL    HW133591   1.398   7.969  10.635  0.3358 -0.2908 -2.0742
10212SOL    HW233592   1.267   8.020  10.692  1.5712 -0.3340  0.9728
10213SOL     OW33593   1.134   2.793   7.972  0.2963  0.4555  0.6326
10213SOL    HW133594   1.041   2.772   7.978 -0.2865  2.8821  1.5171
10213SOL    HW233595   1.161   2.808   8.062  1.0608  1.4933  0.2579
10214SOL     OW33596   0.195   4.618   2.086 -0.7390  0.3563 -0.0090
10214SOL    HW133597   0.140   4.563   2.030  0.3335 -0.8703  0.0937
10214SOL    HW233598   0.133   4.663   2.144 -1.8547  1.3593 -1.8570
10215SOL     OW33599   9.534   2.573   2.204  0.6955 -0.2570  0.2266
10215SOL    HW133600   9.552   2.540   2.292 -1.2300 -0.6841  0.4922
10215SOL    HW233601   9.521   2.667   2.217  1.8450 -0.0663  0.1419
10216SOL     OW33602   7.458   3.197   6.986  0.0927  0.4753 -0.1924
10216SOL    HW133603   7.374   3.233   7.013  0.2640  0.5862  0.1923
10216SOL    HW233604   7.522   3.267   7.003  0.1558  0.6998 -1.2455
10217SOL     OW33605   9.896   5.070   5.634 -0.3191  0.0938  0.5141
10217SOL    HW133606   9.856   5.074   5.547  0.5372  2.6384  0.1428
10217SOL    HW233607   9.982   5.030   5.620 -2.0530 -4.4379  1.1577
10218SOL     OW33608   1.924   2.562   2.164 -0.4559  0.2371  0.5310
10218SOL    HW133609   1.925   2.467   2.160 -1.2208  0.0818  2.6513
10218SOL    HW233610   2.004   2.589   2.121 -0.6779 -1.2971 -0.9580
10219SOL     OW33611   8.687   6.708  10.003 -0.6022  0.3512 -0.0758
10219SOL    HW133612   8.674   6.755   9.920  1.6199  0.7203 -0.2835
10219SOL    HW233613   8.654   6.768  10.070 -0.4572  0.9721 -0.5462
10220SOL     OW33614   5.413   0.286  10.473  0.3777 -0.0999  0.0697
10220SOL    HW133615   5.400   0.337  10.553  2.5701 -0.4851  0.7274
10220SOL    HW233616   5.495   0.318  10.436  1.0090 -2.0399 -0.3427
10221SOL     OW33617   3.313   7.627   7.333  0.3045  0.1216 -0.3730
10221SOL    HW133618   3.350   7.596   7.416 -0.3696  0.2005 -0.0397
10221SOL    HW233619   3.314   7.722   7.340  0.7954  0.1428 -0.7009
10222SOL     OW33620  10.120   7.932   5.825  0.2010 -0.0272 -0.5174
10222SOL    HW133621  10.205   7.902   5.794  0.9511  0.6281  0.8214
10222SOL    HW233622  10.062   7.856   5.815  0.6997 -0.2124 -2.2573
10223SOL     OW33623   6.061   3.897   9.135 -0.6456 -0.9761 -0.0391
10223SOL    HW133624   5.968   3.908   9.157 -0.4264  1.7674 -0.1454
10223SOL    HW233625   6.081   3.808   9.161 -2.5173 -0.6588  2.9712
10224SOL     OW33626   0.589   9.765   8.722 -0.1628  0.2563  0.0877
10224SOL    HW133627   0.558   9.854   8.738  1.4573  0.9499 -0.4187
10224SOL    HW233628   0.556   9.715   8.797 -1.9421  1.0343 -0.1263
10225SOL     OW33629   0.506   8.324   6.758  0.3292 -0.8851 -0.3893
10225SOL    HW133630   0.538   8.368   6.837  1.8868 -0.8396 -1.0128
10225SOL    HW233631   0.483   8.395   6.699 -1.2685 -0.9125  0.1445
10226SOL     OW33632   4.804   6.966   6.463 -0.3059 -0.0989  0.5009
10226SOL    HW133633   4.847   6.970   6.548 -1.6357  0.8024  1.1708
10226SOL    HW233634   4.753   6.885   6.465  0.2392 -0.4477  0.2713
10227SOL     OW33635   4.300   4.064   5.058  0.0713  0.4075  0.0252
10227SOL    HW133636   4.306   4.016   5.140 -0.6285 -0.0894 -0.2016
10227SOL    HW233637   4.355   4.141   5.071  0.4283  0.0424  0.7474
10228SOL     OW33638   1.853   6.564   7.840 -0.4801 -0.6727  0.4733
10228SOL    HW133639   1.926   6.555   7.901 -0.1107 -1.8030 -0.1037
10228SOL    HW233640   1.775   6.569   7.895 -0.0268 -0.1059  1.0760
10229SOL     OW33641   1.342   6.015   3.357 -0.0874 -1.1172 -0.3028
10229SOL    HW133642   1.247   6.007   3.358 -0.3160  0.9198 -0.5446
10229SOL    HW233643   1.371   5.962   3.282 -0.9089 -2.5040  0.3286
10230SOL     OW33644   4.650  10.593   2.101  0.1281  0.1447 -0.3131
10230SOL    HW133645   4.722  10.593   2.165  0.6279 -0.8857 -0.8635
10230SOL    HW233646   4.692  10.610   2.017 -0.3526  0.1368 -0.5600
10231SOL     OW33647   4.614   2.032   1.353  0.1939 -0.4283  0.7490
10231SOL    HW133648   4.693   2.045   1.405  1.3911  1.8098 -1.4077
10231SOL    HW233649   4.634   2.073   1.269 -3.4412  0.7372  0.2703
10232SOL     OW33650   0.798   9.016   1.850 -0.2841 -0.3589  0.0210
10232SOL    HW133651   0.735   9.012   1.778 -0.1928 -2.0757 -0.0165
10232SOL    HW233652   0.758   8.964   1.920  0.3373 -0.0590  0.6106
10233SOL     OW33653   8.325   6.405   9.139  0.4107  0.4883 -0.0787
10233SOL    HW133654   8.343   6.315   9.112  2.2401  0.6563  0.4257
10233SOL    HW233655   8.347   6.457   9.062 -1.6679  0.4871 -0.7411
10234SOL     OW33656   5.270   2.781   0.519  0.0027 -0.1191  0.1014
10234SOL    HW133657   5.193   2.788   0.574 -0.4532 -1.0120 -0.4108
10234SOL    HW233658   5.307   2.695   0.540 -0.3616 -0.6149 -1.1974
10235SOL     OW33659   9.649   3.699  10.455 -0.7771  0.3155 -0.1936
10235SOL    HW133660   9.625   3.768  10.516  0.2597  0.5822 -0.0764
10235SOL    HW233661   9.707   3.741  10.391 -0.5026 -0.3357 -0.3859
10236SOL     OW33662   7.378  10.483   3.930 -0.2888  0.3231 -0.3279
10236SOL    HW133663   7.412  10.400   3.899 -1.2069 -0.3329  0.3450
10236SOL    HW233664   7.376  10.540   3.853 -1.6402 -0.9500 -1.2843
10237SOL     OW33665   9.880   9.027   8.365  0.1797 -0.2332  0.1354
10237SOL    HW133666   9.920   9.027   8.452 -1.5190 -2.3910  0.9974
10237SOL    HW233667   9.818   8.954   8.367  0.5212 -0.7519 -3.0993
10238SOL     OW33668   7.063   2.545   9.542  0.3920  0.2506 -0.9233
10238SOL    HW133669   7.134   2.493   9.579  0.5106  1.5340  0.7688
10238SOL    HW233670   7.105   2.599   9.475  1.3455  1.8906  0.8953
10239SOL     OW33671   4.374   0.381   1.330 -0.2386  0.3449 -0.2843
10239SOL    HW133672   4.456   0.386   1.379 -0.3649 -1.0652  0.1243
10239SOL    HW233673   4.383   0.447   1.261  0.9005  0.7607  0.2348
10240SOL     OW33674   2.021   4.086   2.104  0.2549  0.1364  0.2958
10240SOL    HW133675   2.042   3.999   2.070 -1.9786 -0.2275 -0.2679
10240SOL    HW233676   2.049   4.146   2.035  3.6853  0.1460  1.4891
10241SOL     OW33677   4.609   6.035   2.350 -0.3787 -0.2525 -0.1399
10241SOL    HW133678   4.694   6.078   2.348 -0.7867  0.5918  0.0972
10241SOL    HW233679   4.556   6.088   2.410 -0.6314 -1.6079  0.8872
10242SOL     OW33680   0.276   0.644   2.058  0.0960 -0.0533  0.0479
10242SOL    HW133681   0.222   0.687   2.124 -0.1475  2.5991 -1.7323
10242SOL    HW233682   0.230   0.562   2.038 -0.1845 -0.5833  2.5732
10243SOL     OW33683   7.421   6.339  10.424  0.6498  0.2780  0.0447
10243SOL    HW133684   7.508   6.378  10.408  1.3292 -2.1052 -3.3088
10243SOL    HW233685   7.373   6.355  10.343 -0.3291 -2.3712 -0.0104
10244SOL     OW33686   4.131   8.848   2.873  0.1370 -0.5203 -0.8964
10244SOL    HW133687   4.146   8.852   2.967  2.1582 -0.2519 -1.1895
10244SOL    HW233688   4.042   8.880   2.862 -1.0221 -2.7286  1.0984
10245SOL     OW33689  10.138   3.213   5.084  0.0235 -0.2783  0.2340
10245SOL    HW133690  10.057   3.265   5.077  0.4542  0.3407 -0.2643
10245SOL    HW233691  10.125   3.159   5.162 -1.1165 -0.6277 -0.1756
10246SOL     OW33692   2.685   4.701   9.096 -0.4639 -0.7349  0.0545
10246SOL    HW133693   2.765   4.681   9.048  0.4434  0.2782  1.0729
10246SOL    HW233694   2.667   4.622   9.148  0.3163 -0.6961  0.3926
10247SOL     OW33695   9.452   5.134   2.907  0.0062 -0.1425  0.2661
10247SOL    HW133696   9.435   5.042   2.928  2.1318 -0.2962  1.5718
10247SOL    HW233697   9.378   5.159   2.851 -1.2484 -2.2914  0.8157
10248SOL     OW33698   3.709   9.232   2.478  0.2785  0.1945  0.2099
10248SOL    HW133699   3.760   9.309   2.504 -0.5999  0.8629  0.0062
10248SOL    HW233700   3.760   9.192   2.408  0.0184  1.4727 -0.7476
10249SOL     OW33701  10.265   8.386   9.977  0.7443 -0.2693 -0.2073
10249SOL    HW133702  10.317   8.344  10.046  1.5161 -0.9194 -1.1599
10249SOL    HW233703  10.285   8.479   9.984 -0.7387 -0.0311  1.7305
10250SOL     OW33704   7.348   8.600   7.024  0.2361 -0.1137 -0.3467
10250SOL    HW133705   7.409   8.668   6.996 -0.6391  1.5112  1.4433
10250SOL    HW233706   7.263   8.643   7.023 -0.4971 -1.5203 -0.1738
10251SOL     OW33707   8.964   2.451   1.486 -0.3823 -0.1312  0.1277
10251SOL    HW133708   9.054   2.424   1.507 -0.0167  0.0920 -1.0600
10251SOL    HW233709   8.965   2.546   1.496 -0.0994  0.0193 -1.1949
10252SOL     OW33710   4.677   6.330   8.295  0.0296 -0.5327  0.0398
10252SOL    HW133711   4.600   6.363   8.250  0.5408  2.2793  1.0131
10252SOL    HW233712   4.742   6.318   8.226 -0.1718  0.6718 -0.3956
10253SOL     OW33713   1.366   8.531   2.033  0.1973 -0.4753  0.0349
10253SOL    HW133714   1.407   8.547   2.118 -1.5195  1.8548  0.5428
10253SOL    HW233715   1.355   8.436   2.029  1.8663 -0.7981  1.6213
10254SOL     OW33716   6.428   3.689   8.384  0.0924  0.4989 -0.3183
10254SOL    HW133717   6.393   3.709   8.471 -0.3242 -2.5524  0.3344
10254SOL    HW233718   6.517   3.725   8.385 -0.1714  1.1587  1.1088
10255SOL     OW33719   2.728   5.262   8.019 -0.4837  0.5376  0.3030
10255SOL    HW133720   2.671   5.252   8.095  1.5081 -1.4447  1.6683
10255SOL    HW233721   2.805   5.208   8.039  0.2669  0.1431 -3.0327
10256SOL     OW33722   7.322   9.710   2.446  0.4527 -0.0007 -0.4003
10256SOL    HW133723   7.259   9.711   2.373 -0.4707  1.9859  0.3290
10256SOL    HW233724   7.396   9.762   2.414  0.8592 -0.6528 -0.5398
10257SOL     OW33725   2.074   5.182   9.699 -0.1305 -0.4108  0.4474
10257SOL    HW133726   1.998   5.230   9.731  0.8036  1.2760  0.2567
10257SOL    HW233727   2.085   5.212   9.609 -1.2359 -3.2149 -0.7521
10258SOL     OW33728   8.899   3.920   4.822 -0.6107 -0.0148 -0.4835
10258SOL    HW133729   8.917   3.895   4.913 -0.6598  1.6323  0.0121
10258SOL    HW233730   8.977   3.966   4.794 -0.5673 -0.5815 -1.3237
10259SOL     OW33731   9.567   7.718   8.660 -0.0813  0.2599 -0.2119
10259SOL    HW133732   9.588   7.754   8.746 -1.6995  0.7631  0.0202
10259SOL    HW233733   9.580   7.790   8.600 -0.0707  0.2527 -0.2184
10260SOL     OW33734   6.328   2.497   8.096  0.0430  0.3747 -0.3480
10260SOL    HW133735   6.418   2.467   8.086 -0.0923 -0.0697 -0.2501
10260SOL    HW233736   6.274   2.427   8.058 -0.3106  0.1350  0.5476
10261SOL     OW33737   2.852   4.286   3.593  0.0380 -0.2449 -0.5366
10261SOL    HW133738   2.904   4.223   3.543  0.7906 -0.2871  0.2806
10261SOL    HW233739   2.906   4.308   3.668 -0.6102  0.6723 -0.3168
10262SOL     OW33740   9.467   9.911   7.262 -0.0434  0.0257  0.1613
10262SOL    HW133741   9.452   9.835   7.205 -1.5871 -0.2204  0.8380
10262SOL    HW233742   9.434   9.985   7.212 -3.8249 -0.4915  1.5708
10263SOL     OW33743   7.685   8.067   6.951 -0.3122  0.3349 -0.7226
10263SOL    HW133744   7.778   8.044   6.957 -0.7333 -1.6410 -1.1350
10263SOL    HW233745   7.653   8.059   7.041 -0.4985 -1.0457 -0.8888
10264SOL     OW33746   2.716   0.746   8.382  0.8164  0.5408 -0.0181
10264SOL    HW133747   2.736   0.835   8.411  2.2054  0.0442  0.6235
10264SOL    HW233748   2.639   0.721   8.434  0.0418  1.5589 -0.6402
10265SOL     OW33749   2.934   4.400   1.011  0.4413 -0.5500  0.1003
10265SOL    HW133750   2.931   4.487   0.972  1.0730 -0.4892  0.1869
10265SOL    HW233751   2.887   4.344   0.949  2.2300 -0.6448 -1.2201
10266SOL     OW33752   3.332   0.869   1.482  0.8395 -0.1974 -0.0087
10266SOL    HW133753   3.301   0.882   1.572  1.4851 -0.6588  0.2938
10266SOL    HW233754   3.274   0.802   1.446  0.3839  0.2127 -0.0366
10267SOL     OW33755   3.813  10.461   3.662  0.1579  0.3593  0.4221
10267SOL    HW133756   3.818  10.550   3.695 -1.0433  0.4724  0.3508
10267SOL    HW233757   3.722  10.451   3.632  0.8208 -0.1776 -1.5861
10268SOL     OW33758   6.547   7.823   6.835 -0.4528 -0.2611 -0.3079
10268SOL    HW133759   6.488   7.766   6.786 -0.2580 -1.3878  0.7272
10268SOL    HW233760   6.597   7.764   6.890 -0.8608  0.9705  1.4629
10269SOL     OW33761   2.776   9.189   9.489  0.3338 -0.1715  0.2147
10269SOL    HW133762   2.832   9.180   9.565  0.2483  1.1353  0.4660
10269SOL    HW233763   2.765   9.100   9.456  0.2438 -0.7895  1.8126
10270SOL     OW33764   7.354   2.566   8.430 -0.2515  0.5777 -0.4328
10270SOL    HW133765   7.274   2.615   8.446 -0.4993  0.4946 -1.3502
10270SOL    HW233766   7.358   2.558   8.335 -0.2442 -1.2416 -0.3069
10271SOL     OW33767   9.420   4.161   5.231 -0.0851  0.0179 -0.5447
10271SOL    HW133768   9.437   4.129   5.143  0.1193  0.3081 -0.6098
10271SOL    HW233769   9.460   4.247   5.234  1.6822 -0.7921  0.4554
10272SOL     OW33770   0.583  10.160   3.099  0.2680 -0.1460 -0.2254
10272SOL    HW133771   0.585  10.141   3.193 -0.6559  1.4897  0.1782
10272SOL    HW233772   0.669  10.135   3.067 -0.1378 -2.8587  0.5831
10273SOL     OW33773   1.026   1.435   5.586 -0.7442  0.5718 -0.2871
10273SOL    HW133774   1.119   1.414   5.583 -1.2761 -2.1608 -0.4576
10273SOL    HW233775   1.006   1.440   5.680 -0.5939  0.2639 -0.2378
10274SOL     OW33776   0.604   2.974   6.301  0.7876  0.3976 -0.3202
10274SOL    HW133777   0.639   2.930   6.379  0.3590  1.8359  0.7355
10274SOL    HW233778   0.527   2.923   6.277  2.2647 -1.5019 -1.3401
10275SOL     OW33779   2.253   6.322   3.087  0.5590  0.2746  0.1317
10275SOL    HW133780   2.337   6.310   3.042  1.0755  0.0245  1.1212
10275SOL    HW233781   2.268   6.397   3.145 -0.1397  0.6967 -0.2326
10276SOL     OW33782   8.223   3.159   1.618  0.0058 -0.0308  0.1330
10276SOL    HW133783   8.166   3.236   1.631  1.9472  1.6830 -0.8656
10276SOL    HW233784   8.252   3.136   1.706 -0.3883  0.5608  0.4307
10277SOL     OW33785   9.740   4.768   7.161 -0.6222  0.2814  0.4112
10277SOL    HW133786   9.749   4.673   7.153  0.3236  0.5429 -3.4908
10277SOL    HW233787   9.690   4.780   7.241 -1.3606 -3.5300  0.7215
10278SOL     OW33788   6.119   0.665   4.051  0.2700  0.2041 -0.9115
10278SOL    HW133789   6.114   0.686   3.958 -1.7495 -1.0024 -1.1302
10278SOL    HW233790   6.032   0.686   4.085  1.3091  1.7281  1.0009
10279SOL     OW33791   5.200   0.617   2.655  0.3205  0.5826  0.5950
10279SOL    HW133792   5.288   0.580   2.659  0.5095  1.0727  1.1173
10279SOL    HW233793   5.183   0.648   2.744 -1.4983 -2.0856  1.3073
10280SOL     OW33794   1.225  10.583   6.422  0.2453 -0.4027  0.4788
10280SOL    HW133795   1.159  10.514   6.417 -0.4761  0.2506  0.8647
10280SOL    HW233796   1.199  10.636   6.497  0.9351  0.1462  0.3373
10281SOL     OW33797   4.853   1.907   1.776 -0.5246 -0.3532  0.1776
10281SOL    HW133798   4.937   1.884   1.816  1.1756  1.3252 -2.1296
10281SOL    HW233799   4.788   1.893   1.846  1.8514 -0.1483  2.6090
10282SOL     OW33800   6.515   7.929   8.426  0.0674 -0.1483 -0.3241
10282SOL    HW133801   6.576   7.870   8.381  0.3205 -1.8799  2.1123
10282SOL    HW233802   6.450   7.952   8.359  0.7379 -2.0922 -1.7288
10283SOL     OW33803   6.342   3.259   8.490  0.1389 -0.1193  0.2652
10283SOL    HW133804   6.355   3.164   8.492 -0.8891 -0.2582  1.7945
10283SOL    HW233805   6.249   3.271   8.470  0.2929  0.5838 -0.0853
10284SOL     OW33806   3.234   8.485   7.373  0.3806 -0.0479  0.0618
10284SOL    HW133807   3.219   8.495   7.467 -1.0712 -0.5513 -0.0966
10284SOL    HW233808   3.214   8.571   7.336 -2.5911 -0.7319 -0.1654
10285SOL     OW33809   6.046   6.903   0.811  0.3384 -0.0468 -0.1325
10285SOL    HW133810   5.965   6.860   0.838 -1.0545  1.0322 -2.2563
10285SOL    HW233811   6.107   6.831   0.795  0.3651 -0.8311  2.8600
10286SOL     OW33812   8.222   6.625   9.261 -0.0812  0.2636  0.3702
10286SOL    HW133813   8.267   6.701   9.224  0.5056  0.0032  0.5202
10286SOL    HW233814   8.261   6.550   9.215 -0.4386  0.0361  0.4328
10287SOL     OW33815   9.281   6.013   5.869  0.3219 -0.2295  0.4881
10287SOL    HW133816   9.286   6.017   5.965 -0.6516  0.6698  0.5235
10287SOL    HW233817   9.190   6.035   5.849  0.7845  0.7151 -0.6943
10288SOL     OW33818   3.547   5.478   6.576 -0.9627 -0.3629  0.2133
10288SOL    HW133819   3.630   5.515   6.607  0.1386 -1.5117 -1.1483
10288SOL    HW233820   3.516   5.541   6.511 -1.3491  0.2331  0.9608
10289SOL     OW33821   3.829   8.176   7.188 -0.1459 -0.3000 -0.3263
10289SOL    HW133822   3.868   8.257   7.220 -0.8449 -0.0311 -0.1454
10289SOL    HW233823   3.902   8.128   7.149  0.7644 -0.6424  1.6591
10290SOL     OW33824   7.296   6.818   3.101  0.1111 -0.3942  0.1920
10290SOL    HW133825   7.240   6.742   3.118 -0.1090 -0.4505 -0.7372
10290SOL    HW233826   7.382   6.792   3.132  0.1531 -1.2202 -0.5709
10291SOL     OW33827   7.805   1.002   9.903  0.3519  0.3391 -0.1890
10291SOL    HW133828   7.841   1.021   9.990  0.1694  1.9335 -0.4435
10291SOL    HW233829   7.797   1.087   9.861  0.2852 -0.4038 -1.7301
10292SOL     OW33830   1.719   3.641   7.266 -0.2712  0.0660  0.0639
10292SOL    HW133831   1.713   3.653   7.361 -1.9145 -0.2141  0.0344
10292SOL    HW233832   1.788   3.576   7.254 -1.2480 -1.2267  1.2053
10293SOL     OW33833   0.416  10.354   1.565  0.2500 -0.1903  0.4562
10293SOL    HW133834   0.453  10.413   1.500 -0.5389 -0.6471 -0.4319
10293SOL    HW233835   0.460  10.378   1.647  0.4027  1.1977  0.0034
10294SOL     OW33836   6.910   5.265   4.501 -0.3893 -0.1704  0.1165
10294SOL    HW133837   6.981   5.232   4.446  0.0295  1.7354 -0.5665
10294SOL    HW233838   6.833   5.216   4.473  0.3470 -1.2005 -0.1854
10295SOL     OW33839   9.674   8.534   0.644  0.1397 -0.1872  0.2851
10295SOL    HW133840   9.618   8.464   0.676 -0.5288  1.2476  2.5132
10295SOL    HW233841   9.744   8.541   0.709  0.0589  1.3287  0.2561
10296SOL     OW33842   8.852   1.569   7.097 -0.5777  0.2349 -0.0962
10296SOL    HW133843   8.795   1.643   7.076 -0.7631  0.7177  1.9082
10296SOL    HW233844   8.795   1.492   7.090 -1.0274  0.5378  0.1544
10297SOL     OW33845   5.589   1.225   1.295 -0.3993 -0.8459  0.5392
10297SOL    HW133846   5.642   1.225   1.215  0.7698 -1.6247  1.2808
10297SOL    HW233847   5.606   1.140   1.335 -1.1433 -0.5570  1.4996
10298SOL     OW33848   8.171   1.479   6.548  0.2388 -0.4410 -0.4592
10298SOL    HW133849   8.237   1.416   6.518  0.2451 -1.5800  1.7333
10298SOL    HW233850   8.099   1.425   6.580 -0.4886  0.7112 -0.0946
10299SOL     OW33851   9.753   6.984   4.112 -0.4667  0.2021 -0.6724
10299SOL    HW133852   9.805   7.019   4.184  0.1471 -1.1950 -0.4037
10299SOL    HW233853   9.684   6.933   4.154 -0.6740  0.1563 -1.0595
10300SOL     OW33854   3.498   3.102   0.460 -0.0496  0.0091  0.3447
10300SOL    HW133855   3.581   3.057   0.480 -1.0273 -0.5649  3.9017
10300SOL    HW233856   3.524   3.179   0.411  2.2300 -1.7452 -1.4377
10301SOL     OW33857   1.129   7.797   0.630 -0.0074  0.7941  0.0717
10301SOL    HW133858   1.034   7.795   0.621  0.0172  0.2518 -0.1154
10301SOL    HW233859   1.149   7.885   0.661 -0.5506  0.9793 -0.1044
10302SOL     OW33860   3.797   7.110   0.796 -0.9864 -0.0596  0.0969
10302SOL    HW133861   3.765   7.048   0.730 -2.4222 -1.5495  2.0799
10302SOL    HW233862   3.720   7.130   0.850  0.0759  1.3099  1.1881
10303SOL     OW33863   0.186   2.509   4.064  0.5673  0.0148 -0.8278
10303SOL    HW133864   0.173   2.496   4.158  1.1873  0.2578 -0.7023
10303SOL    HW233865   0.100   2.491   4.026  0.4290 -0.5521 -0.2685
10304SOL     OW33866   9.663   2.502   8.908  0.3671  0.0853  0.3107
10304SOL    HW133867   9.699   2.416   8.932 -0.0305 -1.4166 -3.6685
10304SOL    HW233868   9.580   2.482   8.866 -1.6118  2.8703  2.5306
10305SOL     OW33869   1.062   3.457   6.197 -0.2782 -0.3335 -0.4222
10305SOL    HW133870   1.043   3.548   6.219  1.0914  0.2107 -1.4024
10305SOL    HW233871   1.154   3.445   6.220 -0.3353 -1.3628 -0.6714
10306SOL     OW33872   8.058   9.942   8.054  0.0588 -0.1216  0.1444
10306SOL    HW133873   8.137   9.978   8.092  0.2679 -1.0404  0.6253
10306SOL    HW233874   8.004   9.918   8.129 -0.3584 -0.1722 -0.1671
10307SOL     OW33875   3.498   9.431   6.975 -0.2977  0.7341  0.1508
10307SOL    HW133876   3.535   9.517   6.954  0.4859  0.4998  0.5027
10307SOL    HW233877   3.407   9.448   6.999  0.2911  1.7104  1.9061
10308SOL     OW33878   4.951   2.000   0.959 -0.4227 -0.4952  0.2290
10308SOL    HW133879   4.905   2.026   1.039 -0.7208 -2.4875  0.7753
10308SOL    HW233880   4.892   1.937   0.917  0.8802 -1.4969 -0.1683
10309SOL     OW33881   0.162   0.608  10.461  0.0508 -0.2549 -0.2574
10309SOL    HW133882   0.111   0.673  10.509  0.0365  0.2887 -0.9833
10309SOL    HW233883   0.235   0.587  10.520  0.5713  1.1225 -0.3741
10310SOL     OW33884   2.526   4.926   2.993 -0.4060  0.4798  0.3272
10310SOL    HW133885   2.462   4.861   3.023 -0.3136  0.6268  0.8591
10310SOL    HW233886   2.592   4.928   3.062 -0.0784  0.6835  0.0123
10311SOL     OW33887   4.241   9.365   6.892 -0.2269  0.1759 -0.5674
10311SOL    HW133888   4.147   9.380   6.908 -0.5620 -1.0411 -1.3361
10311SOL    HW233889   4.273   9.330   6.975  0.0350  2.5702  0.4155
10312SOL     OW33890   2.636   7.009   6.309  0.6224  0.4814  0.3732
10312SOL    HW133891   2.722   6.978   6.338  0.0215 -0.4855  1.2145
10312SOL    HW233892   2.621   6.963   6.227  0.7221  0.3170  0.4455
10313SOL     OW33893   9.894   5.653   9.944 -0.4464 -0.7403  0.0519
10313SOL    HW133894   9.925   5.719   9.883 -0.3180 -0.5193  0.3559
10313SOL    HW233895   9.827   5.605   9.895 -1.5446  0.4992  0.2812
10314SOL     OW33896   4.592   3.718   5.334  0.0876 -0.2586 -0.3223
10314SOL    HW133897   4.680   3.729   5.298 -0.7474  1.9477 -1.8227
10314SOL    HW233898   4.599   3.751   5.424  1.4400 -2.9963  0.7215
10315SOL     OW33899   4.230  10.181   2.670  0.4625  0.7309  0.6800
10315SOL    HW133900   4.273  10.240   2.732  0.0979  0.2066  1.4468
10315SOL    HW233901   4.297  10.164   2.604  0.6297  1.8520  0.5422
10316SOL     OW33902  10.279   9.762   8.416 -0.8149  0.0284  0.3773
10316SOL    HW133903  10.273   9.673   8.382 -0.8592  0.3762 -0.5531
10316SOL    HW233904  10.212   9.766   8.484 -0.1304 -0.9427  1.1242
10317SOL     OW33905   4.371  10.107   5.127 -0.2079  0.0516  0.1244
10317SOL    HW133906   4.426  10.161   5.185  1.1573 -1.3367  0.1874
10317SOL    HW233907   4.424  10.096   5.048 -0.3545 -1.3518  0.1959
10318SOL     OW33908   6.242   9.508   7.909 -0.0452  0.3565 -0.3635
10318SOL    HW133909   6.294   9.433   7.937 -0.5233 -0.4617 -1.5791
10318SOL    HW233910   6.268   9.522   7.818 -0.2139  1.4496 -0.2486
10319SOL     OW33911   2.927   7.477   5.224  0.2185 -0.5219  0.4878
10319SOL    HW133912   2.991   7.532   5.268 -0.6609  1.2649 -0.3565
10319SOL    HW233913   2.873   7.443   5.295  1.8031 -1.7219  1.1667
10320SOL     OW33914   7.161   9.626   1.996  0.7158 -0.2385 -0.0149
10320SOL    HW133915   7.120   9.698   1.947  0.3673  0.9161  1.8874
10320SOL    HW233916   7.116   9.547   1.964  0.4589  0.4568 -1.4774
10321SOL     OW33917   8.628   8.673   6.341  0.4626 -0.3436  0.2092
10321SOL    HW133918   8.629   8.612   6.268  0.1955  0.7347 -0.7236
10321SOL    HW233919   8.642   8.619   6.418 -0.6207 -1.6844 -0.5048
10322SOL     OW33920   5.578   1.004   6.302 -0.3970  0.3904  0.0579
10322SOL    HW133921   5.625   0.958   6.232 -1.9024 -0.6615 -0.3044
10322SOL    HW233922   5.592   1.097   6.282  1.2559  0.1134 -0.1888
10323SOL     OW33923   1.858   5.104  10.683 -0.3358 -0.1905 -0.1180
10323SOL    HW133924   1.949   5.133  10.672  1.1389 -4.0596  0.1857
10323SOL    HW233925   1.835   5.066  10.598 -0.8894 -1.0345  0.3970
10324SOL     OW33926   9.366   6.631   8.233  0.1272 -0.3556 -0.0306
10324SOL    HW133927   9.350   6.712   8.282 -1.1166  0.3456 -1.5345
10324SOL    HW233928   9.461   6.629   8.221  0.0972  1.4093 -0.8261
10325SOL     OW33929   7.181   0.817   2.468 -0.3537  0.9482  0.7701
10325SOL    HW133930   7.188   0.729   2.504  0.0473  0.2921 -0.8339
10325SOL    HW233931   7.234   0.871   2.527  1.3387 -0.3171  0.4967
10326SOL     OW33932   2.620   9.902   9.516  0.2160  0.7578  0.3954
10326SOL    HW133933   2.587   9.952   9.590  2.6347  1.6205  0.9820
10326SOL    HW233934   2.709   9.934   9.502  1.1979 -1.9929 -0.4918
10327SOL     OW33935   8.865   9.341   5.223 -0.4257  0.1902 -0.6743
10327SOL    HW133936   8.925   9.411   5.196  0.3937 -0.6885 -1.1799
10327SOL    HW233937   8.836   9.302   5.141  0.7468 -1.4054 -0.3641
10328SOL     OW33938   2.951   7.540   4.110  0.6109 -0.1182 -0.2776
10328SOL    HW133939   3.002   7.607   4.156  0.6969 -0.3079 -0.0926
10328SOL    HW233940   2.953   7.465   4.169 -1.3127  0.4024  0.5224
10329SOL     OW33941   4.602   8.388   5.658 -0.6678  0.1678 -0.4847
10329SOL    HW133942   4.684   8.342   5.645 -0.2103  0.8667 -0.1330
10329SOL    HW233943   4.540   8.345   5.599 -0.4414 -1.3281  0.3224
10330SOL     OW33944   0.088   8.783   0.887 -0.2872 -0.0899 -0.1670
10330SOL    HW133945   0.089   8.743   0.800 -0.3523 -0.6326  0.0769
10330SOL    HW233946   0.166   8.838   0.888  0.9852 -1.8327  0.2229
10331SOL     OW33947   8.075   3.531   3.246  0.3187  0.6376  0.4474
10331SOL    HW133948   8.026   3.525   3.328  1.2346  1.2515  1.0603
10331SOL    HW233949   8.154   3.579   3.269  0.3376  1.3139 -0.9126
10332SOL     OW33950   4.589   2.623   6.892 -0.6930 -0.5835  0.0146
10332SOL    HW133951   4.669   2.676   6.897 -2.1458  1.8805 -0.8435
10332SOL    HW233952   4.578   2.605   6.798 -1.6387 -0.0350  0.0085
10333SOL     OW33953   3.773   4.088   0.748  0.3993 -0.6210  0.1845
10333SOL    HW133954   3.707   4.157   0.751  1.4786  0.5113 -0.8331
10333SOL    HW233955   3.780   4.065   0.655  1.2003 -0.9543  0.3185
10334SOL     OW33956   2.339   6.676   4.176  0.2823 -0.2101 -0.2447
10334SOL    HW133957   2.317   6.595   4.130 -1.6104  0.1225 -0.0051
10334SOL    HW233958   2.268   6.687   4.239  0.8666  1.3007  0.1755
10335SOL     OW33959   7.262   8.659   4.080  0.5210 -0.2812  0.1555
10335SOL    HW133960   7.179   8.642   4.124 -0.3980  1.8312 -0.6683
10335SOL    HW233961   7.327   8.660   4.151 -0.1927 -1.5564  0.8511
10336SOL     OW33962   2.086   8.032   9.556  0.1261 -0.0970  0.1110
10336SOL    HW133963   2.033   7.979   9.496  0.3565 -0.7672  0.4867
10336SOL    HW233964   2.153   8.071   9.501 -1.0119  1.1420 -0.4605
10337SOL     OW33965   4.429   2.513   6.297 -0.1860  0.1890  0.0349
10337SOL    HW133966   4.524   2.518   6.287 -0.1559 -0.0023  0.2043
10337SOL    HW233967   4.405   2.429   6.258 -0.5053  0.9866 -1.5532
10338SOL     OW33968   1.565   2.459   1.025 -0.3942 -0.2931  0.0478
10338SOL    HW133969   1.541   2.523   1.091  1.5025 -0.7076  1.2232
10338SOL    HW233970   1.565   2.509   0.943 -0.2074  0.8925  0.7441
10339SOL     OW33971   7.334   9.501   6.753 -0.0242 -0.6312 -0.2450
10339SOL    HW133972   7.382   9.420   6.771 -1.0409 -1.2506 -0.2623
10339SOL    HW233973   7.360   9.524   6.664  1.6472  0.0598  0.3841
10340SOL     OW33974   9.607  10.298   9.338  0.9300  0.4562 -0.3119
10340SOL    HW133975   9.540  10.332   9.279 -0.2341  0.3626  0.9047
10340SOL    HW233976   9.658  10.375   9.363 -1.2022  1.3095  1.8145
10341SOL     OW33977   7.370   3.245   0.124  0.5830 -0.3242 -0.0212
10341SOL    HW133978   7.386   3.198   0.042 -0.7756  0.6540 -0.8805
10341SOL    HW233979   7.278   3.269   0.121  0.7823  0.7529  1.2774
10342SOL     OW33980   4.423   2.339   6.690  0.2054 -0.0303 -0.0581
10342SOL    HW133981   4.471   2.387   6.624 -0.9703  0.5657 -0.5160
10342SOL    HW233982   4.391   2.406   6.751 -1.8883 -0.0987 -0.9846
10343SOL     OW33983   6.781   6.613   2.724  0.2373  0.2724  0.2156
10343SOL    HW133984   6.772   6.674   2.651  1.1359 -0.2509 -0.3551
10343SOL    HW233985   6.873   6.617   2.749  0.2956 -0.7527  0.2344
10344SOL     OW33986   0.627   2.551   3.355 -0.0831  0.1472  0.1758
10344SOL    HW133987   0.575   2.584   3.282 -0.1320 -1.0834 -0.3604
10344SOL    HW233988   0.625   2.622   3.419 -1.0004  0.7917 -0.5384
10345SOL     OW33989   0.596   6.792   1.485  0.0161 -0.0843  0.3842
10345SOL    HW133990   0.599   6.798   1.581  2.3606  0.2222  0.3648
10345SOL    HW233991   0.562   6.877   1.457 -3.2248 -1.0896  0.9346
10346SOL     OW33992   3.854   6.071   6.510 -0.8653  0.4431  0.2036
10346SOL    HW133993   3.784   6.133   6.491  0.1156  1.9397  1.2560
10346SOL    HW233994   3.891   6.049   6.424 -0.3126  2.4673 -0.1366
10347SOL     OW33995   7.178   9.396   8.381  0.4941 -0.3258  0.3983
10347SOL    HW133996   7.189   9.442   8.464 -0.5755 -0.6975  0.7658
10347SOL    HW233997   7.239   9.322   8.386  0.7911 -0.0656  0.6395
10348SOL     OW33998   6.277   1.105   4.987 -0.3268  0.7316 -0.1687
10348SOL    HW133999   6.369   1.122   5.008  0.0900 -1.7756  0.3469
10348SOL    HW234000   6.277   1.084   4.894 -0.4937  1.2456 -0.2921
10349SOL     OW34001   6.802   2.120   2.330 -0.5336  0.5439 -0.4407
10349SOL    HW134002   6.731   2.183   2.313 -0.3794  0.0584 -3.3209
10349SOL    HW234003   6.760   2.034   2.323 -0.4322  0.2355  1.9889
10350SOL     OW34004  10.048   4.221   8.646 -0.0970  0.1242  0.2501
10350SOL    HW134005  10.036   4.310   8.681  1.6165 -0.0234  1.2718
10350SOL    HW234006   9.965   4.177   8.666  0.0352  0.6792  2.2904
10351SOL     OW34007   1.403   8.271   5.984  0.3090  0.3395  0.0458
10351SOL    HW134008   1.409   8.268   6.079 -2.0439  1.3517  0.3017
10351SOL    HW234009   1.470   8.334   5.958  0.6855  0.3826  1.0601
10352SOL     OW34010   9.148   8.910   0.206 -0.3576  0.0125 -0.4516
10352SOL    HW134011   9.177   8.856   0.279 -0.8841  1.3859  0.8366
10352SOL    HW234012   9.121   8.992   0.247 -2.6016  0.1053 -1.9491
10353SOL     OW34013   5.486   5.474   2.897 -0.1635  0.0367 -0.0977
10353SOL    HW134014   5.477   5.531   2.821  0.2347 -0.4353 -0.5045
10353SOL    HW234015   5.396   5.447   2.917 -0.3590  0.7965  0.1054
10354SOL     OW34016   5.896   6.880   2.230  0.2677 -0.1826  0.0118
10354SOL    HW134017   5.882   6.963   2.185  0.6188 -1.1009 -1.8778
10354SOL    HW234018   5.953   6.902   2.304 -0.1782  1.3472 -0.0687
10355SOL     OW34019   8.796   3.120   9.584  0.2329  0.4821 -0.0984
10355SOL    HW134020   8.856   3.193   9.601 -0.7735  1.6919 -1.5449
10355SOL    HW234021   8.720   3.139   9.639 -1.6276  2.6435 -3.1187
10356SOL     OW34022  10.636   1.074   7.582 -0.6165 -0.2213  0.4977
10356SOL    HW134023  10.556   1.076   7.529 -0.5888  1.5175  0.4831
10356SOL    HW234024  10.695   1.136   7.539 -0.0700  0.1566  1.7519
10357SOL     OW34025   3.582   3.828  10.525  0.6799 -0.0891  0.4945
10357SOL    HW134026   3.572   3.745  10.572 -1.3558 -0.7457 -0.9644
10357SOL    HW234027   3.663   3.865  10.559  1.6338 -2.6518  1.2475
10358SOL     OW34028   7.854   5.033   5.443  0.2485 -0.4577 -0.8604
10358SOL    HW134029   7.945   5.046   5.417 -0.3476  2.5230 -1.8872
10358SOL    HW234030   7.827   4.954   5.398  2.1973 -1.1625 -0.8601
10359SOL     OW34031   1.378   6.391   0.320  0.3437  0.2860  0.0449
10359SOL    HW134032   1.471   6.379   0.335  0.0390 -1.9780  0.5630
10359SOL    HW234033   1.350   6.310   0.278 -1.4284  0.8003  0.1373
10360SOL     OW34034   8.484   4.264   7.424 -0.0987 -0.3100  0.1612
10360SOL    HW134035   8.508   4.184   7.472  0.9136 -1.1483 -1.6238
10360SOL    HW234036   8.558   4.279   7.365 -0.7812  1.3284 -0.3199
10361SOL     OW34037   8.464   7.457   7.472  0.3757  0.4179 -0.4028
10361SOL    HW134038   8.450   7.489   7.383 -0.3993 -1.1246 -0.8675
10361SOL    HW234039   8.376   7.447   7.507  0.6764  1.9770  0.9472
10362SOL     OW34040  10.693   9.891   5.130 -0.2048  0.9540 -0.3516
10362SOL    HW134041  10.638   9.939   5.069  0.4866  2.4821  0.1709
10362SOL    HW234042  10.779   9.933   5.123  1.3987 -2.1999 -2.1796
10363SOL     OW34043   6.251   3.031   4.129  0.2069  0.1398  0.4056
10363SOL    HW134044   6.181   3.062   4.072  0.1954  3.4785  1.9949
10363SOL    HW234045   6.330   3.032   4.075 -0.4998 -1.2486 -0.7149
10364SOL     OW34046   3.616   2.003   4.194  0.2216  0.6488 -0.1611
10364SOL    HW134047   3.590   2.095   4.190  0.1288  0.7435  1.5657
10364SOL    HW234048   3.557   1.965   4.260 -0.2093 -0.8297 -1.3290
10365SOL     OW34049   7.967   5.504   4.839 -0.0456 -0.1992 -0.5879
10365SOL    HW134050   7.920   5.459   4.908  1.0767 -1.4324 -0.5791
10365SOL    HW234051   7.904   5.512   4.767 -1.3533  1.4646  0.6640
10366SOL     OW34052   4.738   7.776   0.737  0.3518  0.0942  0.0984
10366SOL    HW134053   4.772   7.734   0.658  0.3030  1.2271 -0.5609
10366SOL    HW234054   4.808   7.767   0.801  0.7085 -0.1809 -0.3208
10367SOL     OW34055   3.160   0.439   2.127 -0.4591 -0.2553  0.0227
10367SOL    HW134056   3.135   0.418   2.037  1.2495 -2.2104 -0.0919
10367SOL    HW234057   3.254   0.418   2.131 -0.5828 -0.6772  2.3579
10368SOL     OW34058   2.091   9.868   3.171  0.6329  0.1250  0.4194
10368SOL    HW134059   2.125   9.853   3.259 -1.1963 -1.0385  0.9844
10368SOL    HW234060   2.057   9.783   3.144  1.5728  0.3397 -1.6417
10369SOL     OW34061   6.142  10.122   4.546  0.8609  0.0033  0.6223
10369SOL    HW134062   6.083  10.082   4.482  0.6740  0.3381  0.5771
10369SOL    HW234063   6.142  10.062   4.620 -0.7262  0.6938  1.2427
10370SOL     OW34064   2.034   8.007   1.788 -0.0307 -0.0490 -0.3796
10370SOL    HW134065   1.970   7.968   1.848  0.3541 -1.1340 -0.6578
10370SOL    HW234066   1.983   8.033   1.712 -0.4526  0.9368  0.2129
10371SOL     OW34067   5.291  10.038  10.204 -0.2534 -0.0617  0.1350
10371SOL    HW134068   5.311   9.963  10.261 -0.2486  0.3868  0.7345
10371SOL    HW234069   5.353  10.106  10.231  1.7200 -0.7391 -2.3523
10372SOL     OW34070   5.006   0.979   6.531  0.0429 -0.3642  0.5339
10372SOL    HW134071   4.911   0.978   6.523  0.0028  0.2522  0.8525
10372SOL    HW234072   5.035   0.900   6.484 -0.4608  0.6774 -1.6949
10373SOL     OW34073   7.150   5.422   6.409  0.4215 -0.6509  0.4930
10373SOL    HW134074   7.073   5.456   6.455 -0.2383  0.1377 -1.1405
10373SOL    HW234075   7.184   5.354   6.468  0.0166  0.7504  2.4629
10374SOL     OW34076  10.079   4.611   4.438 -0.1758 -0.1116 -0.4167
10374SOL    HW134077  10.118   4.591   4.523  0.7812 -1.4782 -1.1276
10374SOL    HW234078  10.152   4.643   4.385 -0.8498  1.1491 -0.6118
10375SOL     OW34079   0.522   2.813   5.189  0.2878 -0.4650  0.0214
10375SOL    HW134080   0.431   2.822   5.220  0.1758 -1.4979  0.0240
10375SOL    HW234081   0.514   2.769   5.105  0.7073  0.8570 -0.7309
10376SOL     OW34082   2.794   1.194   5.670 -0.7381  0.4248 -0.2307
10376SOL    HW134083   2.876   1.224   5.629 -1.1431  0.9470 -0.6854
10376SOL    HW234084   2.769   1.265   5.729 -1.2614  0.6140 -0.6721
10377SOL     OW34085   9.784   1.005   1.918  0.0482 -0.1253  0.0356
10377SOL    HW134086   9.699   0.988   1.959  0.8430 -1.0710  1.3991
10377SOL    HW234087   9.803   0.926   1.867 -0.9774  1.0846 -2.3632
10378SOL     OW34088   4.740   2.403  10.474  0.6371  0.3917  0.3855
10378SOL    HW134089   4.787   2.391  10.391 -1.4317 -0.6059 -0.6985
10378SOL    HW234090   4.694   2.321  10.487 -0.1434  1.0379  1.8501
10379SOL     OW34091   5.447   6.235   6.379  0.0725 -0.3667 -0.1747
10379SOL    HW134092   5.483   6.311   6.424 -2.6556  0.4474  0.7844
10379SOL    HW234093   5.515   6.168   6.388  1.8449  1.4265  0.4197
10380SOL     OW34094   1.378   8.210   0.209 -0.1175 -0.3616 -0.0210
10380SOL    HW134095   1.427   8.203   0.291  2.2611  0.9123 -1.2298
10380SOL    HW234096   1.327   8.129   0.204  0.0162 -0.6615  2.4822
10381SOL     OW34097   3.236   7.669   2.868  0.0894  0.1581 -0.0596
10381SOL    HW134098   3.290   7.658   2.946  0.3370  0.0154 -0.2472
10381SOL    HW234099   3.257   7.594   2.813 -1.2030 -0.5404  0.3757
10382SOL     OW34100   3.137   6.656   8.547 -0.4769  0.2154 -0.2545
10382SOL    HW134101   3.180   6.672   8.463 -0.8554  0.2968 -0.4320
10382SOL    HW234102   3.210   6.644   8.608 -0.1452 -2.1343 -0.9943
10383SOL     OW34103   9.352   1.025   5.120  0.0831 -0.5609 -0.3745
10383SOL    HW134104   9.303   1.090   5.070 -0.2631 -0.9684 -0.5756
10383SOL    HW234105   9.407   0.981   5.055  1.1891  0.3058 -0.0543
10384SOL     OW34106   9.892   8.650   5.195 -0.4828  0.3152  0.7356
10384SOL    HW134107   9.866   8.570   5.241  0.5664 -0.1254  0.5980
10384SOL    HW234108   9.847   8.721   5.241 -0.7693 -0.2740  1.3802
10385SOL     OW34109   0.783   2.075   0.905 -0.0270 -0.3546 -0.3079
10385SOL    HW134110   0.736   2.041   0.829 -1.5182 -1.3046  0.9798
10385SOL    HW234111   0.752   2.166   0.913 -2.5928 -1.2423  1.1093
10386SOL     OW34112   0.988  10.619   0.458 -0.2440  0.4377 -0.2079
10386SOL    HW134113   0.943  10.557   0.401  1.3780 -0.8165 -0.2148
10386SOL    HW234114   0.932  10.626   0.535 -0.9241 -0.3257 -0.6140
10387SOL     OW34115   3.366   6.251   6.762  0.2223  0.1925 -0.4161
10387SOL    HW134116   3.274   6.259   6.737  0.0590 -0.1645  0.0606
10387SOL    HW234117   3.410   6.320   6.712 -0.3858  0.7261 -0.2279
10388SOL     OW34118   8.088  10.205   4.499  0.1243  0.1906  0.1237
10388SOL    HW134119   8.171  10.191   4.454  0.4461  0.4904  0.6158
10388SOL    HW234120   8.026  10.224   4.429  0.7659  1.3791 -0.1442
10389SOL     OW34121   5.380   4.180   4.499  0.1860 -0.0026 -1.0069
10389SOL    HW134122   5.317   4.222   4.558  0.9137 -0.1165 -0.1221
10389SOL    HW234123   5.425   4.116   4.554  1.4079  0.4051 -1.4904
10390SOL     OW34124   1.170   9.160   6.616  0.2807  0.0409  0.0174
10390SOL    HW134125   1.139   9.227   6.678  1.1846  1.9442 -1.4676
10390SOL    HW234126   1.095   9.103   6.603 -1.0070  1.5924  0.3080
10391SOL     OW34127   1.048   2.168   6.463 -0.0110 -0.1433 -0.1968
10391SOL    HW134128   1.048   2.117   6.382 -0.8144 -0.8950  0.2553
10391SOL    HW234129   1.099   2.246   6.442  0.5548 -0.7468 -1.1551
10392SOL     OW34130   5.276   4.664   0.119 -0.1989 -0.5259 -0.1161
10392SOL    HW134131   5.247   4.641   0.207  1.2533 -0.3098  0.4536
10392SOL    HW234132   5.219   4.615   0.061  0.5002 -2.7863  0.9955
10393SOL     OW34133   3.292   9.997   8.384 -0.0044  0.1892 -0.6239
10393SOL    HW134134   3.258   9.962   8.302  0.6205 -0.4235 -0.6289
10393SOL    HW234135   3.310  10.089   8.364 -1.7961  0.5895 -0.5646
10394SOL     OW34136   0.432   8.145   4.073 -0.3282 -0.0596  0.1316
10394SOL    HW134137   0.459   8.059   4.107  0.4176 -0.0459 -0.4007
10394SOL    HW234138   0.426   8.132   3.978 -1.6191  0.1094  0.1784
10395SOL     OW34139   0.826   7.579   8.997 -0.5029  0.4383  0.4065
10395SOL    HW134140   0.844   7.529   9.076 -1.3391  1.4378  1.2559
10395SOL    HW234141   0.856   7.668   9.017  1.0544  0.3181 -1.1045
10396SOL     OW34142   2.806   0.945  10.340 -0.3214 -0.4164 -0.1132
10396SOL    HW134143   2.715   0.958  10.311 -0.7540 -1.1320  0.8226
10396SOL    HW234144   2.855   1.015  10.298 -1.5387  0.8009  0.3899
10397SOL     OW34145   9.400   6.086   2.171  0.3053 -0.3161 -0.1889
10397SOL    HW134146   9.389   6.003   2.217  0.1429  0.2786  0.8835
10397SOL    HW234147   9.484   6.120   2.203  1.0871 -0.7280 -1.7152
10398SOL     OW34148   0.000   6.926   0.511  0.2094  0.3494 -0.4998
10398SOL    HW134149  -0.032   6.938   0.601 -1.4607  1.8388 -1.2447
10398SOL    HW234150   0.086   6.884   0.522 -0.0032  0.3843  1.7784
10399SOL     OW34151   6.186  10.132   3.666 -0.3173 -0.6979 -0.3928
10399SOL    HW134152   6.198  10.112   3.573  0.6249 -0.7805 -0.2612
10399SOL    HW234153   6.268  10.173   3.692 -0.6494 -0.5148  0.3641
10400SOL     OW34154  10.177   0.129   9.202 -0.4939 -0.3950 -0.0838
10400SOL    HW134155  10.098   0.151   9.252  0.3586  0.5438  0.9293
10400SOL    HW234156  10.248   0.138   9.266  0.6280  0.7149 -1.4117
10401SOL     OW34157   0.932   9.656   8.475  0.0911 -0.2760  0.6246
10401SOL    HW134158   0.978   9.736   8.451 -2.4149  1.5984  1.5607
10401SOL    HW234159   0.858   9.652   8.415 -0.4335 -1.2792  1.3105
10402SOL     OW34160   9.918  10.090   7.466 -0.1722 -0.5519 -0.4031
10402SOL    HW134161   9.998  10.047   7.434 -0.1000 -0.4919 -0.3056
10402SOL    HW234162   9.862  10.096   7.389  0.0070 -0.3917 -0.5239
10403SOL     OW34163  10.141   0.824  10.585  0.0848  0.4439 -0.4195
10403SOL    HW134164  10.087   0.800  10.509 -0.9693 -0.0265  0.4447
10403SOL    HW234165  10.157   0.740  10.629  0.1837  0.7882  0.2020
10404SOL     OW34166   7.285   2.756   4.680 -0.1954 -0.1778 -0.4052
10404SOL    HW134167   7.285   2.769   4.775  0.0187  4.0234 -0.7769
10404SOL    HW234168   7.204   2.708   4.662 -0.0652 -1.3727  1.8833
10405SOL     OW34169   2.231   0.928   5.205 -0.4600 -0.2577  0.7853
10405SOL    HW134170   2.233   1.011   5.158  0.6954 -1.1151 -0.7841
10405SOL    HW234171   2.309   0.881   5.174 -0.7181 -1.6500  2.1383
10406SOL     OW34172   3.369  10.557   8.893  0.0421 -0.3903 -0.3495
10406SOL    HW134173   3.278  10.527   8.897  0.3802 -1.3434  1.6128
10406SOL    HW234174   3.395  10.563   8.985  1.8223  0.3350 -0.8781
10407SOL     OW34175  10.331   8.640   1.145  0.7803 -0.6562 -0.0874
10407SOL    HW134176  10.356   8.547   1.152 -0.7450 -1.1469 -0.8022
10407SOL    HW234177  10.316   8.668   1.235 -1.4864 -1.9412  0.0174
10408SOL     OW34178   3.327   1.494   1.142 -0.7864  0.0645 -0.2343
10408SOL    HW134179   3.309   1.510   1.235  0.6086  0.0517  0.0518
10408SOL    HW234180   3.341   1.581   1.105 -2.1210  0.1412 -0.6351
10409SOL     OW34181   5.647   4.097  10.427  0.3318  0.2245  0.0326
10409SOL    HW134182   5.683   4.016  10.390 -0.2090 -0.9604  1.9491
10409SOL    HW234183   5.553   4.092  10.410  0.3682  0.7164 -0.3155
10410SOL     OW34184   3.351   3.970   9.259 -0.9120 -0.1650  0.4657
10410SOL    HW134185   3.312   3.922   9.186  0.4016 -0.1121 -0.3128
10410SOL    HW234186   3.360   4.059   9.227  1.0332 -0.4446  0.0856
10411SOL     OW34187   7.387   9.331   1.023  0.4678 -0.2228  0.6424
10411SOL    HW134188   7.342   9.259   1.066  1.2888 -0.9923  0.2484
10411SOL    HW234189   7.319   9.396   1.006 -0.3091 -0.9630  0.8794
10412SOL     OW34190   3.410   6.517   5.949  0.1911  0.1989  1.2090
10412SOL    HW134191   3.398   6.441   6.005  0.5337 -0.0048  1.0076
10412SOL    HW234192   3.393   6.592   6.006 -0.8433 -0.0399  1.2367
10413SOL     OW34193   9.955   9.108  10.266 -0.0828 -0.4744 -0.0938
10413SOL    HW134194   9.877   9.132  10.316 -0.4990 -0.6374 -0.6609
10413SOL    HW234195   9.968   9.179  10.204  1.1495  0.3355  1.0342
10414SOL     OW34196   3.755   2.301   3.556 -0.0183 -0.3233 -0.8185
10414SOL    HW134197   3.662   2.319   3.541  0.0568 -0.2273 -1.1620
10414SOL    HW234198   3.755   2.225   3.614 -0.3039 -0.6411 -1.2329
10415SOL     OW34199   3.382   7.882   6.855 -0.2809  0.5932 -0.4782
10415SOL    HW134200   3.353   7.933   6.931 -2.4100  0.1309 -0.9273
10415SOL    HW234201   3.454   7.933   6.818  0.0434  1.4099  1.1677
10416SOL     OW34202   3.512   4.431   1.229 -0.7398  0.0395 -0.3296
10416SOL    HW134203   3.443   4.456   1.167  0.2579  1.5200 -0.9100
10416SOL    HW234204   3.590   4.421   1.174 -0.5244 -1.9584  0.2598
10417SOL     OW34205   8.138   6.511   0.102 -0.0664  0.8750 -0.4188
10417SOL    HW134206   8.108   6.598   0.128  1.0305  1.0671  0.2850
10417SOL    HW234207   8.216   6.496   0.156 -0.8946 -1.0318  0.3311
10418SOL     OW34208   4.651   3.276   0.030 -0.1907 -0.2403  0.2578
10418SOL    HW134209   4.600   3.251   0.107  0.5052  0.5296  0.9885
10418SOL    HW234210   4.742   3.257   0.054 -0.0045 -0.3815 -0.5314
10419SOL     OW34211   9.748   0.418   6.247  0.4735 -0.0000  0.4881
10419SOL    HW134212   9.786   0.384   6.166  2.0598 -1.0909  1.6388
10419SOL    HW234213   9.692   0.347   6.278 -0.0808  0.3913  0.4037
10420SOL     OW34214   4.006   9.543   6.544  0.1466  0.0132 -0.2802
10420SOL    HW134215   3.969   9.506   6.464  2.1591  0.1449 -1.3436
10420SOL    HW234216   4.050   9.469   6.587  0.1385  0.2006  0.0566
10421SOL     OW34217  10.502   8.632   5.586  0.2130 -0.9440 -0.0954
10421SOL    HW134218  10.430   8.691   5.607  1.9054  1.3035 -0.2923
10421SOL    HW234219  10.525   8.653   5.496 -0.3022 -3.2503 -0.8308
10422SOL     OW34220   9.651   0.742   2.209  0.2898 -0.1285  0.5172
10422SOL    HW134221   9.671   0.783   2.293 -1.1342  0.4572  0.5889
10422SOL    HW234222   9.622   0.813   2.152  0.3234 -0.6573 -0.1876
10423SOL     OW34223   5.892   6.262   3.170  0.2162 -0.1271  0.1438
10423SOL    HW134224   5.955   6.294   3.234  1.5944  0.7672 -1.5647
10423SOL    HW234225   5.824   6.330   3.169 -1.1434 -1.3381  2.3552
10424SOL     OW34226   8.626   1.091   0.383  0.2059 -0.1428  0.6905
10424SOL    HW134227   8.660   1.011   0.423  0.4954  0.1355  1.0107
10424SOL    HW234228   8.672   1.162   0.429  1.1713  0.1708 -0.6973
10425SOL     OW34229   5.783   2.981   4.885  0.4927 -0.5255  0.4123
10425SOL    HW134230   5.778   2.897   4.839  2.0467 -1.1344  1.2546
10425SOL    HW234231   5.709   2.981   4.945  0.3059 -1.1605  0.1880
10426SOL     OW34232   5.499   1.511   9.620  0.2424 -0.3053  0.2983
10426SOL    HW134233   5.431   1.446   9.603  0.7196 -0.9030  0.6351
10426SOL    HW234234   5.508   1.558   9.537 -0.7651 -0.0349  0.3248
10427SOL     OW34235   5.856   8.418  10.308 -0.3996  0.0495  0.2646
10427SOL    HW134236   5.777   8.465  10.281  0.6456  1.4315 -0.4786
10427SOL    HW234237   5.861   8.432  10.403  0.6581  2.7681 -0.1110
10428SOL     OW34238   5.451   4.139   8.634  0.3292  0.1792 -0.2779
10428SOL    HW134239   5.371   4.094   8.663  0.9326 -1.5910 -1.2069
10428SOL    HW234240   5.511   4.132   8.708  0.7712 -1.5514 -0.7332
10429SOL     OW34241  10.083   4.231   1.457  0.6090 -0.5903  0.0430
10429SOL    HW134242  10.010   4.220   1.396 -0.6074 -0.9652  1.5046
10429SOL    HW234243  10.045   4.274   1.533  1.8295 -1.0957  0.9840
10430SOL     OW34244   6.427   9.016  10.589  0.4766 -0.3510  0.5453
10430SOL    HW134245   6.442   8.921  10.583  0.0826 -0.3547 -0.9933
10430SOL    HW234246   6.515   9.054  10.587  0.7358 -0.7039  2.8642
10431SOL     OW34247   1.142   8.248   4.796 -0.5691 -0.0421  0.5581
10431SOL    HW134248   1.118   8.249   4.704 -2.7211 -0.3732  1.0726
10431SOL    HW234249   1.140   8.156   4.821 -0.8500  0.1152  1.1350
10432SOL     OW34250   4.498   1.125   1.636  0.0474 -0.4170 -0.2000
10432SOL    HW134251   4.461   1.161   1.555  0.4292 -0.4544 -0.3955
10432SOL    HW234252   4.513   1.201   1.692 -2.7233 -0.5733  0.9426
10433SOL     OW34253   9.968   4.516   2.927  0.1154 -0.3133 -0.0562
10433SOL    HW134254   9.946   4.478   2.842  1.2622 -2.8356  0.6905
10433SOL    HW234255   9.951   4.610   2.916 -2.0930 -0.8593 -2.2723
10434SOL     OW34256   5.613   6.645   0.092 -0.3717 -0.0194  0.0302
10434SOL    HW134257   5.551   6.628   0.021 -1.7941  1.8441  0.7350
10434SOL    HW234258   5.560   6.646   0.171  0.7641  0.4423  0.8208
10435SOL     OW34259   1.940  10.428   6.307 -0.3387 -0.4249  0.1565
10435SOL    HW134260   1.953  10.519   6.283 -1.5768 -0.5564 -1.1245
10435SOL    HW234261   2.002  10.379   6.253  0.3314 -0.3674  0.8496
10436SOL     OW34262   3.577  10.519   9.885 -0.5346 -0.4367 -0.4695
10436SOL    HW134263   3.634  10.582   9.929  0.0730 -0.1928 -1.5830
10436SOL    HW234264   3.519  10.488   9.954  0.9626 -0.7315  0.7148
10437SOL     OW34265   9.950   4.182   5.885  0.7499 -0.7179 -0.1039
10437SOL    HW134266   9.916   4.093   5.875 -1.6780  0.1375  0.0319
10437SOL    HW234267   9.959   4.194   5.980 -0.2449 -0.3741 -0.0451
10438SOL     OW34268   5.579   6.152   5.209 -0.1940  0.0549 -0.0807
10438SOL    HW134269   5.591   6.057   5.214 -0.1746  0.0925  0.6262
10438SOL    HW234270   5.509   6.164   5.145  0.2415 -0.3991 -0.6629
10439SOL     OW34271   3.640   3.566   4.187  0.1269 -0.1819  0.1806
10439SOL    HW134272   3.664   3.656   4.165 -1.1391  0.6114  1.8041
10439SOL    HW234273   3.689   3.547   4.267 -0.9418 -0.2764  0.8302
10440SOL     OW34274   5.365   2.973   5.281  0.1908 -0.5411 -0.2989
10440SOL    HW134275   5.412   2.953   5.363 -1.6442 -0.8448  0.7323
10440SOL    HW234276   5.390   2.901   5.222  0.2101 -1.2821  0.5751
10441SOL     OW34277   8.027   8.775   6.697 -0.1988  0.4847 -0.0640
10441SOL    HW134278   7.961   8.835   6.660 -0.3394  0.3324 -0.0631
10441SOL    HW234279   8.111   8.815   6.677 -0.3203  1.7224  1.6707
10442SOL     OW34280   6.207   9.795   9.083  0.0452  0.5712  0.3675
10442SOL    HW134281   6.251   9.710   9.083 -0.3509  0.3526  0.9890
10442SOL    HW234282   6.143   9.788   9.154 -0.5659  1.0930 -0.1174
10443SOL     OW34283   7.112   8.476   3.798  0.0021 -0.2895  0.2733
10443SOL    HW134284   7.025   8.515   3.809  0.2772  0.2217  0.6369
10443SOL    HW234285   7.094   8.390   3.759 -0.8561 -1.2658  2.6601
10444SOL     OW34286   6.157   5.396   1.660  0.1096 -0.6233  0.6583
10444SOL    HW134287   6.219   5.435   1.599 -0.2545 -1.0568 -0.0101
10444SOL    HW234288   6.190   5.307   1.675 -0.2147 -0.7734  0.4927
10445SOL     OW34289   6.774   3.916   4.424  0.0041  0.2069 -0.1621
10445SOL    HW134290   6.689   3.946   4.457 -0.0854 -1.4882  1.2705
10445SOL    HW234291   6.759   3.899   4.331 -0.9014  0.9761 -0.1776
10446SOL     OW34292   2.840   3.974   3.034 -0.0384 -0.0660  0.3799
10446SOL    HW134293   2.861   4.002   2.945 -1.8140  0.6370  0.1566
10446SOL    HW234294   2.814   3.882   3.025 -2.7590  0.6961 -0.2957
10447SOL     OW34295   9.872   9.870   1.569  0.0419 -0.2391 -0.1535
10447SOL    HW134296   9.920   9.926   1.508  2.1665 -1.0722  0.6688
10447SOL    HW234297   9.845   9.795   1.517 -0.8983  0.4797 -0.7453
10448SOL     OW34298   8.666   3.080   1.151 -0.2124 -0.3321  0.8322
10448SOL    HW134299   8.617   3.015   1.101 -0.7438  0.4895  0.2666
10448SOL    HW234300   8.753   3.081   1.110 -0.2190 -0.6525  0.8138
10449SOL     OW34301   3.995   4.683   2.567 -0.0920 -0.2299 -0.1247
10449SOL    HW134302   3.920   4.631   2.537  0.9786 -1.9325  0.0683
10449SOL    HW234303   3.983   4.688   2.662 -0.0277 -0.3875 -0.1083
10450SOL     OW34304   3.468   4.613   0.828 -0.0988  0.1929 -0.6173
10450SOL    HW134305   3.561   4.626   0.808 -0.1496  0.7001 -0.5527
10450SOL    HW234306   3.423   4.674   0.769 -0.2569  1.7761  1.0303
10451SOL     OW34307   9.251   9.093   1.796 -0.1456  0.2361 -0.3228
10451SOL    HW134308   9.308   9.161   1.831 -0.2898  0.6757 -0.9136
10451SOL    HW234309   9.286   9.011   1.830 -0.8064  0.6801  1.5914
10452SOL     OW34310   8.405   4.149   6.711 -0.1459 -0.3943  0.4504
10452SOL    HW134311   8.401   4.157   6.616 -2.4939 -1.5631  0.3739
10452SOL    HW234312   8.495   4.123   6.729  0.7078  1.1128 -1.3098
10453SOL     OW34313   6.246   4.632   9.579 -0.0797  0.2304  0.2037
10453SOL    HW134314   6.247   4.707   9.638 -1.0786 -0.8164  1.6282
10453SOL    HW234315   6.334   4.597   9.583 -0.0718  0.3147  0.9163
10454SOL     OW34316   1.705   2.105   4.526 -0.1709 -0.3067 -0.3165
10454SOL    HW134317   1.614   2.076   4.538 -0.2380  0.1376  0.3471
10454SOL    HW234318   1.751   2.028   4.494 -0.0093 -1.6696  2.8240
10455SOL     OW34319   0.004   0.932  10.227 -0.4774  0.7477  0.1043
10455SOL    HW134320  -0.050   0.858  10.200 -0.2851  0.2646  1.0156
10455SOL    HW234321  -0.028   0.955  10.314  0.2081  1.0055  0.2956
10456SOL     OW34322   4.526   9.403   1.543 -0.4438  0.2690 -0.4549
10456SOL    HW134323   4.618   9.377   1.540 -0.4615 -0.1827  1.5560
10456SOL    HW234324   4.517   9.449   1.627 -1.8830  1.0123 -0.9824
10457SOL     OW34325   6.587   8.641   0.441  0.3137  0.5670 -0.0747
10457SOL    HW134326   6.629   8.727   0.438  0.7313  0.4319  1.2598
10457SOL    HW234327   6.506   8.656   0.491  0.7719  0.0617  0.8578
10458SOL     OW34328   9.585   1.940   0.037 -0.5092 -0.0298 -0.5656
10458SOL    HW134329   9.529   1.889  -0.022 -0.4102  0.2099 -0.8714
10458SOL    HW234330   9.528   2.009   0.070 -1.2208 -1.4548  1.4060
10459SOL     OW34331   5.535   2.109   6.602  0.6183  0.8977 -0.2069
10459SOL    HW134332   5.516   2.188   6.652  1.3110  1.2905 -0.5506
10459SOL    HW234333   5.558   2.044   6.669  1.2842  1.3445  0.0072
10460SOL     OW34334  10.113   9.682   9.184  0.0007 -0.0071  0.0915
10460SOL    HW134335  10.163   9.623   9.239 -0.7178 -1.3131 -0.6165
10460SOL    HW234336  10.025   9.681   9.220 -0.1632  0.1580 -0.2914
10461SOL     OW34337   7.238   1.415  10.649  0.5308 -0.2128 -0.3480
10461SOL    HW134338   7.147   1.418  10.618  1.3017 -2.0407 -3.0643
10461SOL    HW234339   7.251   1.324  10.675  0.8165  0.6359  2.8802
10462SOL     OW34340   0.004   1.561   5.063  0.1391 -0.3156  0.3644
10462SOL    HW134341  -0.013   1.497   4.993  0.3109  1.5134 -1.4548
10462SOL    HW234342   0.098   1.580   5.056 -0.6536  4.1444 -3.0440
10463SOL     OW34343   5.731   2.132   8.801 -0.3751 -0.4259  0.6647
10463SOL    HW134344   5.717   2.224   8.824  0.9805  0.3340 -1.2283
10463SOL    HW234345   5.801   2.103   8.860 -0.2504  0.0104  0.7340
10464SOL     OW34346   0.926   6.426   6.027  0.3051 -0.3649  0.3538
10464SOL    HW134347   0.911   6.387   5.941  1.8858  0.0319 -0.1301
10464SOL    HW234348   0.882   6.367   6.088 -0.5356 -0.8397 -0.6886
10465SOL     OW34349   4.173   7.232   8.737  0.9252  0.1533  0.0262
10465SOL    HW134350   4.086   7.200   8.761  1.8020 -1.2930  1.4998
10465SOL    HW234351   4.218   7.155   8.703  1.9085  0.6807  0.1039
10466SOL     OW34352   1.481   0.281   6.477  0.1244 -0.1138 -0.4509
10466SOL    HW134353   1.490   0.272   6.382 -0.5011 -0.3005 -0.4958
10466SOL    HW234354   1.401   0.332   6.489  0.3540  0.1548 -0.0283
10467SOL     OW34355   3.303   6.469   0.299  0.0143  0.8504  0.0455
10467SOL    HW134356   3.250   6.409   0.246  0.0287 -1.2602  2.2635
10467SOL    HW234357   3.340   6.530   0.235 -1.6315 -0.2467 -2.0951
10468SOL     OW34358   3.531   8.102   6.297 -0.1753 -0.1511  0.6735
10468SOL    HW134359   3.501   8.175   6.242  0.3305  0.7849  1.5872
10468SOL    HW234360   3.626   8.099   6.282 -0.1498 -0.4172  0.8819
10469SOL     OW34361   7.957   1.269  10.654 -0.0571 -0.0191 -0.1659
10469SOL    HW134362   7.921   1.203  10.714  1.9186 -0.3942  0.6826
10469SOL    HW234363   7.884   1.328  10.637 -2.0710 -2.7076 -1.4168
10470SOL     OW34364   7.034   3.584   9.546 -0.2574 -0.0545 -0.4169
10470SOL    HW134365   7.099   3.539   9.599 -0.2742 -0.3172 -0.6179
10470SOL    HW234366   7.085   3.645   9.492 -0.0459 -1.0475 -1.3887
10471SOL     OW34367   0.220   6.099   3.431  0.4104  0.5031 -0.0937
10471SOL    HW134368   0.279   6.028   3.456 -0.3985 -0.3876 -0.6405
10471SOL    HW234369   0.237   6.112   3.337  0.5005  0.9916 -0.0139
10472SOL     OW34370   0.090   7.870   1.723  0.2728 -0.7640 -0.1991
10472SOL    HW134371   0.051   7.838   1.642  2.9543  0.3051 -2.0583
10472SOL    HW234372   0.180   7.836   1.721  1.1205  1.2298  1.1388
10473SOL     OW34373   7.353   6.572   9.623  0.3801  0.0148  0.4540
10473SOL    HW134374   7.378   6.576   9.531  2.1572  1.7934  0.9316
10473SOL    HW234375   7.352   6.664   9.651  0.6112 -0.5251  2.3707
10474SOL     OW34376   5.339   5.262   7.528  0.1503 -0.3347 -0.0213
10474SOL    HW134377   5.394   5.184   7.522  0.1011 -0.3401 -0.4294
10474SOL    HW234378   5.250   5.229   7.541  0.0708 -0.3628 -0.6032
10475SOL     OW34379   8.679   2.279   9.382  0.0508  0.1695  0.6823
10475SOL    HW134380   8.747   2.255   9.319 -0.7423  2.1814 -1.0333
10475SOL    HW234381   8.618   2.334   9.333 -2.0893 -0.3954  2.5321
10476SOL     OW34382   6.172   5.802   3.528 -0.0985  0.5858  0.2392
10476SOL    HW134383   6.158   5.883   3.479 -2.2484  0.6199  0.8267
10476SOL    HW234384   6.240   5.756   3.479  0.6627  2.3993 -0.4990
10477SOL     OW34385   8.896   6.866   4.444 -0.1576 -0.1868  0.3774
10477SOL    HW134386   8.942   6.794   4.401 -0.1572  0.9280 -1.6188
10477SOL    HW234387   8.918   6.857   4.536  1.5319 -1.5021 -0.0994
10478SOL     OW34388   7.319   0.398   5.890 -0.3824  0.0104 -0.4365
10478SOL    HW134389   7.246   0.453   5.862 -1.0222 -0.2650  0.6579
10478SOL    HW234390   7.389   0.417   5.827 -1.6079 -0.2313 -1.9502
10479SOL     OW34391   2.119   1.513   8.065 -0.1850  0.8090 -0.3764
10479SOL    HW134392   2.114   1.448   8.135 -1.8853 -0.2213 -1.3688
10479SOL    HW234393   2.091   1.595   8.107  2.5088  1.1059  1.0174
10480SOL     OW34394   8.237   7.787   8.681  0.1914  0.0545 -0.2153
10480SOL    HW134395   8.229   7.874   8.718  1.6234  0.4917 -0.8497
10480SOL    HW234396   8.149   7.767   8.647 -0.5834  0.5104  1.4528
10481SOL     OW34397   8.475   7.440   0.820  0.2695 -0.0803 -0.5774
10481SOL    HW134398   8.505   7.350   0.806 -1.0829 -0.6567  0.0004
10481SOL    HW234399   8.516   7.466   0.903 -1.6778 -1.3026  0.8435
10482SOL     OW34400   2.244   4.573   2.781 -0.1681 -0.1964 -0.0319
10482SOL    HW134401   2.225   4.589   2.874 -0.4450 -1.3213  0.1176
10482SOL    HW234402   2.162   4.539   2.746  0.7860 -2.7514  0.0382
10483SOL     OW34403   6.711   0.337   8.312 -0.8981 -0.0832 -0.2824
10483SOL    HW134404   6.671   0.310   8.394  1.5245 -1.8565  0.4472
10483SOL    HW234405   6.764   0.262   8.285  2.5686  2.2101 -0.6414
10484SOL     OW34406   7.748   1.102   6.520  0.1587 -0.3336  0.2665
10484SOL    HW134407   7.677   1.039   6.532  0.8408 -0.8939  1.5388
10484SOL    HW234408   7.720   1.179   6.569  0.3192 -0.4638  0.5626
10485SOL     OW34409   4.411   4.242   0.924 -0.2200  0.1785  0.1082
10485SOL    HW134410   4.484   4.260   0.865 -0.1274  0.7399  0.3894
10485SOL    HW234411   4.354   4.319   0.916 -0.3036  0.1705  0.5993
10486SOL     OW34412   3.141   4.826   8.814 -0.3038 -0.1365 -0.1405
10486SOL    HW134413   3.223   4.877   8.819  0.2065 -0.9468  0.0223
10486SOL    HW234414   3.158   4.750   8.870 -0.2455 -1.5866 -2.0310
10487SOL     OW34415   3.625  10.447   8.829  0.1656 -0.2865  0.2628
10487SOL    HW134416   3.690  10.467   8.896 -1.5414 -1.4029  2.3851
10487SOL    HW234417   3.546  10.493   8.857 -0.3798 -0.0521 -1.5127
10488SOL     OW34418   0.862   3.952   7.580  0.4267 -0.0924  0.0799
10488SOL    HW134419   0.841   4.018   7.646 -0.6775  1.0499 -1.3247
10488SOL    HW234420   0.956   3.961   7.566  0.4021  0.7657  0.3826
10489SOL     OW34421   0.140   8.240  10.577 -0.0495 -0.3902 -0.0872
10489SOL    HW134422   0.106   8.318  10.532 -2.2819 -0.4738  1.2747
10489SOL    HW234423   0.137   8.171  10.510  0.1520  0.2699 -0.7971
10490SOL     OW34424   6.501   6.254  10.085  0.1551 -0.0615 -0.3356
10490SOL    HW134425   6.522   6.165  10.114  1.1349 -0.6284 -2.4995
10490SOL    HW234426   6.544   6.261  10.000 -0.2576  2.3642 -0.4083
10491SOL     OW34427   5.240   9.807   5.246  0.1274 -0.3057  0.3441
10491SOL    HW134428   5.313   9.856   5.209 -2.5192  1.6699 -2.7585
10491SOL    HW234429   5.259   9.716   5.224  0.9006  0.3467 -1.9917
10492SOL     OW34430   0.395   0.300   8.050 -0.2964 -0.1405  0.2873
10492SOL    HW134431   0.332   0.369   8.069 -0.4653 -0.7766  2.2896
10492SOL    HW234432   0.342   0.228   8.015 -0.0119  0.9643 -2.6730
10493SOL     OW34433   4.460   2.496   9.170  0.4940  0.1823 -0.7206
10493SOL    HW134434   4.471   2.442   9.249  0.4624 -0.7222 -1.3223
10493SOL    HW234435   4.424   2.578   9.203  0.0619 -0.3400  0.1670
10494SOL     OW34436   8.414   9.635   8.387  0.4515  0.0242 -0.1595
10494SOL    HW134437   8.447   9.643   8.298 -1.0132 -1.0469 -0.8271
10494SOL    HW234438   8.486   9.667   8.442  0.7262  2.4505 -1.7760
10495SOL     OW34439   5.634   6.117   8.772 -0.6950 -0.0290 -0.3216
10495SOL    HW134440   5.553   6.126   8.722 -1.5858 -0.2441  1.0317
10495SOL    HW234441   5.683   6.196   8.752 -0.7306 -0.3902 -2.0058
10496SOL     OW34442  10.572   3.748   9.350 -0.0630 -0.5164  0.4098
10496SOL    HW134443  10.554   3.683   9.417  1.3945 -0.6226  0.7168
10496SOL    HW234444  10.485   3.774   9.319 -0.7726 -0.4583  2.3115
10497SOL     OW34445   7.498   0.169   6.696 -0.2636  0.3914 -0.1614
10497SOL    HW134446   7.466   0.246   6.648 -1.2732 -0.0110 -0.1593
10497SOL    HW234447   7.590   0.162   6.672 -0.5173  0.7589 -1.2983
10498SOL     OW34448   2.071   1.845   5.579 -0.1135 -0.3463  0.3769
10498SOL    HW134449   1.992   1.836   5.633  0.4506  0.4110  1.3430
10498SOL    HW234450   2.127   1.905   5.627  1.3956 -1.4551  0.0892
10499SOL     OW34451   2.725  10.436   7.359  0.3115 -0.4265 -0.2152
10499SOL    HW134452   2.785  10.506   7.332 -1.5020  1.2679 -0.0773
10499SOL    HW234453   2.682  10.410   7.277 -0.6880  0.2878  0.0716
10500SOL     OW34454   6.008   1.160   6.105  0.5250 -0.0318 -0.3064
10500SOL    HW134455   5.975   1.247   6.082  0.8769  0.3584  0.5988
10500SOL    HW234456   6.102   1.173   6.116  0.3747 -0.1168  1.4825
10501SOL     OW34457   2.370   7.810  10.158  0.5551 -0.0094  0.5306
10501SOL    HW134458   2.413   7.896  10.151  0.1662  0.2172  0.9128
10501SOL    HW234459   2.364   7.793  10.252 -1.1920  0.4790  0.5405
10502SOL     OW34460   1.599   0.683   8.350 -0.1126 -0.4712  0.3085
10502SOL    HW134461   1.601   0.684   8.446  1.6118 -1.6093  0.3183
10502SOL    HW234462   1.682   0.723   8.324  0.4127 -2.0795 -0.6499
10503SOL     OW34463   9.686   9.368   8.537 -0.0077 -0.2382 -0.3194
10503SOL    HW134464   9.692   9.320   8.455  0.1515  0.3088 -0.6330
10503SOL    HW234465   9.593   9.365   8.560 -0.0798 -0.2497 -0.6122
10504SOL     OW34466   9.668  10.207   2.339  0.1815  0.2266 -0.1199
10504SOL    HW134467   9.683  10.159   2.420  0.5748 -1.4531 -1.1412
10504SOL    HW234468   9.645  10.140   2.275  0.9135  1.3658 -1.6544
10505SOL     OW34469   2.729   6.136   3.511 -0.1420 -0.0559  0.7335
10505SOL    HW134470   2.688   6.206   3.561 -0.5210  0.9124 -0.8436
10505SOL    HW234471   2.658   6.100   3.458  0.4847 -0.1715 -0.0482
10506SOL     OW34472   5.899   4.285   6.905 -0.3412  0.1959 -0.5392
10506SOL    HW134473   5.916   4.351   6.971 -1.4698 -0.9816  1.0330
10506SOL    HW234474   5.985   4.258   6.874  0.2048  0.8791  0.3479
10507SOL     OW34475   0.342   3.165   3.806 -0.2710 -0.2261  0.1674
10507SOL    HW134476   0.384   3.251   3.809 -1.0040  0.1967 -1.0981
10507SOL    HW234477   0.377   3.119   3.882  3.5545 -0.3763 -1.4211
10508SOL     OW34478   8.927   7.054   3.112 -0.3757 -0.2488  0.3325
10508SOL    HW134479   8.871   7.131   3.109  0.3457  0.2858  0.2770
10508SOL    HW234480   8.890   7.000   3.183 -1.0440  0.0117  0.1889
10509SOL     OW34481   2.340   6.355   9.379  0.2238 -0.1389 -0.2220
10509SOL    HW134482   2.298   6.390   9.300  0.0450 -0.1856 -0.1482
10509SOL    HW234483   2.307   6.266   9.385  0.0025 -0.0364  0.0747
10510SOL     OW34484   4.207   0.356   6.774  0.0204  0.5335 -0.9120
10510SOL    HW134485   4.183   0.266   6.751 -1.2411  0.5663  0.1225
10510SOL    HW234486   4.284   0.347   6.829  0.4115  0.1605 -1.5000
10511SOL     OW34487   4.624   5.190   5.030 -0.1498 -0.2139  0.1243
10511SOL    HW134488   4.606   5.264   4.971 -0.0004 -0.8231 -0.6996
10511SOL    HW234489   4.561   5.123   5.003  0.4805 -0.7961  0.1025
10512SOL     OW34490   2.947   6.214   5.655 -0.3028  0.1448  0.0262
10512SOL    HW134491   2.871   6.229   5.599 -0.1337 -0.0570 -0.2608
10512SOL    HW234492   3.003   6.156   5.604  0.9444  1.8004 -0.5942
10513SOL     OW34493   3.827   8.082   6.245  0.1551  0.1126 -0.0404
10513SOL    HW134494   3.867   8.117   6.165 -2.2848  1.8874 -0.6068
10513SOL    HW234495   3.871   8.128   6.316 -0.1271  1.2423 -0.5730
10514SOL     OW34496  10.197   1.423   8.614 -0.0553  0.3980 -0.2786
10514SOL    HW134497  10.281   1.465   8.633  0.0509 -0.6694  1.8621
10514SOL    HW234498  10.141   1.445   8.688 -0.0444 -2.9115  0.8848
10515SOL     OW34499   7.641   8.219   7.420  0.2570  0.2783  0.4663
10515SOL    HW134500   7.706   8.279   7.384  0.4917 -0.0482  0.3384
10515SOL    HW234501   7.677   8.195   7.506  0.3819 -0.0161  0.3343
10516SOL     OW34502   6.610   4.177   7.691  0.7358  0.0454 -0.6271
10516SOL    HW134503   6.630   4.084   7.680  0.2476  0.0904 -1.9777
10516SOL    HW234504   6.645   4.198   7.778  1.0273 -1.3450 -0.3815
10517SOL     OW34505   0.984   8.131   3.998 -0.5789 -0.0290  0.1034
10517SOL    HW134506   0.937   8.204   4.038  0.6949  1.6216 -1.2292
10517SOL    HW234507   1.075   8.145   4.023 -0.3085 -1.1907 -0.1733
10518SOL     OW34508   2.982   2.574   3.435 -0.2948  0.0089 -0.4099
10518SOL    HW134509   2.995   2.665   3.461 -1.3123 -0.8486  4.0354
10518SOL    HW234510   2.930   2.579   3.354 -1.3546  3.3951  0.3291
10519SOL     OW34511   3.946   6.457   6.811 -0.5382  0.5669  0.5486
10519SOL    HW134512   3.977   6.499   6.891 -0.0991 -0.2085  0.7883
10519SOL    HW234513   3.883   6.519   6.775  1.5332  2.4057 -0.1559
10520SOL     OW34514   4.097  10.329   5.419 -0.8554 -0.1956  0.3116
10520SOL    HW134515   4.031  10.381   5.374  0.2052  0.0387 -1.0396
10520SOL    HW234516   4.130  10.386   5.488 -0.1426  0.7605 -0.7647
10521SOL     OW34517   0.243   4.127  10.357 -0.2233 -0.1485  0.1757
10521SOL    HW134518   0.267   4.163  10.272  1.4922 -1.6721 -0.0634
10521SOL    HW234519   0.282   4.039  10.357  0.1207 -0.0632  2.6639
10522SOL     OW34520   5.915   2.013   0.096  0.1917 -0.5421 -0.5152
10522SOL    HW134521   5.909   1.961   0.016 -1.0386 -1.3448  0.0699
10522SOL    HW234522   5.868   1.962   0.162 -0.9248  1.2182  0.1227
10523SOL     OW34523   1.488   1.559   9.238  0.1198  0.0597  0.2560
10523SOL    HW134524   1.559   1.622   9.223  0.1742  0.3846  1.6660
10523SOL    HW234525   1.532   1.478   9.262  0.0685 -0.7749 -2.2211
10524SOL     OW34526   7.443   5.931   4.890 -0.5719  0.1353 -0.2617
10524SOL    HW134527   7.506   5.997   4.920 -0.0023 -0.0618 -0.9774
10524SOL    HW234528   7.417   5.885   4.970  0.8357 -0.3150 -0.0143
10525SOL     OW34529   0.535   0.002   1.581  0.2553  0.3487 -0.5106
10525SOL    HW134530   0.614   0.039   1.620  0.0225  1.4592 -1.0191
10525SOL    HW234531   0.476  -0.014   1.655  0.0012  1.9574 -0.3236
10526SOL     OW34532   7.249   6.175   6.454  0.2596  0.1300  0.7512
10526SOL    HW134533   7.259   6.083   6.431  2.2634  0.9870 -2.6423
10526SOL    HW234534   7.336   6.202   6.484 -0.0244  1.1276  0.7178
10527SOL     OW34535   7.083   9.940   7.353 -0.3219 -0.0786 -0.1865
10527SOL    HW134536   7.050   9.982   7.273  0.1557 -1.2154 -1.0037
10527SOL    HW234537   7.038   9.986   7.424  0.9214  2.5513 -0.9511
10528SOL     OW34538   6.827   5.713   6.283  0.3132 -0.4903  0.5155
10528SOL    HW134539   6.892   5.782   6.268  2.1595 -2.4793 -1.2797
10528SOL    HW234540   6.842   5.685   6.373  0.6384  0.3213  0.7257
10529SOL     OW34541   4.402   4.718   7.228  0.3651 -0.3874  0.5269
10529SOL    HW134542   4.437   4.784   7.288  1.2506 -1.0475  0.7521
10529SOL    HW234543   4.390   4.640   7.282  1.1784 -0.9949 -0.1386
10530SOL     OW34544   1.869   6.292   5.493 -0.1363  0.9298 -0.2145
10530SOL    HW134545   1.776   6.277   5.478 -0.2036  0.3325  0.7396
10530SOL    HW234546   1.899   6.336   5.413 -1.2363  1.1691 -0.5151
10531SOL     OW34547   8.578   3.074   1.985  0.2434 -0.3376  0.4274
10531SOL    HW134548   8.558   3.123   1.905  1.3286 -0.9753 -0.2705
10531SOL    HW234549   8.545   3.129   2.056  0.5538  0.9416 -0.3796
10532SOL     OW34550   3.956   0.642  10.491  0.0671  0.4035  0.1152
10532SOL    HW134551   4.002   0.561  10.470 -0.2369  0.0569  0.7509
10532SOL    HW234552   3.986   0.705  10.426 -1.2415 -0.7645 -1.7086
10533SOL     OW34553   4.468   5.862   2.631  0.0082 -0.2784 -0.2122
10533SOL    HW134554   4.546   5.899   2.673  0.4564 -1.3741 -0.0347
10533SOL    HW234555   4.411   5.937   2.617  0.3823  0.3150  1.2045
10534SOL     OW34556   2.568   2.953   6.238  0.1674 -0.1697 -0.1156
10534SOL    HW134557   2.506   2.945   6.166  1.7356 -0.3879 -1.4949
10534SOL    HW234558   2.580   3.048   6.249  0.6781 -0.1425 -0.8408
10535SOL     OW34559   8.746   1.861   4.423  0.6657 -0.2158 -0.0655
10535SOL    HW134560   8.800   1.929   4.384  0.0934 -0.4645 -1.3306
10535SOL    HW234561   8.733   1.798   4.353 -1.7792  0.1482 -0.0065
10536SOL     OW34562   7.188   7.030   1.704 -0.1476  0.2216  0.6543
10536SOL    HW134563   7.204   7.119   1.675  2.8226  0.3545  2.3361
10536SOL    HW234564   7.109   7.035   1.758  1.0513  2.2829  2.3405
10537SOL     OW34565   1.935   7.644   5.408 -0.2884 -0.1654  0.1987
10537SOL    HW134566   2.018   7.598   5.395  0.9514  2.0726 -0.2502
10537SOL    HW234567   1.873   7.600   5.349  0.5858 -1.7341  0.3909
10538SOL     OW34568   9.484   3.928  10.543 -0.4493  0.3116  0.1747
10538SOL    HW134569   9.399   3.972  10.547 -0.8690 -0.2154 -1.6997
10538SOL    HW234570   9.541   3.990  10.497  0.1478  0.5784  1.2439
10539SOL     OW34571   1.573   6.010   6.189 -0.1651  0.1035  0.0640
10539SOL    HW134572   1.553   6.018   6.095  0.2342  0.1927 -0.0117
10539SOL    HW234573   1.507   5.948   6.221  1.2493 -1.9570 -0.8008
10540SOL     OW34574   3.875   8.922   2.882  0.5915 -0.1093  0.0164
10540SOL    HW134575   3.899   9.002   2.836 -0.1944 -0.2921 -0.7444
10540SOL    HW234576   3.781   8.913   2.868  0.6801 -1.2172 -0.0080
10541SOL     OW34577   8.793   0.039   6.506 -0.5927 -0.0354  0.1506
10541SOL    HW134578   8.806   0.123   6.551  0.7795  1.1688 -2.2882
10541SOL    HW234579   8.704   0.013   6.530 -0.5746  1.4072  2.0493
10542SOL     OW34580   5.677   7.806   0.565 -0.1680 -0.0483 -0.0783
10542SOL    HW134581   5.702   7.831   0.654 -0.4434 -2.4162  0.7463
10542SOL    HW234582   5.750   7.752   0.534 -1.6004 -2.2762  0.1716
10543SOL     OW34583   7.532   9.368   2.382  0.4399  0.4389 -0.2170
10543SOL    HW134584   7.499   9.452   2.349 -0.0917  0.7180  0.9789
10543SOL    HW234585   7.507   9.305   2.314 -0.8181  0.9641 -0.2800
10544SOL     OW34586   7.749   6.509   6.318 -0.1873  0.1091  0.1379
10544SOL    HW134587   7.666   6.487   6.277  0.3469  0.4296 -1.1858
10544SOL    HW234588   7.809   6.439   6.290 -0.2892 -0.8135  2.1047
10545SOL     OW34589   4.016   0.173  10.191  0.3045 -0.3627  0.8195
10545SOL    HW134590   4.067   0.212  10.120  0.5506 -0.3129  1.0220
10545SOL    HW234591   4.077   0.112  10.233  0.1579 -0.3927  0.9867
10546SOL     OW34592   5.709   9.284   5.971  0.2202  0.4135  0.0346
10546SOL    HW134593   5.699   9.353   5.905 -0.7465 -0.6956 -1.0311
10546SOL    HW234594   5.701   9.202   5.922  0.8360 -0.4658  1.3398
10547SOL     OW34595  10.345   5.400  10.321  0.4276 -0.2793  0.1668
10547SOL    HW134596  10.297   5.439  10.248  0.0947 -0.2258  0.4174
10547SOL    HW234597  10.431   5.442  10.317 -0.0073  0.6847  0.5958
10548SOL     OW34598   7.728   0.427   6.066  0.1634 -0.0722 -0.0918
10548SOL    HW134599   7.640   0.402   6.096  0.7166 -1.1154  0.7253
10548SOL    HW234600   7.734   0.391   5.977  0.2434 -1.2280  0.3593
10549SOL     OW34601   6.168   9.824  10.677  0.3970 -0.6098  0.3445
10549SOL    HW134602   6.160   9.828  10.772 -1.1539  0.4329  0.2053
10549SOL    HW234603   6.167   9.916  10.649 -1.6124 -0.9341 -0.8153
10550SOL     OW34604  10.129   5.301   7.795  0.2510  0.0646  0.6165
10550SOL    HW134605  10.203   5.317   7.854  0.9833 -0.0547 -0.2503
10550SOL    HW234606  10.111   5.386   7.755  0.9464 -0.2099 -0.3251
10551SOL     OW34607   2.090   8.541   6.486  0.5767 -0.1142 -0.1394
10551SOL    HW134608   2.185   8.548   6.483  0.4663  2.3281 -0.0246
10551SOL    HW234609   2.061   8.568   6.398 -0.0701  2.3626  0.7541
10552SOL     OW34610   9.693   3.134  10.445  0.3807  0.3766  0.3235
10552SOL    HW134611   9.749   3.099  10.376  1.8042  1.8733  0.6533
10552SOL    HW234612   9.726   3.095  10.525 -0.7227 -0.6945  0.2894
10553SOL     OW34613   4.468   4.757   2.913  0.2718 -0.1163  0.1020
10553SOL    HW134614   4.440   4.807   2.989 -0.3875 -0.4450  0.0883
10553SOL    HW234615   4.558   4.784   2.897 -0.6007  2.3930 -1.0009
10554SOL     OW34616   9.834   2.452   4.391  0.3019  0.5792  0.5169
10554SOL    HW134617   9.791   2.470   4.308 -0.0659 -0.7248  0.4026
10554SOL    HW234618   9.885   2.372   4.375  0.2606  0.3409  1.5159
10555SOL     OW34619   0.852   5.699   8.661  0.5166 -0.0421  0.3595
10555SOL    HW134620   0.814   5.657   8.584  1.4057 -0.4261  0.1180
10555SOL    HW234621   0.796   5.672   8.733  0.6062 -1.0077  0.0867
10556SOL     OW34622   9.509   0.144   5.251 -0.3916  0.3403 -0.6841
10556SOL    HW134623   9.471   0.103   5.328  0.8098 -0.2391 -0.3849
10556SOL    HW234624   9.552   0.223   5.285  0.7716 -0.2972 -0.6164
10557SOL     OW34625   4.043   4.761   6.932 -0.4814 -0.1546  0.0283
10557SOL    HW134626   4.116   4.719   6.978  0.1446 -0.1707 -0.9640
10557SOL    HW234627   3.978   4.776   7.001  0.0053 -1.1220  0.7312
10558SOL     OW34628   6.420   7.285   3.944  0.2659  0.4054 -0.1629
10558SOL    HW134629   6.442   7.207   3.892 -0.2222  0.9634 -1.2456
10558SOL    HW234630   6.471   7.355   3.903  0.1770  0.7834  0.3771
10559SOL     OW34631   5.528   9.950   6.149 -0.1134  0.0226 -0.2848
10559SOL    HW134632   5.501   9.933   6.059 -2.3111 -0.7202  0.4532
10559SOL    HW234633   5.513   9.868   6.194 -2.2866  1.2687  1.4522
10560SOL     OW34634   3.979   8.744   1.713  0.4422  0.0834  0.8547
10560SOL    HW134635   3.996   8.831   1.749 -1.9321  0.2825  1.6520
10560SOL    HW234636   4.015   8.747   1.624  0.5330  1.8122  0.9236
10561SOL     OW34637   6.987   2.283   4.164 -0.2460  0.3714  0.0089
10561SOL    HW134638   6.919   2.249   4.107  0.5391  1.6902 -1.7847
10561SOL    HW234639   7.067   2.238   4.135 -0.1806 -0.6997  1.6774
10562SOL     OW34640   8.435   5.715   4.005 -1.2154 -0.0840 -0.2065
10562SOL    HW134641   8.380   5.755   4.071  0.1686 -0.3962  1.2096
10562SOL    HW234642   8.374   5.680   3.940 -2.6058  0.5327  0.7293
10563SOL     OW34643   0.029   0.697   4.314  0.6623 -0.0147  0.1419
10563SOL    HW134644  -0.058   0.721   4.346 -0.2848 -0.1207 -2.1549
10563SOL    HW234645   0.048   0.613   4.357 -0.7189 -0.3609  0.1148
10564SOL     OW34646   0.971   5.524   7.722  0.1983 -0.5180  0.8064
10564SOL    HW134647   0.930   5.559   7.643 -2.0743 -0.7341  1.7810
10564SOL    HW234648   0.986   5.432   7.702 -3.3123 -1.4007  1.5386
10565SOL     OW34649   6.380   9.850   0.617 -0.3899 -0.3265  0.4761
10565SOL    HW134650   6.286   9.855   0.599 -0.4677  0.7207  1.0943
10565SOL    HW234651   6.414   9.936   0.592  0.3421 -0.5704  0.6022
10566SOL     OW34652   1.676   2.805   1.218 -0.1533 -0.1729  0.4191
10566SOL    HW134653   1.763   2.784   1.184 -0.6854  1.2745 -2.1245
10566SOL    HW234654   1.625   2.725   1.203  0.2528 -0.3681  0.0578
10567SOL     OW34655   1.752   4.539   0.249  0.1552  0.2718  0.8456
10567SOL    HW134656   1.720   4.590   0.175 -0.1118  1.2154  1.5885
10567SOL    HW234657   1.804   4.601   0.301  1.4615 -0.6995  0.7735
10568SOL     OW34658   2.024   0.406   0.320 -0.5237  0.1295 -0.3483
10568SOL    HW134659   2.102   0.427   0.371 -0.3911  2.1272 -1.2731
10568SOL    HW234660   1.957   0.388   0.385  0.3789 -0.3364  0.4815
10569SOL     OW34661   3.125   9.383   0.724 -0.1870  0.0937  0.3243
10569SOL    HW134662   3.212   9.411   0.752 -0.3047 -0.6224  1.4693
10569SOL    HW234663   3.071   9.461   0.730 -0.0137  0.1425  1.3280
10570SOL     OW34664   8.157   5.551   0.173 -0.0362  0.7551 -0.0016
10570SOL    HW134665   8.091   5.611   0.206 -0.7825 -0.1051  0.1366
10570SOL    HW234666   8.186   5.502   0.250  0.2940  0.6889 -0.1651
10571SOL     OW34667   7.542   6.083   9.856  0.2858  0.6756  0.2440
10571SOL    HW134668   7.632   6.114   9.855  0.8313 -0.7461  1.2347
10571SOL    HW234669   7.545   6.000   9.809 -1.0279  1.7534 -1.9189
10572SOL     OW34670   4.980   2.518   6.087 -0.2163 -0.1495  0.1998
10572SOL    HW134671   5.068   2.542   6.060 -0.9025  3.5155  0.7057
10572SOL    HW234672   4.991   2.435   6.134  3.0463  0.4568  0.7387
10573SOL     OW34673   1.338   4.641   6.466  0.0957 -0.2990  0.1033
10573SOL    HW134674   1.421   4.644   6.418 -0.4153  0.7424 -0.7624
10573SOL    HW234675   1.359   4.676   6.553  0.4326  0.5896 -0.3300
10574SOL     OW34676   0.030   0.575   1.126 -0.5053 -0.6119  0.0615
10574SOL    HW134677  -0.033   0.508   1.153 -0.7875 -0.3052  0.1641
10574SOL    HW234678   0.015   0.586   1.032 -0.9396 -0.1806  0.1849
10575SOL     OW34679   5.501   1.888  10.129  0.5746  0.6571  0.1060
10575SOL    HW134680   5.586   1.843  10.128  0.1720 -0.1230 -1.4242
10575SOL    HW234681   5.437   1.819  10.112 -0.2705  1.4252  0.0872
10576SOL     OW34682   5.426   5.819   7.800  0.0570 -0.7392  0.2735
10576SOL    HW134683   5.491   5.876   7.759  1.4913  1.0494  4.5619
10576SOL    HW234684   5.477   5.754   7.849 -1.4016 -0.9566  1.5839
10577SOL     OW34685   7.923   7.761   1.670 -0.3002 -0.1462 -0.1741
10577SOL    HW134686   7.932   7.700   1.743 -0.9503 -0.1564 -0.1005
10577SOL    HW234687   7.861   7.827   1.701 -0.5520 -0.1295 -0.7029
10578SOL     OW34688   7.105   2.119   5.013  0.2134  0.2768 -0.5618
10578SOL    HW134689   7.123   2.085   5.101 -1.5991 -0.1162 -0.3031
10578SOL    HW234690   7.181   2.095   4.961 -0.1725 -2.5928  0.0542
10579SOL     OW34691   6.365   2.951   2.566  0.4863 -0.1551  0.4107
10579SOL    HW134692   6.363   2.944   2.470  1.3707  0.9824  0.2843
10579SOL    HW234693   6.372   2.861   2.597  1.0867 -0.4867 -0.6337
10580SOL     OW34694   4.555   1.043   9.236  0.2794 -0.5480  0.4655
10580SOL    HW134695   4.480   1.099   9.214  0.9838  0.4346  0.5102
10580SOL    HW234696   4.534   1.007   9.322 -0.6239 -1.1439  0.0116
10581SOL     OW34697   1.841   8.940   3.751  0.1090  0.2253 -0.0227
10581SOL    HW134698   1.933   8.966   3.755  0.2132  0.1801 -1.5707
10581SOL    HW234699   1.841   8.860   3.698 -0.9048  0.6483 -0.6781
10582SOL     OW34700  10.084   9.656   3.849 -0.2303 -0.6487  0.4264
10582SOL    HW134701  10.050   9.742   3.826 -0.1628 -0.8765 -0.5815
10582SOL    HW234702  10.029   9.594   3.801 -0.0407 -1.1497  0.8389
10583SOL     OW34703   2.552   8.502   2.527 -0.5544 -0.0509 -0.4808
10583SOL    HW134704   2.630   8.472   2.480 -0.5276  0.9884 -1.1364
10583SOL    HW234705   2.481   8.447   2.492 -0.3461 -0.0559 -0.9014
10584SOL     OW34706   6.471   1.216   0.500 -0.3299  0.0518  0.6908
10584SOL    HW134707   6.446   1.128   0.471  0.2508 -1.2448  3.7293
10584SOL    HW234708   6.389   1.254   0.533 -0.4556  0.4348 -0.0391
10585SOL     OW34709   6.239   0.594   1.705  0.2386 -0.3082  0.6848
10585SOL    HW134710   6.291   0.517   1.685 -0.0329 -0.1789 -0.5736
10585SOL    HW234711   6.158   0.560   1.743  1.6616 -0.4859  3.9477
10586SOL     OW34712   2.980  10.291   4.196  0.4013 -0.0247  0.0453
10586SOL    HW134713   3.018  10.206   4.217 -2.3056 -1.3726 -0.0159
10586SOL    HW234714   3.017  10.314   4.111  2.4139 -0.3052  0.8044
10587SOL     OW34715  10.463  10.514   0.648 -0.1574 -0.6062  0.1335
10587SOL    HW134716  10.401  10.465   0.703 -1.5086 -0.6637 -1.3529
10587SOL    HW234717  10.539  10.457   0.641 -0.7370 -1.4412  0.3819
10588SOL     OW34718   4.339   8.294   5.948  0.1919 -0.1609 -0.2249
10588SOL    HW134719   4.325   8.227   5.882 -0.1786  0.8771 -1.2461
10588SOL    HW234720   4.334   8.248   6.032  2.1145 -1.7809 -0.9316
10589SOL     OW34721   1.550   0.679   1.142 -0.4217 -0.4941 -0.2941
10589SOL    HW134722   1.524   0.763   1.102 -1.2241 -1.1943 -1.3102
10589SOL    HW234723   1.467   0.632   1.154  0.2039 -2.3437 -2.5727
10590SOL     OW34724   8.927   5.348   6.098  0.3365 -0.4909  0.1780
10590SOL    HW134725   8.848   5.402   6.095  0.2069 -0.7182 -1.7548
10590SOL    HW234726   8.931   5.307   6.012  1.7705 -1.6503  0.7611
10591SOL     OW34727   5.424   8.637   7.486 -0.4263 -0.1158  0.0577
10591SOL    HW134728   5.485   8.659   7.557  0.1468  2.2942 -1.1005
10591SOL    HW234729   5.353   8.701   7.495 -2.1364 -1.9856  0.5122
10592SOL     OW34730   2.439   3.279   5.640 -0.3437  0.1903  0.4923
10592SOL    HW134731   2.464   3.246   5.727 -2.0082 -2.1057  0.1839
10592SOL    HW234732   2.511   3.254   5.583  0.1440  0.5163  0.9513
10593SOL     OW34733   8.741   4.617   4.624  0.0959  0.0241  0.3167
10593SOL    HW134734   8.809   4.565   4.581 -0.0148  0.0715  0.0830
10593SOL    HW234735   8.738   4.699   4.575  0.7648  0.5486  1.1208
10594SOL     OW34736   7.635   6.623   8.751 -0.1481  0.6748 -0.4732
10594SOL    HW134737   7.637   6.706   8.797 -0.4358  0.5959 -0.3145
10594SOL    HW234738   7.650   6.646   8.659 -1.7759  1.0783 -0.6597
10595SOL     OW34739  10.604   7.675   7.830  0.3046 -0.0546  0.4813
10595SOL    HW134740  10.687   7.707   7.865  0.6211  0.2081 -0.4849
10595SOL    HW234741  10.618   7.670   7.736 -0.1860 -1.7561  0.4714
10596SOL     OW34742  10.172   4.546   8.919 -0.0904 -0.2138  0.2208
10596SOL    HW134743  10.128   4.631   8.911  0.4118 -0.1146 -3.1732
10596SOL    HW234744  10.110   4.483   8.882  0.3299 -1.0275  0.8657
10597SOL     OW34745   9.418   9.177   6.119  0.0453 -0.0597  0.0872
10597SOL    HW134746   9.331   9.137   6.125 -0.4737  0.8641 -0.9394
10597SOL    HW234747   9.401   9.271   6.113  1.1478  0.1719  0.3900
10598SOL     OW34748   2.399   6.057   4.690  0.1121 -0.0118 -0.4899
10598SOL    HW134749   2.421   6.127   4.752 -0.5117  0.8385 -1.1821
10598SOL    HW234750   2.384   5.980   4.744  0.7339  0.4197  0.3096
10599SOL     OW34751  10.278   5.335   6.034  0.3715  0.0078  0.7174
10599SOL    HW134752  10.248   5.380   6.113 -0.9492  1.2552 -0.4429
10599SOL    HW234753  10.318   5.254   6.067  0.5701  0.8397  2.7006
10600SOL     OW34754   1.581   4.225   7.982  0.0640  0.1022  0.0035
10600SOL    HW134755   1.570   4.319   7.999  0.0334 -0.2056  1.9295
10600SOL    HW234756   1.507   4.201   7.926 -0.6228  0.9981  0.5027
10601SOL     OW34757   4.628   1.505   6.220  0.1473  0.0503  0.2744
10601SOL    HW134758   4.604   1.510   6.313  1.8076 -2.3197  0.9092
10601SOL    HW234759   4.560   1.450   6.180 -0.2215  0.5534  0.1989
10602SOL     OW34760   2.217   7.055   6.404  0.4696  1.1768  0.4241
10602SOL    HW134761   2.206   7.009   6.321 -1.3117 -0.4447  1.4690
10602SOL    HW234762   2.128   7.081   6.429  1.0339  2.1088  1.5867
10603SOL     OW34763   8.208   9.947   2.336 -0.3033 -0.1158  0.8831
10603SOL    HW134764   8.183  10.021   2.281  0.6073  0.5497  1.3283
10603SOL    HW234765   8.233   9.878   2.274  1.3437  0.8412  0.4135
10604SOL     OW34766   3.135   8.227   9.346 -0.1382 -0.3057  0.2611
10604SOL    HW134767   3.223   8.191   9.358  0.7575  1.4245 -0.7046
10604SOL    HW234768   3.081   8.180   9.410  1.5163 -1.2507  1.0380
10605SOL     OW34769   4.490   3.328   3.138  0.1631 -0.6346 -0.0695
10605SOL    HW134770   4.568   3.334   3.082  0.2219 -1.1910 -0.0598
10605SOL    HW234771   4.442   3.253   3.104 -0.7849  0.1791 -0.5723
10606SOL     OW34772   3.540  10.476   9.224 -0.3228 -0.0499  0.5266
10606SOL    HW134773   3.474  10.414   9.193 -0.7998  1.2527 -1.2358
10606SOL    HW234774   3.559  10.449   9.314 -2.1437 -1.3717  0.5595
10607SOL     OW34775   8.646   9.774   9.039 -0.4355 -0.8282  0.0215
10607SOL    HW134776   8.729   9.743   9.075 -0.7672 -1.4958  0.2247
10607SOL    HW234777   8.582   9.757   9.108 -0.8125 -0.6999 -0.2924
10608SOL     OW34778   9.941   6.623   3.386 -0.2438 -0.8791  0.4402
10608SOL    HW134779   9.932   6.551   3.323 -0.1211 -0.1960 -0.3785
10608SOL    HW234780   9.893   6.696   3.346  0.5837 -0.1724  0.7127
10609SOL     OW34781   8.164   5.053   4.538 -0.2971 -0.3058 -0.0371
10609SOL    HW134782   8.163   4.959   4.522  0.1545 -0.6435  1.7361
10609SOL    HW234783   8.165   5.062   4.633  1.5551  1.4483 -0.1352
10610SOL     OW34784   2.257   5.795   9.521 -0.4283  0.3925  0.2142
10610SOL    HW134785   2.174   5.813   9.477 -0.7004 -1.9960 -0.3449
10610SOL    HW234786   2.235   5.799   9.615 -0.7717  1.4090  0.1076
10611SOL     OW34787   2.319   6.763   6.551 -0.3380  0.0569  0.2399
10611SOL    HW134788   2.247   6.713   6.589 -0.9896 -0.2097 -1.2634
10611SOL    HW234789   2.326   6.731   6.461  2.1913 -0.4944  0.5479
10612SOL     OW34790   0.784   9.946   4.583  0.3394 -0.3147  0.4678
10612SOL    HW134791   0.775   9.861   4.539  1.7356 -0.4408  0.3568
10612SOL    HW234792   0.873   9.944   4.618  0.5156  1.2561  0.1518
10613SOL     OW34793   5.367   6.479   5.573  0.1783  0.3671  0.2798
10613SOL    HW134794   5.299   6.546   5.567 -0.1601 -0.0050 -0.0391
10613SOL    HW234795   5.357   6.427   5.494  0.4687 -0.0400  0.5053
10614SOL     OW34796   6.546   4.557   9.815  0.2251 -0.0793 -0.0683
10614SOL    HW134797   6.487   4.632   9.814  1.9744  1.3821 -1.9845
10614SOL    HW234798   6.629   4.591   9.849 -0.0904 -2.2712  3.3749
10615SOL     OW34799   3.416   8.091   3.351 -0.1458  0.5778  0.6452
10615SOL    HW134800   3.333   8.130   3.377 -0.4054 -0.2149  1.0624
10615SOL    HW234801   3.482   8.135   3.405 -0.4311  0.4402  1.1115
10616SOL     OW34802   1.678   7.618   0.659  0.3705 -0.2084  0.1138
10616SOL    HW134803   1.734   7.625   0.736  0.5771 -0.7949  0.0240
10616SOL    HW234804   1.726   7.665   0.590  3.3378 -4.6848 -1.3729
10617SOL     OW34805   5.896   4.708  10.557  0.1359 -0.8558 -0.3245
10617SOL    HW134806   5.845   4.628  10.573  0.1414 -0.9428 -0.7242
10617SOL    HW234807   5.832   4.779  10.559  0.2067 -0.8040  0.5582
10618SOL     OW34808   8.495   9.105  10.144  0.1446  0.1846  0.1217
10618SOL    HW134809   8.438   9.180  10.126 -0.9924 -1.0046 -1.4995
10618SOL    HW234810   8.456   9.063  10.221 -0.3238  0.2077 -0.0993
10619SOL     OW34811   9.383   2.895   0.636  0.1103 -0.4816  0.4377
10619SOL    HW134812   9.302   2.945   0.640  0.4595  0.3536 -1.4947
10619SOL    HW234813   9.423   2.907   0.722 -0.6121  1.2151  0.5769
10620SOL     OW34814   0.783   7.410   7.575 -0.0827 -0.2444  0.1323
10620SOL    HW134815   0.754   7.444   7.660  1.1563  1.3499 -0.0408
10620SOL    HW234816   0.852   7.347   7.597  1.1797  1.1466  0.3087
10621SOL     OW34817   0.299   2.760   2.369  0.0803 -0.3402 -0.1436
10621SOL    HW134818   0.210   2.752   2.333  0.0815 -1.3140  0.0414
10621SOL    HW234819   0.299   2.704   2.446  0.2741  1.2347  1.0516
10622SOL     OW34820   1.939   6.038   5.787 -0.5611 -0.4346  0.1773
10622SOL    HW134821   2.013   6.002   5.836 -1.5460 -1.5498  0.9162
10622SOL    HW234822   1.975   6.058   5.700  0.4421 -1.6507  0.2824
10623SOL     OW34823   7.245   3.041   0.402 -0.0114  0.4251 -0.1782
10623SOL    HW134824   7.310   2.996   0.348 -0.0203  0.3242 -0.1066
10623SOL    HW234825   7.276   3.028   0.492 -0.2064  0.2550 -0.1343
10624SOL     OW34826   0.812   7.249   9.354 -0.0810  0.1964 -0.7650
10624SOL    HW134827   0.790   7.186   9.423 -2.1735  0.7790 -0.8130
10624SOL    HW234828   0.848   7.324   9.401 -0.5812  0.2095 -0.3894
10625SOL     OW34829   9.952   5.506   4.855  0.1317 -0.1797 -0.0571
10625SOL    HW134830  10.029   5.452   4.842 -0.0085 -0.2525 -0.6229
10625SOL    HW234831   9.982   5.579   4.909  0.4959 -0.4279  0.0787
10626SOL     OW34832   9.474   4.709   8.160  0.0251 -0.5791  0.0270
10626SOL    HW134833   9.381   4.733   8.167  0.2294  0.4476 -0.5208
10626SOL    HW234834   9.512   4.739   8.243  0.2957  1.2075 -0.6888
10627SOL     OW34835   3.161   5.404   3.467 -0.2113 -0.2937 -0.3208
10627SOL    HW134836   3.188   5.442   3.551 -0.1351 -2.0088  0.4750
10627SOL    HW234837   3.067   5.388   3.477  0.0845 -1.9577  0.0729
10628SOL     OW34838   2.239   3.574   6.481  0.5730  0.1203  0.2522
10628SOL    HW134839   2.300   3.500   6.472  1.0117  0.5637 -0.5101
10628SOL    HW234840   2.233   3.611   6.393 -1.3840 -0.3590  0.1405
10629SOL     OW34841   2.280   0.847   4.181  0.3721  0.1302 -0.0200
10629SOL    HW134842   2.362   0.814   4.216 -0.7859 -2.7982  0.2742
10629SOL    HW234843   2.293   0.847   4.086  1.1079  0.9298  0.0741
10630SOL     OW34844   4.107  10.263   4.765  0.3754 -0.0731  0.0012
10630SOL    HW134845   4.099  10.332   4.699 -0.3275  0.6255  0.7986
10630SOL    HW234846   4.094  10.181   4.716 -0.1037  0.4306 -0.7289
10631SOL     OW34847   7.545   0.475   2.645  0.1939  0.3592  0.2628
10631SOL    HW134848   7.455   0.442   2.648  0.1938  0.3939  0.7582
10631SOL    HW234849   7.547   0.544   2.713  0.5191  0.5424  0.0685
10632SOL     OW34850   3.539   9.664   2.505  0.1655  0.1458  0.4408
10632SOL    HW134851   3.449   9.696   2.496  0.7364  1.7162 -0.0122
10632SOL    HW234852   3.589   9.741   2.533  1.5587 -0.4332 -0.3673
10633SOL     OW34853   6.362   4.237   0.319 -0.0331 -0.4613  0.0098
10633SOL    HW134854   6.287   4.178   0.315 -0.9168  0.1582  3.8793
10633SOL    HW234855   6.331   4.319   0.281 -0.4148 -0.9666 -0.7993
10634SOL     OW34856   4.977   3.338   0.054 -0.1603 -0.1172 -0.0023
10634SOL    HW134857   5.068   3.343   0.024  0.0800  0.3268  0.7867
10634SOL    HW234858   4.954   3.245   0.043  0.9666 -0.6062  1.4144
10635SOL     OW34859   3.976   4.450   8.312  0.1193  0.4023  0.1610
10635SOL    HW134860   3.939   4.371   8.353  2.9505 -0.4672  1.2323
10635SOL    HW234861   4.028   4.417   8.239 -1.7075  1.6641 -1.8190
10636SOL     OW34862   8.698   6.575   5.171 -0.0282 -0.1571  0.6406
10636SOL    HW134863   8.779   6.625   5.184  0.6541 -1.5643  2.2264
10636SOL    HW234864   8.671   6.596   5.082  0.6945  2.2888  0.9093
10637SOL     OW34865  10.615   8.485   0.571 -0.4072 -0.8032  0.0425
10637SOL    HW134866  10.573   8.555   0.521  0.2098 -1.1108 -0.9193
10637SOL    HW234867  10.543   8.445   0.621 -0.5513  1.4596  1.8213
10638SOL     OW34868   2.294   2.211   4.613  0.2385  0.4088  0.0946
10638SOL    HW134869   2.272   2.140   4.554  0.9062  1.9893 -2.2019
10638SOL    HW234870   2.388   2.225   4.600 -0.1066  2.5507 -0.6215
10639SOL     OW34871   3.743  10.289   2.900 -0.3055 -0.4047  0.3590
10639SOL    HW134872   3.799  10.360   2.868  0.2008 -1.2805 -0.7719
10639SOL    HW234873   3.799  10.211   2.894 -1.2469 -1.0927  0.4235
10640SOL     OW34874   8.211   5.760   2.896  0.1458  0.7826  0.9380
10640SOL    HW134875   8.121   5.792   2.901 -0.5799 -0.9966  0.0511
10640SOL    HW234876   8.262   5.838   2.873 -1.6115  1.2876 -1.7497
10641SOL     OW34877   2.244   3.898   0.744 -0.1982 -0.4719 -0.0674
10641SOL    HW134878   2.218   3.807   0.749 -1.2611 -0.1201  1.7367
10641SOL    HW234879   2.166   3.944   0.714 -0.6635  0.1507  1.9109
10642SOL     OW34880   1.784   5.087   4.154  0.0046  0.2625 -0.3136
10642SOL    HW134881   1.854   5.131   4.203 -1.1458  0.9805  0.7471
10642SOL    HW234882   1.819   5.000   4.135  0.4542 -0.1191  1.9622
10643SOL     OW34883   1.178  10.524   3.174  0.1030  0.1365  0.3883
10643SOL    HW134884   1.247  10.545   3.237  0.4688  1.1111 -0.3197
10643SOL    HW234885   1.223  10.482   3.101 -0.3405 -1.1280  0.8162
10644SOL     OW34886   9.387   4.849   9.619  0.2628 -0.1917  0.0336
10644SOL    HW134887   9.316   4.908   9.644  0.2060 -1.1355  2.3176
10644SOL    HW234888   9.345   4.765   9.604  0.7466 -0.4838  0.2783
10645SOL     OW34889   2.381   8.644   5.616  0.0504  0.2854  0.1709
10645SOL    HW134890   2.453   8.583   5.631 -1.4888 -1.7958 -0.3480
10645SOL    HW234891   2.366   8.685   5.701  2.0516  1.0458  0.1888
10646SOL     OW34892  10.615   0.867   9.410  0.3756 -0.3400 -0.1489
10646SOL    HW134893  10.685   0.893   9.469  0.5558 -1.6600  0.2545
10646SOL    HW234894  10.535   0.874   9.463  0.4371 -0.6998 -0.0048
10647SOL     OW34895   4.274   1.102   0.527  0.2200  0.4692  0.0898
10647SOL    HW134896   4.368   1.105   0.545  0.1852 -0.8893  0.5927
10647SOL    HW234897   4.267   1.126   0.435  0.8732  2.3996  0.4985
10648SOL     OW34898   1.991   0.119   0.176 -0.1338 -0.3454 -0.5436
10648SOL    HW134899   1.899   0.131   0.152  0.2201 -0.4357 -1.9852
10648SOL    HW234900   2.031   0.204   0.158 -0.5906  0.9730  3.5993
10649SOL     OW34901   2.985   1.724   0.303  0.3831 -0.6025 -0.2670
10649SOL    HW134902   2.907   1.772   0.277  1.2596  0.5850 -0.8256
10649SOL    HW234903   2.957   1.670   0.377 -1.0291 -0.4537 -0.6716
10650SOL     OW34904   8.437   4.071   5.629 -0.4494  0.2283  0.0821
10650SOL    HW134905   8.410   4.162   5.621  0.6079  0.5835  0.3887
10650SOL    HW234906   8.356   4.023   5.646 -0.9167  1.2010  0.6466
10651SOL     OW34907   4.922   1.225   2.654 -0.5110 -0.3016  0.0683
10651SOL    HW134908   4.831   1.256   2.647 -0.9504 -1.7688 -1.3499
10651SOL    HW234909   4.914   1.137   2.692  0.5366  0.4294  2.1217
10652SOL     OW34910   1.336   4.578   2.308  0.3259  0.0154 -0.2891
10652SOL    HW134911   1.387   4.530   2.243 -0.2959 -0.2258 -0.6124
10652SOL    HW234912   1.341   4.669   2.280  0.6765  0.0132 -0.2433
10653SOL     OW34913  10.516   5.400   0.635 -0.3716  0.4925 -0.0717
10653SOL    HW134914  10.478   5.402   0.548  0.2335  1.0798 -0.3266
10653SOL    HW234915  10.486   5.481   0.677  0.5142  0.9116 -0.2418
10654SOL     OW34916  10.465   3.236   5.354  0.4662 -0.3138 -0.3754
10654SOL    HW134917  10.466   3.141   5.340 -0.1821 -0.2005 -1.2694
10654SOL    HW234918  10.423   3.247   5.439  0.1402 -0.8032 -0.4718
10655SOL     OW34919   3.307   5.847   1.488 -0.4850  0.4967 -0.0052
10655SOL    HW134920   3.239   5.898   1.445 -2.8398 -1.8898  0.6338
10655SOL    HW234921   3.260   5.788   1.546  2.1591 -1.2272  0.5698
10656SOL     OW34922   3.172   6.834  10.048 -0.6096  0.2558 -0.7516
10656SOL    HW134923   3.177   6.750  10.002  1.0185  0.6897 -1.4472
10656SOL    HW234924   3.104   6.822  10.114  1.3517 -2.5052  0.9569
10657SOL     OW34925   9.035   8.133   6.786  0.3880 -0.2378  0.2392
10657SOL    HW134926   9.004   8.098   6.870  1.0834 -1.5498 -0.0233
10657SOL    HW234927   9.066   8.221   6.807  1.8943 -1.0415  1.7179
10658SOL     OW34928   9.073   1.138   2.269 -0.0348  0.0825 -0.2227
10658SOL    HW134929   8.983   1.115   2.245  0.0491 -0.6282  0.1130
10658SOL    HW234930   9.118   1.054   2.275  0.1518  0.2782  1.6134
10659SOL     OW34931   3.447   1.197   7.014  0.0702 -0.1333  0.6958
10659SOL    HW134932   3.526   1.179   6.963 -0.2378 -0.7982  0.4438
10659SOL    HW234933   3.451   1.137   7.088 -0.7899 -1.0319  0.0365
10660SOL     OW34934   6.585   0.663   1.203 -0.0835  0.8305  0.3330
10660SOL    HW134935   6.592   0.571   1.179  0.1750  0.7707  0.6358
10660SOL    HW234936   6.616   0.667   1.293 -0.1576  1.2041  0.3446
10661SOL     OW34937  10.192   4.888   2.221  0.1526  0.8781 -0.3594
10661SOL    HW134938  10.216   4.939   2.299 -0.3244 -0.3995  0.6665
10661SOL    HW234939  10.180   4.953   2.152 -0.3183  2.1362  0.8648
10662SOL     OW34940  10.509   4.743   0.895  0.7371 -0.8980  0.2806
10662SOL    HW134941  10.519   4.674   0.961 -0.0605  0.7389  2.2231
10662SOL    HW234942  10.442   4.802   0.931  0.6018  0.3356 -1.7966
10663SOL     OW34943   5.176   0.245   7.492 -0.0122  0.0337 -0.1942
10663SOL    HW134944   5.116   0.179   7.458  0.3907 -0.4429  0.0194
10663SOL    HW234945   5.123   0.295   7.555  0.0144 -0.8796  0.5823
10664SOL     OW34946   2.579   3.809   4.152 -0.3872  0.0563 -0.0956
10664SOL    HW134947   2.494   3.829   4.192 -0.8884 -0.3916 -0.9021
10664SOL    HW234948   2.636   3.789   4.226 -0.2753  2.7600  0.6742
10665SOL     OW34949   7.857   8.764   1.796  0.0923 -0.6928  0.1691
10665SOL    HW134950   7.909   8.844   1.796 -0.2346 -0.4659  0.8943
10665SOL    HW234951   7.804   8.770   1.876 -2.0699 -0.2592 -1.2110
10666SOL     OW34952   7.234   4.102   4.588  0.1657  0.3857  0.1311
10666SOL    HW134953   7.292   4.161   4.540  1.0191  0.0221  0.6818
10666SOL    HW234954   7.286   4.023   4.600 -0.4866  0.0184  0.5636
10667SOL     OW34955   1.692   5.909   9.469  0.3792  0.0719  0.1315
10667SOL    HW134956   1.654   5.931   9.384  1.3018  1.6209  0.0845
10667SOL    HW234957   1.775   5.866   9.449  0.4221  0.1034  0.2378
10668SOL     OW34958   2.065   6.449   6.899  0.2347  0.2003  0.2881
10668SOL    HW134959   2.020   6.532   6.884  0.9678  0.4046 -0.8437
10668SOL    HW234960   2.111   6.461   6.982  0.5124  1.0021  0.0189
10669SOL     OW34961   0.460   7.538   6.733  0.0196  0.0930  0.3765
10669SOL    HW134962   0.385   7.582   6.773 -0.7861  0.9144 -1.8574
10669SOL    HW234963   0.421   7.470   6.677  1.0750 -0.9041  0.8129
10670SOL     OW34964   0.819   3.889  10.525  0.0361 -0.2261  0.6109
10670SOL    HW134965   0.796   3.964  10.470  0.4150 -0.3101  0.3371
10670SOL    HW234966   0.840   3.819  10.463 -0.0064 -0.4659  0.8628
10671SOL     OW34967   3.584   0.314   6.875  0.0120  0.2322  0.3143
10671SOL    HW134968   3.592   0.356   6.789  1.0742 -1.4898 -0.4730
10671SOL    HW234969   3.531   0.236   6.858 -0.7842  0.4913  1.4933
10672SOL     OW34970   9.923   5.755   1.360 -0.5354 -0.2016  0.2349
10672SOL    HW134971   9.935   5.692   1.431 -0.1816  1.1279  1.4130
10672SOL    HW234972  10.008   5.760   1.317 -1.0355 -1.8048 -1.0076
10673SOL     OW34973   8.164   8.422   4.045  0.9375 -0.2353  0.3894
10673SOL    HW134974   8.099   8.492   4.036  0.9689 -0.4589 -2.7119
10673SOL    HW234975   8.115   8.348   4.080  0.3574  0.6060  1.4056
10674SOL     OW34976   5.166   5.676   9.420 -0.6565  0.3865  0.1741
10674SOL    HW134977   5.087   5.622   9.414  0.2951 -1.0270  0.0212
10674SOL    HW234978   5.201   5.678   9.331  0.5713 -0.7304  0.5977
10675SOL     OW34979   6.171   1.310   2.159  0.5183  0.0536  0.3294
10675SOL    HW134980   6.157   1.355   2.076 -0.7976  0.8274  0.9457
10675SOL    HW234981   6.263   1.328   2.180  0.8922 -0.2175 -0.9655
10676SOL     OW34982   7.794   0.939   6.289  0.4904  0.5561  0.2471
10676SOL    HW134983   7.816   0.848   6.308  1.1103  0.8614  1.0232
10676SOL    HW234984   7.802   0.984   6.372 -1.1231  1.0892  0.1561
10677SOL     OW34985   0.810   8.996   8.106 -0.2920 -0.5539 -0.0174
10677SOL    HW134986   0.781   8.906   8.092 -0.0781 -0.4811 -1.0025
10677SOL    HW234987   0.760   9.048   8.043 -0.3758  0.0190  0.5046
10678SOL     OW34988   6.508   4.095   9.985  0.0524  0.4424  0.7881
10678SOL    HW134989   6.437   4.060  10.039 -0.6409 -1.5479 -1.2838
10678SOL    HW234990   6.554   4.018   9.953  1.4509  1.6282 -0.1441
10679SOL     OW34991   8.980   5.162   9.647  0.3258  0.3644 -0.2613
10679SOL    HW134992   8.946   5.234   9.700 -1.1376  0.4230 -1.2534
10679SOL    HW234993   9.038   5.204   9.584  1.2424  0.4056  0.5806
10680SOL     OW34994   7.068   3.312   7.769  0.2846 -0.1496  0.3332
10680SOL    HW134995   7.028   3.233   7.733  0.8083 -0.5066  0.5298
10680SOL    HW234996   7.082   3.368   7.693  0.5894 -0.5502  0.0882
10681SOL     OW34997  10.089   7.199   1.575 -0.0166 -0.1539 -0.0060
10681SOL    HW134998  10.039   7.220   1.654 -1.7395 -0.6801 -0.9167
10681SOL    HW234999  10.170   7.159   1.608 -1.0378 -1.0889  1.4884
10682SOL     OW35000   9.810   0.862   7.335 -0.0015  0.5830  0.0342
10682SOL    HW135001   9.751   0.825   7.400  0.7878 -0.3849  0.2244
10682SOL    HW235002   9.870   0.790   7.313 -1.3098  0.2567 -3.0883
10683SOL     OW35003   5.624   4.051   6.392 -0.0633  0.3950  0.3415
10683SOL    HW135004   5.693   4.071   6.455  1.1063  1.8788 -1.3153
10683SOL    HW235005   5.555   4.114   6.411 -0.9559 -0.9486  1.8557
10684SOL     OW35006   2.533   8.048  10.174 -0.3696  0.0266  0.3116
10684SOL    HW135007   2.556   8.114  10.109  0.4611 -1.4562 -0.9757
10684SOL    HW235008   2.608   7.988  10.175  0.2835  0.6735  3.6521
10685SOL     OW35009   8.666  10.211   4.263 -0.3236 -0.3458 -0.3609
10685SOL    HW135010   8.620  10.127   4.256 -1.7006  0.3579 -0.1950
10685SOL    HW235011   8.727  10.199   4.336  0.7599 -1.7370 -1.4358
10686SOL     OW35012   4.741   8.651  10.568  0.1405  0.0008  0.1575
10686SOL    HW135013   4.820   8.695  10.599  0.3404 -0.7065  0.6808
10686SOL    HW235014   4.771   8.565  10.541 -0.5644 -0.5744  1.1219
10687SOL     OW35015   8.324   7.438   8.386  0.3758  0.4434 -0.0180
10687SOL    HW135016   8.418   7.419   8.379  0.2032 -0.3862 -0.2186
10687SOL    HW235017   8.299   7.406   8.472  0.7873  3.0525  1.1517
10688SOL     OW35018   6.300   7.334   1.644  0.1106  0.0679  0.0425
10688SOL    HW135019   6.265   7.282   1.716  0.5573  0.5417  0.6114
10688SOL    HW235020   6.394   7.316   1.645  0.1943  0.4948 -0.0809
10689SOL     OW35021  10.106   8.636   2.538 -0.1687 -0.3141 -0.4936
10689SOL    HW135022  10.099   8.706   2.604  0.2637 -0.4262 -0.3292
10689SOL    HW235023  10.199   8.631   2.518 -0.2670 -0.4593 -0.9280
10690SOL     OW35024   1.088   3.143   8.816  0.8633 -0.0430 -0.1419
10690SOL    HW135025   1.155   3.131   8.749  2.0958 -2.7142  1.4226
10690SOL    HW235026   1.137   3.158   8.897 -0.5639  1.6955  0.4755
10691SOL     OW35027   8.923   9.600   3.170  0.0217 -0.5582  0.1526
10691SOL    HW135028   8.856   9.545   3.211 -0.5584  1.5620  2.3231
10691SOL    HW235029   8.998   9.593   3.229  0.4924 -0.2256 -0.3998
10692SOL     OW35030   5.870   4.587   3.157 -0.1562 -0.2832 -0.4371
10692SOL    HW135031   5.923   4.509   3.141 -0.8219 -0.9758  0.6112
10692SOL    HW235032   5.780   4.555   3.157 -0.4303  0.4562  0.2207
10693SOL     OW35033  10.484   7.817   1.706  0.2993 -0.1857  0.3280
10693SOL    HW135034  10.458   7.727   1.685  0.8396  0.2151 -2.5075
10693SOL    HW235035  10.566   7.807   1.754 -0.8865 -1.2200  2.2716
10694SOL     OW35036   6.176   9.218   9.582  0.0820  0.0775  0.0565
10694SOL    HW135037   6.107   9.203   9.646  0.9952 -1.4808  0.7255
10694SOL    HW235038   6.177   9.138   9.529  0.7329  0.4796 -0.5502
10695SOL     OW35039   1.779   8.123   6.200  0.0133 -0.0561  0.3113
10695SOL    HW135040   1.769   8.067   6.122  1.2328 -1.5958  1.2139
10695SOL    HW235041   1.851   8.181   6.178  0.9349 -1.0659  0.5732
10696SOL     OW35042   9.779   2.898   1.687  0.3139  0.3033  0.4950
10696SOL    HW135043   9.813   2.809   1.688 -2.3221 -0.7718  0.8629
10696SOL    HW235044   9.849   2.950   1.727  2.5367 -1.2766 -1.0570
10697SOL     OW35045   5.120   8.049   3.561  0.0151  0.2407 -0.2728
10697SOL    HW135046   5.075   8.053   3.477  0.4880 -0.2506 -0.5555
10697SOL    HW235047   5.182   7.977   3.552 -0.2567 -0.1243  0.6665
10698SOL     OW35048   5.067   5.196   9.468 -0.2403 -0.7307  0.6665
10698SOL    HW135049   5.132   5.206   9.538  0.2418 -0.4118  0.1804
10698SOL    HW235050   4.986   5.229   9.506  0.3362  0.8232  0.6061
10699SOL     OW35051   2.867   3.017   4.120 -0.1914 -0.1329 -0.6305
10699SOL    HW135052   2.857   3.110   4.139  1.9370 -0.1100  0.7437
10699SOL    HW235053   2.794   2.996   4.062  0.1140  2.7422 -2.2391
10700SOL     OW35054  10.182   9.294   2.581  0.1296  0.0648 -0.1603
10700SOL    HW135055  10.214   9.384   2.588  2.4245 -0.7206  0.3425
10700SOL    HW235056  10.161   9.283   2.488  0.7779  0.8256 -0.4054
10701SOL     OW35057  10.195   0.614   9.854 -0.1093 -0.2408 -1.0120
10701SOL    HW135058  10.165   0.679   9.791 -2.7659 -0.5792 -0.2167
10701SOL    HW235059  10.121   0.554   9.864  0.5571 -0.7629  1.6846
10702SOL     OW35060   7.600   1.630   1.351 -0.1066 -0.1230 -0.6158
10702SOL    HW135061   7.674   1.678   1.314 -0.2732  0.2612 -0.4533
10702SOL    HW235062   7.534   1.632   1.282 -0.5313  0.8567 -0.1993
10703SOL     OW35063   5.254   5.243   9.642  0.0887  0.1227  0.6984
10703SOL    HW135064   5.338   5.204   9.665  1.1501  0.8777 -1.5693
10703SOL    HW235065   5.271   5.337   9.637 -0.7180  0.2371 -0.3191
10704SOL     OW35066   3.079   4.911   3.607  0.0571 -0.0913 -0.1312
10704SOL    HW135067   3.009   4.900   3.542 -0.7875 -1.3352  0.9496
10704SOL    HW235068   3.053   4.988   3.657  0.1567  0.2318 -0.5694
10705SOL     OW35069   7.423   3.619   1.101  0.8476 -0.7004  0.4528
10705SOL    HW135070   7.367   3.591   1.028  2.0245  0.2923 -0.8997
10705SOL    HW235071   7.410   3.714   1.106 -0.0629 -0.8758  2.3247
10706SOL     OW35072   1.299   2.566   7.282  0.2112 -0.2578  1.2055
10706SOL    HW135073   1.246   2.625   7.335  0.6578  0.1932  1.1644
10706SOL    HW235074   1.389   2.593   7.300  0.3501  0.6335 -0.5929
10707SOL     OW35075   6.741   7.935   4.409  0.3910  0.3880  0.1460
10707SOL    HW135076   6.756   7.874   4.481 -1.9107  2.1473  2.2626
10707SOL    HW235077   6.648   7.926   4.389  0.7947  0.5686 -2.0784
10708SOL     OW35078   5.975   1.669   0.455 -0.1289 -0.4908  0.1086
10708SOL    HW135079   6.014   1.692   0.539 -0.5446  0.2615  0.1065
10708SOL    HW235080   6.030   1.599   0.421 -0.6111 -1.6121  1.5289
10709SOL     OW35081   5.357   2.165   2.541 -0.0927  0.1170 -0.7208
10709SOL    HW135082   5.269   2.149   2.506 -0.6931  0.4377  0.5931
10709SOL    HW235083   5.370   2.098   2.608 -0.4419  1.6462  0.9670
10710SOL     OW35084   7.958   3.812   8.822  0.9272  0.0989  0.0362
10710SOL    HW135085   7.962   3.903   8.853  1.3836 -0.0788  0.5040
10710SOL    HW235086   7.870   3.804   8.784  1.0480  0.8618 -0.4153
10711SOL     OW35087   7.750   5.253   3.406  0.2967 -0.3312  0.6943
10711SOL    HW135088   7.818   5.185   3.407  0.5794 -0.0787  3.0787
10711SOL    HW235089   7.703   5.242   3.488 -0.0884  1.9155  0.8370
10712SOL     OW35090   4.296  10.393   8.122  0.1149  0.1803  0.6000
10712SOL    HW135091   4.279  10.312   8.075 -1.5669 -0.1226  1.6616
10712SOL    HW235092   4.210  10.434   8.132  0.7357  1.3634  1.4124
10713SOL     OW35093   7.428   7.198   1.736 -0.1750 -0.6126 -0.3350
10713SOL    HW135094   7.504   7.238   1.694 -0.0644 -1.2293 -0.7275
10713SOL    HW235095   7.455   7.109   1.757  0.0983 -0.0724  1.9100
10714SOL     OW35096   6.146   3.279   4.739 -0.5167  0.2159  0.2323
10714SOL    HW135097   6.185   3.272   4.826  0.0453 -0.1985 -0.0514
10714SOL    HW235098   6.056   3.249   4.751  0.7898 -4.7136 -0.2302
10715SOL     OW35099   4.565  10.272   9.222 -0.0725 -0.1980  0.2010
10715SOL    HW135100   4.550  10.178   9.236  2.4755 -1.0039 -1.7050
10715SOL    HW235101   4.483  10.304   9.184 -0.5605 -1.9607 -0.3454
10716SOL     OW35102   2.532   9.292  10.168  0.0619 -0.1465  0.1346
10716SOL    HW135103   2.578   9.211  10.193 -0.4974 -0.9729 -1.4198
10716SOL    HW235104   2.444   9.263  10.145 -1.4118  1.4241  3.2237
10717SOL     OW35105   5.722   3.953   1.193 -0.4406  0.1358 -0.1891
10717SOL    HW135106   5.788   3.996   1.249  0.5626 -2.5155  0.8131
10717SOL    HW235107   5.699   3.873   1.240 -1.8453 -0.6988 -2.1726
10718SOL     OW35108   8.864   6.937   3.512 -0.6471  0.2351 -0.4996
10718SOL    HW135109   8.865   6.984   3.596  0.9822  0.0264 -0.3693
10718SOL    HW235110   8.840   7.004   3.448 -3.2639  0.1136  0.2363
10719SOL     OW35111   3.388   1.880  10.505  0.3534 -0.2740 -0.1012
10719SOL    HW135112   3.351   1.963  10.534 -1.8624 -1.3280  0.2675
10719SOL    HW235113   3.367   1.875  10.412 -2.6491 -1.8574  0.5359
10720SOL     OW35114   9.079   5.659   3.581  0.5415 -0.7086  1.3374
10720SOL    HW135115   9.111   5.571   3.600  1.6450 -0.2990  1.4485
10720SOL    HW235116   9.016   5.646   3.510  3.1737 -1.2846 -1.0999
10721SOL     OW35117  10.587   2.727   7.347  0.2127  0.0591 -0.2414
10721SOL    HW135118  10.616   2.646   7.306  0.0954 -0.9937  1.6959
10721SOL    HW235119  10.666   2.782   7.348  0.8972 -0.9009  0.4856
10722SOL     OW35120   7.572  10.010   1.548  0.7707  0.1010 -0.4939
10722SOL    HW135121   7.592   9.963   1.629  1.0506 -2.7693 -2.1142
10722SOL    HW235122   7.487  10.052   1.566  0.6177 -0.8134  1.1405
10723SOL     OW35123   9.379   8.062   8.110  0.8552  0.4180 -0.3838
10723SOL    HW135124   9.353   8.120   8.181 -1.9039  0.6693 -1.4720
10723SOL    HW235125   9.340   7.978   8.132  0.6247  0.3011 -1.1838
10724SOL     OW35126   6.352   8.603   3.277 -0.1668  0.3086  0.1654
10724SOL    HW135127   6.287   8.618   3.209  0.1173 -1.2977 -0.5168
10724SOL    HW235128   6.342   8.676   3.338 -1.5730  0.8731 -0.7187
10725SOL     OW35129   1.872   7.710  10.571 -0.1031  0.5325  0.0998
10725SOL    HW135130   1.786   7.731  10.534  0.1527  0.5480 -0.4989
10725SOL    HW235131   1.931   7.777  10.536  0.0210  0.9802  1.1088
10726SOL     OW35132   2.673   2.984   3.956  0.1333  0.0992 -0.0772
10726SOL    HW135133   2.661   3.060   3.898  0.1476  0.1931  0.0417
10726SOL    HW235134   2.694   2.912   3.897 -0.0886  0.1415 -0.2092
10727SOL     OW35135   5.104   9.489   6.334 -0.0751 -0.3008 -0.5792
10727SOL    HW135136   5.059   9.438   6.267 -1.0415 -1.2171  0.6950
10727SOL    HW235137   5.147   9.560   6.287  0.3737 -1.6571 -2.2876
10728SOL     OW35138  10.351   4.219   2.196  0.1397  0.0050 -0.3663
10728SOL    HW135139  10.358   4.123   2.197 -0.0332 -0.0194 -1.1617
10728SOL    HW235140  10.404   4.247   2.270 -0.8946 -0.7780  0.7232
10729SOL     OW35141   5.343   4.774   6.434  0.1804  0.0197  0.1067
10729SOL    HW135142   5.263   4.733   6.465 -0.5559  0.6249 -0.9305
10729SOL    HW235143   5.383   4.810   6.513 -0.6920 -0.0846  0.6125
10730SOL     OW35144   1.044   6.647   3.222 -0.2200 -0.0786 -0.1693
10730SOL    HW135145   1.017   6.581   3.159 -1.5808  0.0250  0.2614
10730SOL    HW235146   1.123   6.686   3.185 -0.6996 -0.3738 -1.5504
10731SOL     OW35147   9.985   8.161   5.792  0.4411 -0.1907 -0.2022
10731SOL    HW135148   9.893   8.133   5.787  0.5591 -0.7602  0.5927
10731SOL    HW235149  10.030   8.086   5.832  0.7121  1.2076  2.3669
10732SOL     OW35150   2.268   7.147   3.844  0.1858 -0.4320 -0.1113
10732SOL    HW135151   2.313   7.214   3.792  1.9615 -1.1490  0.4377
10732SOL    HW235152   2.262   7.185   3.932 -1.1475  0.0223 -0.3725
10733SOL     OW35153   0.690   8.926   7.736 -0.0453  0.0950 -0.4778
10733SOL    HW135154   0.716   8.838   7.708 -0.1549  0.4023 -1.5775
10733SOL    HW235155   0.596   8.919   7.749 -0.4524  0.5773 -2.7497
10734SOL     OW35156  10.451   5.383   4.487  0.4889  0.1828 -0.2537
10734SOL    HW135157  10.528   5.328   4.470  0.8613  0.8392 -0.7457
10734SOL    HW235158  10.384   5.321   4.516  1.1316 -0.4293 -0.0271
10735SOL     OW35159   4.234   8.581  10.274 -0.4335 -0.7665 -0.1864
10735SOL    HW135160   4.149   8.595  10.231 -0.4195 -1.0065 -0.2985
10735SOL    HW235161   4.298   8.600  10.206 -0.3779  0.1543  0.1191
10736SOL     OW35162   1.752   8.383   6.452  0.0578 -0.1669  0.4447
10736SOL    HW135163   1.675   8.438   6.441 -0.9511 -1.5440  0.3082
10736SOL    HW235164   1.806   8.401   6.375  0.1837  1.2607  0.8510
10737SOL     OW35165   4.607   1.485   9.513  0.6376 -0.2108  0.1708
10737SOL    HW135166   4.587   1.551   9.580  0.0047 -0.0025 -0.2140
10737SOL    HW235167   4.531   1.487   9.454  0.6171 -1.2557  0.1370
10738SOL     OW35168   9.733   1.410   7.098  0.2976 -0.2692 -0.1046
10738SOL    HW135169   9.643   1.440   7.112  0.7514  1.4397 -0.5658
10738SOL    HW235170   9.758   1.369   7.180 -0.9869 -0.9866 -0.0592
10739SOL     OW35171   6.574   1.910   3.393 -0.4101 -0.4401  0.3723
10739SOL    HW135172   6.649   1.965   3.367 -1.0750  0.0718 -0.5161
10739SOL    HW235173   6.557   1.935   3.484  0.2605 -0.2839  0.4597
10740SOL     OW35174   5.068   4.955   6.528 -0.0905 -0.1583  0.1958
10740SOL    HW135175   5.098   4.985   6.614  0.0798  0.1793  0.0220
10740SOL    HW235176   5.137   4.895   6.498  1.8564  2.5923 -1.3532
10741SOL     OW35177   3.544   4.639   8.024 -0.1161  0.8501  0.0875
10741SOL    HW135178   3.602   4.715   8.019  1.2595 -0.2164 -0.7878
10741SOL    HW235179   3.602   4.564   8.029 -1.4434 -0.1237  2.0732
10742SOL     OW35180   9.139   4.181   5.796  0.4065  0.5149  0.9991
10742SOL    HW135181   9.172   4.096   5.766 -1.0783 -0.3693  1.7560
10742SOL    HW235182   9.050   4.185   5.761  0.2870  1.5292  1.4145
10743SOL     OW35183   7.208   8.419   4.607 -0.2365 -0.4923 -0.0693
10743SOL    HW135184   7.290   8.449   4.647 -0.9899 -0.1243  1.2734
10743SOL    HW235185   7.235   8.377   4.525  1.0944  1.4684 -0.7039
10744SOL     OW35186   9.568   7.991   1.563  0.4835  0.4865  0.0271
10744SOL    HW135187   9.499   8.014   1.625  0.9684 -0.5801  0.9989
10744SOL    HW235188   9.639   7.957   1.618  1.4465  0.7425 -1.0151
10745SOL     OW35189   2.285  10.387  10.400 -0.1423 -0.0919 -0.3495
10745SOL    HW135190   2.235  10.319  10.355 -2.5458  1.3347  0.0006
10745SOL    HW235191   2.268  10.372  10.493 -0.1666  0.6160 -0.2372
10746SOL     OW35192   0.671  10.163   9.003 -1.0698 -0.3899 -0.6010
10746SOL    HW135193   0.645  10.081   9.044 -0.7939  0.0487  0.4833
10746SOL    HW235194   0.757  10.183   9.040 -1.0441  0.2872 -1.0015
10747SOL     OW35195   2.599   7.257   0.466  0.2047 -0.1346  0.2257
10747SOL    HW135196   2.509   7.245   0.435  0.3397  0.0322 -0.2380
10747SOL    HW235197   2.613   7.183   0.525 -0.5188  0.3056  0.9640
10748SOL     OW35198   8.694   7.165   9.236 -0.4438 -0.0735 -0.2711
10748SOL    HW135199   8.659   7.252   9.220 -0.8669 -0.1136  0.3938
10748SOL    HW235200   8.618   7.113   9.262 -0.0917 -0.4808 -0.0426
10749SOL     OW35201   2.689   4.991   3.219 -0.2198  0.7602  0.0157
10749SOL    HW135202   2.620   4.990   3.286 -0.7907  3.1795 -0.4215
10749SOL    HW235203   2.758   4.935   3.254 -0.4940  1.9105  2.6427
10750SOL     OW35204  10.686   0.041   8.194 -0.7022 -0.7640 -0.3508
10750SOL    HW135205  10.685  -0.051   8.166  0.7138 -0.8010 -0.3338
10750SOL    HW235206  10.774   0.071   8.173  0.2741 -0.5739  3.3455
10751SOL     OW35207   0.107   5.277   0.952 -0.4100  0.3771  0.0458
10751SOL    HW135208   0.045   5.245   1.017 -0.7222 -0.7640 -0.7761
10751SOL    HW235209   0.159   5.343   0.998 -1.4044  0.4493  1.0955
10752SOL     OW35210   1.613   0.014  10.116  0.3388  0.3787 -0.2259
10752SOL    HW135211   1.703   0.040  10.133  0.5967 -2.4133  4.6503
10752SOL    HW235212   1.620  -0.061  10.057  1.1223  0.5566 -0.3661
10753SOL     OW35213   6.648   2.770   0.383 -0.3536  0.5804  0.6763
10753SOL    HW135214   6.683   2.832   0.319 -2.3447  0.8427 -0.2649
10753SOL    HW235215   6.598   2.824   0.444  3.0132  0.5915  3.7677
10754SOL     OW35216   9.302   7.281   8.691  0.3015  0.3386 -0.7846
10754SOL    HW135217   9.311   7.376   8.686 -1.0519  0.4414 -2.0031
10754SOL    HW235218   9.349   7.248   8.615 -1.5382  0.2608 -1.9388
10755SOL     OW35219   9.728   2.595   3.181 -1.4745  0.1125  0.1047
10755SOL    HW135220   9.768   2.679   3.206 -1.1312  0.3552 -1.2005
10755SOL    HW235221   9.670   2.574   3.254 -0.1970  0.5686  1.3109
10756SOL     OW35222   6.668   9.627   6.906  0.5721 -0.5185 -0.1006
10756SOL    HW135223   6.691   9.654   6.995 -2.0334  2.4124 -0.1374
10756SOL    HW235224   6.579   9.592   6.914 -0.7786  2.1766 -1.7283
10757SOL     OW35225   4.438   5.126   8.216  0.3251  0.3979  0.7949
10757SOL    HW135226   4.428   5.066   8.143  0.7539  0.7723  0.4273
10757SOL    HW235227   4.350   5.131   8.255  0.1900 -0.1154  0.5617
10758SOL     OW35228   4.518   0.834   4.424 -0.3638  0.3451  0.3126
10758SOL    HW135229   4.430   0.865   4.404  0.5013  1.4466 -2.2669
10758SOL    HW235230   4.565   0.913   4.451  0.9359  0.8011 -2.8386
10759SOL     OW35231   3.559   3.888   0.327 -0.6551  0.6868 -0.2783
10759SOL    HW135232   3.487   3.837   0.364 -1.2310 -0.4608 -2.7357
10759SOL    HW235233   3.555   3.972   0.372 -2.1135 -0.1294  1.2092
10760SOL     OW35234   3.231   0.601   4.570  0.5120 -0.5209  0.2895
10760SOL    HW135235   3.214   0.599   4.664  2.2636 -0.9996  0.6271
10760SOL    HW235236   3.208   0.513   4.540  0.9491 -0.7014  0.4730
10761SOL     OW35237   3.631  10.104   1.483  0.3787 -0.0751  0.1912
10761SOL    HW135238   3.583  10.022   1.468  0.6796 -0.1495 -0.4227
10761SOL    HW235239   3.723  10.079   1.476  0.5001  0.7316 -2.6999
10762SOL     OW35240   2.207   3.186   2.265  0.1909  0.2044  0.1088
10762SOL    HW135241   2.141   3.131   2.224 -0.4993  0.8772  0.3069
10762SOL    HW235242   2.257   3.223   2.192 -0.3992  0.6074 -0.0959
10763SOL     OW35243   9.733   5.626   3.522  0.5983  0.0891  0.0455
10763SOL    HW135244   9.783   5.699   3.559 -0.4864  0.1983  1.3537
10763SOL    HW235245   9.724   5.648   3.429  2.4240  0.3576 -0.1067
10764SOL     OW35246   1.606   8.796   1.320  0.8618 -0.0550 -0.0667
10764SOL    HW135247   1.594   8.764   1.231 -0.1923  1.7583 -0.6203
10764SOL    HW235248   1.660   8.875   1.310 -1.3570  1.6453  0.5320
10765SOL     OW35249   8.253   6.202   7.357 -0.1169 -0.2689  0.1752
10765SOL    HW135250   8.233   6.296   7.354 -0.1642 -0.2389  1.1383
10765SOL    HW235251   8.346   6.197   7.335 -0.2722 -0.0608 -0.5456
10766SOL     OW35252   5.310   0.013   7.616 -0.3420 -0.7859  0.2508
10766SOL    HW135253   5.295   0.102   7.584 -2.1614 -0.3208  2.2514
10766SOL    HW235254   5.406   0.007   7.622 -0.1376  0.6886 -0.7796
10767SOL     OW35255   4.639   4.908   5.820 -0.6714  0.2098 -0.4252
10767SOL    HW135256   4.704   4.924   5.752  2.0430  0.1543  1.9660
10767SOL    HW235257   4.629   4.991   5.865 -0.4355 -0.3625  0.7140
10768SOL     OW35258   6.481   7.074   4.515  0.2553 -0.8549  0.6185
10768SOL    HW135259   6.467   7.085   4.421  1.9866 -0.3594  0.3815
10768SOL    HW235260   6.544   7.003   4.521 -0.6279 -1.5836  1.4802
10769SOL     OW35261   3.765  10.618   8.661 -0.2548  0.2246  0.4584
10769SOL    HW135262   3.826  10.549   8.635 -1.9419 -0.5627 -1.6764
10769SOL    HW235263   3.706  10.576   8.723 -0.7954 -0.0666 -0.2371
10770SOL     OW35264   1.566   7.284   8.072 -0.1918  0.0872 -0.1665
10770SOL    HW135265   1.487   7.327   8.040  0.1119  0.3450 -0.5830
10770SOL    HW235266   1.630   7.296   8.001 -0.0750 -0.9762 -0.2488
10771SOL     OW35267   9.989  10.570   1.740  0.0969  0.3369  0.7759
10771SOL    HW135268   9.927  10.532   1.678  0.1105 -1.5335  1.8366
10771SOL    HW235269   9.944  10.647   1.774 -0.6144  0.4117 -0.2770
10772SOL     OW35270   1.490   8.897   3.675  0.3142 -0.1230  0.2278
10772SOL    HW135271   1.544   8.873   3.750 -1.3513 -2.0229  0.9084
10772SOL    HW235272   1.400   8.885   3.705 -0.5833  2.9102 -0.8572
10773SOL     OW35273   1.280   6.821   3.167  0.6152  0.0572 -0.5936
10773SOL    HW135274   1.246   6.889   3.109 -2.4637 -1.0532 -0.2719
10773SOL    HW235275   1.298   6.867   3.249  0.8411  0.8658 -1.0764
10774SOL     OW35276   2.049   1.806   8.894  0.0823  0.0195 -0.4711
10774SOL    HW135277   2.021   1.886   8.937 -0.5180 -0.1943 -0.4565
10774SOL    HW235278   1.971   1.773   8.850  0.0884 -1.0285  0.2663
10775SOL     OW35279   4.802   0.109   7.142  0.1987  0.1591 -0.1501
10775SOL    HW135280   4.820   0.149   7.227  0.4103  0.7944 -0.4874
10775SOL    HW235281   4.886   0.112   7.096  0.4389 -1.4534  0.1127
10776SOL     OW35282   4.387   5.173   3.639 -0.2155 -0.0057  0.5726
10776SOL    HW135283   4.431   5.246   3.681 -1.9287  1.4947 -0.0799
10776SOL    HW235284   4.303   5.209   3.611 -1.2018 -2.2852  0.3645
10777SOL     OW35285   3.003   5.367   6.104 -0.0514 -0.3926 -0.2148
10777SOL    HW135286   3.014   5.444   6.049 -0.1386 -0.3884 -0.2271
10777SOL    HW235287   3.083   5.363   6.156 -0.6347  0.5059  0.7891
10778SOL     OW35288   5.138   8.451   0.449  0.6382  0.5795  0.0627
10778SOL    HW135289   5.150   8.498   0.532  0.7163  0.1551  0.2940
10778SOL    HW235290   5.209   8.482   0.393  1.5435 -0.3162  0.6916
10779SOL     OW35291   9.707   8.477   5.342 -0.4190 -0.3200 -0.4437
10779SOL    HW135292   9.651   8.534   5.393  0.8426  1.7666 -1.2654
10779SOL    HW235293   9.723   8.401   5.399 -1.4542  0.5308  1.0291
10780SOL     OW35294   4.763   1.198   4.973 -0.3303  0.0232 -0.2088
10780SOL    HW135295   4.827   1.245   5.026 -0.1622  0.2750 -0.6277
10780SOL    HW235296   4.815   1.150   4.909 -0.5918  1.3777 -1.4932
10781SOL     OW35297  10.491   7.370   2.348 -0.1168  0.0708 -0.5409
10781SOL    HW135298  10.418   7.423   2.317  0.2151  0.0944 -1.3014
10781SOL    HW235299  10.503   7.397   2.440 -0.9717  0.1544 -0.4452
10782SOL     OW35300   4.402   0.306   4.348  0.2633  0.5489  0.1106
10782SOL    HW135301   4.420   0.397   4.324  1.2955  0.4603  0.5077
10782SOL    HW235302   4.462   0.255   4.295  1.0554  0.2250  1.2766
10783SOL     OW35303   3.567   0.534   8.255  0.3247  0.1346  0.6870
10783SOL    HW135304   3.617   0.491   8.185  0.4032  1.2518  0.0327
10783SOL    HW235305   3.527   0.462   8.303  2.8445 -0.8515  1.4812
10784SOL     OW35306   7.703   2.184   4.406  0.2957  0.5117  0.5257
10784SOL    HW135307   7.627   2.235   4.378 -2.2171 -2.8241  0.5414
10784SOL    HW235308   7.695   2.180   4.502  2.5617  2.8250  0.9419
10785SOL     OW35309   1.023   0.047   5.168 -0.3639  0.0158 -0.6907
10785SOL    HW135310   1.103   0.088   5.201  0.0100 -2.0435  1.2809
10785SOL    HW235311   1.044  -0.047   5.166 -3.1002 -0.7620  1.2775
10786SOL     OW35312   3.286   8.637   9.313  0.4785  0.2628 -0.0041
10786SOL    HW135313   3.309   8.659   9.403  0.1999 -1.6476  0.5776
10786SOL    HW235314   3.210   8.579   9.321 -1.1113  1.9773 -1.6107
10787SOL     OW35315   7.686   0.948   2.091  0.2209  0.1974 -0.3598
10787SOL    HW135316   7.608   0.984   2.049 -0.4328 -0.0208  0.6475
10787SOL    HW235317   7.751   0.945   2.021 -0.0856  2.1201 -0.7965
10788SOL     OW35318   3.116   7.840   3.527  0.0790 -0.2550 -0.3230
10788SOL    HW135319   3.138   7.921   3.481  0.3820 -0.5065 -0.6311
10788SOL    HW235320   3.051   7.798   3.472  0.0561 -0.3086 -0.2551
10789SOL     OW35321   1.437   7.953   8.146 -1.2095  0.2011  0.1547
10789SOL    HW135322   1.492   8.030   8.153  1.8014 -1.7152 -0.7516
10789SOL    HW235323   1.412   7.933   8.237  0.6025  0.4862  0.7507
10790SOL     OW35324   0.469   0.113   4.283  0.2004 -0.3006 -0.2915
10790SOL    HW135325   0.400   0.102   4.348  0.7723 -2.7695  0.0142
10790SOL    HW235326   0.549   0.083   4.327  1.0652  0.4171 -1.3238
10791SOL     OW35327  10.225   5.650   3.106  0.2643 -0.0225  0.7981
10791SOL    HW135328  10.176   5.633   3.026 -0.6886  3.0648  0.5998
10791SOL    HW235329  10.291   5.581   3.110 -0.9987 -1.4544 -1.5117
10792SOL     OW35330   0.826   0.910   9.133 -0.3330  0.2504 -0.0832
10792SOL    HW135331   0.836   0.922   9.038  1.4869 -0.0597  0.0282
10792SOL    HW235332   0.732   0.910   9.147 -0.6450  1.9986 -1.6635
10793SOL     OW35333   0.099   1.011   1.180 -0.3800  0.6682 -0.1678
10793SOL    HW135334   0.009   0.995   1.208 -0.1200 -0.4048  0.0977
10793SOL    HW235335   0.105   0.969   1.094  0.2120 -0.4313  0.3788
10794SOL     OW35336   6.688   1.806   3.085 -0.3289  0.0562 -0.8083
10794SOL    HW135337   6.667   1.731   3.029  0.4848 -0.3622 -0.5717
10794SOL    HW235338   6.754   1.855   3.036 -0.2167  0.1374 -0.5802
10795SOL     OW35339   6.592   3.473   0.433 -0.1316  0.3509 -0.2877
10795SOL    HW135340   6.526   3.541   0.451 -0.6293 -0.1643 -0.1306
10795SOL    HW235341   6.563   3.432   0.351 -0.1661 -0.0603 -0.0737
10796SOL     OW35342   0.222   8.792  10.139  0.1121  0.1028  0.4517
10796SOL    HW135343   0.179   8.707  10.132  0.6993 -0.2434  0.9188
10796SOL    HW235344   0.292   8.778  10.203  1.8005  0.2753 -1.2741
10797SOL     OW35345   2.180   4.233   3.446 -0.3025 -0.0807  0.2690
10797SOL    HW135346   2.134   4.166   3.497  2.0405 -1.0905  1.1949
10797SOL    HW235347   2.184   4.198   3.357 -1.6171  0.2211  0.0676
10798SOL     OW35348   9.343   6.324   7.113  0.0371 -0.4325  0.2818
10798SOL    HW135349   9.313   6.403   7.158  2.2987  2.1232 -2.3140
10798SOL    HW235350   9.263   6.283   7.080 -1.2125  0.6903  1.7974
10799SOL     OW35351   5.965  10.609   0.850 -0.2433  0.0326 -0.3863
10799SOL    HW135352   5.973  10.516   0.868 -0.7863  0.0507  0.0034
10799SOL    HW235353   5.982  10.618   0.757 -1.3064 -0.6146 -0.6578
10800SOL     OW35354   5.425   8.133   1.690  0.3187 -0.2499 -0.3756
10800SOL    HW135355   5.411   8.087   1.608 -1.7549  0.1280 -0.2927
10800SOL    HW235356   5.363   8.206   1.688  2.7654  2.0200 -0.0703
10801SOL     OW35357   0.103   5.674   2.274 -0.0116  0.3341 -0.5257
10801SOL    HW135358   0.184   5.725   2.263  0.2177  0.2672  0.7018
10801SOL    HW235359   0.039   5.738   2.307  0.1455 -0.0443  0.5557
10802SOL     OW35360   6.665   7.213   7.567 -0.3831  0.2939 -0.0538
10802SOL    HW135361   6.730   7.261   7.516 -0.1523 -0.3877 -0.4036
10802SOL    HW235362   6.679   7.242   7.657 -0.2650  0.9036 -0.2637
10803SOL     OW35363   7.525   3.122   7.812  0.4961  0.8161  0.5957
10803SOL    HW135364   7.437   3.112   7.775  1.4543 -1.8408 -1.2482
10803SOL    HW235365   7.519   3.083   7.899 -0.7519  3.2186  1.6717
10804SOL     OW35366   9.746   9.170   7.096 -0.4277  0.0673 -0.3747
10804SOL    HW135367   9.683   9.199   7.161 -1.4594  0.6221 -1.5847
10804SOL    HW235368   9.784   9.090   7.133  0.2520  1.2507  1.6456
10805SOL     OW35369   9.682  10.171   0.323 -0.4049 -0.2251  0.1713
10805SOL    HW135370   9.744  10.222   0.376 -0.2278  1.0223 -1.1621
10805SOL    HW235371   9.631  10.121   0.387  0.9432 -0.1051  1.3905
10806SOL     OW35372   1.532   3.234   5.242 -0.6099 -0.3450  0.9343
10806SOL    HW135373   1.525   3.284   5.161 -3.1470 -1.3430  0.4238
10806SOL    HW235374   1.544   3.143   5.214  0.9124 -0.4411  1.7759
10807SOL     OW35375   6.517   2.926   9.477  0.3588  0.0214  0.1146
10807SOL    HW135376   6.508   2.913   9.571  1.9605 -1.8576  0.0809
10807SOL    HW235377   6.478   2.847   9.439 -0.2675  0.7577 -0.8174
10808SOL     OW35378   9.455   9.917   9.019 -0.5022  0.1667  0.3423
10808SOL    HW135379   9.377   9.951   9.063 -0.4576  0.4236  0.2267
10808SOL    HW235380   9.523   9.982   9.038 -0.4584  0.2290 -0.0208
10809SOL     OW35381   6.284   6.166   1.207  0.2722  0.0944  0.1626
10809SOL    HW135382   6.200   6.133   1.237 -0.6281  1.3851 -0.8583
10809SOL    HW235383   6.342   6.156   1.282 -0.6252 -1.3485  0.6983
10810SOL     OW35384  10.694   3.971   3.699 -0.3264 -0.0998  0.4777
10810SOL    HW135385  10.715   3.914   3.626 -1.4353  2.0413 -1.6689
10810SOL    HW235386  10.602   3.992   3.688 -1.2522 -1.5488  3.9711
10811SOL     OW35387   2.459   5.883   9.369 -0.2088 -0.2847  0.1285
10811SOL    HW135388   2.539   5.831   9.359  0.7313  0.5321  2.6825
10811SOL    HW235389   2.405   5.832   9.430 -2.1082 -1.2242 -2.1539
10812SOL     OW35390   0.613   9.492  10.635 -0.5403 -0.4726  0.5226
10812SOL    HW135391   0.562   9.440  10.573  0.5911  0.6022 -1.4159
10812SOL    HW235392   0.618   9.579  10.595  0.6365  0.1455  1.9107
10813SOL     OW35393   0.084   2.402   3.594  0.4097 -0.3314  0.1438
10813SOL    HW135394   0.099   2.308   3.578 -1.6513 -0.5542 -0.7856
10813SOL    HW235395  -0.009   2.414   3.577  0.4348  1.7185  1.2489
10814SOL     OW35396   1.387   1.285   1.228  0.7338 -0.0376  0.0782
10814SOL    HW135397   1.473   1.309   1.263  1.2352  0.6868 -1.5401
10814SOL    HW235398   1.348   1.369   1.204  0.6792 -0.5209 -1.6236
10815SOL     OW35399   2.605   2.911   5.034  0.6200  0.0909  0.4188
10815SOL    HW135400   2.649   2.844   5.086 -1.2061 -2.5902 -1.2457
10815SOL    HW235401   2.652   2.911   4.950  1.5622  2.1136  0.8758
10816SOL     OW35402   4.055   9.833   9.678  1.0308 -0.3440  0.0981
10816SOL    HW135403   3.988   9.817   9.744 -4.0435  0.4112 -4.1342
10816SOL    HW235404   4.059   9.928   9.670  0.0685 -0.4018 -1.7481
10817SOL     OW35405   9.653   4.603   6.489  0.8269 -0.3697  0.2865
10817SOL    HW135406   9.574   4.549   6.491  1.4806 -1.6262 -2.2650
10817SOL    HW235407   9.666   4.631   6.579 -2.3074 -0.3912  0.8485
10818SOL     OW35408   2.725   4.684   2.295 -0.6521 -0.8640 -0.6457
10818SOL    HW135409   2.694   4.755   2.238  3.3405  2.2681  0.6033
10818SOL    HW235410   2.708   4.714   2.383  1.3111 -1.2748 -0.0689
10819SOL     OW35411   3.710   6.289   9.108  0.3017  0.1647 -0.0734
10819SOL    HW135412   3.663   6.275   9.026 -0.1408  0.7523  0.0723
10819SOL    HW235413   3.741   6.202   9.133 -4.0689 -1.1142  1.8706
10820SOL     OW35414   2.629   3.487   3.702 -0.3095  0.0794  0.9087
10820SOL    HW135415   2.629   3.392   3.687  0.2425  0.3567 -1.1131
10820SOL    HW235416   2.538   3.508   3.721 -1.1725 -0.4244 -2.1054
10821SOL     OW35417   3.236   7.327   4.885  0.6329  0.3187 -0.5194
10821SOL    HW135418   3.154   7.375   4.896  1.8045  2.7206 -1.3732
10821SOL    HW235419   3.278   7.332   4.971  0.3038 -0.1247 -0.3266
10822SOL     OW35420   4.567   3.807   4.837  0.1540 -0.1589 -0.2699
10822SOL    HW135421   4.587   3.737   4.899  0.2450  0.2853  0.2027
10822SOL    HW235422   4.486   3.779   4.794  1.1965 -1.4990 -1.4794
10823SOL     OW35423   8.366   0.069   2.124  0.0131 -0.4548 -0.6845
10823SOL    HW135424   8.274   0.088   2.141  0.3954  1.0267 -0.1503
10823SOL    HW235425   8.368  -0.025   2.109 -1.1773 -1.0396  2.1687
10824SOL     OW35426   0.448   4.487   3.320  0.2433  0.3089 -0.1858
10824SOL    HW135427   0.440   4.579   3.294 -1.5015 -0.0040 -0.9037
10824SOL    HW235428   0.532   4.459   3.282 -1.7299  0.0892 -5.2729
10825SOL     OW35429   7.207   8.436   2.548  0.5739  0.3673  0.2797
10825SOL    HW135430   7.293   8.431   2.591  2.5609  1.3905 -3.1574
10825SOL    HW235431   7.180   8.527   2.560  0.5058  0.3301  0.4111
10826SOL     OW35432   6.857   2.074   9.667 -0.0967 -0.0347  1.1633
10826SOL    HW135433   6.827   2.090   9.757  0.6106  1.1361  1.2244
10826SOL    HW235434   6.805   2.134   9.614 -0.6751 -0.8949  0.7582
10827SOL     OW35435   2.605   6.353   4.251  0.3666 -0.0548  0.4016
10827SOL    HW135436   2.537   6.291   4.280 -0.2870  0.3842 -0.1823
10827SOL    HW235437   2.669   6.352   4.323  0.1424 -1.0607  0.6132
10828SOL     OW35438   5.779   2.486   9.310  0.1957  0.6918 -0.5950
10828SOL    HW135439   5.808   2.502   9.400  0.8746  0.5882 -0.7912
10828SOL    HW235440   5.806   2.396   9.292  0.0543  0.7125 -0.9029
10829SOL     OW35441   4.907   6.332   4.057  0.0799  0.0905  0.1115
10829SOL    HW135442   4.980   6.336   4.118  0.6799 -2.7422 -0.3024
10829SOL    HW235443   4.938   6.276   3.986 -1.2182  1.8562 -1.9794
10830SOL     OW35444   4.906   6.406   9.111  0.4787  0.3918 -0.3066
10830SOL    HW135445   4.926   6.345   9.040 -0.7475  0.6414 -0.8938
10830SOL    HW235446   4.816   6.386   9.135 -0.3585  2.6522 -1.2588
10831SOL     OW35447   3.213   6.797   2.728 -0.1309 -0.1185  0.0970
10831SOL    HW135448   3.226   6.874   2.783  0.2251 -1.2972  1.7690
10831SOL    HW235449   3.213   6.830   2.639 -0.2601  1.8364  0.7719
10832SOL     OW35450   1.614   0.923   7.092  0.0312 -0.3990 -0.3908
10832SOL    HW135451   1.529   0.916   7.134 -0.0362 -0.0115 -0.4608
10832SOL    HW235452   1.612   0.859   7.021  0.2961 -1.3679  0.4360
10833SOL     OW35453   1.182   3.000   5.233 -0.1054  0.3258 -0.4040
10833SOL    HW135454   1.135   3.051   5.299 -1.3491 -0.1663 -0.8708
10833SOL    HW235455   1.252   2.956   5.281 -0.3697  0.7688  0.3953
10834SOL     OW35456   5.401   7.090   0.908  0.2046  0.4490 -0.4053
10834SOL    HW135457   5.444   7.037   0.840 -1.8328 -0.9467 -0.6893
10834SOL    HW235458   5.465   7.158   0.929  1.9569 -0.6761 -1.7977
10835SOL     OW35459   7.428   6.391   0.042 -0.0413 -0.3085 -0.2124
10835SOL    HW135460   7.436   6.343  -0.040 -0.9747  0.0611 -0.5400
10835SOL    HW235461   7.364   6.460   0.024 -1.2242 -0.9857  1.1548
10836SOL     OW35462   0.843   4.890   7.630 -0.2306 -0.2360 -0.2207
10836SOL    HW135463   0.759   4.908   7.671  0.0298  1.0249 -0.1767
10836SOL    HW235464   0.889   4.833   7.691 -1.0357 -0.9029 -0.2313
10837SOL     OW35465   1.582   4.736   7.645 -0.3924  0.3586 -0.8180
10837SOL    HW135466   1.601   4.820   7.688  0.7315 -0.6905  0.8558
10837SOL    HW235467   1.493   4.714   7.674 -0.6924  0.9439 -1.2629
10838SOL     OW35468   3.348   4.104   6.454 -0.1071 -0.2599 -0.5196
10838SOL    HW135469   3.339   4.045   6.379 -1.6654 -0.8985  0.1342
10838SOL    HW235470   3.441   4.101   6.476  0.9299  1.7579 -3.8412
10839SOL     OW35471  10.269   1.429   3.497  0.0448  0.0671 -0.5409
10839SOL    HW135472  10.327   1.367   3.542 -1.6669 -1.3616 -0.1789
10839SOL    HW235473  10.273   1.508   3.551 -0.0238 -0.7684  0.7426
10840SOL     OW35474   0.620   6.917   8.544  0.0781 -0.1276 -1.2580
10840SOL    HW135475   0.699   6.964   8.571 -0.0592 -0.7505  0.3354
10840SOL    HW235476   0.564   6.985   8.508  0.0892  0.8990  0.5290
10841SOL     OW35477   3.833   2.239   4.548 -0.3893 -0.0228  0.2754
10841SOL    HW135478   3.786   2.321   4.560 -0.1842  0.4444 -1.7885
10841SOL    HW235479   3.892   2.255   4.474  3.0864 -0.5840  2.6821
10842SOL     OW35480   3.259   6.863   3.862  0.2926  0.1201  0.1895
10842SOL    HW135481   3.192   6.902   3.805  0.0619  0.9489  0.9983
10842SOL    HW235482   3.214   6.850   3.945  1.2602  1.2066  0.9245
10843SOL     OW35483   2.761  10.323   8.507  0.0131 -0.1553  0.8861
10843SOL    HW135484   2.707  10.290   8.435 -1.7573 -0.5518  2.3093
10843SOL    HW235485   2.787  10.411   8.480  2.0414 -1.3907 -1.5559
10844SOL     OW35486   8.813   3.656   6.912  0.5827 -0.4977  0.3293
10844SOL    HW135487   8.724   3.636   6.884  0.6445 -0.6866  0.2628
10844SOL    HW235488   8.844   3.723   6.851  0.6127 -0.6940  0.1252
10845SOL     OW35489   5.207   1.148   0.737 -0.0065  0.4919 -0.0744
10845SOL    HW135490   5.196   1.236   0.701  1.1100 -0.5392 -3.3283
10845SOL    HW235491   5.302   1.138   0.746 -0.1029 -0.4393  0.0072
10846SOL     OW35492   1.026   9.605   4.386  0.3852  0.0964 -0.1090
10846SOL    HW135493   1.063   9.585   4.300  0.4397 -0.8370  0.1210
10846SOL    HW235494   1.018   9.520   4.429 -0.0945  0.5059  0.6296
10847SOL     OW35495   2.961   8.863   2.976 -0.5769 -0.2423  0.2723
10847SOL    HW135496   2.902   8.790   2.954 -1.6608  0.9051 -0.7790
10847SOL    HW235497   2.903   8.932   3.007  0.1681  0.9901 -0.9809
10848SOL     OW35498  10.288   7.588   0.962 -0.0858  0.0465  0.0811
10848SOL    HW135499  10.342   7.657   1.001 -0.2101  0.0053  0.3303
10848SOL    HW235500  10.345   7.511   0.962 -0.4474 -0.2409  1.2197
10849SOL     OW35501   0.932   8.171   0.588 -0.1099  0.4056  0.8432
10849SOL    HW135502   0.962   8.260   0.569 -0.6564  0.5088  0.4264
10849SOL    HW235503   0.930   8.129   0.502 -2.2317  0.7488  0.6686
10850SOL     OW35504   0.587   6.533   3.008 -0.0716  0.8380  0.0647
10850SOL    HW135505   0.643   6.603   3.041  0.5970  0.8023 -0.9533
10850SOL    HW235506   0.498   6.569   3.015  0.1000  1.1082  1.1611
10851SOL     OW35507  10.128   6.852  10.118 -0.3333 -0.3510 -0.4333
10851SOL    HW135508  10.135   6.892  10.205  1.2940 -0.2936 -0.5534
10851SOL    HW235509  10.054   6.896  10.077 -2.0919 -1.4049  1.4245
10852SOL     OW35510  10.241   7.669   1.309 -0.0923 -0.0378 -0.2383
10852SOL    HW135511  10.187   7.607   1.359 -0.3460  0.7000  0.4199
10852SOL    HW235512  10.301   7.613   1.259  0.1917 -0.8053  0.9170
10853SOL     OW35513   6.159   0.345  10.542  0.1090  0.9044  0.2229
10853SOL    HW135514   6.173   0.254  10.567 -0.8603  0.7366  0.1810
10853SOL    HW235515   6.069   0.364  10.568 -0.2661  1.3288 -1.2802
10854SOL     OW35516   6.440   7.352   4.206 -0.2698 -0.2342  0.0290
10854SOL    HW135517   6.439   7.344   4.111 -0.9114  0.1160  0.0010
10854SOL    HW235518   6.494   7.429   4.223  3.3637 -2.5673  0.1664
10855SOL     OW35519   1.340   7.408   0.905  0.1636 -0.0426  0.2735
10855SOL    HW135520   1.290   7.487   0.927  0.1678 -0.3624  1.4937
10855SOL    HW235521   1.428   7.425   0.938 -0.0997 -0.9565  1.5289
10856SOL     OW35522   7.419   0.158   1.249 -0.6323  0.1778 -0.2259
10856SOL    HW135523   7.417   0.243   1.293 -0.0827  0.1228 -0.0959
10856SOL    HW235524   7.511   0.133   1.248 -0.9916 -1.4161  1.6648
10857SOL     OW35525   8.410   3.551   2.255 -0.4238  0.1414  0.0886
10857SOL    HW135526   8.397   3.636   2.296  0.6035  0.7542 -0.8149
10857SOL    HW235527   8.347   3.549   2.182  0.4742  0.7015 -0.7182
10858SOL     OW35528   1.916   2.595   3.188  0.1720 -0.3519  0.0278
10858SOL    HW135529   1.827   2.608   3.157  0.1045 -0.5344  0.1469
10858SOL    HW235530   1.959   2.546   3.118  0.4581  0.5796 -0.4741
10859SOL     OW35531   3.677   3.327   6.149 -0.1282  0.4184 -0.5869
10859SOL    HW135532   3.751   3.331   6.088 -0.6751 -2.2017 -1.5127
10859SOL    HW235533   3.716   3.347   6.235  1.7702 -1.1738 -1.0001
10860SOL     OW35534   7.511   0.511   4.859 -0.1804 -0.1776 -0.0418
10860SOL    HW135535   7.590   0.492   4.808  0.2022 -0.7371  0.7467
10860SOL    HW235536   7.439   0.505   4.795  0.2821 -0.9298 -0.5050
10861SOL     OW35537  10.127   1.436   3.999 -0.6223  0.2099 -0.3174
10861SOL    HW135538  10.159   1.518   3.962 -0.8513  0.5779  0.2813
10861SOL    HW235539  10.172   1.367   3.949  0.9680  0.6992  0.3650
10862SOL     OW35540   7.592   5.250   3.938 -0.0032  0.2301  0.5561
10862SOL    HW135541   7.498   5.265   3.935  0.2001  1.5487  0.2489
10862SOL    HW235542   7.609   5.226   4.029 -0.5969  0.2707  0.6818
10863SOL     OW35543   7.053   4.277   0.204 -0.0712  0.5833 -0.1466
10863SOL    HW135544   7.133   4.325   0.228  0.7845 -1.0215  0.4391
10863SOL    HW235545   7.072   4.186   0.230 -1.1237 -0.3215 -2.2867
10864SOL     OW35546   5.798   9.991   1.996  0.3002  0.0054  1.0076
10864SOL    HW135547   5.731  10.058   2.012 -0.9965 -1.0772  0.3246
10864SOL    HW235548   5.773   9.952   1.912  1.5096 -0.7754  0.9938
10865SOL     OW35549   7.884   3.833   9.456  0.5299 -0.8103 -0.0377
10865SOL    HW135550   7.908   3.837   9.549 -1.5697  1.7606  0.5243
10865SOL    HW235551   7.908   3.918   9.421 -0.3465 -1.0956 -1.4091
10866SOL     OW35552   9.353   7.713   9.977  0.7238  0.3176  0.3509
10866SOL    HW135553   9.392   7.628   9.998 -0.3547 -0.0767  0.8898
10866SOL    HW235554   9.411   7.777  10.017  2.6545 -0.0101 -1.7499
10867SOL     OW35555   4.489   0.711   8.775  0.2767  0.5200  0.0614
10867SOL    HW135556   4.429   0.665   8.718 -1.2243  1.1417  1.0811
10867SOL    HW235557   4.541   0.642   8.817  1.7056  0.0785 -2.2946
10868SOL     OW35558   7.302   2.759   9.895 -0.0371 -0.0145  0.1879
10868SOL    HW135559   7.381   2.801   9.931  0.2281 -0.6698  0.3863
10868SOL    HW235560   7.336   2.694   9.833 -0.4724  0.7558 -0.8991
10869SOL     OW35561   4.330  10.533   8.669 -0.0635 -0.0650  0.0008
10869SOL    HW135562   4.366  10.607   8.718 -2.4723  0.3431  1.2752
10869SOL    HW235563   4.407  10.482   8.642  1.5739  2.1796  0.2013
10870SOL     OW35564   5.192   9.968   6.305 -0.5495 -0.5857 -0.0325
10870SOL    HW135565   5.184  10.009   6.219  1.5858  0.5747  0.2578
10870SOL    HW235566   5.128  10.013   6.359  0.9018  1.6412 -0.0316
10871SOL     OW35567   2.535   4.942   7.469 -0.2279 -0.7407 -0.2693
10871SOL    HW135568   2.451   4.935   7.424  0.6305  0.1033 -2.1281
10871SOL    HW235569   2.581   5.013   7.423  0.7657  0.1300  1.9400
10872SOL     OW35570   9.341  10.676   2.269 -0.3398  0.2743  0.4612
10872SOL    HW135571   9.277  10.616   2.306  1.3751 -1.8265  0.2347
10872SOL    HW235572   9.290  10.744   2.225 -2.4119 -2.1607 -1.1171
10873SOL     OW35573   9.880   4.435  10.510  0.5932 -0.0437 -0.1492
10873SOL    HW135574   9.860   4.480  10.593  2.5500 -1.8213  1.3972
10873SOL    HW235575   9.895   4.506  10.448 -0.3190  1.3679  1.1598
10874SOL     OW35576   7.679   1.415   7.035 -0.0081 -0.0372 -0.0222
10874SOL    HW135577   7.590   1.387   7.013 -0.5107 -0.4235  2.2533
10874SOL    HW235578   7.695   1.490   6.978 -1.7713  0.0039 -0.5243
10875SOL     OW35579   9.025   3.345  10.650 -0.2118 -0.5549  0.3735
10875SOL    HW135580   9.046   3.376  10.738 -0.0222 -0.4694  0.2969
10875SOL    HW235581   9.102   3.296  10.622 -0.5258 -1.1423  0.5125
10876SOL     OW35582   6.063   3.051   6.852  0.2985  0.1461  0.5462
10876SOL    HW135583   6.003   3.084   6.785 -0.3985 -0.0347  1.0743
10876SOL    HW235584   6.150   3.076   6.820 -0.0626  0.5487 -0.1501
10877SOL     OW35585   0.996   0.693   4.077  0.2598 -0.2952 -0.2334
10877SOL    HW135586   1.010   0.787   4.089  0.0052 -0.3738  0.7049
10877SOL    HW235587   1.076   0.652   4.112  0.1341 -0.4580 -0.1365
10878SOL     OW35588   5.115   4.573   9.985  0.0474 -0.1010  0.0081
10878SOL    HW135589   5.160   4.644   9.940  1.5620  0.0656  1.6852
10878SOL    HW235590   5.080   4.613  10.065 -0.7441 -0.8277  0.0422
10879SOL     OW35591   4.421   7.747  10.664 -0.2331  0.0495 -0.1323
10879SOL    HW135592   4.383   7.688  10.599 -1.0399  0.2869  0.1136
10879SOL    HW235593   4.465   7.689  10.727 -1.0640 -0.2946  0.1348
10880SOL     OW35594   1.988   2.787   6.393  0.3707  0.4845  0.7430
10880SOL    HW135595   2.073   2.774   6.350  0.6718  1.3105  1.0630
10880SOL    HW235596   1.970   2.704   6.436 -0.5343 -0.8606 -1.9596
10881SOL     OW35597   5.619   6.516   2.906  1.0006 -0.1214 -0.2566
10881SOL    HW135598   5.557   6.543   2.838 -1.4145 -0.2990  1.7200
10881SOL    HW235599   5.667   6.442   2.867  0.1992  0.2070 -1.9721
10882SOL     OW35600  10.677   7.364   7.803 -0.4757 -0.5653 -0.0905
10882SOL    HW135601  10.717   7.365   7.890 -1.4784  0.6142  0.3946
10882SOL    HW235602  10.687   7.454   7.771  0.2450 -1.0802 -1.3866
10883SOL     OW35603   0.071   6.686  10.360  0.4256  0.2973  0.5067
10883SOL    HW135604   0.077   6.719  10.271  0.7960  1.4311  0.9396
10883SOL    HW235605  -0.002   6.735  10.399  1.0221  0.6713  1.1776
10884SOL     OW35606   4.252   6.007   7.248 -0.1693  0.4442 -0.2356
10884SOL    HW135607   4.323   6.020   7.184 -0.4959 -0.7490 -0.8602
10884SOL    HW235608   4.232   6.095   7.279  1.6632  0.8037  0.0400
10885SOL     OW35609   6.255   6.920   1.264 -0.6794  0.3997  0.2347
10885SOL    HW135610   6.236   6.827   1.258 -0.2436  0.3049  0.2564
10885SOL    HW235611   6.351   6.925   1.265 -0.6623  0.9181 -1.0166
10886SOL     OW35612   0.140   5.567   5.854  0.0581  0.0368 -0.0931
10886SOL    HW135613   0.142   5.473   5.866 -0.3231  0.2787  2.3932
10886SOL    HW235614   0.231   5.595   5.869 -0.0187  0.1446  0.1865
10887SOL     OW35615   9.599   5.437   6.895 -0.1921  0.2019  0.2403
10887SOL    HW135616   9.595   5.353   6.848  0.9542 -0.4620  1.2612
10887SOL    HW235617   9.660   5.421   6.967  1.4211  2.4147 -0.5232
10888SOL     OW35618   3.009   6.930   3.639 -0.4088  0.5829 -0.1098
10888SOL    HW135619   2.949   6.866   3.676  1.5432 -0.6796  1.0863
10888SOL    HW235620   2.961   7.012   3.640 -1.9607 -0.2951  1.1482
10889SOL     OW35621   4.426   4.059   5.593 -0.5097  0.1957 -0.5267
10889SOL    HW135622   4.336   4.027   5.597 -0.0962 -1.0565 -0.9915
10889SOL    HW235623   4.438   4.108   5.675 -1.6602  0.5337 -0.5482
10890SOL     OW35624   4.973   9.804  10.197  0.3737  0.4964  0.1673
10890SOL    HW135625   4.943   9.833  10.284 -0.0591  0.5721 -0.0007
10890SOL    HW235626   5.010   9.883  10.158 -0.8677  0.8657 -0.3147
10891SOL     OW35627   7.824   3.093   2.002  0.1362 -0.1634 -0.9828
10891SOL    HW135628   7.761   3.058   2.066  0.3266  0.4377 -0.4499
10891SOL    HW235629   7.772   3.108   1.923 -0.0524 -1.1474 -1.0608
10892SOL     OW35630   3.372   4.388   8.216 -0.5942 -0.0555  0.1188
10892SOL    HW135631   3.427   4.448   8.267 -0.5697  0.6440 -0.6935
10892SOL    HW235632   3.283   4.403   8.248 -0.9364  2.1697 -1.6352
10893SOL     OW35633   0.556   9.666   2.652  0.5647 -0.3417 -0.3564
10893SOL    HW135634   0.568   9.599   2.584 -2.5881 -0.5795 -0.8175
10893SOL    HW235635   0.590   9.626   2.732  1.0900 -1.4622 -1.1119
10894SOL     OW35636   9.053   3.787   6.373 -0.0160  0.2111  0.5601
10894SOL    HW135637   9.058   3.783   6.278 -0.1115 -0.5164  0.5789
10894SOL    HW235638   9.015   3.873   6.392 -2.4454 -0.6128 -0.1678
10895SOL     OW35639   0.037   4.634   9.550  0.1952  0.3354  0.3925
10895SOL    HW135640  -0.020   4.647   9.626  0.6009  0.1519  0.7341
10895SOL    HW235641   0.126   4.640   9.586  0.4380 -2.2137  0.3956
10896SOL     OW35642   2.692   1.474   0.289  0.0920 -0.0744  0.1157
10896SOL    HW135643   2.756   1.466   0.217 -0.4700  1.0853 -0.5404
10896SOL    HW235644   2.607   1.461   0.247 -0.2771  1.1142  0.4693
10897SOL     OW35645   9.161   6.976   6.056  0.6112 -0.0629  0.6325
10897SOL    HW135646   9.179   7.020   6.139 -0.9470  1.7690  0.0551
10897SOL    HW235647   9.169   7.044   5.990 -0.5426 -0.9321 -0.4566
10898SOL     OW35648   2.366   5.606   5.204  0.3289 -0.0500  0.0195
10898SOL    HW135649   2.418   5.526   5.200  1.6927  0.8330 -2.5290
10898SOL    HW235650   2.286   5.586   5.157  0.0046 -0.3180  0.6727
10899SOL     OW35651   0.432   3.630   7.217 -0.2476 -0.0787  0.1562
10899SOL    HW135652   0.364   3.662   7.276 -0.4266 -1.0928  0.5307
10899SOL    HW235653   0.514   3.647   7.263 -0.3965 -1.0360  0.8132
10900SOL     OW35654   1.816   9.114   9.405 -0.0196  0.3932 -0.6096
10900SOL    HW135655   1.735   9.165   9.401 -0.9650 -0.9231  0.7893
10900SOL    HW235656   1.849   9.114   9.314 -2.4803 -0.4651 -1.5654
10901SOL     OW35657   4.070   4.579  10.444 -0.2832 -0.5673 -0.6762
10901SOL    HW135658   4.046   4.510  10.506  1.4364 -0.2175  0.4777
10901SOL    HW235659   4.126   4.535  10.380 -0.8917 -0.6503 -1.1496
10902SOL     OW35660   3.974   5.580   4.032 -0.4880  0.3411  0.5179
10902SOL    HW135661   4.038   5.611   3.967 -1.9943 -0.1704 -1.2809
10902SOL    HW235662   3.899   5.639   4.022 -0.9012  0.0042  1.5248
10903SOL     OW35663  10.671   0.415   5.466  0.4112 -0.4629  0.4432
10903SOL    HW135664  10.715   0.331   5.456 -1.9856 -1.6780 -0.6424
10903SOL    HW235665  10.705   0.470   5.396 -0.4358 -1.6917 -0.9694
10904SOL     OW35666   1.809   2.639   0.867  0.0549 -0.4467 -0.2177
10904SOL    HW135667   1.869   2.594   0.807 -0.2005 -2.5562  0.9989
10904SOL    HW235668   1.722   2.620   0.833 -0.0046  1.2390 -1.0647
10905SOL     OW35669   0.176   1.395   1.233  0.1614 -0.1242  0.1318
10905SOL    HW135670   0.215   1.463   1.178  1.7454 -0.4670  0.7757
10905SOL    HW235671   0.224   1.316   1.210 -1.9165 -1.1777 -0.8949
10906SOL     OW35672   3.105   8.152   4.596 -0.2013 -0.1945  0.4235
10906SOL    HW135673   3.190   8.168   4.636 -0.3925 -1.6294  1.5131
10906SOL    HW235674   3.042   8.189   4.658 -0.4114 -0.1856  0.2057
10907SOL     OW35675   6.385   7.460   6.980 -0.2556  0.2159  0.4615
10907SOL    HW135676   6.359   7.548   7.008 -0.9840  0.0912  0.1921
10907SOL    HW235677   6.348   7.402   7.047  1.1332  0.1724  1.2367
10908SOL     OW35678   2.115   6.008   3.753  0.1740 -0.3056  0.0811
10908SOL    HW135679   2.043   5.958   3.793  1.2411 -0.0453  2.4779
10908SOL    HW235680   2.187   6.000   3.815  0.2288  4.7930  1.1113
10909SOL     OW35681   6.362   5.300   7.821  0.4168  0.2285  0.0479
10909SOL    HW135682   6.429   5.242   7.859  0.3361  0.8965  1.2532
10909SOL    HW235683   6.280   5.252   7.831  0.6149 -0.3078 -0.8232
10910SOL     OW35684   5.147   4.543   2.229  0.6599 -0.4523 -0.1055
10910SOL    HW135685   5.052   4.538   2.231  0.6445 -1.5135 -1.7595
10910SOL    HW235686   5.176   4.452   2.238  1.5787 -0.0332  1.5925
10911SOL     OW35687   9.299   3.305   2.993 -0.0860  0.2441 -0.1993
10911SOL    HW135688   9.235   3.307   2.922  0.4581 -0.0949 -0.7128
10911SOL    HW235689   9.384   3.300   2.948  0.2462 -0.3681  0.4754
10912SOL     OW35690   7.869   6.445   9.897 -0.1287 -0.6811 -0.2668
10912SOL    HW135691   7.898   6.500   9.824 -0.0284  0.4869  0.6437
10912SOL    HW235692   7.779   6.471   9.913  0.3402  0.2019  1.0490
10913SOL     OW35693  10.511   4.597   0.675 -0.3583 -0.0138 -0.1186
10913SOL    HW135694  10.528   4.639   0.759 -1.6058 -1.2520  0.8057
10913SOL    HW235695  10.417   4.609   0.661 -0.1872  0.0973 -1.3167
10914SOL     OW35696   2.254  10.335   9.987 -0.0116  0.1015 -0.0358
10914SOL    HW135697   2.330  10.391   9.972 -0.2204 -0.0069 -1.7700
10914SOL    HW235698   2.279  10.250   9.950 -0.8642 -0.0035 -0.4115
10915SOL     OW35699   4.139   4.255   5.138 -0.2586 -0.3747 -0.0292
10915SOL    HW135700   4.215   4.309   5.117 -0.6806 -0.3506 -1.6682
10915SOL    HW235701   4.166   4.166   5.115 -1.0771 -0.2135 -1.8042
10916SOL     OW35702   8.389   9.092   8.126  0.5921  0.5248  0.0360
10916SOL    HW135703   8.321   9.026   8.138  1.6680 -0.6820 -0.2013
10916SOL    HW235704   8.453   9.073   8.195  1.6770  0.2925 -0.9873
10917SOL     OW35705   4.937   3.796   8.341  0.1504 -0.0309 -0.4862
10917SOL    HW135706   4.942   3.878   8.391 -0.6924 -0.6959  0.7537
10917SOL    HW235707   5.027   3.764   8.339 -0.1984 -2.4076  4.9669
10918SOL     OW35708   2.119   0.887   9.202 -0.1754 -0.7295 -0.2648
10918SOL    HW135709   2.064   0.920   9.274 -0.7084 -1.5148 -0.2945
10918SOL    HW235710   2.056   0.861   9.135  0.3760  1.7171 -1.8114
10919SOL     OW35711   1.393   4.568   9.788  0.6736  0.0055 -0.0120
10919SOL    HW135712   1.366   4.633   9.853 -0.4245  0.3044 -0.7533
10919SOL    HW235713   1.320   4.506   9.784  0.2461  0.5756 -1.7170
10920SOL     OW35714   8.940   4.839   6.628  0.5237  0.3041  0.5312
10920SOL    HW135715   8.889   4.764   6.657  0.4327 -0.7001 -1.9231
10920SOL    HW235716   9.017   4.840   6.685  0.7417 -1.9647  0.3920
10921SOL     OW35717   7.632   1.644   4.954  0.4299 -0.5700 -0.2635
10921SOL    HW135718   7.665   1.555   4.939 -0.8249 -1.2067  0.5416
10921SOL    HW235719   7.614   1.647   5.048 -0.4710  0.1902 -0.4418
10922SOL     OW35720   9.208   4.050   8.938  0.1684 -0.1381  0.8562
10922SOL    HW135721   9.115   4.065   8.957  0.2281  0.7233  0.4984
10922SOL    HW235722   9.236   3.989   9.006 -1.1485 -2.0859 -0.2261
10923SOL     OW35723   8.646   4.304   4.662  0.1409  0.1101  0.5495
10923SOL    HW135724   8.719   4.254   4.626  1.1766  1.5487  0.5534
10923SOL    HW235725   8.584   4.313   4.590  2.1228  2.8624 -1.0203
10924SOL     OW35726   4.043   1.561   8.538 -0.3721  0.4330 -0.0730
10924SOL    HW135727   4.072   1.598   8.455 -0.1387  0.1756 -0.1048
10924SOL    HW235728   4.101   1.487   8.553 -0.2631  0.6210  0.4388
10925SOL     OW35729   2.368   3.247   0.472  0.7341 -0.2609  0.4146
10925SOL    HW135730   2.326   3.166   0.500  0.8307 -0.3591  0.2750
10925SOL    HW235731   2.454   3.246   0.515  1.5483 -1.1998 -1.1585
10926SOL     OW35732   1.891   1.961   0.712 -0.4376  0.3284  0.1353
10926SOL    HW135733   1.916   2.035   0.656 -1.2258 -0.0542 -0.7570
10926SOL    HW235734   1.922   1.985   0.799  1.9758  0.3826 -0.6652
10927SOL     OW35735   0.093   5.358   0.699 -0.1082  0.2298  0.1329
10927SOL    HW135736   0.084   5.293   0.768  2.1236 -1.1737 -0.8073
10927SOL    HW235737   0.005   5.366   0.662 -0.5130 -2.1038  0.4324
10928SOL     OW35738   2.680   0.482   3.813 -0.2446 -0.7196 -0.0573
10928SOL    HW135739   2.641   0.418   3.873 -1.0237  1.0087  1.3742
10928SOL    HW235740   2.774   0.476   3.830 -0.0767 -2.9173 -1.4695
10929SOL     OW35741   2.466   5.156  10.502 -0.0819 -0.4561  0.2810
10929SOL    HW135742   2.373   5.139  10.490  0.0014 -0.3788 -0.5254
10929SOL    HW235743   2.507   5.070  10.498  0.1788 -0.3123 -2.3408
10930SOL     OW35744   3.792   3.323  10.000 -0.4258  0.5772  0.1451
10930SOL    HW135745   3.705   3.285  10.015 -0.6569  0.4953 -1.2765
10930SOL    HW235746   3.808   3.377  10.078 -1.0080 -0.7330  1.2026
10931SOL     OW35747   5.350   2.869  10.234  0.1592  1.0002  0.0685
10931SOL    HW135748   5.376   2.960  10.220  2.5217  0.7817  2.2268
10931SOL    HW235749   5.327   2.865  10.327 -3.1858  0.0288 -0.6744
10932SOL     OW35750   8.635   8.004   9.235 -0.0034  0.3814  0.4916
10932SOL    HW135751   8.553   7.998   9.284 -0.1149 -0.3131  0.2385
10932SOL    HW235752   8.703   8.009   9.301 -0.1186 -0.9928  0.7522
10933SOL     OW35753   0.813   1.900  10.529  0.5234 -0.2489 -0.2128
10933SOL    HW135754   0.835   1.808  10.510  0.4221 -0.1173 -1.0126
10933SOL    HW235755   0.897   1.944  10.532  0.8948 -0.9097  3.5063
10934SOL     OW35756   4.829   4.815   4.552 -0.1021  0.1298 -0.5812
10934SOL    HW135757   4.910   4.773   4.581  0.5843  0.8589 -1.3864
10934SOL    HW235758   4.772   4.742   4.525  0.1373 -0.4082  0.3288
10935SOL     OW35759   7.075   2.116   9.475 -0.0003 -0.3272 -0.4917
10935SOL    HW135760   7.004   2.109   9.538 -0.7376  2.1373 -0.9007
10935SOL    HW235761   7.137   2.048   9.499 -0.0326  0.7462  3.1870
10936SOL     OW35762  10.563   0.137   6.310  0.0517 -0.1556 -0.4275
10936SOL    HW135763  10.634   0.199   6.297 -0.8814  0.9222 -0.5531
10936SOL    HW235764  10.557   0.127   6.405 -1.1295  1.5977 -0.2764
10937SOL     OW35765   0.525   7.189   8.865  0.4321  0.1960  0.2170
10937SOL    HW135766   0.507   7.265   8.810 -0.7659  0.6047  1.1145
10937SOL    HW235767   0.619   7.175   8.857  0.5122  1.1481 -0.7542
10938SOL     OW35768   7.149   5.137   9.985  0.4650  0.0264  0.1194
10938SOL    HW135769   7.114   5.130  10.074 -2.4900  0.0011 -0.9301
10938SOL    HW235770   7.132   5.228   9.961  2.2863  0.3455 -0.0795
10939SOL     OW35771   6.784   8.018   8.711 -0.3634 -0.3938  0.5649
10939SOL    HW135772   6.835   8.019   8.630  1.1401 -1.6593  1.4287
10939SOL    HW235773   6.837   8.067   8.774 -0.6650 -0.8888  1.2283
10940SOL     OW35774   8.216   8.337   1.008 -0.3432  0.6051  0.8954
10940SOL    HW135775   8.121   8.336   1.018 -0.6470  0.6182 -1.3584
10940SOL    HW235776   8.246   8.254   1.044 -1.4364 -0.1779  0.0321
10941SOL     OW35777  10.682   4.455   1.302  0.4818  0.2401 -0.1265
10941SOL    HW135778  10.645   4.482   1.217  0.6373 -0.9440 -0.5806
10941SOL    HW235779  10.766   4.501   1.307  0.0714  1.0242 -0.1920
10942SOL     OW35780   2.615   8.060   2.657  0.0947  0.3635 -0.2206
10942SOL    HW135781   2.585   8.025   2.741  1.3792  0.0422  0.1230
10942SOL    HW235782   2.686   8.120   2.680  0.9369 -0.2664 -1.1208
10943SOL     OW35783   3.232   3.076   5.913  0.3581  0.4411  0.1610
10943SOL    HW135784   3.200   3.166   5.906 -0.2904  0.1059 -1.6540
10943SOL    HW235785   3.318   3.077   5.869  1.0687  0.4805  1.5017
10944SOL     OW35786   5.893   7.071   0.223 -0.1426 -0.1512 -0.0997
10944SOL    HW135787   5.934   7.128   0.288 -0.5032 -2.1301  1.9895
10944SOL    HW235788   5.839   7.011   0.274 -1.2472 -1.2034 -2.3296
10945SOL     OW35789   4.691   5.933   9.472  0.5509  0.0635 -0.2302
10945SOL    HW135790   4.703   5.988   9.394 -1.3353  0.0873 -0.5431
10945SOL    HW235791   4.619   5.875   9.449  0.4487 -0.4225  1.2524
10946SOL     OW35792   2.015   4.409   6.583  0.6184 -0.6196 -0.0882
10946SOL    HW135793   2.051   4.331   6.542  1.0326 -0.5847  0.1921
10946SOL    HW235794   2.090   4.469   6.590  0.6012 -0.6959  0.8717
10947SOL     OW35795   7.983   5.055   5.728  0.3277 -0.2076 -0.4773
10947SOL    HW135796   7.909   5.025   5.675  0.1530  0.0247 -0.3641
10947SOL    HW235797   7.953   5.048   5.818 -0.2739  1.7529 -0.4937
10948SOL     OW35798   5.881   3.318  10.018 -0.9026 -0.1896 -0.1198
10948SOL    HW135799   5.839   3.236   9.991 -2.1314  0.5685 -0.5681
10948SOL    HW235800   5.953   3.290  10.074 -1.8084 -1.5529  0.4114
10949SOL     OW35801   8.503   3.470   4.853 -0.1078 -0.4759  0.7094
10949SOL    HW135802   8.566   3.541   4.862 -0.8212  0.0133  2.2191
10949SOL    HW235803   8.544   3.408   4.793  0.3974  1.3453 -0.9023
10950SOL     OW35804   3.464   2.251   7.452  0.2995  0.6848  0.3234
10950SOL    HW135805   3.410   2.217   7.524 -0.3047  0.4721 -0.2125
10950SOL    HW235806   3.523   2.314   7.493 -0.2824  0.8340  0.9462
10951SOL     OW35807   6.784   9.476   2.846  0.3193  0.3021  0.1458
10951SOL    HW135808   6.711   9.482   2.908 -0.4828  0.0811 -0.7543
10951SOL    HW235809   6.766   9.544   2.781  0.0471 -0.8195 -0.9740
10952SOL     OW35810   3.810   1.541   0.941 -0.5265  0.0706  0.1695
10952SOL    HW135811   3.885   1.489   0.913 -1.4589 -0.7031 -0.9813
10952SOL    HW235812   3.742   1.522   0.877 -1.1979  2.0319  0.2294
10953SOL     OW35813   8.356   2.260   7.319 -0.1627  0.1284 -0.7415
10953SOL    HW135814   8.356   2.166   7.302 -0.7505 -0.3335  1.4991
10953SOL    HW235815   8.267   2.289   7.297 -0.4867 -0.1850  0.1127
10954SOL     OW35816   4.438   5.447   6.914  0.1586  0.2589  0.2713
10954SOL    HW135817   4.426   5.400   6.997 -0.0121 -0.4610 -0.1534
10954SOL    HW235818   4.378   5.521   6.920 -1.7346 -1.1730 -0.2256
10955SOL     OW35819   5.176   5.763   4.241 -0.5603 -0.0676  0.5655
10955SOL    HW135820   5.149   5.841   4.193 -1.2861  0.0314  1.1138
10955SOL    HW235821   5.262   5.742   4.206 -1.7805 -1.0808 -2.1233
10956SOL     OW35822   4.626   7.335   1.613  0.3694 -0.1953 -0.2841
10956SOL    HW135823   4.633   7.277   1.538 -0.5200 -0.5975 -0.0742
10956SOL    HW235824   4.571   7.407   1.583  0.4620 -0.0804 -0.1809
10957SOL     OW35825   4.246   8.912   8.689 -0.6839 -0.1257 -0.7973
10957SOL    HW135826   4.231   8.864   8.771 -0.1720 -0.6518 -1.0067
10957SOL    HW235827   4.335   8.946   8.696 -1.8657  3.1170  0.4888
10958SOL     OW35828   9.453   6.490   9.252 -0.4374 -0.0944 -0.5737
10958SOL    HW135829   9.419   6.431   9.320  2.5237  1.7090  2.7701
10958SOL    HW235830   9.545   6.468   9.244  0.3115  2.6735 -0.6904
10959SOL     OW35831   9.837   2.650   5.873  0.3784  0.2125 -0.7458
10959SOL    HW135832   9.920   2.695   5.890 -0.0045  1.4901 -2.0442
10959SOL    HW235833   9.778   2.720   5.844 -1.5616 -0.4198  1.3504
10960SOL     OW35834   5.156   0.952   5.840  0.3428  0.4933 -1.0380
10960SOL    HW135835   5.091   0.905   5.892 -0.2225 -0.2523 -2.3766
10960SOL    HW235836   5.109   1.026   5.802  1.1051  1.9140  0.6325
10961SOL     OW35837   1.695  10.677   8.694 -0.1463 -0.5057 -0.6913
10961SOL    HW135838   1.765  10.719   8.644 -0.6494  0.2687 -0.7699
10961SOL    HW235839   1.730  10.666   8.782 -0.6560  1.9288 -0.1175
10962SOL     OW35840  10.640  10.398   6.833  0.0450  0.3634 -0.4293
10962SOL    HW135841  10.693  10.319   6.843 -0.9174 -0.0952  1.6444
10962SOL    HW235842  10.565  10.370   6.781  0.0240  0.0579 -0.2396
10963SOL     OW35843  10.460   4.000   0.610  0.0235 -0.2729  0.2374
10963SOL    HW135844  10.478   4.047   0.529  0.6899 -0.0358  0.5165
10963SOL    HW235845  10.535   3.943   0.623 -0.8506 -1.5523 -0.1737
10964SOL     OW35846   6.221   7.753   9.200 -0.3485  0.1822  0.3309
10964SOL    HW135847   6.190   7.673   9.158  0.0626 -0.8920  1.9711
10964SOL    HW235848   6.168   7.822   9.161 -2.3700 -1.1642  0.4966
10965SOL     OW35849   9.777   6.624  10.082 -0.7722  0.3682  0.4976
10965SOL    HW135850   9.821   6.539  10.078  0.1097  0.7074  2.0950
10965SOL    HW235851   9.770   6.652   9.991  0.2520 -0.7532  0.0507
10966SOL     OW35852   7.554   2.021   5.142 -0.2007 -0.3814  0.3866
10966SOL    HW135853   7.481   1.969   5.108 -0.9686  0.7799  0.1924
10966SOL    HW235854   7.630   1.963   5.134 -0.7784 -1.0073 -1.0662
10967SOL     OW35855   5.318   0.780   3.089  0.6978  0.1970 -0.2763
10967SOL    HW135856   5.373   0.858   3.098 -1.1850  1.6089 -0.3021
10967SOL    HW235857   5.368   0.710   3.130  0.7924  2.2866  3.7244
10968SOL     OW35858   5.551   5.558   2.053 -0.1155  0.3555 -0.2447
10968SOL    HW135859   5.567   5.557   1.959 -0.5792  0.3148 -0.3229
10968SOL    HW235860   5.531   5.649   2.073  2.1910  0.8362  0.1985
10969SOL     OW35861   0.955  10.291   0.176  0.6921 -0.1975  0.9082
10969SOL    HW135862   1.045  10.288   0.144  0.6250 -0.9214  0.7679
10969SOL    HW235863   0.935  10.200   0.201  0.0531 -0.0189  1.0731
10970SOL     OW35864  10.003   0.496   8.954 -0.0277  0.2962 -0.0482
10970SOL    HW135865  10.051   0.501   8.871 -1.5523  0.2191 -0.9726
10970SOL    HW235866   9.948   0.419   8.946 -0.5563  0.5560  0.8507
10971SOL     OW35867   3.246   0.248   3.037 -0.4060  0.2904 -0.6090
10971SOL    HW135868   3.248   0.245   3.133 -0.7100  0.5763 -0.5928
10971SOL    HW235869   3.153   0.252   3.015 -0.4105 -1.2641 -0.9681
10972SOL     OW35870   2.169   0.095   8.814 -0.5499 -0.3472  0.3638
10972SOL    HW135871   2.171   0.053   8.728 -1.0400  0.2117  0.0757
10972SOL    HW235872   2.251   0.143   8.820 -0.4692 -0.4718  0.2489
10973SOL     OW35873   1.785   5.155   9.419 -0.5064 -0.2352 -0.2502
10973SOL    HW135874   1.845   5.190   9.354 -0.2215 -0.7641 -0.2793
10973SOL    HW235875   1.780   5.061   9.400  0.7114 -0.6764  1.3636
10974SOL     OW35876   2.397   4.088   7.208 -0.0558 -0.2621  0.6219
10974SOL    HW135877   2.414   4.037   7.128  1.4272  1.4321 -0.2281
10974SOL    HW235878   2.348   4.164   7.178 -1.1622 -0.5326  1.6706
10975SOL     OW35879   6.920   4.164   8.573 -0.3601  0.0597  0.1592
10975SOL    HW135880   6.854   4.095   8.570  0.0628 -0.3375 -0.3213
10975SOL    HW235881   6.895   4.218   8.648 -1.0967 -0.2090  0.1163
10976SOL     OW35882  10.222  10.261   0.436  0.2292  0.3608  0.1271
10976SOL    HW135883  10.194  10.274   0.526 -2.0644 -0.2761 -0.4249
10976SOL    HW235884  10.256  10.172   0.434 -0.8545 -0.0718  0.1462
10977SOL     OW35885   5.988   6.355   6.935  0.0085 -0.5114  0.2743
10977SOL    HW135886   5.987   6.277   6.990  0.8271 -1.4024 -0.9246
10977SOL    HW235887   6.071   6.350   6.887  0.5924  1.6384  0.8887
10978SOL     OW35888   5.334   9.671   9.884 -0.2201 -0.2959  0.8139
10978SOL    HW135889   5.338   9.576   9.896 -0.8538 -0.3063  0.9901
10978SOL    HW235890   5.299   9.682   9.795  0.1104 -0.2264  0.6920
10979SOL     OW35891   0.934   6.809   5.211 -0.0582 -0.4448 -0.5158
10979SOL    HW135892   0.877   6.733   5.209 -0.0784 -0.4273 -0.6151
10979SOL    HW235893   1.023   6.773   5.213 -0.0609 -0.5416  2.2333
10980SOL     OW35894   6.588   9.739   3.621  0.2438 -0.6577  0.2566
10980SOL    HW135895   6.494   9.739   3.600  0.6546 -1.0264 -1.7184
10980SOL    HW235896   6.604   9.826   3.658 -0.6335 -0.1000 -0.6142
10981SOL     OW35897   6.742  10.315   5.572  0.1680  0.2221  0.3747
10981SOL    HW135898   6.746  10.223   5.596 -2.3761  0.1973  1.0132
10981SOL    HW235899   6.716  10.315   5.480  2.9428  0.3669 -0.5055
10982SOL     OW35900   3.335   1.162   1.881 -0.0356 -0.0786  0.8665
10982SOL    HW135901   3.245   1.172   1.850 -0.2453  1.1752  1.7959
10982SOL    HW235902   3.335   1.077   1.925 -0.0536 -1.2922 -1.3314
10983SOL     OW35903   6.131   9.525  10.190 -0.4102  0.2829 -0.5813
10983SOL    HW135904   6.110   9.617  10.201  0.3709  0.7026 -2.3952
10983SOL    HW235905   6.091   9.482  10.266 -0.7647  2.0959  0.2953
10984SOL     OW35906   9.173  10.321   2.784  0.1870  0.7586  0.3657
10984SOL    HW135907   9.209  10.405   2.757  1.5102 -0.0884 -0.6428
10984SOL    HW235908   9.238  10.286   2.845  0.7683 -0.4535 -0.8814
10985SOL     OW35909   4.967   7.820   4.829 -0.5137 -0.0819 -0.5754
10985SOL    HW135910   4.922   7.905   4.825 -0.5308 -0.1338 -2.3138
10985SOL    HW235911   5.050   7.835   4.784  0.2780 -0.5663  0.6609
10986SOL     OW35912   5.055   4.540   1.442  0.2591 -0.0209  0.3471
10986SOL    HW135913   5.134   4.581   1.406 -0.1854  0.3403 -0.2358
10986SOL    HW235914   5.004   4.613   1.477  1.5980 -0.4945  3.6881
10987SOL     OW35915   9.824   6.716   0.138  0.0998 -0.4948 -0.8145
10987SOL    HW135916   9.731   6.706   0.158  0.3597 -2.5696 -0.4296
10987SOL    HW235917   9.829   6.794   0.083 -1.6941  0.3912  0.2221
10988SOL     OW35918  10.662   5.243   4.406  0.6144  0.3680 -0.1214
10988SOL    HW135919  10.650   5.148   4.415 -1.4559  0.3485 -2.2825
10988SOL    HW235920  10.729   5.264   4.472  0.0519 -2.3212  1.4853
10989SOL     OW35921  10.208   8.237   2.586  0.1059 -0.3305 -0.3674
10989SOL    HW135922  10.302   8.245   2.601  0.2093  1.2838 -1.6079
10989SOL    HW235923  10.168   8.262   2.669  0.7629  1.6038 -0.5921
10990SOL     OW35924   6.071   4.218   2.766  0.1449 -0.2553  0.7027
10990SOL    HW135925   6.098   4.225   2.674 -3.3186  0.2666 -0.4367
10990SOL    HW235926   6.074   4.308   2.799  1.1818 -0.4136  1.0796
10991SOL     OW35927   3.822   1.374   3.708  0.2396  0.0917  0.4736
10991SOL    HW135928   3.791   1.329   3.787 -0.1594 -1.5075 -0.5516
10991SOL    HW235929   3.745   1.384   3.653  0.6563  0.4724 -0.0541
10992SOL     OW35930   3.019   7.145   3.419  0.3966  0.3821 -0.4072
10992SOL    HW135931   2.976   7.063   3.445 -0.8397  1.2868  0.5293
10992SOL    HW235932   3.063   7.175   3.498  0.5330  0.8037 -0.6449
10993SOL     OW35933   1.407   1.327   2.772 -0.0402 -0.1005 -0.1532
10993SOL    HW135934   1.442   1.341   2.860  0.8361  0.3689 -0.5584
10993SOL    HW235935   1.355   1.247   2.779 -0.7383  0.4315  0.9950
10994SOL     OW35936   1.525   2.622   9.830  0.3386  0.0001 -0.1492
10994SOL    HW135937   1.599   2.627   9.770  0.3115  0.6474 -0.1369
10994SOL    HW235938   1.503   2.713   9.848 -0.2972 -0.1908  0.0529
10995SOL     OW35939   4.192   8.814   7.486 -0.3005 -0.4689  0.4892
10995SOL    HW135940   4.265   8.799   7.546 -0.6776  0.6807  1.2844
10995SOL    HW235941   4.230   8.803   7.399  0.8136  0.0102  0.8917
10996SOL     OW35942   8.607   4.438   9.867  0.0793 -0.7678  0.5228
10996SOL    HW135943   8.651   4.424   9.951  0.4648 -0.0001  0.4534
10996SOL    HW235944   8.527   4.385   9.874  0.4179 -1.2206  1.1170
10997SOL     OW35945   7.280   6.765   9.926 -0.0596  0.1264  0.2399
10997SOL    HW135946   7.336   6.838   9.951 -0.6291 -0.0598  2.2078
10997SOL    HW235947   7.248   6.789   9.839 -0.1612  2.1931  0.7859
10998SOL     OW35948   2.042   6.125   3.054  0.2235 -0.5263 -0.1759
10998SOL    HW135949   2.097   6.202   3.039 -0.7335  0.5241  1.4036
10998SOL    HW235950   1.961   6.144   3.007 -1.4490  1.2131  3.0996
10999SOL     OW35951   1.940   6.251   7.316 -0.4527 -0.0290 -0.3524
10999SOL    HW135952   1.879   6.240   7.243 -2.6972 -0.0039  1.3981
10999SOL    HW235953   1.919   6.337   7.352  1.9087  0.7898 -0.7263
11000SOL     OW35954   7.294   7.194   7.501  0.8243 -0.1743  0.2605
11000SOL    HW135955   7.384   7.225   7.499  1.0417 -0.8102  0.0296
11000SOL    HW235956   7.299   7.107   7.539  0.4671 -0.7116 -0.8715
11001SOL     OW35957   5.211  10.172   3.218 -0.3915 -0.0109  0.1447
11001SOL    HW135958   5.223  10.114   3.143  0.3112  1.5184 -0.9837
11001SOL    HW235959   5.224  10.116   3.294  1.0995 -1.1677 -0.9070
11002SOL     OW35960   3.432   0.078   6.755 -0.2454 -0.1492 -0.0096
11002SOL    HW135961   3.447   0.033   6.672  0.3066  2.6484 -1.5588
11002SOL    HW235962   3.340   0.106   6.750  0.2194  1.3877 -0.4552
11003SOL     OW35963   6.328   0.977   0.372 -0.5140  0.7848  0.1271
11003SOL    HW135964   6.316   0.959   0.279  0.0911  0.5491  0.0938
11003SOL    HW235965   6.403   0.924   0.398 -0.7737  0.7245  0.7884
11004SOL     OW35966   9.568  10.639   3.389  0.1472  0.1502 -0.4674
11004SOL    HW135967   9.497  10.660   3.330  0.0831 -1.5382 -1.0490
11004SOL    HW235968   9.611  10.723   3.406 -1.9751  1.2219 -0.0474
11005SOL     OW35969   7.719   2.539   6.638 -0.0444  0.4582  0.0968
11005SOL    HW135970   7.646   2.478   6.625  1.2155 -1.2810  0.8010
11005SOL    HW235971   7.684   2.624   6.609 -2.0697 -0.4456 -0.3375
11006SOL     OW35972   6.840   4.498   2.121 -0.1743 -0.0532 -0.2867
11006SOL    HW135973   6.809   4.440   2.052  0.0272  0.0951 -0.5003
11006SOL    HW235974   6.880   4.439   2.185 -3.3802 -0.6263  1.4321
11007SOL     OW35975   6.323   6.977   8.328  0.6791 -0.3548  0.0981
11007SOL    HW135976   6.356   7.058   8.366 -0.4604  0.2312 -0.1171
11007SOL    HW235977   6.387   6.955   8.261  1.7088 -0.3773  1.0713
11008SOL     OW35978   4.525   9.086   4.736 -0.0050 -0.0438  0.3108
11008SOL    HW135979   4.469   9.025   4.687  1.1046 -0.1169 -0.9257
11008SOL    HW235980   4.472   9.112   4.811 -0.9578 -1.6068  0.2254
11009SOL     OW35981   7.582   1.806  10.634  0.9714 -0.1188 -0.6207
11009SOL    HW135982   7.621   1.847  10.557 -1.6249 -0.9053 -2.5159
11009SOL    HW235983   7.564   1.879  10.694  0.1255  1.0217 -2.1899
11010SOL     OW35984   8.576   0.650   3.754  0.6599 -0.3595 -0.1876
11010SOL    HW135985   8.538   0.736   3.772  1.5393 -0.0349  0.1945
11010SOL    HW235986   8.510   0.604   3.702  0.3499  0.6899 -0.7306
11011SOL     OW35987   7.951   0.440   1.968  0.4455 -0.1193  0.0059
11011SOL    HW135988   8.043   0.436   1.996 -0.3046 -0.8887  2.6391
11011SOL    HW235989   7.902   0.400   2.040 -1.8363 -1.4087 -2.1172
11012SOL     OW35990   5.793   2.808   3.706  0.0308 -0.5376  0.6477
11012SOL    HW135991   5.715   2.791   3.759 -0.3978 -1.7588 -0.3288
11012SOL    HW235992   5.858   2.842   3.769 -1.3755  0.8759  1.4111
11013SOL     OW35993   3.313   2.004   9.862 -0.5802  0.2336  0.6069
11013SOL    HW135994   3.318   2.097   9.881 -1.7100  0.6356 -0.8787
11013SOL    HW235995   3.389   1.986   9.807 -1.3815  0.7018 -0.6697
11014SOL     OW35996   4.331   4.685   4.790 -0.1123 -0.6255  0.0099
11014SOL    HW135997   4.424   4.688   4.770  0.4758 -0.4181  2.4986
11014SOL    HW235998   4.324   4.713   4.881 -2.3384 -3.0932  0.7344
11015SOL     OW35999   6.173   0.368   1.311  0.1979 -0.6274  0.3583
11015SOL    HW136000   6.180   0.450   1.360 -1.5025 -0.0628 -0.2835
11015SOL    HW236001   6.214   0.388   1.226  0.0967 -0.5465  0.3283
11016SOL     OW36002   9.534   0.161   3.096 -0.4481 -0.5456 -0.1952
11016SOL    HW136003   9.455   0.194   3.138  0.3521 -0.1900  1.0933
11016SOL    HW236004   9.533   0.067   3.112 -1.3687 -0.7981 -1.5401
11017SOL     OW36005   0.256   6.568   1.279 -0.6132  0.0653  0.2331
11017SOL    HW136006   0.210   6.611   1.206  1.8871  0.0339 -1.4951
11017SOL    HW236007   0.343   6.608   1.279 -0.5235  0.0429  3.2721
11018SOL     OW36008   5.431   7.854   0.004  0.2864 -0.0407  0.2818
11018SOL    HW136009   5.374   7.876  -0.069  0.3700 -0.4378  0.0960
11018SOL    HW236010   5.500   7.921   0.002  0.0062  0.2529  0.3160
11019SOL     OW36011   2.820   8.487   1.364  0.7800  0.2924  0.2908
11019SOL    HW136012   2.911   8.492   1.333  0.5619  0.6485 -0.3196
11019SOL    HW236013   2.817   8.408   1.417  1.1552 -0.4220 -0.7159
11020SOL     OW36014   2.278   9.814   4.909  0.1609 -0.2760  0.7902
11020SOL    HW136015   2.206   9.759   4.877 -0.4951  0.8882  0.1804
11020SOL    HW236016   2.344   9.810   4.840 -0.7630  1.3052 -0.2487
11021SOL     OW36017   3.205   0.370   6.140 -0.5584  0.1840 -0.0503
11021SOL    HW136018   3.210   0.343   6.232 -0.3534  1.9456  0.4985
11021SOL    HW236019   3.268   0.313   6.095 -1.1003 -1.1163  0.7602
11022SOL     OW36020   8.977   1.051   4.545  0.7834 -0.3040  0.2358
11022SOL    HW136021   8.977   1.143   4.572 -1.1028 -0.7173  1.8845
11022SOL    HW236022   8.972   1.002   4.627 -0.0578 -1.8234 -0.6733
11023SOL     OW36023   3.981   5.610   0.820 -0.2893 -0.0754  0.1515
11023SOL    HW136024   3.935   5.615   0.904 -0.1350  3.1018  0.1656
11023SOL    HW236025   3.913   5.623   0.754 -0.4098 -2.5562 -0.3161
11024SOL     OW36026   1.406   9.903   0.299 -0.4954  0.3907 -0.0124
11024SOL    HW136027   1.350   9.895   0.376 -0.6593 -5.2233 -0.2554
11024SOL    HW236028   1.466   9.828   0.305 -0.2374 -0.1770 -5.0314
11025SOL     OW36029   0.702   2.791   0.817 -0.0437  0.1745  0.0905
11025SOL    HW136030   0.651   2.794   0.736  2.0125 -1.5895 -1.3927
11025SOL    HW236031   0.663   2.720   0.867 -0.2742  0.1563 -0.1129
11026SOL     OW36032   4.006   4.228   7.288 -0.4437 -0.3267  0.1618
11026SOL    HW136033   4.097   4.204   7.271  0.4053  0.7045  2.6778
11026SOL    HW236034   3.955   4.169   7.233  1.7178 -0.9529 -1.3157
11027SOL     OW36035   8.500   0.017   3.331  0.1371 -0.4254 -0.3827
11027SOL    HW136036   8.556   0.083   3.372  1.1242 -2.2792  1.4569
11027SOL    HW236037   8.426   0.067   3.297  1.5542  1.7922 -0.4570
11028SOL     OW36038   9.900   5.223  10.050  0.5413  0.5037  0.3690
11028SOL    HW136039   9.990   5.250  10.067  1.9431 -1.0150 -3.4232
11028SOL    HW236040   9.897   5.131  10.077  0.7939 -0.0099 -1.2575
11029SOL     OW36041   9.211   9.771   8.161 -0.1500 -0.1527 -0.2149
11029SOL    HW136042   9.116   9.762   8.175 -0.2593  0.4046 -0.5747
11029SOL    HW236043   9.233   9.700   8.100 -0.4991  0.2628 -0.8314
11030SOL     OW36044   2.691   7.534   4.002  0.8605 -0.3837 -0.5603
11030SOL    HW136045   2.767   7.556   4.055  0.1190 -0.7337  0.6925
11030SOL    HW236046   2.697   7.439   3.989  0.5004 -0.4559 -0.2223
11031SOL     OW36047   5.922   0.235   8.658  0.2711  0.2160  0.6229
11031SOL    HW136048   5.962   0.198   8.580  1.4911  0.7605  0.9604
11031SOL    HW236049   5.831   0.204   8.656  0.3068  0.1346 -0.9350
11032SOL     OW36050   8.436   7.989   5.058 -0.0544  0.0090 -0.7107
11032SOL    HW136051   8.435   7.894   5.048  1.9441 -0.3006  1.2529
11032SOL    HW236052   8.527   8.010   5.082 -0.8457  2.1742  0.7380
11033SOL     OW36053   3.419   8.814   8.791  0.0077 -0.4035  0.6072
11033SOL    HW136054   3.443   8.735   8.840  0.4870 -0.6033  0.0669
11033SOL    HW236055   3.419   8.786   8.699 -1.2294 -0.1256  0.5089
11034SOL     OW36056   8.929   6.739   5.161 -0.1642  0.3967 -0.0885
11034SOL    HW136057   8.945   6.735   5.067  0.3129 -0.0413  0.0088
11034SOL    HW236058   9.007   6.780   5.198  1.8415 -3.6228  0.6217
11035SOL     OW36059   5.705   0.373   6.175  0.3397  0.0531  0.6425
11035SOL    HW136060   5.783   0.417   6.207 -0.5051  1.1665  1.2697
11035SOL    HW236061   5.719   0.365   6.081  0.6941  1.3556  0.5643
11036SOL     OW36062   3.617   9.992   3.012 -0.1451 -0.1521  0.0249
11036SOL    HW136063   3.568  10.061   3.057 -0.3606 -0.8039  0.8215
11036SOL    HW236064   3.614   9.918   3.073  0.4254 -0.7301 -0.6417
11037SOL     OW36065   2.002   2.329   6.962 -0.5121 -0.2596  0.0751
11037SOL    HW136066   2.094   2.330   6.937 -0.4795 -0.3791  0.1910
11037SOL    HW236067   1.960   2.269   6.900 -0.5504 -0.0483 -0.1074
11038SOL     OW36068   5.032  10.106  10.320  0.2226  0.2128  0.4231
11038SOL    HW136069   5.120  10.087  10.289  0.3408 -0.6853  1.2682
11038SOL    HW236070   5.029  10.068  10.408 -1.0358  0.1727  0.3712
11039SOL     OW36071   4.502   7.347  10.323  0.1192 -0.5336  0.0118
11039SOL    HW136072   4.537   7.369  10.409  0.8870 -1.6193 -0.0104
11039SOL    HW236073   4.547   7.267  10.298  0.0735 -0.1224 -1.5074
11040SOL     OW36074   2.866   5.786   6.795 -0.0044 -0.1022  0.1644
11040SOL    HW136075   2.882   5.804   6.887  1.1620  1.1245 -0.2334
11040SOL    HW236076   2.838   5.695   6.792 -0.4229 -0.0397  1.7571
11041SOL     OW36077   7.348   9.218   9.878  0.5441 -0.1266 -0.3488
11041SOL    HW136078   7.351   9.139   9.825 -0.6282 -0.3694 -0.0868
11041SOL    HW236079   7.283   9.274   9.835  0.2799  0.0726  0.2864
11042SOL     OW36080   2.377   5.865   7.225  0.0158 -0.2499  0.6979
11042SOL    HW136081   2.446   5.876   7.159 -0.4637  0.4713  0.3022
11042SOL    HW236082   2.338   5.780   7.204  0.1101 -0.1958  0.2804
11043SOL     OW36083   2.283   8.988   0.339 -0.0603 -0.1362 -1.1005
11043SOL    HW136084   2.272   9.078   0.311 -2.0856  0.2090  0.5528
11043SOL    HW236085   2.197   8.962   0.371  0.6625 -2.3968 -0.7980
11044SOL     OW36086   0.373   5.941  10.168  0.2970  0.4230  0.0449
11044SOL    HW136087   0.321   5.938  10.088  1.3166 -0.3909 -0.6007
11044SOL    HW236088   0.312   5.971  10.235 -0.6135  0.9498 -0.9974
11045SOL     OW36089   2.348   9.712   8.455 -0.0498  0.4201 -0.1395
11045SOL    HW136090   2.386   9.637   8.502 -1.0392  0.4914  0.7963
11045SOL    HW236091   2.416   9.779   8.460 -0.1064  0.4000  1.1303
11046SOL     OW36092   9.214   6.394   8.169 -0.6447  0.6217  0.0343
11046SOL    HW136093   9.253   6.481   8.178  0.4167  0.3385 -1.4345
11046SOL    HW236094   9.286   6.333   8.184 -1.2960  0.0003  0.6762
11047SOL     OW36095   8.125   1.595   4.975 -0.3372 -0.0361 -0.1368
11047SOL    HW136096   8.168   1.680   4.963 -2.4233  1.3342  1.4367
11047SOL    HW236097   8.080   1.580   4.892 -0.0630  0.4464 -0.3840
11048SOL     OW36098   7.753   4.992   8.162 -0.3637  0.1650 -0.2000
11048SOL    HW136099   7.766   4.939   8.083 -0.3942 -0.0619 -0.0539
11048SOL    HW236100   7.659   4.988   8.178 -0.1831 -1.1345  0.7648
11049SOL     OW36101   7.660   2.219   8.110 -0.4715  0.2690 -0.7892
11049SOL    HW136102   7.645   2.124   8.111 -1.9571  0.4796  0.6556
11049SOL    HW236103   7.642   2.245   8.020  1.6099 -1.0115 -1.6648
11050SOL     OW36104   0.218   6.621   7.992 -0.5593  0.0923 -0.8977
11050SOL    HW136105   0.152   6.553   8.002  0.3520 -0.5553  1.4464
11050SOL    HW236106   0.261   6.625   8.078  2.2597  0.6482 -2.2167
11051SOL     OW36107   2.910   1.302   2.052  0.6796  0.3925 -0.4419
11051SOL    HW136108   2.848   1.269   2.116 -0.4150  0.1536 -1.5727
11051SOL    HW236109   2.861   1.302   1.969  1.9806  0.8417 -1.2468
11052SOL     OW36110   6.412   7.900   7.505 -0.0119 -0.0799 -0.1579
11052SOL    HW136111   6.374   7.851   7.432  0.6333 -2.6481  1.0947
11052SOL    HW236112   6.501   7.922   7.476  0.2313 -1.0669 -0.2026
11053SOL     OW36113   0.685   6.118  10.452 -0.2154  0.0323 -0.4596
11053SOL    HW136114   0.629   6.103  10.528 -0.5586  1.3560 -0.4260
11053SOL    HW236115   0.772   6.089  10.480  0.0844  2.2220  1.1478
11054SOL     OW36116   0.334   5.106   2.892 -0.0145  0.0709  0.4056
11054SOL    HW136117   0.313   5.185   2.942  1.2579  0.4607  0.3557
11054SOL    HW236118   0.249   5.063   2.879 -0.7287  1.3923  0.4810
11055SOL     OW36119   4.487   4.371   3.425 -0.0785  0.6143 -0.3321
11055SOL    HW136120   4.553   4.344   3.362  1.5280  3.4927 -0.0956
11055SOL    HW236121   4.499   4.312   3.499  0.5894 -0.4239 -1.2407
11056SOL     OW36122   2.369   9.640   9.087 -0.3521  0.1428  0.5080
11056SOL    HW136123   2.364   9.606   8.998 -1.3995  0.2165  0.5312
11056SOL    HW236124   2.453   9.687   9.090 -0.5689  0.6280 -0.6084
11057SOL     OW36125   5.734   3.384   5.715 -0.2998 -0.0236 -0.2151
11057SOL    HW136126   5.739   3.464   5.768  0.8090  0.4796 -1.0510
11057SOL    HW236127   5.652   3.392   5.667 -0.4426  0.3642  0.0879
11058SOL     OW36128   8.372   5.253   2.832 -0.4834  0.1781 -0.0485
11058SOL    HW136129   8.359   5.185   2.898 -1.6704  0.2637 -0.1626
11058SOL    HW236130   8.315   5.227   2.760  0.0101  0.6362 -0.6144
11059SOL     OW36131   7.614   4.313   2.615  0.8262 -0.0376 -0.1664
11059SOL    HW136132   7.569   4.269   2.544  1.2422 -1.1638  0.2488
11059SOL    HW236133   7.605   4.406   2.595 -1.6120 -0.2000 -0.1417
11060SOL     OW36134  10.201   8.941   0.306  0.3572  0.5153 -0.0475
11060SOL    HW136135  10.204   8.877   0.234 -0.5580 -1.6243  1.6798
11060SOL    HW236136  10.204   9.026   0.263  3.0465 -0.6280 -2.4294
11061SOL     OW36137   1.141   4.480   9.163  0.0568  0.4754 -0.2155
11061SOL    HW136138   1.067   4.494   9.221 -0.0713  1.0029 -0.4932
11061SOL    HW236139   1.191   4.410   9.204  0.5039  1.4919  1.0528
11062SOL     OW36140   0.338   7.244   1.571 -0.0862 -0.7141 -0.0038
11062SOL    HW136141   0.253   7.285   1.554  0.3986  1.3697  2.1381
11062SOL    HW236142   0.396   7.316   1.593  1.3558 -2.3649  1.9831
11063SOL     OW36143   2.744   7.495   9.790  0.0527  0.0768 -0.2871
11063SOL    HW136144   2.744   7.401   9.776 -2.5125  0.0214 -0.2781
11063SOL    HW236145   2.836   7.521   9.778  0.6137 -2.2185 -1.4421
11064SOL     OW36146   0.468   1.005   0.646 -0.3855 -0.7484 -0.1348
11064SOL    HW136147   0.493   0.938   0.583 -0.8628 -2.1089  1.0761
11064SOL    HW236148   0.488   0.967   0.731  0.8523  1.2992  0.5563
11065SOL     OW36149   0.705   1.884   3.964  0.7279  0.3929  0.4739
11065SOL    HW136150   0.682   1.968   3.925 -2.2950  0.4402  2.0831
11065SOL    HW236151   0.720   1.904   4.057 -0.1127 -0.8314  0.8925
11066SOL     OW36152   5.990   7.853   6.896 -0.0552  0.0876 -0.4961
11066SOL    HW136153   6.085   7.855   6.885 -0.1433 -1.9923 -2.1778
11066SOL    HW236154   5.967   7.944   6.917  2.3328  0.5210  0.6519
11067SOL     OW36155   2.801   6.940   4.535  0.0386  0.1605  0.0658
11067SOL    HW136156   2.770   7.025   4.564 -0.1966 -0.0668  0.4877
11067SOL    HW236157   2.742   6.877   4.576 -0.0203 -0.1934 -0.5365
11068SOL     OW36158   4.868   1.566  10.553 -0.2489  0.4690  0.5473
11068SOL    HW136159   4.798   1.500  10.561  0.5961 -0.3268  1.6230
11068SOL    HW236160   4.842   1.618  10.478 -3.2678  1.7034  2.2558
11069SOL     OW36161   6.286   3.824   2.561 -0.2628 -0.2908  0.0583
11069SOL    HW136162   6.294   3.881   2.638 -0.6060 -0.9242  0.5706
11069SOL    HW236163   6.206   3.775   2.575  1.4085 -2.9457  1.0461
11070SOL     OW36164   5.011   5.101   2.068 -0.0949  0.0836 -0.8595
11070SOL    HW136165   4.950   5.047   2.117 -1.3544  1.7301 -0.5332
11070SOL    HW236166   5.096   5.060   2.081 -0.4561  0.1000  2.2141
11071SOL     OW36167   4.083   9.369   6.160 -0.4307 -0.7158  0.4553
11071SOL    HW136168   4.077   9.429   6.085 -2.9555 -1.1072  0.2717
11071SOL    HW236169   4.047   9.287   6.128  2.8316 -2.4213  0.7554
11072SOL     OW36170   7.758   2.407   2.237  0.1706 -0.0361  0.0152
11072SOL    HW136171   7.741   2.424   2.329  2.6888 -0.2772  0.5897
11072SOL    HW236172   7.829   2.467   2.213  0.2994 -0.7235 -1.4695
11073SOL     OW36173   7.157   3.044   2.797 -0.3801 -0.1500  0.0089
11073SOL    HW136174   7.230   3.043   2.860 -0.0345  1.2355 -0.3442
11073SOL    HW236175   7.165   2.960   2.751 -0.6913 -1.2457  1.8257
11074SOL     OW36176   2.038   5.448   5.516  0.4258  0.0758  0.1755
11074SOL    HW136177   2.095   5.371   5.524 -0.8648 -0.8652  0.5724
11074SOL    HW236178   1.967   5.432   5.578 -0.4170  1.0872 -0.5054
11075SOL     OW36179   4.805   8.607   1.720 -0.1239 -0.0619 -0.8309
11075SOL    HW136180   4.791   8.513   1.708 -0.3243  0.0863 -1.8635
11075SOL    HW236181   4.727   8.648   1.681 -0.0769  0.5294 -0.3182
11076SOL     OW36182   7.514   8.019   7.174 -0.7000  0.1878  0.1797
11076SOL    HW136183   7.461   7.975   7.108  0.1897 -0.4772 -0.1061
11076SOL    HW236184   7.451   8.043   7.243 -1.0564 -2.6013  0.9304
11077SOL     OW36185   8.802   3.577   1.992  0.2284 -0.2826 -0.1534
11077SOL    HW136186   8.800   3.499   2.047  1.7739 -0.6556 -0.5655
11077SOL    HW236187   8.859   3.553   1.919 -0.0280  0.9304 -0.7801
11078SOL     OW36188   5.040   8.388   5.440 -0.0539 -0.6338  0.0046
11078SOL    HW136189   5.109   8.455   5.438 -1.9940  1.5636  1.0570
11078SOL    HW236190   4.978   8.416   5.371 -0.2769 -2.1344 -0.4338
11079SOL     OW36191   9.441  10.232   8.592 -0.2918 -0.5512  0.0754
11079SOL    HW136192   9.491  10.227   8.510 -0.3363  0.6421 -0.0344
11079SOL    HW236193   9.441  10.142   8.624  0.3793 -0.9064 -0.8470
11080SOL     OW36194   2.934   7.397   9.195  0.2682  0.5092  0.3145
11080SOL    HW136195   2.914   7.324   9.136  0.3881  0.8886 -0.2027
11080SOL    HW236196   2.885   7.470   9.159  1.5195  1.1195 -0.1859
11081SOL     OW36197   8.773   0.812   2.336 -0.2877  0.4358  0.0010
11081SOL    HW136198   8.814   0.816   2.249  1.8791 -0.2258  0.9284
11081SOL    HW236199   8.753   0.903   2.357  0.4723  0.7598 -0.6156
11082SOL     OW36200   7.073   6.344   9.166 -0.7500  0.3691  0.3002
11082SOL    HW136201   7.039   6.263   9.204  0.1769 -0.9198 -1.4416
11082SOL    HW236202   7.147   6.367   9.221 -0.2265 -0.7253  0.0888
11083SOL     OW36203   1.885   9.499   8.736  0.4523  0.1663  0.2336
11083SOL    HW136204   1.887   9.590   8.707  0.9610 -0.1825 -0.8909
11083SOL    HW236205   1.913   9.449   8.659 -1.2139 -1.0649  0.3847
11084SOL     OW36206   9.605   4.876   3.688  0.0822 -0.1462  0.5429
11084SOL    HW136207   9.614   4.809   3.620 -1.1593 -0.9694  1.1491
11084SOL    HW236208   9.694   4.909   3.701  0.9457 -2.3951  0.9052
11085SOL     OW36209   5.133   3.076   5.472 -0.0324 -0.2241 -0.2109
11085SOL    HW136210   5.114   3.137   5.543 -0.2719 -1.6273  0.9846
11085SOL    HW236211   5.069   3.006   5.482  2.2085 -2.3306  0.5615
11086SOL     OW36212   7.529   2.960   4.113 -0.3152 -0.0128 -0.1499
11086SOL    HW136213   7.515   2.956   4.018  0.2923 -0.7121 -0.2244
11086SOL    HW236214   7.607   2.905   4.127 -1.1926 -1.0219  0.9151
11087SOL     OW36215  10.548   5.399   1.431  0.0957 -0.7531 -0.2011
11087SOL    HW136216  10.484   5.350   1.484 -1.6239  1.2875 -0.2571
11087SOL    HW236217  10.619   5.419   1.492 -0.8940 -0.1999  0.8048
11088SOL     OW36218   7.244   4.840   4.433 -0.0974 -0.1100  0.4611
11088SOL    HW136219   7.209   4.824   4.520  0.4039 -2.6784  0.2872
11088SOL    HW236220   7.193   4.783   4.375  1.2430 -0.3856 -0.5072
11089SOL     OW36221   8.402   5.088   3.470 -0.5702 -0.4333  0.3117
11089SOL    HW136222   8.460   5.026   3.515  0.7957  0.9656  0.5525
11089SOL    HW236223   8.447   5.172   3.478 -1.1655  0.1826 -2.1286
11090SOL     OW36224   2.012   4.767   8.343 -0.7406  0.2272 -0.2107
11090SOL    HW136225   1.922   4.793   8.361 -0.8183  0.4258 -0.8594
11090SOL    HW236226   2.006   4.673   8.326 -0.7212  0.1108  0.3892
11091SOL     OW36227   6.364  10.000   7.521  0.2766  0.0318 -0.1127
11091SOL    HW136228   6.308  10.051   7.580 -1.4916 -0.9146 -0.8913
11091SOL    HW236229   6.371   9.914   7.562 -1.5345 -0.8579 -1.4924
11092SOL     OW36230   0.789   3.420   1.854  0.4229 -0.4634  0.1816
11092SOL    HW136231   0.816   3.512   1.861 -0.4537 -0.0141 -1.7461
11092SOL    HW236232   0.870   3.373   1.836  0.8584 -0.0840  1.0504
11093SOL     OW36233   7.358  10.478   1.804  0.0351  0.0645  0.0934
11093SOL    HW136234   7.299  10.417   1.849 -0.0762 -1.0233 -1.4466
11093SOL    HW236235   7.320  10.564   1.821 -1.4798 -0.5297 -0.0742
11094SOL     OW36236   7.848   3.111   7.455  0.1976 -0.1457 -0.3181
11094SOL    HW136237   7.780   3.108   7.521 -0.8541  2.8833 -1.0755
11094SOL    HW236238   7.927   3.139   7.502 -0.3141  1.0667 -0.1395
11095SOL     OW36239   9.292   2.250   1.955 -0.0705  0.0290  0.3682
11095SOL    HW136240   9.296   2.155   1.951 -2.4696 -0.3634  3.5352
11095SOL    HW236241   9.211   2.273   1.910 -0.1211  0.4343  0.6575
11096SOL     OW36242   9.549   5.284   3.333  0.1535  0.4356 -0.2195
11096SOL    HW136243   9.601   5.285   3.252 -1.7919  0.3515 -1.5437
11096SOL    HW236244   9.498   5.203   3.327 -0.3476  0.6619  0.8781
11097SOL     OW36245   3.352   4.969   0.970  0.1635  0.3238  0.1868
11097SOL    HW136246   3.330   4.985   0.878  1.9187  0.4464 -0.2541
11097SOL    HW236247   3.296   4.896   0.996  0.9009 -0.9333 -1.5598
11098SOL     OW36248   6.324   6.970   4.884 -0.2074 -0.5679  0.0217
11098SOL    HW136249   6.278   6.980   4.800 -1.1539 -1.5380  0.4044
11098SOL    HW236250   6.414   6.947   4.859 -0.6057 -1.3585 -0.7419
11099SOL     OW36251   8.253   8.445   8.664 -0.5539 -0.4374 -0.5668
11099SOL    HW136252   8.195   8.370   8.676 -3.0743  1.3069 -0.8554
11099SOL    HW236253   8.244   8.496   8.744 -0.4840  0.5391 -1.1597
11100SOL     OW36254  10.667   3.730   5.621  0.3673  0.0047  0.7331
11100SOL    HW136255  10.657   3.748   5.527 -0.0655  0.5903  0.8848
11100SOL    HW236256  10.591   3.676   5.643  0.7252 -0.5346  0.6468
11101SOL     OW36257   5.971   1.796   6.744  0.0840  0.2191 -0.0675
11101SOL    HW136258   5.960   1.739   6.820 -0.9831 -1.1073 -1.1683
11101SOL    HW236259   5.924   1.876   6.767 -0.4903 -0.2878  0.5501
11102SOL     OW36260   2.598   1.818   2.800  0.1898  0.4465 -0.4549
11102SOL    HW136261   2.521   1.860   2.838  1.1371  1.3491  0.5237
11102SOL    HW236262   2.574   1.726   2.795 -1.0078  0.7280 -0.3048
11103SOL     OW36263   2.085   6.985   2.273 -0.5081  0.1539  0.2053
11103SOL    HW136264   2.164   6.997   2.327  0.0267 -0.7567 -0.3381
11103SOL    HW236265   2.027   6.932   2.327 -0.6649  0.6412  0.5222
11104SOL     OW36266   1.570   0.606   8.048  0.4466  0.2667 -0.0311
11104SOL    HW136267   1.605   0.633   8.133 -0.1496  1.4669 -0.1459
11104SOL    HW236268   1.634   0.544   8.014  0.1294 -1.1608  1.7976
11105SOL     OW36269   5.316   0.627   1.994 -0.0102 -0.6966  0.3864
11105SOL    HW136270   5.227   0.641   2.025 -1.0554 -0.4355 -2.5070
11105SOL    HW236271   5.360   0.711   2.011 -0.5887 -0.4798  0.8597
11106SOL     OW36272   8.155   5.906   8.573  0.3123 -0.4493 -0.5688
11106SOL    HW136273   8.228   5.925   8.632 -0.5479 -1.9912  1.0382
11106SOL    HW236274   8.181   5.947   8.490  0.8473  3.1939  1.2052
11107SOL     OW36275   3.708   2.227   0.401  0.0751  0.4611 -0.1968
11107SOL    HW136276   3.681   2.185   0.320 -1.7005 -2.4489  1.6911
11107SOL    HW236277   3.647   2.300   0.412  0.7533  1.2882 -1.7232
11108SOL     OW36278   0.324   9.291   3.940  0.2022  0.3453 -0.6303
11108SOL    HW136279   0.279   9.375   3.932  0.4382  0.4393 -0.9868
11108SOL    HW236280   0.257   9.225   3.921 -0.2259  0.4068  0.5819
11109SOL     OW36281   7.871   1.361   1.907 -0.0279  0.1502 -0.0043
11109SOL    HW136282   7.825   1.314   1.838  1.0208  2.8928 -2.7863
11109SOL    HW236283   7.961   1.366   1.878  0.1326  2.8482  0.6339
11110SOL     OW36284   2.201   9.111   4.257  0.4410  0.7949 -0.1597
11110SOL    HW136285   2.187   9.193   4.303 -1.3626  1.2015 -1.3378
11110SOL    HW236286   2.189   9.043   4.323 -2.6445  1.3345 -0.0316
11111SOL     OW36287   4.621   2.611   7.156  0.1385 -0.3490  0.0639
11111SOL    HW136288   4.552   2.581   7.097  0.4077  0.4820 -0.6979
11111SOL    HW236289   4.604   2.565   7.238 -2.5793  1.3515  0.5661
11112SOL     OW36290   5.522   4.727   3.383  0.3050  0.0062  0.1087
11112SOL    HW136291   5.464   4.802   3.393 -0.1801 -0.5215  1.4563
11112SOL    HW236292   5.569   4.744   3.301 -0.6334  1.1930 -0.2190
11113SOL     OW36293   3.828   7.646   4.015  0.6774  0.7787  0.1716
11113SOL    HW136294   3.803   7.658   3.923  0.7097  0.9062  0.1792
11113SOL    HW236295   3.853   7.554   4.022 -2.2925 -0.1178  0.7341
11114SOL     OW36296   4.636   1.349  10.062  0.6126  0.6543  0.2286
11114SOL    HW136297   4.612   1.360  10.154  0.3022  0.8015  0.1340
11114SOL    HW236298   4.620   1.256  10.044  0.8027  0.5970  0.3595
11115SOL     OW36299   3.664   3.337   6.867 -0.2380  0.0371 -0.3168
11115SOL    HW136300   3.575   3.329   6.833 -0.2277 -0.5492 -0.2052
11115SOL    HW236301   3.652   3.376   6.954 -0.4235 -0.4519 -0.1188
11116SOL     OW36302   4.101   9.808   4.696 -0.1314 -0.4287  0.3011
11116SOL    HW136303   4.091   9.828   4.790 -0.2171  1.6235 -0.0857
11116SOL    HW236304   4.024   9.755   4.674  0.3220 -1.6638  1.5426
11117SOL     OW36305  10.210   7.125   0.689  0.3757 -0.0193  0.0320
11117SOL    HW136306  10.124   7.136   0.729 -0.2832  0.2670 -1.3929
11117SOL    HW236307  10.227   7.210   0.648  0.9587 -0.3528 -0.4196
11118SOL     OW36308   8.755   0.489   9.520 -0.0095  0.6280 -0.0889
11118SOL    HW136309   8.786   0.579   9.511  0.8140  0.2153 -1.9393
11118SOL    HW236310   8.791   0.444   9.443 -2.3379 -0.7271 -0.4585
11119SOL     OW36311   2.913   6.466   1.786  0.7828  0.1139  0.0572
11119SOL    HW136312   2.925   6.481   1.880 -0.6175 -0.9104  0.4317
11119SOL    HW236313   2.988   6.411   1.760 -0.6410 -2.6220  1.3920
11120SOL     OW36314   2.854   4.626   1.530  0.7245 -0.5109 -0.2566
11120SOL    HW136315   2.849   4.712   1.571 -0.5897 -0.7234  0.0716
11120SOL    HW236316   2.923   4.580   1.578  0.0893 -0.3151  0.8697
11121SOL     OW36317   4.953   7.586   9.453  0.4020  0.0404  0.0790
11121SOL    HW136318   4.951   7.675   9.419 -0.0197  0.4570  1.1492
11121SOL    HW236319   4.876   7.580   9.509  0.2509 -1.1033 -0.2126
11122SOL     OW36320   3.177   6.268   8.583 -0.4422 -0.3134 -0.0402
11122SOL    HW136321   3.184   6.337   8.649  0.6574 -0.8618  0.4394
11122SOL    HW236322   3.106   6.212   8.615  0.9056 -1.2831  1.3926
11123SOL     OW36323   8.095   6.917   5.737  0.0612  0.0604  0.7263
11123SOL    HW136324   8.084   6.957   5.823  0.4496  0.7700  0.4474
11123SOL    HW236325   8.023   6.952   5.684  1.3258  1.7103  0.0117
11124SOL     OW36326   0.922   8.755   0.107  0.1215  0.1302 -0.0869
11124SOL    HW136327   0.847   8.763   0.049 -0.9874 -1.6478  1.0022
11124SOL    HW236328   0.923   8.663   0.132  3.8190 -0.3955 -1.5072
11125SOL     OW36329   9.083   6.497   0.751 -0.1534 -0.1460 -0.3942
11125SOL    HW136330   9.168   6.468   0.785  0.0348  0.8739  0.0445
11125SOL    HW236331   9.095   6.497   0.656 -0.3841 -2.1168 -0.4560
11126SOL     OW36332   7.956   2.887  10.540 -0.2519  0.4652 -0.2359
11126SOL    HW136333   7.920   2.810  10.583  0.7165  0.5465  0.7370
11126SOL    HW236334   7.984   2.856  10.454 -4.5802  0.8027 -2.0600
11127SOL     OW36335   3.963   8.850  10.028  0.0693 -0.3621  0.1983
11127SOL    HW136336   4.017   8.784   9.984 -0.4685 -1.0840  0.6193
11127SOL    HW236337   3.988   8.932   9.985 -0.1404 -0.9935 -1.1863
11128SOL     OW36338   7.882   7.285   0.255  0.6891 -0.3438 -0.4640
11128SOL    HW136339   7.949   7.323   0.312 -0.1570 -1.2836  1.2226
11128SOL    HW236340   7.803   7.286   0.308 -0.2083 -0.9990 -1.7521
11129SOL     OW36341   2.027   4.867   4.638  0.4699  0.4720 -0.3055
11129SOL    HW136342   2.100   4.833   4.689  1.3036 -0.9074 -2.2648
11129SOL    HW236343   2.044   4.837   4.549 -3.0148 -0.8103 -0.7015
11130SOL     OW36344   5.510   8.832   3.997  0.2944 -0.0448  0.1988
11130SOL    HW136345   5.425   8.870   4.019  0.3273  0.0252  0.2023
11130SOL    HW236346   5.488   8.757   3.941  0.2559  0.2225 -0.1414
11131SOL     OW36347   7.228   4.728   5.502 -0.0414  0.2899  0.7331
11131SOL    HW136348   7.172   4.792   5.546 -0.4250  0.0681  0.5676
11131SOL    HW236349   7.172   4.689   5.435  0.1266 -0.3745  0.9758
11132SOL     OW36350   7.696   9.679   6.482  0.2207  0.4801 -0.1915
11132SOL    HW136351   7.610   9.719   6.468 -0.2240  0.1885  1.4805
11132SOL    HW236352   7.733   9.670   6.394 -1.4027  0.7233 -0.9389
11133SOL     OW36353   2.146   4.705   1.873 -0.0763  0.4306  0.2694
11133SOL    HW136354   2.055   4.680   1.858  0.0385 -0.8866  1.5217
11133SOL    HW236355   2.141   4.788   1.921 -0.6078  0.4442  0.1933
11134SOL     OW36356   6.793   3.365   8.521 -0.7911 -0.7107 -0.2012
11134SOL    HW136357   6.860   3.395   8.582  2.2531 -2.1379 -2.5805
11134SOL    HW236358   6.798   3.269   8.525 -0.6960 -0.8370 -2.4037
11135SOL     OW36359   5.648   4.872   7.112  0.1185  0.1933 -0.4158
11135SOL    HW136360   5.590   4.892   7.186  0.0634 -1.4874  0.0395
11135SOL    HW236361   5.736   4.873   7.149  0.3409  1.9535 -0.9327
11136SOL     OW36362   3.850   9.689   8.084 -0.2496 -0.0633 -0.7995
11136SOL    HW136363   3.792   9.753   8.126 -1.5070 -0.4284 -1.9110
11136SOL    HW236364   3.790   9.631   8.037  1.0725  0.5176 -3.3673
11137SOL     OW36365  10.184   0.453  10.410 -0.1942 -0.4010  0.4318
11137SOL    HW136366  10.162   0.497  10.492 -1.0203 -1.2668  0.6918
11137SOL    HW236367  10.149   0.364  10.420 -0.2686 -0.5342 -0.8357
11138SOL     OW36368   7.698   0.464   3.379  0.3339 -0.5098  0.1634
11138SOL    HW136369   7.724   0.484   3.289  3.9213  0.4606  1.2501
11138SOL    HW236370   7.775   0.421   3.417 -0.6317  0.1099  3.0564
11139SOL     OW36371   3.149   3.503   2.516 -0.2045  0.4412  0.1006
11139SOL    HW136372   3.206   3.576   2.541  0.3809  0.3718 -0.9762
11139SOL    HW236373   3.158   3.497   2.421 -1.7735  0.2267 -0.0686
11140SOL     OW36374   0.308   2.174   5.576  0.5135 -0.0535  0.0265
11140SOL    HW136375   0.335   2.111   5.643  1.8685 -0.5279 -0.9189
11140SOL    HW236376   0.384   2.183   5.519 -0.9691 -0.6825 -2.2106
11141SOL     OW36377   2.845   0.958   6.767  0.5471 -0.0288 -0.0674
11141SOL    HW136378   2.938   0.979   6.761  0.0926  2.3121  0.3533
11141SOL    HW236379   2.826   0.959   6.861  0.7282 -3.9569  0.1839
11142SOL     OW36380   3.150   9.988   9.633  0.2001 -0.3642  0.2022
11142SOL    HW136381   3.235   9.977   9.675 -0.1606  0.3710  1.1552
11142SOL    HW236382   3.087   9.955   9.697 -0.2905 -0.1927 -0.1848
11143SOL     OW36383   9.513   1.525   2.418  0.0819 -0.3108  0.5914
11143SOL    HW136384   9.499   1.597   2.480  0.4919  0.3491 -0.0770
11143SOL    HW236385   9.511   1.566   2.332 -1.2453 -1.3260  0.0987
11144SOL     OW36386   9.893   1.457   1.805 -0.2568 -0.2987 -0.4159
11144SOL    HW136387   9.943   1.463   1.887  1.3101  0.7843 -1.4052
11144SOL    HW236388   9.876   1.364   1.794 -1.1966 -0.4090  1.5227
11145SOL     OW36389   1.929   3.233   2.383 -0.3645  0.2591 -0.2846
11145SOL    HW136390   2.016   3.241   2.423 -0.2163 -0.7972 -0.3668
11145SOL    HW236391   1.868   3.246   2.456 -0.0988 -1.2477  0.2545
11146SOL     OW36392  10.133   8.731   5.413  0.4077 -0.5432  0.2242
11146SOL    HW136393  10.199   8.755   5.479  2.0261  0.4506 -1.6449
11146SOL    HW236394  10.161   8.777   5.334 -2.1694 -0.6779 -0.8597
11147SOL     OW36395   5.964   3.956   0.491  0.6181  0.4715 -0.1734
11147SOL    HW136396   5.971   3.865   0.522  0.2914  0.3681 -0.3959
11147SOL    HW236397   6.011   4.007   0.556 -1.9505  0.5451  1.7554
11148SOL     OW36398   5.035   0.217   9.649 -0.3608  0.3441 -0.4157
11148SOL    HW136399   5.046   0.312   9.647 -0.4337  0.3639 -2.8884
11148SOL    HW236400   5.123   0.183   9.663 -0.4074  0.7584  0.9948
11149SOL     OW36401   2.449   0.310   2.980  0.8110  0.0207  0.0884
11149SOL    HW136402   2.389   0.320   2.906  1.1907  0.5285 -0.1594
11149SOL    HW236403   2.392   0.305   3.056  0.3270 -2.0808 -0.3572
11150SOL     OW36404   2.640   8.916   4.668  0.5154  0.1086  0.5046
11150SOL    HW136405   2.566   8.863   4.639  0.7695 -0.1591  0.3403
11150SOL    HW236406   2.604   9.003   4.679 -0.0862 -0.2465  1.5110
11151SOL     OW36407   2.606   0.536  10.568 -0.1706 -0.0241 -0.5394
11151SOL    HW136408   2.510   0.534  10.569 -0.1643 -0.2493  0.2333
11151SOL    HW236409   2.628   0.600  10.500 -0.9439  2.5838  1.4542
11152SOL     OW36410  10.595   0.004   3.172  0.0532  0.5748  0.0620
11152SOL    HW136411  10.582  -0.088   3.150 -1.4995  0.7455  0.1008
11152SOL    HW236412  10.668   0.032   3.118  0.5814 -0.6930  0.0930
11153SOL     OW36413   1.533   0.155   4.669 -0.4741  0.3165  0.0385
11153SOL    HW136414   1.445   0.136   4.703  1.0385 -1.7759  3.3069
11153SOL    HW236415   1.547   0.247   4.692 -2.2535  1.1690 -1.9229
11154SOL     OW36416   2.055   4.688   3.287  0.1025  0.0027 -0.4970
11154SOL    HW136417   1.969   4.707   3.325 -0.2731 -0.4515 -1.0902
11154SOL    HW236418   2.036   4.673   3.194  0.9670  0.9185 -0.8314
11155SOL     OW36419   0.399   0.065   8.790 -0.1078 -0.3417 -0.2361
11155SOL    HW136420   0.399   0.158   8.767 -0.4634  0.4100  2.4826
11155SOL    HW236421   0.309   0.037   8.775 -0.9226  0.7308  2.1840
11156SOL     OW36422   6.891   1.327   3.498 -0.4898  0.0620  0.1823
11156SOL    HW136423   6.825   1.341   3.430 -0.7837 -0.6986  0.3113
11156SOL    HW236424   6.946   1.257   3.464 -0.0647  0.3228  0.3196
11157SOL     OW36425   8.288   2.430   3.437 -0.0479  0.2051  0.2658
11157SOL    HW136426   8.241   2.400   3.359  0.1449 -1.5380  0.7809
11157SOL    HW236427   8.358   2.486   3.402 -0.0728 -0.4026 -0.8058
11158SOL     OW36428  10.366   2.120   3.255  0.0624 -0.2333  0.4885
11158SOL    HW136429  10.352   2.158   3.342 -0.1586 -1.4207  1.0002
11158SOL    HW236430  10.285   2.072   3.237  1.3133 -2.7835  1.1308
11159SOL     OW36431   7.434   0.514   9.067 -1.0463  0.2529  0.2937
11159SOL    HW136432   7.482   0.594   9.044  2.2659 -1.3102  1.1116
11159SOL    HW236433   7.440   0.459   8.989 -0.2138 -0.4865  0.8527
11160SOL     OW36434   2.220   1.291   5.843 -0.2977 -0.0930  0.5323
11160SOL    HW136435   2.163   1.341   5.785 -0.1735  0.3222  0.7600
11160SOL    HW236436   2.252   1.219   5.790  0.8560  1.0151 -0.3072
11161SOL     OW36437   7.787   4.114   9.839 -0.1069 -0.0166  0.4424
11161SOL    HW136438   7.750   4.202   9.840 -1.9078 -0.7352  1.0782
11161SOL    HW236439   7.882   4.128   9.841 -0.3537  1.8958  0.5578
11162SOL     OW36440  10.685   6.538  10.021 -0.6413  0.6127  0.5833
11162SOL    HW136441  10.653   6.464  10.072  0.3716 -0.8923 -0.8326
11162SOL    HW236442  10.701   6.501   9.934  1.4014  2.1200  0.2469
11163SOL     OW36443   0.262   7.415   7.089  0.0118 -0.1402 -0.0044
11163SOL    HW136444   0.311   7.338   7.060 -2.0644 -1.5184 -0.1529
11163SOL    HW236445   0.277   7.480   7.021  1.7039 -0.4530  0.0459
11164SOL     OW36446   2.935   5.228   7.277  0.1298 -0.2116  0.6466
11164SOL    HW136447   2.913   5.218   7.184 -1.2721  0.5828  0.8744
11164SOL    HW236448   3.019   5.275   7.276  2.0441 -3.3173 -0.2281
11165SOL     OW36449   3.056   9.311   1.155  0.1451  0.2281  0.0933
11165SOL    HW136450   3.074   9.306   1.248 -1.4356  0.6540  0.4480
11165SOL    HW236451   2.986   9.247   1.140  1.9769 -1.6080 -1.2699
11166SOL     OW36452   9.770   7.494   9.917  0.4475  0.0141 -0.2523
11166SOL    HW136453   9.823   7.526   9.990  0.0619 -1.4425  0.7041
11166SOL    HW236454   9.801   7.405   9.903  1.5937  0.7367 -2.9353
11167SOL     OW36455   4.002   8.294   0.875  0.1187  0.2670 -0.2471
11167SOL    HW136456   4.029   8.214   0.921  0.7837  0.0217 -1.0410
11167SOL    HW236457   3.928   8.327   0.926 -0.2731 -0.9484  0.0174
11168SOL     OW36458   0.576   1.534   9.686  0.6635  0.2496 -0.2415
11168SOL    HW136459   0.493   1.563   9.724  0.5006  0.1535 -0.5228
11168SOL    HW236460   0.555   1.451   9.642  0.9316  0.1676 -0.2163
11169SOL     OW36461   1.597   7.778   5.303  0.4989 -0.3886 -0.5578
11169SOL    HW136462   1.653   7.830   5.360  0.0198 -0.9306  0.4198
11169SOL    HW236463   1.525   7.837   5.281  1.5501  0.4236 -2.0798
11170SOL     OW36464   2.034   0.196   5.935 -1.2510  0.2001 -0.4495
11170SOL    HW136465   2.092   0.213   6.009 -0.6145 -0.7402 -0.7151
11170SOL    HW236466   2.064   0.256   5.866  1.8492 -2.5812 -1.8476
11171SOL     OW36467   5.728   0.070   3.927  0.4125 -0.5530  0.3390
11171SOL    HW136468   5.719  -0.026   3.922  1.2902 -0.6609  0.6368
11171SOL    HW236469   5.823   0.085   3.926  0.2659  0.4389 -1.5743
11172SOL     OW36470   2.460   1.057   0.465 -0.6241 -0.2557 -0.3121
11172SOL    HW136471   2.534   1.087   0.519 -1.7928  0.4866  0.9496
11172SOL    HW236472   2.384   1.099   0.504 -1.9544 -2.3637 -0.4844
11173SOL     OW36473   5.032   3.888   0.033 -0.1973  0.0063 -0.2970
11173SOL    HW136474   5.076   3.872  -0.050  0.7672 -0.4101  0.2721
11173SOL    HW236475   4.984   3.808   0.052 -0.0288 -0.0760 -0.2200
11174SOL     OW36476  10.247   5.073   9.971  0.2124  0.1012  0.2209
11174SOL    HW136477  10.206   4.994  10.009  1.2021 -0.6812 -0.2960
11174SOL    HW236478  10.220   5.072   9.880  2.4003 -1.1985 -0.4991
11175SOL     OW36479   9.199   9.559   6.350  0.1268  0.1920 -0.3586
11175SOL    HW136480   9.224   9.468   6.340  0.8575  0.4084 -0.5983
11175SOL    HW236481   9.213   9.598   6.264  2.4353  1.1252  0.3595
11176SOL     OW36482   4.083   9.819   2.382 -0.1422  0.5409 -0.4175
11176SOL    HW136483   4.066   9.814   2.476  0.0753  1.0208 -0.3466
11176SOL    HW236484   4.100   9.912   2.366  0.9435  0.3063 -0.7304
11177SOL     OW36485   1.676  10.608   6.807 -0.0802  0.4227 -0.1502
11177SOL    HW136486   1.695  10.544   6.739 -1.6633 -0.0030 -0.2353
11177SOL    HW236487   1.636  10.681   6.760  1.5662  1.4535 -0.0357
11178SOL     OW36488   9.467   1.639   0.199 -0.0750  0.0852  0.8337
11178SOL    HW136489   9.407   1.565   0.190  0.5428 -0.8368  3.4147
11178SOL    HW236490   9.419   1.713   0.162 -1.2698 -1.3132 -0.5696
11179SOL     OW36491   0.801   3.383   0.696 -0.6098  0.2754 -0.1123
11179SOL    HW136492   0.738   3.455   0.690 -0.2973  0.6469  0.8795
11179SOL    HW236493   0.777   3.335   0.775 -0.0133  0.0733 -0.0452
11180SOL     OW36494   3.704   3.385   2.280  0.0915  0.2672  0.1413
11180SOL    HW136495   3.708   3.479   2.262  0.0525  0.3276  0.4404
11180SOL    HW236496   3.646   3.377   2.356  2.1472  0.2426  1.8047
11181SOL     OW36497   4.349   0.909   8.339 -0.7649  0.0571  0.4599
11181SOL    HW136498   4.420   0.872   8.393  0.1512 -0.9933 -1.3596
11181SOL    HW236499   4.313   0.834   8.292  0.6232  1.1890 -2.7673
11182SOL     OW36500   6.196   7.535   4.946  0.3781  0.3580  0.2005
11182SOL    HW136501   6.264   7.468   4.938  0.0712  0.2040 -1.7270
11182SOL    HW236502   6.238   7.616   4.917  0.3741  0.7368  1.2349
11183SOL     OW36503   9.072   4.976   5.562 -0.3122 -0.0767 -0.0068
11183SOL    HW136504   9.016   5.031   5.507  0.0598 -0.4769 -0.7914
11183SOL    HW236505   9.139   4.942   5.503 -1.3443 -2.5498  0.0855
11184SOL     OW36506   9.050   4.692   9.381  0.1438  0.1341 -0.8063
11184SOL    HW136507   8.992   4.642   9.324  0.0959  1.1591 -1.6805
11184SOL    HW236508   8.992   4.740   9.440  0.1954 -1.0467  0.2703
11185SOL     OW36509   0.284   6.228   4.654 -0.1594  0.3248 -0.0627
11185SOL    HW136510   0.203   6.194   4.691 -0.7794  0.9221 -0.8136
11185SOL    HW236511   0.311   6.297   4.714 -0.7732  0.8091 -0.3191
11186SOL     OW36512   3.072   3.255   0.578  0.0112 -0.2137  0.4861
11186SOL    HW136513   3.140   3.187   0.579 -0.4526 -0.6960  1.2273
11186SOL    HW236514   3.120   3.337   0.575  0.6148 -0.5556  0.5434
11187SOL     OW36515   9.346   2.241   2.521 -0.7633 -0.2982 -0.0484
11187SOL    HW136516   9.429   2.193   2.525 -2.1850 -2.8672  1.1610
11187SOL    HW236517   9.302   2.207   2.443 -1.0626  0.3936 -0.1884
11188SOL     OW36518   5.010   0.054   6.213 -0.2902 -0.1818  0.1163
11188SOL    HW136519   5.075   0.003   6.165 -0.2736  0.8635 -1.0164
11188SOL    HW236520   4.927   0.012   6.192 -0.2873  0.2865 -0.8748
11189SOL     OW36521   8.338   7.704   8.265  0.0603  0.0492  0.3659
11189SOL    HW136522   8.320   7.613   8.285 -1.0835  0.6749  2.5378
11189SOL    HW236523   8.392   7.734   8.339  0.2681  1.1615 -0.2166
11190SOL     OW36524   7.719   5.489   3.111 -0.6911  0.1582  0.5427
11190SOL    HW136525   7.671   5.436   3.048  0.3101 -0.7350  0.5078
11190SOL    HW236526   7.809   5.456   3.107 -0.4934  0.4374  2.0436
11191SOL     OW36527   3.874   8.804   8.654  0.3336 -0.2533  0.0489
11191SOL    HW136528   3.864   8.863   8.729  2.8933 -0.7449  0.8661
11191SOL    HW236529   3.879   8.717   8.692  0.6593 -0.6108 -0.7903
11192SOL     OW36530   3.559   0.924   4.613 -0.6897 -0.4034 -0.1848
11192SOL    HW136531   3.644   0.908   4.654 -0.5796 -0.6683 -0.5093
11192SOL    HW236532   3.541   0.844   4.564 -0.3085  0.3074 -1.5332
11193SOL     OW36533   6.711   9.561   0.486  0.1537 -0.1568 -0.0128
11193SOL    HW136534   6.721   9.543   0.579 -0.3723  0.3214  0.1428
11193SOL    HW236535   6.665   9.484   0.451 -2.1974  0.8523  0.6677
11194SOL     OW36536   0.069   8.445   3.842  0.8291 -0.1422 -0.6984
11194SOL    HW136537   0.091   8.440   3.935  3.9244  0.0688 -1.2928
11194SOL    HW236538   0.139   8.499   3.804 -0.2177 -0.3960 -3.1829
11195SOL     OW36539   6.908   1.669   5.573  0.1016  0.4314 -0.0509
11195SOL    HW136540   6.920   1.665   5.668 -0.4985  0.8136  0.0432
11195SOL    HW236541   6.908   1.578   5.545  1.3501  0.3384  0.1702
11196SOL     OW36542   4.515   5.366   5.732  0.4620  0.0529 -0.4105
11196SOL    HW136543   4.448   5.397   5.671 -1.2928 -1.7494  0.5038
11196SOL    HW236544   4.510   5.428   5.805  0.3677  0.3885 -0.6951
11197SOL     OW36545   9.978   1.064   9.044  0.0702 -0.1389 -0.1406
11197SOL    HW136546  10.042   1.124   9.005 -0.3923  2.0788  2.1966
11197SOL    HW236547   9.893   1.099   9.018 -0.2088 -0.5782  0.1673
11198SOL     OW36548   5.462  10.564   9.800 -0.3918 -0.0661  0.3146
11198SOL    HW136549   5.516  10.547   9.877 -2.6065 -1.6549  1.6362
11198SOL    HW236550   5.449  10.659   9.800 -0.1693 -0.0133  1.8126
11199SOL     OW36551   6.033   2.414   1.714 -0.6884  0.4020 -0.2103
11199SOL    HW136552   5.969   2.431   1.646 -0.5853 -1.3966 -0.7998
11199SOL    HW236553   5.994   2.346   1.768  1.6495 -2.7028 -2.1066
11200SOL     OW36554   6.285   0.558   9.186 -0.1449  0.6242 -0.2257
11200SOL    HW136555   6.329   0.477   9.163 -1.8444 -0.1697 -0.8942
11200SOL    HW236556   6.278   0.606   9.103 -1.5819  0.1629 -0.4070
11201SOL     OW36557   3.380   2.689   8.026  0.0169 -0.0076  0.6225
11201SOL    HW136558   3.377   2.774   7.983 -1.5576  0.2393  1.1539
11201SOL    HW236559   3.458   2.646   7.990 -1.1436  0.1847 -2.4146
11202SOL     OW36560   3.141   1.298   7.805 -0.1734 -0.6916 -0.0732
11202SOL    HW136561   3.117   1.328   7.892 -0.3462  0.3944 -0.4793
11202SOL    HW236562   3.228   1.260   7.816 -0.9556 -2.3137  0.9160
11203SOL     OW36563   8.577   8.256  10.139  0.2255 -0.1125 -0.1115
11203SOL    HW136564   8.548   8.325  10.198  0.6224 -1.3899  1.6599
11203SOL    HW236565   8.669   8.241  10.161  0.3672 -0.6657 -1.0074
11204SOL     OW36566   4.659   5.647   7.841  0.0387 -0.4253  0.3029
11204SOL    HW136567   4.614   5.696   7.773  0.3709  1.3376  1.2948
11204SOL    HW236568   4.726   5.707   7.874  0.8126 -1.7385  1.2383
11205SOL     OW36569   0.949   0.518   6.636 -0.1461  0.5554 -0.3296
11205SOL    HW136570   0.984   0.585   6.578  2.2765  0.5442  0.9575
11205SOL    HW236571   1.027   0.477   6.674 -1.5803  0.2588  2.5661
11206SOL     OW36572   3.305   4.330   7.544  0.2675 -0.3883  0.6567
11206SOL    HW136573   3.286   4.245   7.504 -0.6322  0.9657 -2.0320
11206SOL    HW236574   3.391   4.320   7.584  0.8249 -2.1552 -0.8719
11207SOL     OW36575  10.164   0.738   9.355  0.1640  0.2873  0.5127
11207SOL    HW136576  10.115   0.660   9.327 -1.5142  0.8532  1.7308
11207SOL    HW236577  10.184   0.784   9.273 -1.1693 -0.0830 -0.0446
11208SOL     OW36578   2.457   7.776   4.265  0.3730  0.0629  0.4816
11208SOL    HW136579   2.442   7.860   4.222  0.3297  1.6679  3.3787
11208SOL    HW236580   2.551   7.774   4.281  0.3062 -0.2088  0.8494
11209SOL     OW36581   8.388   3.490   3.936 -0.1710 -0.2128  0.2106
11209SOL    HW136582   8.454   3.523   3.997  0.3472 -1.4843  0.3660
11209SOL    HW236583   8.406   3.538   3.855  0.4306  0.0435  0.4868
11210SOL     OW36584   6.535   7.537   1.151  0.2906  0.1162  0.6146
11210SOL    HW136585   6.621   7.497   1.139  0.1001  0.5062 -3.2591
11210SOL    HW236586   6.544   7.590   1.230  3.1224 -0.9572  1.1303
11211SOL     OW36587   9.897   5.876   5.390 -0.0982  0.2615  0.0680
11211SOL    HW136588   9.923   5.927   5.467  1.6604 -0.9014  0.3014
11211SOL    HW236589   9.847   5.803   5.425  0.8330 -0.3517  0.1507
11212SOL     OW36590  10.292   9.369   3.311  0.1670 -0.0675 -0.4574
11212SOL    HW136591  10.371   9.338   3.355  1.6332 -0.2564 -3.0238
11212SOL    HW236592  10.301   9.464   3.309 -1.6479  0.2937  2.5820
11213SOL     OW36593   6.230   0.570   5.219  0.0175  0.4828  0.0911
11213SOL    HW136594   6.146   0.617   5.217  0.2349  1.0081  1.6479
11213SOL    HW236595   6.215   0.492   5.166 -1.4194  0.6221  0.2477
11214SOL     OW36596   6.936   7.377   4.111 -0.2114 -0.5912  0.1222
11214SOL    HW136597   6.857   7.432   4.109  0.6594  0.7430  1.1743
11214SOL    HW236598   7.005   7.433   4.076  0.3024 -1.7403 -0.7527
11215SOL     OW36599   0.056   0.761   1.567 -0.2622 -0.4123 -0.1773
11215SOL    HW136600   0.056   0.747   1.473 -1.4735 -1.6193 -0.0294
11215SOL    HW236601   0.061   0.673   1.604  1.6638  0.0863  0.9202
11216SOL     OW36602   3.057   6.751   9.795 -0.5448  0.4554  0.1053
11216SOL    HW136603   3.085   6.828   9.844 -0.4056  0.8788 -0.6392
11216SOL    HW236604   2.961   6.759   9.792 -0.4057  1.9743 -2.1661
11217SOL     OW36605   9.158   2.981   1.121  0.1604  0.0668  0.2632
11217SOL    HW136606   9.160   2.886   1.107  0.2911  0.0557  0.3647
11217SOL    HW236607   9.249   3.005   1.137  0.4928  0.5302 -1.9943
11218SOL     OW36608   5.956   7.409   2.830  0.4378  0.5563  0.2729
11218SOL    HW136609   6.031   7.433   2.885  0.2022  0.7737  0.5001
11218SOL    HW236610   5.901   7.354   2.886  0.1343  0.8810  0.2947
11219SOL     OW36611   8.715   3.639   2.463  0.2716 -0.5339 -0.2358
11219SOL    HW136612   8.738   3.699   2.534 -6.0095 -1.0439  2.8759
11219SOL    HW236613   8.682   3.695   2.393  1.0769 -0.2542 -0.4101
11220SOL     OW36614   1.292   5.302   9.374  0.3907 -0.7372 -0.3377
11220SOL    HW136615   1.368   5.272   9.423  1.4123 -0.3861 -1.6473
11220SOL    HW236616   1.264   5.381   9.419  1.1276 -0.5877 -0.1306
11221SOL     OW36617   5.902   6.873   6.064 -0.4547 -0.3020 -0.0341
11221SOL    HW136618   5.914   6.883   6.158  1.4529  1.0564 -0.3744
11221SOL    HW236619   5.963   6.804   6.039 -0.0802  0.1720 -0.4474
11222SOL     OW36620  10.084   2.334   5.527 -0.1642 -0.3309  0.1177
11222SOL    HW136621  10.165   2.352   5.478  1.1357 -1.4491  1.7900
11222SOL    HW236622  10.032   2.280   5.467  1.7191 -2.3368  0.1631
11223SOL     OW36623   7.236   5.185   1.027  0.1398  0.4366  0.1478
11223SOL    HW136624   7.218   5.279   1.022  1.9356  0.8413  0.6108
11223SOL    HW236625   7.178   5.147   0.961 -2.0525  1.6042  1.2846
11224SOL     OW36626   3.889   1.215   7.047 -0.5424  0.5681  0.9303
11224SOL    HW136627   3.830   1.272   6.998 -0.2517  0.3539  0.3188
11224SOL    HW236628   3.879   1.129   7.005  1.7340  0.9487 -0.6025
11225SOL     OW36629   7.921   2.988   3.899 -0.3648 -0.6859  0.3849
11225SOL    HW136630   7.987   2.962   3.963  0.4045 -0.1299 -0.1620
11225SOL    HW236631   7.864   2.911   3.890 -0.2679 -0.8932  1.4496
11226SOL     OW36632   9.537   8.024   2.593  0.7118  0.1153 -0.1495
11226SOL    HW136633   9.525   7.930   2.606 -0.6312  0.3961  0.9204
11226SOL    HW236634   9.511   8.039   2.502 -0.5034 -0.3570  0.0943
11227SOL     OW36635   6.116   3.076   2.097 -1.1491 -0.5560 -0.4885
11227SOL    HW136636   6.097   3.010   2.164 -0.4634  0.8191  1.1365
11227SOL    HW236637   6.103   3.030   2.014  1.3882 -3.3830  0.5083
11228SOL     OW36638   1.585   2.988   0.887 -0.1552  0.9702 -0.0519
11228SOL    HW136639   1.666   2.997   0.938  0.5287 -1.9574 -0.4501
11228SOL    HW236640   1.518   2.967   0.953 -0.2121  1.5937  0.0910
11229SOL     OW36641   3.539   8.088   4.780  0.4503 -0.0701 -0.1276
11229SOL    HW136642   3.592   8.051   4.710 -0.7484  0.1581 -1.2161
11229SOL    HW236643   3.483   8.152   4.735  0.9917  1.5222  1.3536
11230SOL     OW36644   1.217   4.435   6.857  0.2776 -0.6968  0.1821
11230SOL    HW136645   1.295   4.488   6.874  0.0918  0.1408 -1.3874
11230SOL    HW236646   1.247   4.368   6.795 -0.4836  0.3767 -1.3947
11231SOL     OW36647  10.097   5.491   9.611 -0.4493 -0.9209  0.6188
11231SOL    HW136648  10.003   5.478   9.605 -0.6156  0.2399  0.3636
11231SOL    HW236649  10.131   5.460   9.527 -0.7679 -0.1816  0.2041
11232SOL     OW36650   6.568   9.571  10.295  0.1314 -0.3004 -0.5055
11232SOL    HW136651   6.631   9.630  10.336  1.5060 -1.8109 -0.3635
11232SOL    HW236652   6.555   9.501  10.359 -1.2930 -0.3068 -0.7657
11233SOL     OW36653   9.541   5.456   7.287 -0.1704  0.4962  0.5963
11233SOL    HW136654   9.539   5.362   7.270 -1.1436  0.6418 -0.1193
11233SOL    HW236655   9.453   5.478   7.316 -0.7903  1.6597 -1.9317
11234SOL     OW36656   7.213   5.439   9.994 -0.0053  0.2490 -0.3719
11234SOL    HW136657   7.164   5.521   9.994 -1.4785 -0.5911  0.2172
11234SOL    HW236658   7.201   5.404   9.905 -1.3260 -0.4173  0.0499
11235SOL     OW36659   4.433   9.068   2.298 -0.0303  0.6298  0.3168
11235SOL    HW136660   4.509   9.049   2.243 -0.1878  1.9066 -0.4059
11235SOL    HW236661   4.412   8.986   2.342  1.4895  0.1515  0.1825
11236SOL     OW36662   7.119   4.778  10.301 -0.4412 -0.4828  0.4784
11236SOL    HW136663   7.130   4.813  10.389  0.2990  1.1595 -0.2360
11236SOL    HW236664   7.035   4.813  10.271 -0.4574 -0.6314  0.3473
11237SOL     OW36665   6.217   3.642   5.397  0.8642  0.1703 -0.2795
11237SOL    HW136666   6.197   3.715   5.455  0.3020 -0.2127  0.0235
11237SOL    HW236667   6.300   3.607   5.430  0.2993 -0.3658  0.6451
11238SOL     OW36668   1.525   7.410   6.589 -0.2759  0.1729 -0.4384
11238SOL    HW136669   1.458   7.344   6.607  0.8162 -0.5146  1.3338
11238SOL    HW236670   1.579   7.371   6.520 -0.8824  0.1514 -0.9110
11239SOL     OW36671   9.492   1.051   2.244 -0.1395  0.1481  0.2846
11239SOL    HW136672   9.513   1.009   2.161  0.9912  0.1329  0.5632
11239SOL    HW236673   9.506   1.144   2.229 -1.7883  0.3628 -0.0756
11240SOL     OW36674   5.031   6.542   4.806  0.3946 -0.6649  0.2030
11240SOL    HW136675   5.067   6.557   4.719 -0.0224 -0.2864  0.0933
11240SOL    HW236676   4.937   6.556   4.796  0.4347  0.1845  0.8862
11241SOL     OW36677   5.951  10.014   2.459 -0.3540  0.1555 -0.7578
11241SOL    HW136678   5.947   9.990   2.367 -1.7591 -0.2542 -0.6110
11241SOL    HW236679   6.039   9.989   2.487 -0.0870 -0.1676 -1.8571
11242SOL     OW36680   9.903   3.532   2.327  0.2715  0.1590  0.1503
11242SOL    HW136681   9.854   3.521   2.246 -0.7392 -0.9170  0.8803
11242SOL    HW236682   9.990   3.497   2.307 -0.8648 -3.1516  0.3796
11243SOL     OW36683   4.809   5.257   9.950  0.2103 -0.8205  0.1334
11243SOL    HW136684   4.813   5.339   9.901 -1.9979 -0.9292 -0.3302
11243SOL    HW236685   4.744   5.204   9.903  2.4491 -3.3864 -0.3550
11244SOL     OW36686   7.373   3.361   2.336  0.0448  0.2099  0.0845
11244SOL    HW136687   7.281   3.374   2.361 -0.3419 -2.0055  0.0786
11244SOL    HW236688   7.402   3.447   2.306 -1.5604  1.3311  1.5149
11245SOL     OW36689   5.427   1.093   2.220  0.9348 -0.1122  0.0712
11245SOL    HW136690   5.520   1.110   2.232  0.5133  1.4127  1.5578
11245SOL    HW236691   5.389   1.105   2.307 -0.7316 -0.1752 -0.6134
11246SOL     OW36692   5.270   5.657   1.499 -0.1306 -0.0132 -0.3478
11246SOL    HW136693   5.250   5.571   1.460  1.3925  0.0943 -1.4573
11246SOL    HW236694   5.365   5.664   1.494 -0.2062  1.6351 -0.0096
11247SOL     OW36695   3.371   2.782   2.868  0.4126  0.1040 -0.1977
11247SOL    HW136696   3.315   2.705   2.873  0.3501  0.1957  0.6222
11247SOL    HW236697   3.389   2.805   2.959  2.0138 -0.0923 -0.4248
11248SOL     OW36698   1.294   5.622   0.615 -0.2201  0.4183  0.4837
11248SOL    HW136699   1.225   5.627   0.680  0.0272  2.0283  0.6694
11248SOL    HW236700   1.334   5.709   0.616 -0.0879  0.4393 -1.6731
11249SOL     OW36701   5.689  10.379   3.458  0.7806 -0.7014  0.0142
11249SOL    HW136702   5.681  10.448   3.393 -0.7106 -0.6846  0.1707
11249SOL    HW236703   5.601  10.341   3.463  0.3944  0.3324  3.1375
11250SOL     OW36704   4.711   7.938   2.403 -0.3579 -0.3022  0.1716
11250SOL    HW136705   4.700   7.946   2.308  0.0905  0.9263  0.2079
11250SOL    HW236706   4.753   7.852   2.415  0.6324  0.0124 -0.8473
11251SOL     OW36707   1.175   0.956   6.032  0.2368  0.0930 -0.1191
11251SOL    HW136708   1.121   0.943   6.109  0.3139  0.6238  0.0314
11251SOL    HW236709   1.118   1.000   5.969  0.6092  1.0694  0.2056
11252SOL     OW36710   0.349   0.621   1.553 -0.1434 -0.5231 -0.5405
11252SOL    HW136711   0.271   0.601   1.502  0.4862 -1.3516 -1.1831
11252SOL    HW236712   0.339   0.570   1.634 -1.7211  1.6863  0.7909
11253SOL     OW36713   7.788   3.441   9.075  0.3752  0.1426 -0.6690
11253SOL    HW136714   7.801   3.361   9.126  0.7060 -0.1104 -1.1414
11253SOL    HW236715   7.806   3.512   9.136  2.1816 -0.1678 -0.7948
11254SOL     OW36716   0.611   2.647   2.189 -0.3406  0.7005  0.2160
11254SOL    HW136717   0.646   2.664   2.102  1.1008  1.4782  0.9160
11254SOL    HW236718   0.574   2.731   2.217 -0.1110  0.6580  0.6546
11255SOL     OW36719   2.822   1.844   4.717 -0.1175 -0.2697 -0.0928
11255SOL    HW136720   2.748   1.827   4.776 -0.3797  0.6947 -0.1222
11255SOL    HW236721   2.887   1.778   4.741 -1.7474 -2.4837 -1.4605
11256SOL     OW36722   7.281   9.877   5.946  0.3249 -0.2138  0.1945
11256SOL    HW136723   7.337   9.799   5.947 -2.3748 -2.3183 -0.8323
11256SOL    HW236724   7.242   9.879   6.034 -1.6182 -1.7145 -0.5543
11257SOL     OW36725   8.617   1.419  10.692  0.2261  0.2224  0.3802
11257SOL    HW136726   8.611   1.339  10.744  1.5996  0.5770  1.1312
11257SOL    HW236727   8.549   1.477  10.727 -0.7433 -0.5765 -0.1401
11258SOL     OW36728   3.367   2.756   5.540  0.1800 -0.7815 -0.2022
11258SOL    HW136729   3.275   2.730   5.534 -0.2954  0.4335  1.1697
11258SOL    HW236730   3.411   2.679   5.577 -0.6155 -0.7800  0.7973
11259SOL     OW36731   9.988   3.291   1.118  0.5375  0.1348  0.1608
11259SOL    HW136732   9.986   3.196   1.131 -0.0600 -0.0200 -0.9887
11259SOL    HW236733  10.017   3.303   1.028 -0.7918  0.9908 -0.1819
11260SOL     OW36734   1.754  10.550   2.425 -0.5506  0.3824 -0.5435
11260SOL    HW136735   1.675  10.535   2.374 -1.2583  2.0738 -0.0128
11260SOL    HW236736   1.743  10.496   2.504 -1.8546  1.6009  0.1651
11261SOL     OW36737   1.588   3.650   6.171 -0.4121  0.1855 -0.2220
11261SOL    HW136738   1.558   3.741   6.169 -0.6844  0.1382  1.0352
11261SOL    HW236739   1.611   3.634   6.262  0.9348 -0.6081 -0.6738
11262SOL     OW36740   8.709   5.144   5.841 -0.4305  0.1122 -0.6752
11262SOL    HW136741   8.622   5.177   5.861 -0.5409 -0.2657 -0.5310
11262SOL    HW236742   8.694   5.064   5.791 -0.1891 -0.7623  0.6135
11263SOL     OW36743   4.583   5.935   9.026  0.1728  0.0262 -0.0733
11263SOL    HW136744   4.651   5.878   9.062  0.7976  1.0748  0.4519
11263SOL    HW236745   4.590   6.016   9.076 -2.3712 -0.2775  0.9616
11264SOL     OW36746   6.751   9.069   6.020  0.0641 -0.2501 -0.9499
11264SOL    HW136747   6.765   9.154   5.978  0.3346 -0.3849 -1.1368
11264SOL    HW236748   6.823   9.015   5.988  1.2741  0.1247  0.9898
11265SOL     OW36749   5.219   5.035   7.397  0.0699  0.2483  0.2022
11265SOL    HW136750   5.300   4.987   7.417 -1.0229 -2.6048 -1.4905
11265SOL    HW236751   5.156   5.002   7.460 -0.1479  1.3503  0.5709
11266SOL     OW36752   1.144   0.915   3.806  0.0885  0.0129  0.2447
11266SOL    HW136753   1.238   0.927   3.817 -0.2053  1.9883  0.9199
11266SOL    HW236754   1.105   0.954   3.884 -1.3307 -0.1179 -0.3584
11267SOL     OW36755   5.049   3.659   1.639 -0.1389  0.6022  0.4638
11267SOL    HW136756   5.086   3.680   1.553  0.8968 -0.0839  0.7236
11267SOL    HW236757   5.016   3.570   1.630 -0.4860  0.7133  0.6330
11268SOL     OW36758  10.356   4.010   8.421  0.1350  0.1989  0.6585
11268SOL    HW136759  10.260   4.002   8.427  0.2061  0.1233  2.1536
11268SOL    HW236760  10.382   4.047   8.506  1.4618 -0.0750  0.3875
11269SOL     OW36761   5.146   0.751   2.871  0.1820  0.0818 -0.0822
11269SOL    HW136762   5.062   0.792   2.892  0.4259  0.5255  0.0475
11269SOL    HW236763   5.200   0.765   2.948 -0.4023 -2.4243  0.8581
11270SOL     OW36764   0.399   2.946   8.370  0.0921  0.3759 -0.4172
11270SOL    HW136765   0.468   2.966   8.433  0.8239  0.8075 -1.3149
11270SOL    HW236766   0.362   2.863   8.400  0.2732  0.6781  0.6850
11271SOL     OW36767   6.533  10.083   5.608  0.2348  0.1150 -0.0646
11271SOL    HW136768   6.615  10.035   5.618  1.0272  1.3850 -0.2831
11271SOL    HW236769   6.487  10.071   5.691  1.0743  0.1763  0.4095
11272SOL     OW36770   3.434   2.877   0.262 -0.0347 -0.1105  0.4158
11272SOL    HW136771   3.483   2.954   0.292 -1.9525  1.7556 -0.9317
11272SOL    HW236772   3.407   2.833   0.342  0.9027  0.7581  1.2330
11273SOL     OW36773   8.510   9.022   1.559 -0.3901 -0.3789 -0.7168
11273SOL    HW136774   8.479   8.987   1.476  0.5838 -1.6935 -0.5639
11273SOL    HW236775   8.585   8.967   1.582  1.3137  1.8676 -0.4913
11274SOL     OW36776   1.343   3.352   9.254  0.1031  0.5851 -0.2563
11274SOL    HW136777   1.269   3.349   9.193 -0.8072 -1.5253  0.8353
11274SOL    HW236778   1.321   3.424   9.314 -0.5033  0.6992 -0.6054
11275SOL     OW36779   3.401   0.737   4.836 -0.1241 -0.2427 -0.0774
11275SOL    HW136780   3.359   0.668   4.887  0.3947 -0.9033 -0.5318
11275SOL    HW236781   3.435   0.692   4.758 -0.3966  0.6410 -0.7268
11276SOL     OW36782   4.608  10.500   1.262  0.3855 -0.1526 -1.1502
11276SOL    HW136783   4.602  10.435   1.332 -2.4614  1.0451 -0.1183
11276SOL    HW236784   4.577  10.452   1.184  1.3674 -0.8674 -1.1173
11277SOL     OW36785   1.567   5.190   8.350  0.7426  0.7354 -0.2752
11277SOL    HW136786   1.659   5.208   8.371  0.8409  0.1137 -0.1704
11277SOL    HW236787   1.541   5.121   8.411  0.8352 -0.5984 -1.6769
11278SOL     OW36788  10.236   9.494   9.357 -0.3619 -0.5311 -0.0697
11278SOL    HW136789  10.297   9.443   9.304 -1.1530 -1.5298 -0.0426
11278SOL    HW236790  10.281   9.507   9.441 -0.2859 -1.4958  0.0479
11279SOL     OW36791   6.100   0.021  10.030  0.2104  0.2697 -1.0884
11279SOL    HW136792   6.152   0.100  10.014  1.8525 -0.9119 -1.8385
11279SOL    HW236793   6.080  -0.013   9.943 -0.1464 -0.3597 -0.7668
11280SOL     OW36794   5.062   1.002   0.943 -0.1036 -0.4547 -0.2424
11280SOL    HW136795   5.131   1.027   0.881  1.4296 -2.4832  0.5564
11280SOL    HW236796   5.087   0.915   0.973 -2.8819 -1.1454  0.3356
11281SOL     OW36797   3.089   4.307  10.269 -0.1041  0.2592 -1.2169
11281SOL    HW136798   3.158   4.274  10.326 -0.7922 -0.7266 -0.9175
11281SOL    HW236799   3.027   4.234  10.263 -2.0884  1.7258  0.1086
11282SOL     OW36800   7.357   3.056   6.016 -0.4905  0.7761  0.0201
11282SOL    HW136801   7.296   3.073   5.943  0.0658 -0.6590 -0.8272
11282SOL    HW236802   7.352   2.961   6.029  0.7736  0.7798  0.6418
11283SOL     OW36803   9.200  10.241   9.490 -0.2248  0.2098  0.0052
11283SOL    HW136804   9.138  10.259   9.419  1.1418 -0.0176 -1.2824
11283SOL    HW236805   9.194  10.318   9.547 -0.5770  0.8847 -0.9214
11284SOL     OW36806   2.516   3.898   2.906  0.7708 -0.4605  0.0314
11284SOL    HW136807   2.423   3.911   2.887  0.6637 -0.4253  0.5856
11284SOL    HW236808   2.561   3.966   2.855  0.7089 -2.0550 -2.3397
11285SOL     OW36809   3.804   2.967   5.113 -0.4720  0.0715  0.1686
11285SOL    HW136810   3.884   2.989   5.161 -1.3168  1.4110  1.0198
11285SOL    HW236811   3.800   3.032   5.043 -1.6905  1.1445  1.1873
11286SOL     OW36812  10.319   3.664   2.279  0.1299 -0.4440 -0.1856
11286SOL    HW136813  10.272   3.581   2.287  0.5611 -0.6819 -0.0584
11286SOL    HW236814  10.405   3.646   2.317  0.0231  0.2378  0.3920
11287SOL     OW36815   1.960   3.473   6.279  0.1145 -0.0456  0.7324
11287SOL    HW136816   1.985   3.427   6.359  0.5639  0.0811  0.6701
11287SOL    HW236817   1.914   3.551   6.308  0.6022  0.1900  0.8811
11288SOL     OW36818   8.984   3.645   9.653  0.1368  0.1617 -0.8074
11288SOL    HW136819   9.073   3.615   9.640 -0.0546 -0.1435 -1.4397
11288SOL    HW236820   8.961   3.689   9.571  0.1380  1.3362 -0.1918
11289SOL     OW36821   4.980   7.028   0.162 -0.6514 -0.1798 -1.0696
11289SOL    HW136822   4.976   7.122   0.147  0.3496 -0.0419 -0.6046
11289SOL    HW236823   5.068   7.013   0.197 -0.8872 -1.2518 -0.8805
11290SOL     OW36824   6.883   9.155   3.460 -0.1256  0.2521 -0.3266
11290SOL    HW136825   6.910   9.216   3.392  2.2739 -0.0420  0.2554
11290SOL    HW236826   6.881   9.208   3.540 -0.3366  0.0356 -0.1869
11291SOL     OW36827   9.471   2.838   5.816  0.1249  0.2704  0.4566
11291SOL    HW136828   9.461   2.929   5.789  1.8106 -0.1276 -1.8105
11291SOL    HW236829   9.393   2.794   5.783 -0.1275  0.6677  0.5124
11292SOL     OW36830   8.334   1.453   7.440 -0.2397  0.3770 -0.2029
11292SOL    HW136831   8.394   1.388   7.403 -0.9867 -0.0144 -0.7452
11292SOL    HW236832   8.376   1.537   7.421  0.3751  0.0942 -0.1353
11293SOL     OW36833   9.331   7.466   4.439 -0.7733 -0.3050 -0.3558
11293SOL    HW136834   9.274   7.519   4.384 -0.4070  0.6885  0.1963
11293SOL    HW236835   9.271   7.422   4.500 -1.0109  0.1274 -0.2752
11294SOL     OW36836   1.149   6.843   0.672 -0.5683  0.3774  0.5210
11294SOL    HW136837   1.076   6.808   0.721 -1.2813 -0.5940 -1.1490
11294SOL    HW236838   1.111   6.869   0.588  0.8248  0.7389 -0.0283
11295SOL     OW36839   0.528   1.282   5.958  0.0035 -0.0949  0.4700
11295SOL    HW136840   0.618   1.302   5.932  0.8563  0.4831  3.5378
11295SOL    HW236841   0.511   1.196   5.920  2.1304 -0.5620  0.4421
11296SOL     OW36842   1.539   9.541   2.731  0.1792  0.0499  0.4951
11296SOL    HW136843   1.562   9.456   2.767 -1.3430 -0.4720  0.2982
11296SOL    HW236844   1.517   9.524   2.640 -0.5989  0.5739  0.5777
11297SOL     OW36845   5.779   9.550   9.370 -0.1231 -0.6596  0.3275
11297SOL    HW136846   5.723   9.525   9.444 -1.2339  1.2649  0.2314
11297SOL    HW236847   5.729   9.524   9.293 -0.0948 -0.4918  0.2517
11298SOL     OW36848   0.258   9.981   5.106 -0.2615 -0.3275  0.0769
11298SOL    HW136849   0.260   9.894   5.065 -0.2321 -0.9232  1.2866
11298SOL    HW236850   0.345  10.017   5.091 -0.5687 -0.0719 -1.2774
11299SOL     OW36851   0.610   2.511   5.191 -1.0845 -0.3982  0.2395
11299SOL    HW136852   0.625   2.572   5.263 -2.3252  0.0447  0.1286
11299SOL    HW236853   0.544   2.553   5.136 -1.7561 -1.7023  0.0097
11300SOL     OW36854   4.257   6.038   0.107  0.2425  0.2286 -0.1859
11300SOL    HW136855   4.293   5.959   0.066  0.4023 -0.0594  0.4939
11300SOL    HW236856   4.164   6.036   0.084 -0.2847 -1.4589  1.7599
11301SOL     OW36857   0.020   4.627   7.639  0.4959 -0.4919 -0.3731
11301SOL    HW136858  -0.069   4.614   7.674  0.3834 -0.2192 -0.5542
11301SOL    HW236859   0.022   4.719   7.612  1.9100  0.5018  2.7071
11302SOL     OW36860   6.267   1.061   8.786 -0.2042 -0.1958  0.3137
11302SOL    HW136861   6.267   0.965   8.794  0.6891 -0.3818 -1.4633
11302SOL    HW236862   6.291   1.078   8.695 -0.0431  1.7355  0.6697
11303SOL     OW36863  10.535   3.399   8.970 -0.6099  0.2024 -0.3658
11303SOL    HW136864  10.629   3.395   8.985 -0.3365  0.2166 -1.9062
11303SOL    HW236865  10.516   3.493   8.962 -0.7203  0.1914 -0.2296
11304SOL     OW36866   4.431  10.534   7.120  0.3140 -0.4957  0.1469
11304SOL    HW136867   4.371  10.591   7.166  0.0785  0.9612 -1.8272
11304SOL    HW236868   4.381  10.500   7.046  0.6996 -2.6733  0.7949
11305SOL     OW36869   8.783   2.480  10.363 -0.4255  0.0981 -0.5954
11305SOL    HW136870   8.835   2.401  10.377  0.6265  0.5902 -1.5071
11305SOL    HW236871   8.843   2.552  10.386 -1.5425  0.6463  0.7801
11306SOL     OW36872   9.513   1.311   2.227 -0.5601 -0.1938 -0.1766
11306SOL    HW136873   9.425   1.329   2.194  0.1786  2.7686 -0.8127
11306SOL    HW236874   9.532   1.383   2.286  1.4236 -0.7977 -0.0069
11307SOL     OW36875  10.538   6.635   8.187  0.0592  0.7312 -0.3489
11307SOL    HW136876  10.487   6.617   8.108  1.4219 -2.0603 -0.7439
11307SOL    HW236877  10.524   6.727   8.205 -1.6116  1.0701 -2.9049
11308SOL     OW36878   5.947   9.711   7.250  0.0954  0.2341 -0.8578
11308SOL    HW136879   6.019   9.652   7.275  0.2595  0.3949 -0.9478
11308SOL    HW236880   5.868   9.657   7.260  0.2939 -0.2017 -1.5486
11309SOL     OW36881   5.537   5.160   5.678  0.1871 -0.0841 -0.2196
11309SOL    HW136882   5.572   5.073   5.695  0.3043  0.4149  2.6172
11309SOL    HW236883   5.586   5.192   5.603  1.5402 -1.6955 -0.0755
11310SOL     OW36884   6.065   2.596   4.210  0.4507 -0.7063  0.5186
11310SOL    HW136885   5.987   2.565   4.256 -1.2495  1.2311 -0.8694
11310SOL    HW236886   6.104   2.517   4.173 -1.5536 -1.6285  0.2261
11311SOL     OW36887   1.695   0.137   1.152  0.4857  0.1937  0.1904
11311SOL    HW136888   1.732   0.057   1.190 -1.2075 -0.3861  0.7255
11311SOL    HW236889   1.636   0.171   1.220 -0.8353  0.4233 -1.0150
11312SOL     OW36890   7.921   8.143   5.670  0.3473  0.0740  0.1734
11312SOL    HW136891   7.951   8.228   5.638  0.2889  0.4190  1.0138
11312SOL    HW236892   7.958   8.136   5.758 -0.7304 -0.1838  0.6216
11313SOL     OW36893   6.747   1.142   4.047  0.2469 -0.5522 -0.2807
11313SOL    HW136894   6.776   1.107   4.131  0.3047  2.0720  0.8801
11313SOL    HW236895   6.826   1.180   4.008 -0.2212  0.2804 -0.4350
11314SOL     OW36896   8.220   1.344   3.717  0.0848  0.1191 -0.3613
11314SOL    HW136897   8.250   1.333   3.626 -1.0949  0.8540 -0.8678
11314SOL    HW236898   8.126   1.357   3.709  0.0762  0.9918  0.9095
11315SOL     OW36899   5.618   0.196   5.457 -0.3391 -0.2139 -0.0984
11315SOL    HW136900   5.673   0.269   5.431 -0.3074  0.2842  1.3093
11315SOL    HW236901   5.559   0.183   5.383  0.9339 -0.0604 -1.1777
11316SOL     OW36902   1.317   4.955   5.207 -0.0715 -0.1065  0.3752
11316SOL    HW136903   1.353   4.955   5.295 -1.3924  0.6200  0.9564
11316SOL    HW236904   1.300   4.863   5.188 -0.1493 -0.2376  1.0485
11317SOL     OW36905  10.273   3.645   6.444 -0.1127 -0.5242 -0.3668
11317SOL    HW136906  10.222   3.565   6.434  0.3191 -0.5510 -2.8171
11317SOL    HW236907  10.234   3.706   6.381  0.1118  0.9344  0.8472
11318SOL     OW36908  10.197   2.077   0.914  0.5608  0.4872  0.6039
11318SOL    HW136909  10.274   2.041   0.869 -0.1896  0.7467 -0.9521
11318SOL    HW236910  10.142   2.001   0.930  0.3785  0.5188  0.1494
11319SOL     OW36911   7.066   6.687   3.221  0.0568 -0.3385  0.1970
11319SOL    HW136912   7.007   6.637   3.165 -0.3158  0.2548  0.0563
11319SOL    HW236913   7.106   6.622   3.279 -2.7640 -0.4468  2.2000
11320SOL     OW36914   1.418   5.338   5.720  0.4207  0.1029 -0.0511
11320SOL    HW136915   1.344   5.278   5.709 -0.0452  0.8127 -0.8003
11320SOL    HW236916   1.416   5.395   5.644  1.5577  0.3462  0.0728
11321SOL     OW36917   6.337   0.676   6.099  0.4241 -0.0861 -0.7744
11321SOL    HW136918   6.246   0.648   6.102  0.6442 -0.7365 -0.1774
11321SOL    HW236919   6.338   0.743   6.030 -0.2172 -1.1127 -1.8285
11322SOL     OW36920   6.792   6.875   6.908 -0.3073 -0.2990  0.3426
11322SOL    HW136921   6.700   6.860   6.884 -0.1215  0.8607 -1.2700
11322SOL    HW236922   6.837   6.881   6.824  1.3266 -1.1447  1.1140
11323SOL     OW36923   5.020   2.919   7.255 -0.1358 -0.1241 -0.2611
11323SOL    HW136924   4.947   2.863   7.230  0.9172 -2.8753  2.2189
11323SOL    HW236925   5.096   2.879   7.213  0.3938  0.6730 -0.0870
11324SOL     OW36926   3.009   5.028   2.545 -0.2101  0.7230 -0.3767
11324SOL    HW136927   3.040   5.042   2.634  1.7590 -0.7982 -0.7500
11324SOL    HW236928   3.014   4.933   2.533 -2.0333  0.7268 -1.5959
11325SOL     OW36929   9.689   2.880   1.996  0.5165 -0.5461  0.7954
11325SOL    HW136930   9.601   2.859   2.025  0.2335  0.4021  0.6631
11325SOL    HW236931   9.688   2.864   1.901  0.1490  0.5010  0.6075
11326SOL     OW36932   5.389   0.639   8.665  0.0188 -0.2549 -0.0908
11326SOL    HW136933   5.378   0.598   8.751  0.0206 -0.2993 -0.1121
11326SOL    HW236934   5.407   0.731   8.685 -2.3897  0.2819 -0.0878
11327SOL     OW36935   4.731   5.112   1.855 -0.1515  0.0923 -0.4899
11327SOL    HW136936   4.689   5.130   1.939 -0.8072 -1.5136 -0.4414
11327SOL    HW236937   4.672   5.148   1.790  0.4857  1.5775 -0.2867
11328SOL     OW36938   9.965   7.697   7.417 -0.4849 -0.5259 -0.1553
11328SOL    HW136939   9.958   7.742   7.501 -1.4474  0.9729 -0.9829
11328SOL    HW236940   9.929   7.609   7.433 -0.5759 -0.2890  1.0133
11329SOL     OW36941   8.096   7.434   3.563 -1.0698 -0.0934 -0.3178
11329SOL    HW136942   8.004   7.412   3.550 -1.3230  0.0348  1.1001
11329SOL    HW236943   8.108   7.432   3.658  0.3799 -0.0443 -0.4775
11330SOL     OW36944   3.145   8.092   9.980 -0.0925 -0.0655 -0.0780
11330SOL    HW136945   3.089   8.025  10.019  0.4030  0.4064  1.5009
11330SOL    HW236946   3.210   8.112  10.048  2.6122 -1.2307 -2.0908
11331SOL     OW36947   9.583   2.107   0.961 -0.0088  0.0136  0.5506
11331SOL    HW136948   9.575   2.188   0.910  1.5032  0.2274  0.6180
11331SOL    HW236949   9.577   2.135   1.052 -0.0031 -0.0247  0.5627
11332SOL     OW36950   3.203   4.064   5.054 -0.1628  0.2390 -0.3053
11332SOL    HW136951   3.245   3.999   4.997  0.7082 -0.4527  1.0525
11332SOL    HW236952   3.251   4.145   5.036  0.4893 -0.1041 -0.1643
11333SOL     OW36953   7.458   8.364   5.075 -0.0151  0.3784  0.0698
11333SOL    HW136954   7.369   8.377   5.041 -0.1479  0.8314  0.5735
11333SOL    HW236955   7.511   8.345   4.998 -0.4212  0.7958 -0.3174
11334SOL     OW36956   9.944   9.982   8.707 -0.4661  0.9972  0.1453
11334SOL    HW136957   9.862   9.945   8.674 -0.4444  1.2848 -0.2367
11334SOL    HW236958   9.945  10.072   8.675 -0.5202  1.3371  1.0875
11335SOL     OW36959   3.267   1.517   0.130 -0.1285  0.4064 -0.0926
11335SOL    HW136960   3.219   1.507   0.048  0.1388  1.0005 -0.3348
11335SOL    HW236961   3.334   1.583   0.110 -0.6153  1.2113  0.8473
11336SOL     OW36962   5.595   7.018   8.592  0.1361  0.2522  0.1306
11336SOL    HW136963   5.689   7.034   8.600  0.2649 -0.0856 -0.6070
11336SOL    HW236964   5.554   7.099   8.623  0.7312  1.4869 -2.0848
11337SOL     OW36965  10.076  10.413   6.369  0.3523  0.0280 -0.6479
11337SOL    HW136966  10.119  10.328   6.368  0.1010 -0.1206  0.3133
11337SOL    HW236967   9.995  10.401   6.319 -0.2582 -0.6230  0.4613
11338SOL     OW36968   2.627   9.085   2.800  0.3757  0.5492 -0.3842
11338SOL    HW136969   2.586   9.036   2.729 -1.0328  1.8038 -0.4962
11338SOL    HW236970   2.708   9.119   2.763  0.0345  0.5373 -1.1451
11339SOL     OW36971   4.145   8.081   7.884  0.0168 -0.0515  0.0914
11339SOL    HW136972   4.153   8.010   7.947 -0.4068  0.5337  0.8207
11339SOL    HW236973   4.056   8.072   7.848 -1.0456  1.6039  2.0851
11340SOL     OW36974   6.084   5.416   9.282 -0.0496  0.0172  0.1205
11340SOL    HW136975   6.119   5.504   9.295  2.3887 -0.9521  0.4897
11340SOL    HW236976   6.115   5.391   9.195  0.9533 -1.1956  0.8089
11341SOL     OW36977   6.770   6.217   6.323  0.1257  0.4960 -0.1546
11341SOL    HW136978   6.827   6.156   6.276  0.1198  0.1522  0.2749
11341SOL    HW236979   6.749   6.285   6.259 -0.7338 -0.5127 -0.9769
11342SOL     OW36980   1.053   3.789   6.610 -0.5463 -1.0223 -0.0814
11342SOL    HW136981   1.061   3.884   6.616 -0.0663 -1.0913  0.5101
11342SOL    HW236982   0.959   3.773   6.607 -0.7050 -0.6127  1.7017
11343SOL     OW36983   4.264   2.402   2.439 -0.4215  0.5101  0.0691
11343SOL    HW136984   4.255   2.487   2.482  1.1269  0.2129  1.0455
11343SOL    HW236985   4.352   2.372   2.462 -0.6711 -1.0412 -0.8447
11344SOL     OW36986   4.877   5.341  10.501 -0.2902 -0.2725  0.8974
11344SOL    HW136987   4.852   5.329  10.410 -0.7865 -1.5299  1.1784
11344SOL    HW236988   4.888   5.436  10.511  0.0091 -0.1374 -0.5153
11345SOL     OW36989   8.013   2.061   6.984 -0.1401 -0.1370  0.2651
11345SOL    HW136990   7.947   2.001   6.948  0.5184 -1.0285  0.5107
11345SOL    HW236991   7.990   2.069   7.077  0.1194 -0.4928  0.3633
11346SOL     OW36992   8.254   2.616  10.273 -0.2391 -0.3838 -0.1530
11346SOL    HW136993   8.339   2.592  10.309 -0.8449 -1.3674  0.6624
11346SOL    HW236994   8.259   2.590  10.181 -0.0497 -1.5244  0.1665
11347SOL     OW36995   3.637   9.951  10.633  0.2747  0.3967  0.6288
11347SOL    HW136996   3.725   9.943  10.597  0.3740 -0.3142  1.0191
11347SOL    HW236997   3.628  10.044  10.655 -0.4720  1.3262 -2.9326
11348SOL     OW36998   7.738   1.405   4.944  0.0437  0.4118  0.3698
11348SOL    HW136999   7.714   1.393   5.036 -2.4443 -1.2384 -0.3801
11348SOL    HW237000   7.753   1.316   4.911  0.4118  0.9338 -0.9364
11349SOL     OW37001   6.990   5.009   5.285 -0.5337 -0.8096  0.2752
11349SOL    HW137002   6.900   5.024   5.314 -1.0355 -2.1920 -0.4568
11349SOL    HW237003   7.005   5.076   5.218 -0.2701  0.7123  1.7675
11350SOL     OW37004   3.769   5.191   6.473 -0.7341 -0.2501 -0.5497
11350SOL    HW137005   3.812   5.276   6.487  0.6157 -1.2545  2.1914
11350SOL    HW237006   3.678   5.207   6.495 -0.4485  0.4524  0.1994
11351SOL     OW37007   7.202   9.947   3.475 -0.1543  0.0288 -0.5049
11351SOL    HW137008   7.153   9.891   3.536  1.1647 -0.8283 -0.1873
11351SOL    HW237009   7.242  10.013   3.530  0.8073 -0.5769 -0.4567
11352SOL     OW37010   9.258   4.975   2.678  0.4228 -0.5524 -0.1801
11352SOL    HW137011   9.277   4.951   2.769  0.6501 -1.1059 -0.3714
11352SOL    HW237012   9.290   4.901   2.626  0.6594 -0.0611 -0.7442
11353SOL     OW37013   4.739   9.604   1.904  0.0558 -0.3709 -0.3813
11353SOL    HW137014   4.652   9.598   1.865 -0.2770 -0.1006  0.2911
11353SOL    HW237015   4.723   9.644   1.990  0.7889 -0.7436 -0.0679
11354SOL     OW37016   7.105   5.049   0.813  0.0360  0.0749 -0.1165
11354SOL    HW137017   7.043   5.110   0.774 -2.7295 -2.5585 -0.1914
11354SOL    HW237018   7.123   4.985   0.744  1.6092 -0.0976  0.4157
11355SOL     OW37019   2.530   0.918   2.419 -0.3193 -0.2442  0.0015
11355SOL    HW137020   2.623   0.927   2.399 -0.1286 -1.1187  0.4306
11355SOL    HW237021   2.486   0.983   2.364  0.8474  3.1600  2.7363
11356SOL     OW37022   5.006   5.895   6.900 -0.0360  0.2579  0.7982
11356SOL    HW137023   5.061   5.874   6.825 -0.3595  2.3519 -0.0955
11356SOL    HW237024   5.062   5.881   6.976  1.2774  0.9302 -0.0167
11357SOL     OW37025   2.267   9.862   3.412  0.1112 -0.4742  0.1065
11357SOL    HW137026   2.206   9.935   3.423  1.3695  0.8872 -1.3852
11357SOL    HW237027   2.287   9.834   3.502 -1.4828  0.0498  0.6646
11358SOL     OW37028   7.884  10.414   0.966 -0.9494 -0.4954  0.7892
11358SOL    HW137029   7.850  10.440   0.880  0.7394  1.9519  0.7538
11358SOL    HW237030   7.829  10.460   1.029 -0.0463  0.5429  0.8512
11359SOL     OW37031   4.914   9.068   2.251  0.4221 -0.3328 -0.0845
11359SOL    HW137032   4.894   9.132   2.319  0.3700  0.4825 -0.8453
11359SOL    HW237033   5.004   9.087   2.225  0.3355 -0.4306 -0.4598
11360SOL     OW37034   4.582   4.100   5.099  0.0040 -0.4512 -0.2142
11360SOL    HW137035   4.596   4.007   5.080 -0.0727 -0.3334 -0.8750
11360SOL    HW237036   4.658   4.125   5.152  0.8012 -0.5477 -1.2630
11361SOL     OW37037   8.992  10.275  10.477 -0.1777 -0.2735  0.5188
11361SOL    HW137038   8.960  10.229  10.555  0.3541  1.0892  1.5685
11361SOL    HW237039   8.966  10.366  10.489 -0.3508 -0.0720 -1.0622
11362SOL     OW37040  10.567   1.379   0.908  0.3875 -0.0796 -0.3519
11362SOL    HW137041  10.535   1.423   0.986  1.3976 -0.8218  0.5141
11362SOL    HW237042  10.657   1.354   0.930  0.6184 -0.4832 -1.6769
11363SOL     OW37043   1.630   5.020   6.907  0.7225  0.1140  0.5834
11363SOL    HW137044   1.623   5.068   6.990  0.5185  0.4565  0.3684
11363SOL    HW237045   1.570   4.946   6.917  0.8233  0.0601  0.8035
11364SOL     OW37046   8.129   6.328   1.992 -0.9161  0.0763  0.1593
11364SOL    HW137047   8.128   6.387   2.068  0.3050  0.8003 -0.3628
11364SOL    HW237048   8.173   6.378   1.924  0.6845 -1.6541 -0.1318
11365SOL     OW37049   0.485   0.083   1.345  0.2703  0.1536 -0.2618
11365SOL    HW137050   0.511   0.070   1.436  0.1913  0.6446 -0.1677
11365SOL    HW237051   0.556   0.133   1.306 -0.7354  1.9628  0.1349
11366SOL     OW37052   0.156   0.464   3.130 -0.4568 -0.3768  0.5751
11366SOL    HW137053   0.164   0.503   3.043  0.1650 -1.0169  0.3359
11366SOL    HW237054   0.062   0.468   3.150 -0.8125 -1.4907 -0.7333
11367SOL     OW37055   0.213   1.104   7.016  0.1489 -0.9592 -0.0169
11367SOL    HW137056   0.134   1.155   6.996 -0.2581 -1.9637 -1.0565
11367SOL    HW237057   0.275   1.169   7.050 -1.2404 -0.2122  1.1957
11368SOL     OW37058   4.173   3.009  10.593 -0.3511  1.1327 -0.5096
11368SOL    HW137059   4.142   3.097  10.615  1.2133  2.0815 -1.9449
11368SOL    HW237060   4.171   3.005  10.497  1.5871  0.3714 -0.5566
11369SOL     OW37061   0.506  10.052   0.343  0.1968 -0.1642 -0.5986
11369SOL    HW137062   0.480   9.980   0.399 -2.1823  0.4081 -0.8764
11369SOL    HW237063   0.501  10.016   0.254  1.5435 -0.3557 -0.6225
11370SOL     OW37064   1.175   8.607   9.513 -0.3468 -0.1615 -0.4588
11370SOL    HW137065   1.114   8.540   9.483 -0.3984  0.6389 -2.2870
11370SOL    HW237066   1.144   8.688   9.473  1.1100  0.5142 -0.3048
11371SOL     OW37067   5.217   7.229   3.245  0.4745  0.2920 -0.1539
11371SOL    HW137068   5.183   7.278   3.320  0.8369  0.5506 -0.1613
11371SOL    HW237069   5.215   7.291   3.172 -0.9921 -0.2845 -0.6588
11372SOL     OW37070   6.262   0.459   7.840  0.4534 -0.1779 -0.2663
11372SOL    HW137071   6.288   0.390   7.778  0.5336 -0.8393  0.4859
11372SOL    HW237072   6.242   0.534   7.785 -0.9701 -1.2126 -1.2300
11373SOL     OW37073   2.458   5.703   3.704  0.7132 -0.3406 -0.1457
11373SOL    HW137074   2.531   5.738   3.652  1.4252 -2.4108 -0.6266
11373SOL    HW237075   2.415   5.641   3.645 -0.5659 -0.2203  0.6357
11374SOL     OW37076  10.044   4.810   9.246 -0.1448 -0.0107  0.0645
11374SOL    HW137077  10.013   4.884   9.298 -1.0206  0.4165 -1.0172
11374SOL    HW237078   9.989   4.812   9.168 -1.5119 -2.9366  0.8175
11375SOL     OW37079   0.312   1.805  10.116 -0.1800  0.0301  0.7903
11375SOL    HW137080   0.337   1.801  10.209 -0.3356  0.3604  0.8489
11375SOL    HW237081   0.342   1.892  10.088 -0.9253  0.2851  0.7636
11376SOL     OW37082   9.486   1.000   3.151 -0.3146  0.3514  0.3908
11376SOL    HW137083   9.497   1.076   3.094  0.1277  1.0383  1.3783
11376SOL    HW237084   9.495   1.034   3.240  0.6250 -0.9702  0.8385
11377SOL     OW37085   7.392   5.412   6.212 -0.2582  0.0429 -0.7547
11377SOL    HW137086   7.341   5.459   6.279  1.8906  0.7243  0.5000
11377SOL    HW237087   7.469   5.468   6.198  0.8586 -1.6223 -1.5042
11378SOL     OW37088   9.482   1.125   2.836  0.4138  0.4967  0.0118
11378SOL    HW137089   9.529   1.187   2.780  0.3728  0.4484 -0.0763
11378SOL    HW237090   9.390   1.152   2.829  0.2139 -0.4108 -1.1047
11379SOL     OW37091   0.408  10.094   5.950  0.1671 -0.5515 -0.1912
11379SOL    HW137092   0.446  10.041   6.019  0.3723 -0.6758 -0.3940
11379SOL    HW237093   0.431  10.048   5.869  1.3660  0.4255 -0.4513
11380SOL     OW37094   5.867   8.848   5.671 -0.0646 -0.7192 -0.0353
11380SOL    HW137095   5.924   8.782   5.711  0.4511  0.2595  0.9116
11380SOL    HW237096   5.927   8.914   5.637 -0.6131  0.2240  0.7828
11381SOL     OW37097   7.410   1.244   9.053 -0.2204 -0.2307 -0.2864
11381SOL    HW137098   7.444   1.282   8.972  2.1538 -0.1972  0.6565
11381SOL    HW237099   7.436   1.152   9.049 -0.6814 -0.3868  0.1702
11382SOL     OW37100   4.773   2.898   0.948  0.3993  0.1193 -0.4713
11382SOL    HW137101   4.732   2.940   1.024  1.3774  0.5242 -0.1523
11382SOL    HW237102   4.710   2.909   0.877  0.7173  2.3681 -0.4783
11383SOL     OW37103   5.611   7.897   8.311 -0.1843  0.1324 -0.0938
11383SOL    HW137104   5.699   7.866   8.332  0.3236  1.3278 -0.3853
11383SOL    HW237105   5.624   7.957   8.237 -1.4139 -0.7353 -1.0597
11384SOL     OW37106   8.481   3.861   3.888  0.1336  0.2474  0.2598
11384SOL    HW137107   8.510   3.794   3.950 -0.2649  0.5890  0.8198
11384SOL    HW237108   8.553   3.925   3.886  0.4904 -0.1596 -0.2362
11385SOL     OW37109  10.066   2.093   7.230 -0.0386  0.4236  0.4484
11385SOL    HW137110  10.014   2.141   7.166 -0.1549  1.2992  1.1720
11385SOL    HW237111  10.002   2.050   7.286  0.0631 -0.4864 -0.1120
11386SOL     OW37112   0.820   0.710   9.415  0.5840  0.2010  0.2490
11386SOL    HW137113   0.878   0.677   9.346  0.7882  1.0294  0.0064
11386SOL    HW237114   0.843   0.803   9.423  2.5925 -0.4130  3.4172
11387SOL     OW37115   7.548   9.833   5.614 -0.3718  0.0856  0.4858
11387SOL    HW137116   7.633   9.868   5.642 -1.2217  1.6595  1.2550
11387SOL    HW237117   7.487   9.905   5.629 -1.7051 -0.7091 -0.8975
11388SOL     OW37118   5.937   6.637   4.489  0.2573  0.1349  0.4417
11388SOL    HW137119   6.003   6.674   4.430  0.4616 -0.2909  0.4017
11388SOL    HW237120   5.925   6.704   4.556 -1.2509  1.3988 -1.0038
11389SOL     OW37121   0.312   0.500   2.568 -0.1518 -0.4601 -0.2078
11389SOL    HW137122   0.360   0.582   2.574  1.3828 -1.3623  0.4935
11389SOL    HW237123   0.223   0.526   2.544  0.0913  1.4610  0.7506
11390SOL     OW37124   1.989  10.223   7.807  0.1339  0.0068  0.3919
11390SOL    HW137125   2.018  10.234   7.716  0.7216  0.2865  0.6064
11390SOL    HW237126   2.024  10.300   7.852  1.2181 -0.9082  1.1759
11391SOL     OW37127   2.265   8.562   9.141  0.2041 -0.4433  0.2109
11391SOL    HW137128   2.218   8.606   9.211  1.7793 -0.1986  1.1463
11391SOL    HW237129   2.333   8.512   9.185  0.2690 -1.5164 -1.0450
11392SOL     OW37130   7.727  10.428   0.759  0.6648 -0.0191  0.1457
11392SOL    HW137131   7.657  10.364   0.747 -0.4811  1.0902  0.6291
11392SOL    HW237132   7.794  10.403   0.695 -0.5299 -0.6430 -0.9161
11393SOL     OW37133   1.710   1.321   7.006 -0.1711  0.4827  0.2059
11393SOL    HW137134   1.709   1.268   7.086  0.9178  2.6423  1.7768
11393SOL    HW237135   1.703   1.258   6.935 -0.4954 -1.5994  1.9819
11394SOL     OW37136   1.124   1.695   6.464  0.0208 -0.2057  0.0164
11394SOL    HW137137   1.215   1.696   6.437  0.0787  0.7083  0.2112
11394SOL    HW237138   1.077   1.739   6.394 -0.2374 -0.4334  0.0417
11395SOL     OW37139  10.128   4.283   9.064 -0.7087 -0.5569 -0.3853
11395SOL    HW137140  10.146   4.260   9.155  0.4869 -0.3951 -0.5637
11395SOL    HW237141  10.162   4.372   9.054  1.6837 -1.5164 -1.6613
11396SOL     OW37142   3.721   2.508   4.584  0.9470 -0.1660 -0.5489
11396SOL    HW137143   3.779   2.566   4.534 -0.5795 -0.1712 -2.4395
11396SOL    HW237144   3.635   2.521   4.545  0.4995 -3.6394 -1.0422
11397SOL     OW37145   5.626   2.209   9.482  0.7248  0.0909 -0.0229
11397SOL    HW137146   5.575   2.282   9.520 -0.0739 -0.6067  0.2847
11397SOL    HW237147   5.625   2.142   9.550  2.5317  0.2453  0.2037
11398SOL     OW37148   7.646  10.155  10.522  0.2306  1.1435 -0.0897
11398SOL    HW137149   7.635  10.246  10.548  1.0855  1.4133 -0.6367
11398SOL    HW237150   7.669  10.109  10.603 -1.7109  1.1085  0.4876
11399SOL     OW37151   6.280   2.675   2.565  0.1523  0.1513 -0.1103
11399SOL    HW137152   6.248   2.601   2.616  0.4380  0.2985  0.2895
11399SOL    HW237153   6.355   2.641   2.516  0.0026  0.0630 -0.2814
11400SOL     OW37154   6.619   3.984   0.707 -0.4448  0.2886  0.8114
11400SOL    HW137155   6.603   4.053   0.642 -0.5106  0.3353  0.8776
11400SOL    HW237156   6.692   4.017   0.759  1.9413 -1.2048 -1.3688
11401SOL     OW37157   1.934   8.397   6.649 -0.2447  0.3769  0.0535
11401SOL    HW137158   2.006   8.437   6.600 -1.1281  3.5418  1.0842
11401SOL    HW237159   1.871   8.370   6.581  0.4367  0.6643 -0.7127
11402SOL     OW37160   5.593   7.592   3.044  0.0681  0.3059  0.0573
11402SOL    HW137161   5.548   7.622   3.123  1.7144  0.8043  0.8314
11402SOL    HW237162   5.686   7.598   3.065  0.5615  0.8588 -2.0640
11403SOL     OW37163   4.965   5.105   5.837 -0.5405  0.3146  0.8584
11403SOL    HW137164   5.055   5.077   5.858 -1.1385 -1.2814  1.4981
11403SOL    HW237165   4.930   5.136   5.921 -1.1128 -0.7253  1.0330
11404SOL     OW37166   0.910   7.349   8.677  0.4053  0.2085 -0.1189
11404SOL    HW137167   0.900   7.331   8.770 -0.2591 -0.1047 -0.2461
11404SOL    HW237168   1.002   7.375   8.667  0.2685  1.0854  0.7536
11405SOL     OW37169   6.342   2.455   7.154 -0.3880  0.2124  0.0607
11405SOL    HW137170   6.290   2.515   7.208  0.2478  1.3599 -0.5483
11405SOL    HW237171   6.281   2.384   7.131 -1.9351  1.8240 -1.1575
11406SOL     OW37172   7.428   9.346   0.304  0.3377  0.1755 -0.5715
11406SOL    HW137173   7.484   9.298   0.242 -0.6607  0.3151 -1.6263
11406SOL    HW237174   7.340   9.316   0.284  0.1446 -1.8468  2.6807
11407SOL     OW37175   1.592   6.216   9.899  0.1119 -0.6029  0.2572
11407SOL    HW137176   1.609   6.286   9.962  0.9916 -0.2595 -0.3335
11407SOL    HW237177   1.678   6.175   9.885 -0.4652 -2.0908  0.9196
11408SOL     OW37178   8.014   9.526   9.648 -0.1865 -0.1000  0.4904
11408SOL    HW137179   8.021   9.591   9.578 -0.0868  0.4531  1.0065
11408SOL    HW237180   7.930   9.482   9.631  0.2761 -0.6391 -0.5221
11409SOL     OW37181  10.530   9.322   8.042 -0.0767 -0.3851 -0.8057
11409SOL    HW137182  10.565   9.384   7.978  2.9531 -1.3244 -0.2521
11409SOL    HW237183  10.447   9.293   8.005 -0.5282  2.2846 -2.1386
11410SOL     OW37184   6.996   0.316   2.691  0.1990  0.6399  0.3867
11410SOL    HW137185   7.000   0.347   2.781 -0.8060  1.4740  0.1658
11410SOL    HW237186   6.903   0.318   2.669  0.3985  0.1611 -0.5808
11411SOL     OW37187   0.344   5.427   1.062  0.4030 -0.0618  0.1433
11411SOL    HW137188   0.378   5.507   1.104  0.1993  0.6268 -0.9600
11411SOL    HW237189   0.342   5.448   0.969 -0.4854 -1.0598 -0.0837
11412SOL     OW37190   3.623   4.585   6.089 -0.4515 -0.2701  0.2245
11412SOL    HW137191   3.545   4.584   6.145 -0.5658  0.4413  0.0926
11412SOL    HW237192   3.620   4.670   6.046  2.0337  1.1587  2.5579
11413SOL     OW37193   3.111   2.690   5.460 -0.3750 -0.1393  0.0641
11413SOL    HW137194   3.141   2.708   5.371 -0.9113 -1.4007 -0.3965
11413SOL    HW237195   3.037   2.750   5.472 -1.0199 -0.7492 -0.7695
11414SOL     OW37196   4.156   7.476   9.879  0.1301 -0.1499  0.5213
11414SOL    HW137197   4.200   7.391   9.878  1.9232  0.6555  2.4889
11414SOL    HW237198   4.219   7.535   9.921 -1.3606  1.9872 -0.0828
11415SOL     OW37199   2.012   1.242   1.541  0.2503 -0.5446 -0.4125
11415SOL    HW137200   2.064   1.229   1.621 -0.4693  0.9857  0.3276
11415SOL    HW237201   2.074   1.281   1.479 -0.1211  2.0426  0.7251
11416SOL     OW37202   2.958  10.463  10.266  0.4381 -0.3108  0.4796
11416SOL    HW137203   2.896  10.486  10.197 -0.2476 -0.3613  1.0620
11416SOL    HW237204   2.932  10.517  10.340  0.3484 -1.1852  1.1029
11417SOL     OW37205   2.163   5.451   5.087 -0.5578 -0.4452 -0.6971
11417SOL    HW137206   2.114   5.427   5.165  0.3391  1.5034  0.5284
11417SOL    HW237207   2.111   5.521   5.046  0.0898  0.0945 -0.6049
11418SOL     OW37208   3.216   8.891   6.490  0.6850  0.0187 -0.3830
11418SOL    HW137209   3.183   8.812   6.446 -0.4434  0.3026 -0.0885
11418SOL    HW237210   3.226   8.955   6.420 -1.1087  0.4706 -0.2973
11419SOL     OW37211   6.040   3.222   9.247  0.1685 -0.2123  0.6760
11419SOL    HW137212   6.121   3.227   9.299  0.8623 -3.0675  0.0485
11419SOL    HW237213   6.054   3.285   9.176  1.7931 -0.5404  0.6547
11420SOL     OW37214   5.215   3.518   5.994 -0.6061 -0.2903 -0.2757
11420SOL    HW137215   5.183   3.521   6.084 -0.0171 -2.8207  0.0930
11420SOL    HW237216   5.160   3.580   5.947 -0.6697  1.3991  1.8771
11421SOL     OW37217   3.241   5.172   5.619  0.4931 -0.4202  0.1659
11421SOL    HW137218   3.303   5.131   5.679  1.1562  1.4571  0.8234
11421SOL    HW237219   3.261   5.133   5.534  0.3410 -2.2272  0.9122
11422SOL     OW37220   5.555   5.320   7.113 -0.2326  0.3495  0.1175
11422SOL    HW137221   5.472   5.341   7.155 -0.5425  0.3163 -0.4627
11422SOL    HW237222   5.546   5.354   7.024  0.6775  1.0653  0.2804
11423SOL     OW37223   7.167   4.648   1.565  0.2492  0.0815  0.5572
11423SOL    HW137224   7.182   4.700   1.486  0.9004  1.6393  1.6468
11423SOL    HW237225   7.128   4.567   1.534  0.3216  0.7316 -1.3384
11424SOL     OW37226   5.745   8.079   3.918 -0.3453  0.1693 -0.2029
11424SOL    HW137227   5.726   7.991   3.886 -2.0494  0.3544  0.2002
11424SOL    HW237228   5.721   8.138   3.846 -0.1879  0.3494 -0.1096
11425SOL     OW37229   6.561   8.731   8.032 -0.4348  0.2346 -0.6128
11425SOL    HW137230   6.468   8.708   8.041 -0.6533  1.2070 -0.3105
11425SOL    HW237231   6.604   8.691   8.108 -0.7043  0.3053 -0.4236
11426SOL     OW37232   3.271  10.341   0.605 -0.0815 -0.0247  0.1389
11426SOL    HW137233   3.354  10.324   0.651 -1.1185 -2.2335  1.3434
11426SOL    HW237234   3.264  10.271   0.541  0.3625  1.8958 -2.1547
11427SOL     OW37235   5.623  10.516   7.154  0.4271  0.5544 -0.0412
11427SOL    HW137236   5.597  10.488   7.242  1.5084 -1.0536 -0.1713
11427SOL    HW237237   5.696  10.458   7.132  0.3290  1.0841 -1.9166
11428SOL     OW37238   0.345   1.055   2.886 -0.3196 -0.1776  0.0630
11428SOL    HW137239   0.325   0.966   2.855  0.0633  0.4579 -2.1512
11428SOL    HW237240   0.281   1.070   2.956 -1.1502 -1.7712 -0.2981
11429SOL     OW37241   7.598   7.273  10.349 -0.5381 -0.1173 -0.4055
11429SOL    HW137242   7.630   7.280  10.439 -1.7184  2.4246 -0.0854
11429SOL    HW237243   7.676   7.260  10.296  0.6401  2.0207  0.6915
11430SOL     OW37244   9.895   3.407   2.581  0.5875  0.7984  0.1960
11430SOL    HW137245   9.895   3.453   2.497 -0.2359  1.1955  0.4080
11430SOL    HW237246   9.885   3.314   2.558 -0.1996  0.9553 -0.1263
11431SOL     OW37247   4.693   6.908   4.223 -0.0244  0.1483 -0.2684
11431SOL    HW137248   4.779   6.872   4.204 -0.1529 -2.3031  2.8729
11431SOL    HW237249   4.636   6.873   4.154  1.1942  0.5640 -1.5119
11432SOL     OW37250   1.810   0.404   0.479 -0.7221  0.1259 -0.2124
11432SOL    HW137251   1.783   0.453   0.557 -1.7383 -0.5592 -0.1236
11432SOL    HW237252   1.768   0.319   0.488 -0.0575 -0.3031 -1.0383
11433SOL     OW37253   8.605   2.662   7.260  0.6056  0.2295 -0.2592
11433SOL    HW137254   8.678   2.676   7.321  0.6761 -0.4543 -0.1756
11433SOL    HW237255   8.645   2.618   7.185  0.1794 -0.6856  0.0410
11434SOL     OW37256   2.630   4.944   0.042 -0.2338  0.1377  0.0338
11434SOL    HW137257   2.714   4.977   0.074 -1.0524  2.5167 -0.1049
11434SOL    HW237258   2.643   4.931  -0.052  0.1313 -0.0644  0.1108
11435SOL     OW37259   2.047   6.377   1.307 -0.1961 -0.4758  0.1532
11435SOL    HW137260   2.022   6.413   1.392  0.4248  1.8508 -0.5869
11435SOL    HW237261   2.139   6.352   1.319 -0.1472 -0.2737  0.2119
11436SOL     OW37262   0.478   5.123  10.245  0.5852 -0.4318  0.0371
11436SOL    HW137263   0.523   5.161  10.320  1.4880  0.2839 -0.8389
11436SOL    HW237264   0.388   5.109  10.275  0.1364  2.5775  0.3918
11437SOL     OW37265   3.779   6.701   7.928 -0.3112  0.2471  0.0321
11437SOL    HW137266   3.849   6.636   7.922 -0.0845  0.4648  0.2612
11437SOL    HW237267   3.824   6.782   7.955 -0.8966 -0.0484  2.0808
11438SOL     OW37268  10.366   8.098   2.096  0.5834  0.0885  0.4356
11438SOL    HW137269  10.414   8.053   2.165 -0.0932 -1.7134 -0.2146
11438SOL    HW237270  10.425   8.168   2.068  3.0760 -2.2299 -0.5804
11439SOL     OW37271   9.319   3.334   1.816 -0.0543 -0.1550 -0.1020
11439SOL    HW137272   9.267   3.410   1.791  0.1583  1.4170  3.6238
11439SOL    HW237273   9.409   3.367   1.823  0.1402 -0.8644  1.0193
11440SOL     OW37274   6.321  10.051   9.000  0.2124  0.2437  0.3057
11440SOL    HW137275   6.239  10.101   9.005 -0.0693  0.1771 -2.0784
11440SOL    HW237276   6.301   9.968   9.043 -1.0685  0.1656 -0.3626
11441SOL     OW37277   6.321   1.129  10.559 -0.0108 -0.3758 -0.2587
11441SOL    HW137278   6.258   1.057  10.554 -2.4416  1.6959 -1.4066
11441SOL    HW237279   6.345   1.133  10.652 -1.6666 -1.1680  0.2363
11442SOL     OW37280   0.765   3.073   6.079 -0.3659 -0.1406 -0.5959
11442SOL    HW137281   0.797   3.161   6.063 -0.4875 -0.1247 -0.7556
11442SOL    HW237282   0.748   3.070   6.173 -1.1645  0.2798 -0.7171
11443SOL     OW37283   2.959   6.179   3.335 -0.3991 -0.1195  0.2306
11443SOL    HW137284   2.913   6.243   3.280 -0.2745  2.1869  2.6109
11443SOL    HW237285   2.893   6.152   3.399 -0.2447 -1.9138 -0.3358
11444SOL     OW37286   5.445   5.050   2.493  0.3316 -0.1737 -0.2197
11444SOL    HW137287   5.376   5.109   2.460 -0.5200 -0.9236  0.1821
11444SOL    HW237288   5.484   5.098   2.566 -0.4774 -0.1591  0.2211
11445SOL     OW37289   8.177   5.263   3.628  0.2905  0.1111  0.0063
11445SOL    HW137290   8.219   5.325   3.688 -0.0385 -0.2682  0.6490
11445SOL    HW237291   8.124   5.318   3.570  0.2230  0.4583  0.3867
11446SOL     OW37292   5.440  10.211   9.875  0.0283  0.0501  0.2149
11446SOL    HW137293   5.511  10.227   9.938  1.8584 -0.7930 -1.4948
11446SOL    HW237294   5.408  10.123   9.897  0.1927  0.0378  0.4080
11447SOL     OW37295   5.856   1.432   4.601 -0.0374 -0.4072 -0.0218
11447SOL    HW137296   5.874   1.517   4.559  0.4694 -0.6839 -0.3781
11447SOL    HW237297   5.904   1.369   4.547 -1.3379 -1.0678 -0.4483
11448SOL     OW37298   0.130   0.795   3.664 -0.4268 -0.1259  0.2196
11448SOL    HW137299   0.220   0.800   3.634 -1.3353 -1.6971 -3.2230
11448SOL    HW237300   0.128   0.719   3.722 -0.0617 -2.1280 -2.2515
11449SOL     OW37301  10.294   9.646   1.519  0.2572  0.2938  0.2162
11449SOL    HW137302  10.377   9.686   1.494 -0.2959  0.6374 -1.2015
11449SOL    HW237303  10.295   9.643   1.615  2.7235 -1.4872  0.2105
11450SOL     OW37304   1.686   3.927   6.652 -0.0231 -0.2572 -0.5164
11450SOL    HW137305   1.755   3.879   6.698 -0.6670  0.4196  1.2889
11450SOL    HW237306   1.604   3.892   6.689 -0.5707  0.4315 -1.0441
11451SOL     OW37307   1.238   4.119   8.525  0.1661  0.1714  0.1576
11451SOL    HW137308   1.305   4.073   8.475 -0.1815  0.3010 -0.4434
11451SOL    HW237309   1.157   4.105   8.476 -1.2146 -3.6344  3.0325
11452SOL     OW37310   8.348   8.252   5.266 -0.1228 -0.2372  0.1097
11452SOL    HW137311   8.318   8.322   5.325 -0.6102  0.1670 -0.6091
11452SOL    HW237312   8.427   8.288   5.224 -0.0360 -0.3512  0.1730
11453SOL     OW37313   7.871   2.128   5.603  0.2326  0.0024  0.7666
11453SOL    HW137314   7.858   2.179   5.683  3.1345  0.9753  0.7464
11453SOL    HW237315   7.930   2.181   5.550 -1.8293 -0.4764 -2.2328
11454SOL     OW37316   1.063   9.932  10.182 -0.9179  0.1926  0.0993
11454SOL    HW137317   1.071   9.963  10.092 -0.5596  1.6076  0.5845
11454SOL    HW237318   0.987   9.874  10.181 -1.1565  0.5083 -1.0281
11455SOL     OW37319   6.317   2.105   2.118  0.3895  0.4626  0.0422
11455SOL    HW137320   6.268   2.186   2.104 -1.0246  0.1113  2.2813
11455SOL    HW237321   6.250   2.041   2.144  1.5980 -1.1309 -0.6072
11456SOL     OW37322   3.870   9.416   3.683  0.1447  0.1777  0.2454
11456SOL    HW137323   3.960   9.443   3.701  1.0264 -2.0197 -0.4851
11456SOL    HW237324   3.849   9.354   3.753 -0.8384  0.6763  0.4168
11457SOL     OW37325   5.371   5.485   4.901  0.0902 -0.3475 -0.8904
11457SOL    HW137326   5.377   5.574   4.936  1.0708 -0.2296 -1.3203
11457SOL    HW237327   5.450   5.442   4.933  0.9913 -0.2660 -2.8556
11458SOL     OW37328   1.107   8.129   5.173  0.4178 -0.2282 -0.2304
11458SOL    HW137329   1.031   8.082   5.136  0.1098 -0.2316  0.3938
11458SOL    HW237330   1.119   8.090   5.260  0.6751  0.2877 -0.0328
11459SOL     OW37331   4.955   3.083   0.351 -0.1504  0.0666 -0.2628
11459SOL    HW137332   5.027   3.077   0.415  0.6175  0.9685 -1.0030
11459SOL    HW237333   4.912   2.998   0.356  0.6359 -0.3076  0.5990
11460SOL     OW37334   0.380   6.943  10.491 -0.1415 -0.3305 -0.3370
11460SOL    HW137335   0.337   6.970  10.409 -1.0308 -0.3579  0.1093
11460SOL    HW237336   0.331   6.866  10.519 -0.7465  0.5041  0.9502
11461SOL     OW37337   3.722   1.597   5.717  0.7699  0.2273 -0.1828
11461SOL    HW137338   3.709   1.518   5.770  2.3610 -0.4266 -0.6873
11461SOL    HW237339   3.700   1.571   5.628 -1.5167  1.2140  0.0400
11462SOL     OW37340  10.138  10.352   3.923 -0.5215  0.1400 -0.7304
11462SOL    HW137341  10.097  10.318   3.844  0.3051  0.3809 -1.2691
11462SOL    HW237342  10.069  10.345   3.990 -1.0255 -0.6329 -1.3130
11463SOL     OW37343   9.085   2.586   4.860  0.2708 -0.7847  0.2119
11463SOL    HW137344   9.100   2.657   4.922  1.5919 -0.1705 -0.7623
11463SOL    HW237345   8.994   2.598   4.831 -0.2785 -0.9270  1.7867
11464SOL     OW37346   4.635   9.508   9.660 -0.4158  0.1977 -0.3497
11464SOL    HW137347   4.695   9.582   9.666 -2.7982  2.1557  1.5809
11464SOL    HW237348   4.661   9.450   9.732  0.1185  0.2026 -0.5344
11465SOL     OW37349   7.589   7.949   5.033 -0.8299  0.9682  0.0378
11465SOL    HW137350   7.587   7.914   4.944 -3.2886 -1.6011  0.9598
11465SOL    HW237351   7.528   8.023   5.032 -0.5792  1.1675 -0.4742
11466SOL     OW37352   0.801   8.086   7.230  0.3418  0.2939  0.4201
11466SOL    HW137353   0.761   8.124   7.152 -1.9520  2.1362  2.3066
11466SOL    HW237354   0.895   8.085   7.212 -0.0563  1.2902 -2.0553
11467SOL     OW37355   0.539   2.494  10.432 -0.0089  0.2632 -0.8908
11467SOL    HW137356   0.479   2.534  10.494 -0.4461 -0.0754 -1.0956
11467SOL    HW237357   0.598   2.442  10.487 -1.1609 -1.0330 -0.8413
11468SOL     OW37358   8.915   4.427   4.793  0.2380  0.1011  0.0106
11468SOL    HW137359   8.995   4.475   4.771  0.5664 -0.0368  0.8615
11468SOL    HW237360   8.846   4.494   4.790  0.5977  0.5124  0.5827
11469SOL     OW37361   7.584   6.980   1.570  0.0674 -0.0327  0.2306
11469SOL    HW137362   7.522   7.039   1.527 -0.1025 -0.3860 -0.0096
11469SOL    HW237363   7.586   6.902   1.515  3.1090  1.1318 -1.5963
11470SOL     OW37364   6.268   1.543  10.216 -0.3842  0.0809 -0.2566
11470SOL    HW137365   6.296   1.475  10.155 -0.5494  0.5557 -0.8704
11470SOL    HW237366   6.224   1.496  10.286  1.4154 -0.6543  0.4507
11471SOL     OW37367   7.781   9.450   3.057  0.0163  0.6722  0.1088
11471SOL    HW137368   7.862   9.473   3.011 -1.2018  0.5606 -2.2059
11471SOL    HW237369   7.798   9.363   3.093  1.0374  0.8185  0.0347
11472SOL     OW37370   6.244  10.661   6.996 -0.4722  0.4256 -0.4650
11472SOL    HW137371   6.309  10.604   6.958 -0.1979 -0.1974  0.8714
11472SOL    HW237372   6.166  10.650   6.941 -0.1714 -0.6141 -0.6957
11473SOL     OW37373   5.013   2.705  10.420 -0.5111 -0.5946  0.1646
11473SOL    HW137374   5.050   2.655  10.348  1.3477 -2.2057  2.1031
11473SOL    HW237375   5.080   2.769  10.444 -1.2003  0.0959  0.3336
11474SOL     OW37376   9.003   0.575   0.056  0.4821  0.4537 -0.0010
11474SOL    HW137377   9.062   0.558   0.130 -0.3375  0.0305  0.5694
11474SOL    HW237378   9.053   0.548  -0.021  0.9221 -0.2142  0.5039
11475SOL     OW37379   3.743   5.833   8.040  0.6296  0.3111  0.2586
11475SOL    HW137380   3.760   5.924   8.016  0.0561  0.3762  0.1022
11475SOL    HW237381   3.827   5.802   8.076  0.8536  0.8676  0.2235
11476SOL     OW37382   4.528   8.079   2.527 -0.0297 -0.5100 -0.0668
11476SOL    HW137383   4.522   8.154   2.468  0.1769 -0.8441 -0.5167
11476SOL    HW237384   4.605   8.030   2.496 -0.7694 -1.4722 -0.4337
11477SOL     OW37385   1.646   2.280  10.338  0.2818  0.2476 -0.1045
11477SOL    HW137386   1.553   2.288  10.361  0.0802 -2.1293  0.2206
11477SOL    HW237387   1.663   2.355  10.281 -1.6033  1.2237  0.5297
11478SOL     OW37388   1.219   6.357   0.545  0.2445 -0.7013 -0.0952
11478SOL    HW137389   1.138   6.317   0.514 -0.3961  0.0751  0.5344
11478SOL    HW237390   1.274   6.363   0.467 -1.3222  1.2137 -1.1331
11479SOL     OW37391   1.370   5.347   1.488  0.9611 -0.6022 -0.2721
11479SOL    HW137392   1.337   5.259   1.507  0.5176 -0.1289  1.3319
11479SOL    HW237393   1.454   5.352   1.534  0.3915  0.2090  0.7408
11480SOL     OW37394   2.719   8.816   4.145 -0.0202 -0.4150  0.3259
11480SOL    HW137395   2.705   8.911   4.154  0.0205 -0.3021 -0.6778
11480SOL    HW237396   2.809   8.802   4.173  0.0476 -0.1237  0.2550
11481SOL     OW37397   2.975   1.301   6.502 -0.3801  0.5074  0.5127
11481SOL    HW137398   2.883   1.320   6.484 -0.2508  0.3458 -0.3901
11481SOL    HW237399   3.021   1.335   6.425  0.3517  0.9185  1.1259
11482SOL     OW37400   0.185   1.405   9.176 -0.0130 -0.1087  0.2121
11482SOL    HW137401   0.146   1.439   9.095 -1.1317 -1.1232  0.2914
11482SOL    HW237402   0.213   1.316   9.154  1.2662  0.2129  0.4772
11483SOL     OW37403  10.117   0.977   8.036 -0.1667  0.2231 -0.0250
11483SOL    HW137404  10.089   1.042   8.100  0.5756  0.6522 -0.1272
11483SOL    HW237405  10.091   1.014   7.951  1.2119  0.9140 -0.1705
11484SOL     OW37406   8.838   4.077   8.107 -0.0723  0.9683  0.5811
11484SOL    HW137407   8.850   4.081   8.202  1.1169 -0.5238  0.5354
11484SOL    HW237408   8.911   4.023   8.076 -2.2634 -1.4485 -0.7983
11485SOL     OW37409   8.964   8.771   8.604  0.0401  0.2773 -0.1935
11485SOL    HW137410   8.889   8.711   8.602  0.1282  0.1838 -1.1370
11485SOL    HW237411   8.985   8.787   8.512  2.0351 -0.7830  0.0167
11486SOL     OW37412   9.770   8.122   0.857 -0.0401 -0.7063 -0.4342
11486SOL    HW137413   9.856   8.080   0.857  0.4579  0.2813 -0.7450
11486SOL    HW237414   9.771   8.178   0.935 -0.4594 -0.7923 -0.3621
11487SOL     OW37415   2.121   1.509   9.937  0.2435 -0.1683  0.0948
11487SOL    HW137416   2.160   1.463  10.011  0.3559 -1.3692 -0.6908
11487SOL    HW237417   2.028   1.492   9.943  0.2220 -0.0572  0.0907
11488SOL     OW37418   7.704   6.767   2.118 -0.2121  0.2566 -0.4502
11488SOL    HW137419   7.641   6.772   2.190 -0.4121  3.1109 -0.7043
11488SOL    HW237420   7.650   6.754   2.040 -0.1363 -1.0400 -0.3074
11489SOL     OW37421   4.564   8.100  10.043  0.0415  0.8342  0.1939
11489SOL    HW137422   4.474   8.114  10.073 -0.9182 -1.9303 -1.1345
11489SOL    HW237423   4.606   8.055  10.116 -0.8388 -1.3307 -0.5509
11490SOL     OW37424   4.953   6.143   7.233  0.1689 -0.3155 -0.0574
11490SOL    HW137425   4.866   6.110   7.207  0.5611 -1.9621  0.5717
11490SOL    HW237426   5.014   6.083   7.191  1.0438  1.0994 -0.8599
11491SOL     OW37427   1.812   1.606   5.090 -0.1102  0.2884  0.0718
11491SOL    HW137428   1.719   1.627   5.078  0.4685  1.7900 -2.4177
11491SOL    HW237429   1.856   1.691   5.089  1.4731 -0.5111 -0.6614
11492SOL     OW37430   7.092   5.416   2.756 -0.1669  0.5147  0.3166
11492SOL    HW137431   7.039   5.369   2.820 -0.1878 -2.1302 -1.5181
11492SOL    HW237432   7.030   5.444   2.689  0.3780 -0.1998 -0.4951
11493SOL     OW37433   9.810   4.186  10.577 -0.2863  0.4068 -0.6112
11493SOL    HW137434   9.749   4.190  10.651  1.4127 -0.8546  0.9636
11493SOL    HW237435   9.838   4.277  10.565 -0.3639  0.5941  0.5150
11494SOL     OW37436   6.816   9.573   0.982  0.6783 -0.1304 -0.4260
11494SOL    HW137437   6.798   9.659   1.019 -1.5844 -0.6191 -0.2298
11494SOL    HW237438   6.822   9.515   1.058  3.3621 -0.0436 -0.4730
11495SOL     OW37439   8.443   7.658   3.932  0.0169 -0.1186 -0.4718
11495SOL    HW137440   8.531   7.671   3.896  0.6868  0.7590  1.3636
11495SOL    HW237441   8.385   7.704   3.871  1.3163  3.0496  0.4536
11496SOL     OW37442   2.014   2.555   4.760 -0.0872  0.2261 -0.1439
11496SOL    HW137443   2.097   2.511   4.779  0.5444  0.9533 -1.0962
11496SOL    HW237444   2.021   2.639   4.806  0.0878  0.6466 -0.9162
11497SOL     OW37445   0.146   2.990  10.489 -0.2946  0.9369 -0.3550
11497SOL    HW137446   0.202   3.068  10.492  0.4935  0.3642  0.1631
11497SOL    HW237447   0.148   2.955  10.578  0.0162 -0.1217 -0.7643
11498SOL     OW37448   3.289   4.289   2.319  0.3262 -0.6107 -0.4447
11498SOL    HW137449   3.290   4.377   2.357  0.8562 -0.8412  0.0852
11498SOL    HW237450   3.201   4.256   2.335  0.2040 -0.2715 -0.4231
11499SOL     OW37451   8.708   4.321   7.276 -0.2176 -0.4343 -0.0782
11499SOL    HW137452   8.767   4.320   7.200  0.3000 -0.2738  0.3164
11499SOL    HW237453   8.745   4.387   7.335 -0.0916 -1.2007  0.7199
11500SOL     OW37454   2.399   9.498   1.464  0.2737 -0.3597  0.4865
11500SOL    HW137455   2.443   9.563   1.519  2.4541 -0.5961 -0.8718
11500SOL    HW237456   2.344   9.550   1.405 -1.6253 -0.0797  2.3675
11501SOL     OW37457   9.852   6.124   1.534 -0.3651  0.2890 -0.2631
11501SOL    HW137458   9.881   6.048   1.586  1.0309  0.9278 -0.0592
11501SOL    HW237459   9.795   6.173   1.593 -1.0202 -0.4161 -0.2870
11502SOL     OW37460   5.662   7.279   5.455  0.0161  0.4073 -0.3898
11502SOL    HW137461   5.727   7.268   5.524  1.7286  1.4834 -1.7596
11502SOL    HW237462   5.693   7.223   5.383  0.4085  2.1842 -1.6818
11503SOL     OW37463   3.164   0.913   2.668  0.3063  0.0050  0.3214
11503SOL    HW137464   3.235   0.954   2.619 -0.5441  0.7842 -0.2966
11503SOL    HW237465   3.178   0.819   2.657 -0.4961  0.1251 -2.4396
11504SOL     OW37466   0.343   1.889   3.376  0.5089  0.1227  0.0189
11504SOL    HW137467   0.404   1.927   3.439 -1.0866  0.3548  1.4750
11504SOL    HW237468   0.281   1.959   3.356 -0.1336 -0.5360 -0.3383
11505SOL     OW37469   4.986   9.703   1.338  0.0955 -0.7822 -0.2634
11505SOL    HW137470   5.017   9.636   1.400  3.3763 -1.0187 -1.9686
11505SOL    HW237471   5.037   9.688   1.259 -0.4727  2.5391 -1.4034
11506SOL     OW37472   9.706   7.130   7.598  0.2108 -0.2081 -0.0989
11506SOL    HW137473   9.705   7.088   7.512 -1.8135  2.1410 -1.3346
11506SOL    HW237474   9.656   7.071   7.655 -0.8937 -0.4304 -1.2760
11507SOL     OW37475   9.305   9.799   8.552  0.0783  0.4192 -1.1906
11507SOL    HW137476   9.360   9.733   8.511  1.4550  1.4333 -1.0610
11507SOL    HW237477   9.240   9.821   8.486 -1.1330 -1.8142 -0.8548
11508SOL     OW37478   7.894   7.717   5.608  0.1666  0.7215 -0.4899
11508SOL    HW137479   7.854   7.727   5.521  0.1707 -0.7799 -0.6856
11508SOL    HW237480   7.945   7.636   5.602  1.1199  1.2231  0.5621
11509SOL     OW37481   5.408   7.323   7.161  0.4434  0.3912 -0.7418
11509SOL    HW137482   5.423   7.337   7.068 -0.6812 -1.6316 -1.2897
11509SOL    HW237483   5.319   7.354   7.176  0.6649  0.8314 -0.2891
11510SOL     OW37484   4.031   8.052   5.283  0.2797 -0.1234 -0.0924
11510SOL    HW137485   4.081   7.985   5.331 -0.2970  1.5325  3.1255
11510SOL    HW237486   3.941   8.041   5.316  0.2585  2.4326  0.9041
11511SOL     OW37487  10.470   7.089   6.977  0.4163 -1.0671  0.2631
11511SOL    HW137488  10.439   7.065   7.064  1.3473 -1.0542  0.6176
11511SOL    HW237489  10.497   7.180   6.985  0.5923 -1.0922 -0.0086
11512SOL     OW37490  10.613   9.709   9.838 -0.2628 -0.3422 -0.5103
11512SOL    HW137491  10.558   9.656   9.781 -1.2633  0.5286 -0.3758
11512SOL    HW237492  10.562   9.719   9.918  0.2294  0.1976 -0.2575
11513SOL     OW37493   9.773   5.953   6.885  0.5879  0.0286  0.1921
11513SOL    HW137494   9.787   5.860   6.902 -1.4923 -0.0840  1.6696
11513SOL    HW237495   9.824   5.998   6.952 -0.5813 -0.1718  1.2576
11514SOL     OW37496   4.081   3.908   0.191  0.3906  0.5874 -0.2057
11514SOL    HW137497   4.091   3.899   0.286 -0.7040 -0.3604 -0.1604
11514SOL    HW237498   4.084   4.003   0.176  0.0960  0.7762  0.8338
11515SOL     OW37499   7.483   8.864   9.473  0.2707  0.8708 -0.4107
11515SOL    HW137500   7.575   8.889   9.477  1.0962 -1.9023  0.6216
11515SOL    HW237501   7.457   8.881   9.383  1.6066  2.2222 -0.5797
11516SOL     OW37502   0.104   6.318   1.683 -0.4856 -0.0066 -0.1194
11516SOL    HW137503   0.174   6.340   1.744 -0.2306  0.6100 -0.6155
11516SOL    HW237504   0.102   6.392   1.622  0.7855 -1.5682 -2.2065
11517SOL     OW37505   0.450   7.344   0.040  0.4701 -0.1924 -0.0305
11517SOL    HW137506   0.528   7.348  -0.016 -0.3037  0.5117 -1.0976
11517SOL    HW237507   0.459   7.262   0.089  1.3969 -0.5934 -0.8460
11518SOL     OW37508   8.241   4.595   8.782  0.1125  0.3573 -0.4250
11518SOL    HW137509   8.326   4.582   8.824 -0.5152  1.3321  1.2312
11518SOL    HW237510   8.259   4.651   8.706  1.1466 -0.7468 -1.0310
11519SOL     OW37511   8.252   5.321   4.055 -0.1453  0.1119  0.8073
11519SOL    HW137512   8.228   5.382   3.985 -1.5551  0.5461  1.6390
11519SOL    HW237513   8.346   5.310   4.045 -0.3191 -0.0095 -1.2935
11520SOL     OW37514   6.229   8.529   9.782  0.1982  0.5565 -0.0599
11520SOL    HW137515   6.311   8.529   9.733 -0.0616  2.2265 -0.5391
11520SOL    HW237516   6.255   8.546   9.873  0.2695  4.2836 -0.6142
11521SOL     OW37517   1.797  10.210   6.847 -0.1582 -0.5098  0.1310
11521SOL    HW137518   1.723  10.248   6.800 -0.2537  0.1574  0.7992
11521SOL    HW237519   1.874  10.236   6.796 -0.3121 -0.4364 -0.0669
11522SOL     OW37520   4.116   5.123   8.049  0.2920 -1.2411  0.0231
11522SOL    HW137521   4.198   5.166   8.072 -0.0172 -0.8448  0.4028
11522SOL    HW237522   4.093   5.072   8.126  1.1182 -2.8458 -0.7388
11523SOL     OW37523   5.353   2.277   3.793 -0.1104 -0.2715 -0.6511
11523SOL    HW137524   5.270   2.265   3.839 -0.3876  0.6141 -0.9184
11523SOL    HW237525   5.418   2.239   3.853 -0.7514 -1.5417 -0.7110
11524SOL     OW37526  10.460   1.280   9.290 -0.2329 -0.3162 -0.1268
11524SOL    HW137527  10.458   1.185   9.286  0.9433 -0.3742  0.3461
11524SOL    HW237528  10.477   1.300   9.382  0.9281  0.3092 -0.4575
11525SOL     OW37529   8.421   4.760   8.951  0.2556 -0.5606 -0.4985
11525SOL    HW137530   8.444   4.772   8.859 -0.9310 -1.0803 -0.8886
11525SOL    HW237531   8.343   4.814   8.963 -1.4935 -2.8565 -0.6821
11526SOL     OW37532   1.430   5.505   2.665 -0.2424 -0.3203 -0.2693
11526SOL    HW137533   1.387   5.574   2.615  0.2298 -1.4264 -2.3279
11526SOL    HW237534   1.358   5.458   2.708 -0.8065 -0.2012 -1.0699
11527SOL     OW37535   1.491   0.920   0.997  0.2350  0.2390  0.1985
11527SOL    HW137536   1.481   1.014   0.983 -1.1308  0.0370 -0.3211
11527SOL    HW237537   1.485   0.882   0.909 -3.0370 -0.6132  0.6561
11528SOL     OW37538   8.695   5.267   0.628  0.2972 -0.2098  0.1944
11528SOL    HW137539   8.745   5.336   0.670  0.1361  0.3647 -0.5427
11528SOL    HW237540   8.607   5.275   0.665  0.6740 -1.0545  1.2965
11529SOL     OW37541   3.689   9.206   0.968  0.3749  0.1570  0.3339
11529SOL    HW137542   3.732   9.122   0.986 -0.7099 -0.8884 -1.5697
11529SOL    HW237543   3.597   9.182   0.953 -0.1146  1.8198  0.5231
11530SOL     OW37544   2.594  10.537   3.085 -0.5589 -0.3786 -0.0061
11530SOL    HW137545   2.569  10.540   3.178  0.9443 -0.4359  0.4291
11530SOL    HW237546   2.690  10.533   3.087 -0.5163 -0.4179 -1.5708
11531SOL     OW37547   2.253   5.506   0.133  1.0902 -0.2871  0.4611
11531SOL    HW137548   2.349   5.510   0.136  1.0605  0.1859  1.0947
11531SOL    HW237549   2.225   5.547   0.215  0.3211  0.6748 -0.2575
11532SOL     OW37550   7.364   7.621   3.617 -0.2886 -0.5014 -0.9711
11532SOL    HW137551   7.292   7.684   3.611 -1.2058 -1.5216 -1.0696
11532SOL    HW237552   7.338   7.550   3.557 -0.4462 -2.0738  0.8629
11533SOL     OW37553   2.530   1.583   7.024 -0.1244  0.0479  0.2718
11533SOL    HW137554   2.541   1.488   7.035  0.4887 -0.1100 -1.4584
11533SOL    HW237555   2.604   1.621   7.071 -0.0066 -0.3604  0.4234
11534SOL     OW37556   0.260   7.146   7.843  0.0139  0.1935  0.1954
11534SOL    HW137557   0.308   7.090   7.905  0.1021 -0.6378 -0.5912
11534SOL    HW237558   0.327   7.202   7.805  0.5517 -1.4184 -1.3899
11535SOL     OW37559   9.360   7.442   6.458 -0.0405 -0.0449 -0.1201
11535SOL    HW137560   9.395   7.437   6.547  0.7812  1.4056 -0.3293
11535SOL    HW237561   9.408   7.374   6.409 -0.3205 -0.6811  0.4763
11536SOL     OW37562   6.824   3.049   5.812 -0.6013 -0.1919  0.3721
11536SOL    HW137563   6.885   3.014   5.747  0.0446  1.4462  0.0475
11536SOL    HW237564   6.869   3.040   5.896 -0.8576 -1.0138  0.4353
11537SOL     OW37565   8.338   9.260   1.277  0.0560  0.3610  0.6684
11537SOL    HW137566   8.391   9.328   1.317  1.9924 -0.1150 -0.8946
11537SOL    HW237567   8.347   9.275   1.183 -0.9702 -0.9523  0.3322
11538SOL     OW37568   1.306   7.432   3.458  0.4882 -0.3778  0.1821
11538SOL    HW137569   1.341   7.386   3.381  0.8735  1.4085 -0.7643
11538SOL    HW237570   1.364   7.407   3.530  1.2588 -0.6112 -0.5122
11539SOL     OW37571   9.333   0.175   2.675  0.6450 -0.5348  0.0721
11539SOL    HW137572   9.308   0.087   2.703 -0.5591 -0.8107 -1.7455
11539SOL    HW237573   9.379   0.162   2.592  0.4030  0.5624 -0.2483
11540SOL     OW37574   1.611   0.263   9.637 -0.2716  0.1716 -0.1313
11540SOL    HW137575   1.671   0.222   9.574 -0.7813 -1.6410  0.4927
11540SOL    HW237576   1.524   0.254   9.596 -0.1727  3.1191 -1.2104
11541SOL     OW37577   3.530   7.843   6.413  0.4785  1.0142  0.1195
11541SOL    HW137578   3.526   7.939   6.414  1.5925  1.1332 -1.8257
11541SOL    HW237579   3.623   7.823   6.425  0.1880  0.1490  0.9974
11542SOL     OW37580   4.396   2.195   1.192  0.1353  0.0988  0.0422
11542SOL    HW137581   4.376   2.109   1.155  0.7378  0.0820 -0.2616
11542SOL    HW237582   4.440   2.176   1.275  2.0051  0.0420 -0.8954
11543SOL     OW37583   1.099   0.624   5.734 -0.1822 -0.3035 -0.3583
11543SOL    HW137584   1.137   0.536   5.725 -1.9215 -1.1574  0.2392
11543SOL    HW237585   1.081   0.652   5.644 -0.2909 -0.8730 -0.5181
11544SOL     OW37586   4.461   7.461   6.877  0.0477 -0.0942  0.5597
11544SOL    HW137587   4.378   7.447   6.922 -0.0985  3.2668  1.5868
11544SOL    HW237588   4.524   7.479   6.947  0.5271  2.0056 -0.3219
11545SOL     OW37589   9.101   4.418   0.151 -0.4897 -0.1131  0.0352
11545SOL    HW137590   9.123   4.347   0.211 -1.0856 -1.1827 -0.9746
11545SOL    HW237591   9.186   4.451   0.121 -0.1789  0.5440  1.5465
11546SOL     OW37592   2.431   1.224   4.871 -0.1330 -0.0671  0.0521
11546SOL    HW137593   2.410   1.198   4.782 -1.1775  2.5267 -0.5276
11546SOL    HW237594   2.357   1.195   4.924 -0.7738  0.7181 -0.3994
11547SOL     OW37595   0.632   3.930   5.745 -0.4342  0.8030  0.7025
11547SOL    HW137596   0.693   3.946   5.817 -0.8651  0.7676  1.0782
11547SOL    HW237597   0.555   3.891   5.787 -0.6798  0.7665  0.2205
11548SOL     OW37598   7.008   3.898   1.358 -0.0359  0.0200 -0.3867
11548SOL    HW137599   7.065   3.970   1.386  0.5817 -0.2640 -0.8796
11548SOL    HW237600   7.068   3.835   1.316 -0.5562 -0.8021  0.0809
11549SOL     OW37601   4.272   8.971   5.853  0.1416 -0.1513 -0.0058
11549SOL    HW137602   4.281   8.886   5.896 -0.3852 -1.1087 -1.7398
11549SOL    HW237603   4.185   9.001   5.877  0.9262  0.7382  1.9828
11550SOL     OW37604   1.168   5.199  10.409  0.0268 -0.0255 -0.2337
11550SOL    HW137605   1.259   5.195  10.439  0.5063 -0.8248 -1.6860
11550SOL    HW237606   1.160   5.127  10.347 -1.0549  1.1377 -1.5209
11551SOL     OW37607   2.693   8.240   1.182  0.0928 -0.3929  0.1639
11551SOL    HW137608   2.767   8.214   1.237 -0.6270 -1.2788  0.7569
11551SOL    HW237609   2.671   8.161   1.133  0.2640  0.1892 -0.8823
11552SOL     OW37610   6.164   7.929   3.721 -0.0441 -0.1489  0.7322
11552SOL    HW137611   6.157   7.926   3.816 -0.6875 -0.1301  0.6880
11552SOL    HW237612   6.222   8.003   3.704  1.2095 -1.0065  1.1486
11553SOL     OW37613   0.766   5.684   0.607 -0.1162  0.6330  0.2810
11553SOL    HW137614   0.822   5.606   0.608  0.7296  1.2265  0.0664
11553SOL    HW237615   0.716   5.677   0.689 -0.1083 -0.1716  0.2302
11554SOL     OW37616   6.308   9.362   2.561 -0.4361  0.5390  0.1568
11554SOL    HW137617   6.320   9.306   2.484 -0.6899  0.4628  0.1696
11554SOL    HW237618   6.351   9.314   2.632 -1.0109  0.1481  0.2551
11555SOL     OW37619   5.462  10.594   0.420 -0.2462 -0.3138  0.2813
11555SOL    HW137620   5.505  10.512   0.395  0.6989  0.6855 -1.5455
11555SOL    HW237621   5.421  10.574   0.505 -2.9158 -3.6859 -1.5186
11556SOL     OW37622   7.691   9.491   4.518 -0.3643  0.1691 -0.1807
11556SOL    HW137623   7.694   9.561   4.453  1.9379  1.1691  0.8916
11556SOL    HW237624   7.773   9.443   4.506 -0.0078  0.2025  1.7190
11557SOL     OW37625   2.379   8.467   8.873 -0.1744 -0.3151  0.0477
11557SOL    HW137626   2.425   8.389   8.905  1.5180  0.5408 -0.1866
11557SOL    HW237627   2.329   8.498   8.948  0.7264 -0.4885  0.7258
11558SOL     OW37628   3.808   5.331   2.742  0.0191  0.1251  0.3746
11558SOL    HW137629   3.824   5.426   2.748  0.5435  0.2052 -1.6689
11558SOL    HW237630   3.779   5.317   2.652 -1.9379 -1.4268  1.1844
11559SOL     OW37631   7.383   5.033   9.599  0.2844  0.3153  0.2408
11559SOL    HW137632   7.290   5.031   9.623  0.1918  0.0350 -0.1367
11559SOL    HW237633   7.393   5.114   9.549 -0.0489 -0.3095 -0.8669
11560SOL     OW37634   4.268   9.163   4.423 -0.3285 -0.2453 -0.4934
11560SOL    HW137635   4.257   9.238   4.365  0.5515  0.0599 -0.2811
11560SOL    HW237636   4.181   9.124   4.428 -0.8682  0.9094 -0.4031
11561SOL     OW37637   6.113   9.859   0.491 -0.1869 -0.7088 -0.0043
11561SOL    HW137638   6.042   9.891   0.546 -0.4344 -0.3870 -0.5053
11561SOL    HW237639   6.133   9.932   0.432 -0.8693 -1.5205 -1.2794
11562SOL     OW37640   8.781   0.904   7.863  0.2004  0.4161  0.0077
11562SOL    HW137641   8.803   0.833   7.804 -0.4732  1.5565 -1.6813
11562SOL    HW237642   8.854   0.966   7.855 -0.1470  0.8226 -0.0320
11563SOL     OW37643   5.290   8.762   1.752 -0.1832 -0.1298  0.2253
11563SOL    HW137644   5.297   8.728   1.662  1.1186 -0.1660  0.3190
11563SOL    HW237645   5.262   8.853   1.741 -0.4063 -0.2456 -0.2006
11564SOL     OW37646   9.126   7.892   8.031  0.8521  0.4124  0.3880
11564SOL    HW137647   9.166   7.895   8.118 -2.6574 -1.4146  2.3220
11564SOL    HW237648   9.104   7.983   8.012  4.6540  1.3334 -0.3129
11565SOL     OW37649   5.582   8.431   4.761 -0.0750 -0.0883  0.4256
11565SOL    HW137650   5.554   8.456   4.849 -2.2460 -0.0603 -0.2179
11565SOL    HW237651   5.607   8.339   4.769  1.8717  0.4619  1.4694
11566SOL     OW37652   5.299   1.721   9.961 -0.0184 -0.1301 -0.0024
11566SOL    HW137653   5.210   1.704   9.929 -0.9246  2.1857  1.0444
11566SOL    HW237654   5.343   1.762   9.887 -0.8882  1.6698  0.4251
11567SOL     OW37655   4.401   5.699   4.563  0.3945 -0.4428  0.2350
11567SOL    HW137656   4.444   5.761   4.622 -1.4432 -0.5033  1.7085
11567SOL    HW237657   4.310   5.726   4.561  0.3627 -0.5201 -2.5683
11568SOL     OW37658   5.843   6.707   8.719  0.0757 -0.6644 -0.2313
11568SOL    HW137659   5.750   6.695   8.696  0.2609 -1.5673 -0.5390
11568SOL    HW237660   5.841   6.760   8.798 -0.7294 -1.1680  0.1035
11569SOL     OW37661   2.842   1.618   9.759  0.4280 -0.1470  0.1905
11569SOL    HW137662   2.768   1.560   9.741  0.4268 -0.1498  0.2049
11569SOL    HW237663   2.919   1.568   9.735  0.4918 -0.5115  1.1197
11570SOL     OW37664   1.530   3.648   5.252 -0.3371  0.4658 -0.0835
11570SOL    HW137665   1.595   3.578   5.263  0.1097  0.6513 -1.3411
11570SOL    HW237666   1.447   3.601   5.237 -0.0369  0.1718 -0.9410
11571SOL     OW37667   5.533   4.880   5.699  0.3689 -0.0644  0.0460
11571SOL    HW137668   5.471   4.816   5.734 -3.5234  2.6600 -1.1277
11571SOL    HW237669   5.536   4.862   5.605  0.8046  0.2683 -0.0096
11572SOL     OW37670   3.377  10.639  10.329 -0.0624  0.6180 -0.0333
11572SOL    HW137671   3.456  10.662  10.377  1.8568 -0.3253 -2.5097
11572SOL    HW237672   3.354  10.552  10.362 -0.0284  0.8537  0.6294
11573SOL     OW37673  10.398   9.405   5.468 -0.5597 -0.0646 -0.8564
11573SOL    HW137674  10.422   9.324   5.424 -2.4287 -1.0079 -0.2318
11573SOL    HW237675  10.330   9.444   5.413 -0.1272  0.7865 -0.8178
11574SOL     OW37676  10.296   6.621   4.986 -0.3564  0.3506 -0.0331
11574SOL    HW137677  10.382   6.582   5.006 -1.0460 -1.4350 -0.3888
11574SOL    HW237678  10.236   6.579   5.048 -0.7186  3.1238  1.6905
11575SOL     OW37679   1.389   2.222   1.218  0.3155 -0.3371 -0.0691
11575SOL    HW137680   1.340   2.237   1.299 -0.1394  0.9457 -0.5518
11575SOL    HW237681   1.454   2.292   1.216 -0.6073  0.5393 -1.4845
11576SOL     OW37682   9.754   0.670   9.625  0.2249  0.4098 -0.5475
11576SOL    HW137683   9.746   0.682   9.720 -0.8452  1.8586 -0.7924
11576SOL    HW237684   9.666   0.646   9.596 -0.9487  5.2219 -1.7956
11577SOL     OW37685   2.393   5.886   6.837 -0.0641  0.1072 -0.5167
11577SOL    HW137686   2.442   5.913   6.915 -0.1697 -0.0585 -0.3935
11577SOL    HW237687   2.302   5.903   6.859 -0.0540  0.5357 -0.7964
11578SOL     OW37688   1.076   0.594   1.800  0.2421 -0.6036  0.2153
11578SOL    HW137689   1.164   0.570   1.830  0.1850 -0.1027  0.8083
11578SOL    HW237690   1.044   0.655   1.867 -0.3113 -0.2974 -0.3210
11579SOL     OW37691   8.054   7.041   3.211  0.3147 -0.1123 -0.2690
11579SOL    HW137692   8.115   7.081   3.149  0.0263 -0.4430 -0.7752
11579SOL    HW237693   8.026   7.113   3.267  1.2124  0.0373  0.0105
11580SOL     OW37694   6.210   1.869   2.798 -0.2269  0.2915  0.4570
11580SOL    HW137695   6.197   1.795   2.739 -2.3477  0.2719  0.8954
11580SOL    HW237696   6.155   1.850   2.874  0.3536  1.6120  1.2564
11581SOL     OW37697   7.944   4.383   3.976  0.3372  0.1494  0.5112
11581SOL    HW137698   7.915   4.335   3.899  0.3846  0.6643  0.1712
11581SOL    HW237699   7.935   4.475   3.952  0.0716  0.3142  1.2227
11582SOL     OW37700   5.347   8.478   2.186  0.6709 -0.1851 -0.3685
11582SOL    HW137701   5.270   8.475   2.130  0.3376  0.6672  0.0464
11582SOL    HW237702   5.395   8.398   2.163 -0.3711 -0.7768 -0.5582
11583SOL     OW37703   1.957   9.116   6.363 -0.2955  0.4023 -0.5923
11583SOL    HW137704   1.968   9.202   6.405  0.0222 -0.4098  1.0688
11583SOL    HW237705   2.041   9.100   6.320 -0.3210  0.8659 -0.8236
11584SOL     OW37706   9.946   2.116   4.391  0.3046  0.3029 -0.4311
11584SOL    HW137707   9.894   2.147   4.317 -0.1120 -0.2838 -0.3925
11584SOL    HW237708  10.036   2.138   4.368 -0.0563  2.7043  0.1719
11585SOL     OW37709   5.404   2.890   8.048  0.2860  0.0564  0.6190
11585SOL    HW137710   5.485   2.932   8.019  0.0404  0.8597  1.0788
11585SOL    HW237711   5.352   2.883   7.968  0.8435 -0.5635  0.2993
11586SOL     OW37712   7.732   2.839   5.784 -0.2807 -0.3458 -0.5130
11586SOL    HW137713   7.818   2.859   5.748  1.2791 -0.2543  2.8390
11586SOL    HW237714   7.692   2.924   5.800 -0.2367 -0.3299 -0.4859
11587SOL     OW37715  10.371   5.684   9.537  0.8310  0.1609 -0.2107
11587SOL    HW137716  10.409   5.638   9.462 -0.2046 -0.3488 -0.4444
11587SOL    HW237717  10.282   5.706   9.509  0.3597 -0.2148  0.9402
11588SOL     OW37718   3.905   0.427   6.176  0.2058 -0.1974 -0.1248
11588SOL    HW137719   3.936   0.386   6.095  0.3140  0.1052 -0.2395
11588SOL    HW237720   3.848   0.362   6.216  0.1246 -0.3368 -0.4634
11589SOL     OW37721   3.000   3.626   2.998 -0.0709  0.3275  0.1613
11589SOL    HW137722   3.002   3.695   3.064 -1.3606  0.7888 -0.2474
11589SOL    HW237723   2.923   3.646   2.945 -1.7423 -2.5755  1.2779
11590SOL     OW37724   7.517   0.140   5.000  0.1969  0.4552 -0.4819
11590SOL    HW137725   7.551   0.052   5.012 -1.2006 -0.3099 -1.7264
11590SOL    HW237726   7.573   0.179   4.933 -0.3276 -0.2084 -1.3332
11591SOL     OW37727  10.098   2.479   6.005  0.2360 -0.7681  0.0480
11591SOL    HW137728  10.106   2.426   6.085  0.3217 -0.8769 -0.0336
11591SOL    HW237729  10.095   2.416   5.934  0.6096 -0.6564 -0.0720
11592SOL     OW37730   8.265   6.201   4.725  0.1962  0.1128 -0.0594
11592SOL    HW137731   8.298   6.255   4.797 -1.3411  0.8792  0.0977
11592SOL    HW237732   8.215   6.132   4.769  2.0356 -1.4552 -0.2596
11593SOL     OW37733   4.673   5.292   6.505 -0.0053  0.5179  0.0063
11593SOL    HW137734   4.759   5.264   6.536  0.1549  0.5263 -0.4253
11593SOL    HW237735   4.635   5.340   6.579 -0.7115 -1.6682  1.1855
11594SOL     OW37736   2.555   0.059   2.835 -0.2722 -0.0956 -0.1067
11594SOL    HW137737   2.576   0.002   2.910 -1.2387  2.2624  2.1319
11594SOL    HW237738   2.562   0.148   2.871 -0.3662  1.1731 -2.9953
11595SOL     OW37739   0.542   1.314   9.530  0.6355  0.8324 -0.6947
11595SOL    HW137740   0.448   1.300   9.520  0.0838  0.9734  2.9565
11595SOL    HW237741   0.582   1.237   9.490 -1.1964 -0.4489 -0.1888
11596SOL     OW37742   0.695   8.733   2.981  0.4254 -0.0477  0.2536
11596SOL    HW137743   0.669   8.694   2.897  1.1162 -1.0776  0.5058
11596SOL    HW237744   0.615   8.732   3.033  0.4690 -1.4054  0.3403
11597SOL     OW37745   6.844   7.216   4.358 -0.2344 -0.7613  0.7033
11597SOL    HW137746   6.759   7.255   4.377 -0.3887 -1.0185  0.5339
11597SOL    HW237747   6.875   7.263   4.280  0.7445  0.8443  1.9664
11598SOL     OW37748   4.888   7.631   1.822  0.8877  0.6462 -0.0025
11598SOL    HW137749   4.906   7.543   1.789  1.2607  0.6435  0.2118
11598SOL    HW237750   4.883   7.685   1.743 -0.5018  0.2351 -0.2269
11599SOL     OW37751   2.213  10.315   6.931 -0.6333  0.7376 -0.3018
11599SOL    HW137752   2.170  10.359   7.005 -0.9317 -0.1881  0.0853
11599SOL    HW237753   2.174  10.228   6.929  1.2707 -0.1651  0.1042
11600SOL     OW37754   3.063   8.440   0.415  0.0742 -0.8734  0.5673
11600SOL    HW137755   3.023   8.507   0.471  1.2990  0.1515  0.2599
11600SOL    HW237756   2.989   8.385   0.387 -1.2099  1.1855 -0.3324
11601SOL     OW37757   0.706   9.044   4.281 -0.2273 -0.5409 -0.3372
11601SOL    HW137758   0.612   9.037   4.300 -0.1368 -1.2414 -0.1013
11601SOL    HW237759   0.712   9.037   4.186 -0.3729 -1.0371 -0.3107
11602SOL     OW37760   8.865   9.612   5.026 -0.4328 -0.1220 -0.0963
11602SOL    HW137761   8.821   9.528   5.011 -0.8530 -0.1846  1.2924
11602SOL    HW237762   8.876   9.649   4.939 -0.9755 -1.2512 -0.6753
11603SOL     OW37763   1.229   7.142   8.665 -0.6503 -0.2333 -0.4540
11603SOL    HW137764   1.153   7.086   8.652 -0.7518 -0.3277  0.5058
11603SOL    HW237765   1.245   7.140   8.759 -0.5657  1.2192 -0.4123
11604SOL     OW37766  10.528   8.047  10.046  0.2273 -0.5660  0.1408
11604SOL    HW137767  10.555   7.959  10.073 -0.5656 -1.3029 -1.3426
11604SOL    HW237768  10.455   8.068  10.105 -1.4712 -2.1376 -1.2971
11605SOL     OW37769   2.382   8.925   6.348 -0.2698  0.2525 -0.5099
11605SOL    HW137770   2.467   8.967   6.357 -0.6365  0.9554 -0.2883
11605SOL    HW237771   2.391   8.868   6.271  0.5454 -0.0564 -0.1960
11606SOL     OW37772   6.099   7.847   7.188  0.1799  0.3872 -0.2229
11606SOL    HW137773   6.160   7.890   7.129  1.1347 -0.3638  0.1782
11606SOL    HW237774   6.128   7.756   7.190  1.1025  0.6356  2.4621
11607SOL     OW37775   0.299   7.845   1.455 -0.3807 -0.6617 -1.1593
11607SOL    HW137776   0.220   7.852   1.402  1.0086 -0.3263 -3.3293
11607SOL    HW237777   0.332   7.757   1.437  0.1341 -0.5331 -0.8600
11608SOL     OW37778   2.094   7.539   1.022  0.4125  0.3575  0.7422
11608SOL    HW137779   2.085   7.586   1.104  1.5013 -0.2165  1.2121
11608SOL    HW237780   2.139   7.458   1.045  1.8529  0.7342 -0.5869
11609SOL     OW37781   8.989   8.704   9.164  0.4348  0.1934  0.9441
11609SOL    HW137782   8.911   8.734   9.210  0.4202  1.4362  0.1526
11609SOL    HW237783   8.968   8.713   9.072  0.6527 -1.7864  0.6534
11610SOL     OW37784   9.214   8.439   4.215  0.1480  0.1603  0.0428
11610SOL    HW137785   9.154   8.368   4.239  0.7927 -0.3695  0.1117
11610SOL    HW237786   9.264   8.404   4.141  0.8268  0.3405  0.4046
11611SOL     OW37787   4.131   2.877  10.029 -0.2411  0.0671 -0.0551
11611SOL    HW137788   4.073   2.953  10.030  0.6547  0.8017  2.1105
11611SOL    HW237789   4.210   2.907   9.983  0.1886  0.5331  0.9679
11612SOL     OW37790   6.776   6.767   5.439 -0.4031  0.2546  0.3557
11612SOL    HW137791   6.857   6.813   5.418 -0.5349 -0.2705 -1.4006
11612SOL    HW237792   6.797   6.674   5.430 -0.5433 -0.0428  2.4350
11613SOL     OW37793   5.267   7.760   3.091  0.8731  0.0141  0.9049
11613SOL    HW137794   5.241   7.765   2.999  1.7582 -1.2006  0.5690
11613SOL    HW237795   5.353   7.802   3.094  1.4584 -1.1608  0.9052
11614SOL     OW37796   0.766  10.046   9.902 -0.3127 -0.4041 -0.5357
11614SOL    HW137797   0.676  10.017   9.919 -1.0992  1.8604 -0.5813
11614SOL    HW237798   0.814  10.021   9.981 -1.0108 -1.4706 -0.4348
11615SOL     OW37799   4.668   9.302   0.918 -0.0570 -0.4529 -0.2338
11615SOL    HW137800   4.679   9.341   1.005  0.2201  0.2595 -0.5797
11615SOL    HW237801   4.593   9.243   0.927 -1.4000  1.2341 -0.0644
11616SOL     OW37802   3.888   4.565  10.018  0.1038  0.2856  0.4068
11616SOL    HW137803   3.877   4.532  10.107  0.1369  0.8087  0.6113
11616SOL    HW237804   3.889   4.660  10.028  0.4536  0.3429 -0.1103
11617SOL     OW37805   4.645  10.144   8.895  0.4193  0.4032 -0.0481
11617SOL    HW137806   4.673  10.059   8.861 -0.0809  0.8478 -1.6574
11617SOL    HW237807   4.616  10.126   8.984  0.0440 -1.1653 -0.4548
11618SOL     OW37808   5.163   0.836   0.188  0.3393  0.1747  0.4346
11618SOL    HW137809   5.178   0.867   0.277  0.5855  1.8137 -0.1479
11618SOL    HW237810   5.067   0.834   0.179  0.3195  0.3092  0.6294
11619SOL     OW37811   4.571  10.495   7.373  1.0487  0.2974  0.0195
11619SOL    HW137812   4.579  10.545   7.291  1.8452  1.5236  0.8046
11619SOL    HW237813   4.646  10.524   7.425 -1.4824  2.4860  2.7274
11620SOL     OW37814   1.223   2.988  10.031 -0.5122  0.0415 -0.4159
11620SOL    HW137815   1.233   2.976   9.936 -1.3043 -3.2274 -0.1804
11620SOL    HW237816   1.131   3.011  10.043 -0.6391 -0.5010 -0.3614
11621SOL     OW37817   4.399   9.593   7.657 -0.3377  0.2279  0.1019
11621SOL    HW137818   4.401   9.563   7.566 -0.2717  1.4535 -0.3121
11621SOL    HW237819   4.314   9.562   7.690  0.1196 -1.2360  0.0021
11622SOL     OW37820   7.270   1.780   2.525  0.5470 -0.3668  0.2670
11622SOL    HW137821   7.262   1.783   2.430  1.5404  0.2194  0.1927
11622SOL    HW237822   7.267   1.687   2.547 -4.1972 -0.5177  0.1184
11623SOL     OW37823   7.479   4.070   4.872 -0.0273 -0.0182 -0.4286
11623SOL    HW137824   7.532   4.137   4.831 -0.4541  0.4838 -0.1829
11623SOL    HW237825   7.518   4.058   4.959  1.3338 -1.6177 -1.1974
11624SOL     OW37826   6.687  10.602  10.626 -0.0985  0.0036  0.0976
11624SOL    HW137827   6.656  10.577  10.539  0.8897  0.1851 -0.3182
11624SOL    HW237828   6.737  10.526  10.656  1.4090  0.7535 -0.4229
11625SOL     OW37829   4.981   1.316   1.798  0.3927 -0.5337  0.3633
11625SOL    HW137830   5.016   1.241   1.749 -0.9529 -0.0639 -1.4408
11625SOL    HW237831   5.038   1.389   1.775  0.0626 -0.4259 -0.1426
11626SOL     OW37832   7.901   8.792   2.586 -1.0492  0.0384 -0.0945
11626SOL    HW137833   7.901   8.716   2.644 -2.2471 -1.4394 -1.9435
11626SOL    HW237834   7.871   8.864   2.642  0.8057 -0.6244  1.8800
11627SOL     OW37835   2.405   6.386   2.383  0.3624  0.3416  0.0464
11627SOL    HW137836   2.315   6.363   2.361  0.1862 -0.3228  1.3277
11627SOL    HW237837   2.439   6.308   2.427  1.4387  0.7254 -0.0793
11628SOL     OW37838   1.985   7.021   8.432  0.7101 -0.1858 -0.3162
11628SOL    HW137839   2.062   7.051   8.481  0.7025 -1.2323  0.3804
11628SOL    HW237840   1.910   7.055   8.482  0.7053  0.7290 -0.9265
11629SOL     OW37841   5.926  10.376   0.702  0.6763  0.2210  0.5110
11629SOL    HW137842   5.966  10.423   0.629  2.6350 -1.5647  0.3193
11629SOL    HW237843   5.844  10.342   0.667 -0.6246  3.0285  0.5534
11630SOL     OW37844   8.754   9.638   1.207 -0.5720  0.6670 -0.8882
11630SOL    HW137845   8.690   9.708   1.223  0.6297  1.9744 -1.5955
11630SOL    HW237846   8.701   9.564   1.179 -1.9545  1.0466  0.5167
11631SOL     OW37847   3.978   7.252   9.872  0.1939  0.4713  0.3635
11631SOL    HW137848   3.908   7.291   9.923  1.5794  1.5781  1.4886
11631SOL    HW237849   4.044   7.321   9.864  0.5243 -0.0326 -1.9836
11632SOL     OW37850   0.747   6.171   4.530  0.0525  0.0171 -0.1032
11632SOL    HW137851   0.813   6.130   4.475 -2.7407 -3.8492 -0.9820
11632SOL    HW237852   0.716   6.246   4.479  3.0898  1.5256  0.0539
11633SOL     OW37853   3.640   3.152   4.156  0.1412  0.1327  0.0344
11633SOL    HW137854   3.628   3.110   4.242 -1.2507 -1.3612 -0.8332
11633SOL    HW237855   3.693   3.089   4.106  0.3736  0.6873 -0.4248
11634SOL     OW37856   7.111   5.679   3.032  0.7917 -0.0923 -0.0457
11634SOL    HW137857   7.048   5.744   3.064 -0.5131 -1.0970 -0.4927
11634SOL    HW237858   7.111   5.611   3.100  2.0737  0.3042  0.3730
11635SOL     OW37859   5.786   8.844   4.848 -0.1314  0.2703  0.1228
11635SOL    HW137860   5.828   8.772   4.800  0.3832  0.4826  0.2476
11635SOL    HW237861   5.715   8.873   4.790  0.1221  0.1482 -0.2561
11636SOL     OW37862   6.017   6.971   6.298 -0.0805 -0.1750 -0.4709
11636SOL    HW137863   6.094   6.914   6.291  0.2243 -0.0360  1.2829
11636SOL    HW237864   6.015   6.998   6.390 -2.2207 -0.1520 -0.4672
11637SOL     OW37865  10.392   0.548   1.709  0.3724 -0.0596 -0.2010
11637SOL    HW137866  10.376   0.642   1.701  1.3319  0.1295  0.0254
11637SOL    HW237867  10.347   0.510   1.633 -2.7161  0.2087  1.3077
11638SOL     OW37868   3.216  10.177   1.672  0.0659  0.6711 -0.0776
11638SOL    HW137869   3.141  10.218   1.714 -0.2191 -1.2456  1.4195
11638SOL    HW237870   3.288  10.188   1.734 -0.0977 -1.2457  0.5324
11639SOL     OW37871  10.506   6.450   1.914  0.1908 -0.8145  0.4293
11639SOL    HW137872  10.543   6.525   1.963 -1.3775  0.2265  0.0823
11639SOL    HW237873  10.575   6.383   1.919  1.5878  0.5749  0.8931
11640SOL     OW37874   0.672   6.001   9.024 -0.5099 -0.2768  0.5250
11640SOL    HW137875   0.686   6.045   9.108  0.4524  0.3790  0.0411
11640SOL    HW237876   0.686   5.908   9.042  1.1380 -0.0079  0.8237
11641SOL     OW37877   5.174   5.967   9.334  0.1920 -0.3760 -0.3736
11641SOL    HW137878   5.086   5.967   9.295  0.5770 -1.6475 -1.3076
11641SOL    HW237879   5.220   6.038   9.291 -0.3323  0.2155  0.0264
11642SOL     OW37880   1.269   0.261   3.225  0.1434 -0.2084 -0.0936
11642SOL    HW137881   1.209   0.301   3.288  0.4015  0.4931 -0.2870
11642SOL    HW237882   1.329   0.331   3.201 -1.0661  0.0854 -2.5179
11643SOL     OW37883   8.761   5.731   2.085 -0.0118 -0.2760 -0.0740
11643SOL    HW137884   8.800   5.702   2.168 -0.0745 -0.6547 -0.1752
11643SOL    HW237885   8.827   5.788   2.047 -0.2796  0.4906  0.5779
11644SOL     OW37886   5.869   1.445   6.303 -0.0845  0.1460  0.4789
11644SOL    HW137887   5.823   1.529   6.302  1.6783  1.1590  0.3950
11644SOL    HW237888   5.930   1.450   6.229  0.5864 -0.8913  0.9316
11645SOL     OW37889   5.670  10.165   6.286  0.7574  0.0655 -0.3409
11645SOL    HW137890   5.653  10.074   6.263  0.6688 -0.1630  0.5964
11645SOL    HW237891   5.765  10.172   6.289  0.7600 -0.2722  0.6166
11646SOL     OW37892   5.437   3.434   3.809 -0.5979 -0.5830 -0.6422
11646SOL    HW137893   5.379   3.427   3.733  2.3076 -1.2678 -3.0118
11646SOL    HW237894   5.461   3.344   3.829 -1.1799 -0.3920  1.0308
11647SOL     OW37895   7.749   2.146   9.852  0.6277  0.1708 -0.3398
11647SOL    HW137896   7.734   2.235   9.822 -2.4433  0.0985  0.6491
11647SOL    HW237897   7.821   2.154   9.915 -0.4056  2.2102  0.6848
11648SOL     OW37898   1.772   6.943   6.956 -0.1407  0.3363  0.2934
11648SOL    HW137899   1.721   6.921   7.034 -0.5238  2.1296  0.5922
11648SOL    HW237900   1.855   6.976   6.991  0.6489 -1.0921 -0.1536
11649SOL     OW37901   2.213   4.258   5.748 -0.0082 -0.1058  0.3915
11649SOL    HW137902   2.185   4.177   5.792  0.9124 -0.5348  0.2333
11649SOL    HW237903   2.164   4.327   5.791  0.6397 -0.5440  1.9200
11650SOL     OW37904  10.021   1.099   1.217 -0.3174 -0.0817  0.4631
11650SOL    HW137905   9.935   1.141   1.215 -0.0267  0.5138 -0.1923
11650SOL    HW237906  10.067   1.136   1.142 -0.5252 -2.6706 -1.0489
11651SOL     OW37907  10.018   0.468   1.400  0.3883  0.0936  0.2667
11651SOL    HW137908   9.931   0.507   1.392  0.9701  1.4021 -0.0041
11651SOL    HW237909  10.007   0.396   1.462 -1.1948 -0.7551 -0.8996
11652SOL     OW37910   8.410   1.926   1.164  0.3909 -0.4045  0.5581
11652SOL    HW137911   8.400   2.020   1.178 -1.6640 -0.3770 -0.6917
11652SOL    HW237912   8.396   1.887   1.250 -1.0433  0.3277  0.6798
11653SOL     OW37913   9.020   8.097   4.517  0.5109 -0.5490 -0.3714
11653SOL    HW137914   8.971   8.016   4.506  0.7580 -1.5920  4.3159
11653SOL    HW237915   9.111   8.070   4.531  0.4947  0.3850  1.9233
11654SOL     OW37916   4.580   3.707   7.218 -0.6094 -0.4391  0.1621
11654SOL    HW137917   4.655   3.716   7.160 -1.7176 -2.7129 -1.7895
11654SOL    HW237918   4.503   3.723   7.163 -1.6570 -1.0079  1.3768
11655SOL     OW37919   6.353   5.506   2.730 -0.5255  0.0379 -0.0804
11655SOL    HW137920   6.410   5.429   2.722  0.3164  0.5562  0.7319
11655SOL    HW237921   6.294   5.500   2.655 -0.4110 -1.3469 -0.0893
11656SOL     OW37922   6.757   5.860  10.546  0.1849  0.0115  0.2417
11656SOL    HW137923   6.733   5.800  10.617  0.5491 -0.5566 -0.1037
11656SOL    HW237924   6.722   5.819  10.467  0.4262  0.2576  0.0039
11657SOL     OW37925   0.154   8.551   2.678 -0.7824  0.1623  0.1136
11657SOL    HW137926   0.228   8.580   2.625 -0.6750 -1.3313 -0.6224
11657SOL    HW237927   0.183   8.562   2.768 -0.5155  1.6387 -0.1304
11658SOL     OW37928   2.859   4.627   4.381 -0.3450  0.1649  0.2365
11658SOL    HW137929   2.912   4.568   4.327  0.8620 -0.2935  1.8176
11658SOL    HW237930   2.914   4.704   4.392 -0.3493  0.0475  1.1786
11659SOL     OW37931   7.295   3.919   7.705 -0.2504 -0.7012  0.1801
11659SOL    HW137932   7.269   3.919   7.612  1.4999 -0.4900 -0.3405
11659SOL    HW237933   7.224   3.872   7.749 -1.7893  0.3551 -1.0529
11660SOL     OW37934   7.408   5.086   4.192  0.3783  0.1510 -0.0200
11660SOL    HW137935   7.479   5.102   4.253 -0.0209  2.4014 -0.0863
11660SOL    HW237936   7.451   5.048   4.115  1.6152  1.9262 -0.2558
11661SOL     OW37937   7.289  10.461   2.169 -0.6734  0.3927 -0.4067
11661SOL    HW137938   7.352  10.521   2.129 -0.1695 -0.1457 -0.4373
11661SOL    HW237939   7.284  10.489   2.260 -1.5046  1.3536 -0.7207
11662SOL     OW37940   7.633   4.613   2.260  0.1929 -0.0045  0.3322
11662SOL    HW137941   7.599   4.566   2.336 -1.1668 -0.9690 -0.8209
11662SOL    HW237942   7.709   4.661   2.294 -1.4231  1.0898  2.7129
11663SOL     OW37943   4.324   1.846   9.577 -0.8473 -0.5441  0.0496
11663SOL    HW137944   4.296   1.900   9.651 -1.7527  0.8908 -1.2890
11663SOL    HW237945   4.420   1.855   9.576 -0.9001  0.1269  0.5260
11664SOL     OW37946   1.387   1.500   8.047 -0.5055 -0.3167 -0.3376
11664SOL    HW137947   1.404   1.580   7.997  0.2979 -0.6012 -0.5401
11664SOL    HW237948   1.320   1.454   7.996  1.0852 -1.1264 -1.7921
11665SOL     OW37949   8.265   9.897   1.975  0.3847 -0.4491 -1.1183
11665SOL    HW137950   8.187   9.952   1.986  0.6406 -0.0292 -1.3865
11665SOL    HW237951   8.326   9.951   1.925  1.2561 -0.3815 -0.0193
11666SOL     OW37952   6.994   2.303   1.114 -0.2952  0.0547  0.5692
11666SOL    HW137953   6.997   2.261   1.028 -0.4395  2.2983 -0.6052
11666SOL    HW237954   6.902   2.295   1.142 -0.3250 -0.3713  0.3430
11667SOL     OW37955   7.146   3.714   5.433 -0.4847  0.0084  0.3301
11667SOL    HW137956   7.110   3.794   5.471  0.2816  0.4717  0.1017
11667SOL    HW237957   7.119   3.717   5.341  1.5931  1.2758 -0.3010
11668SOL     OW37958   0.383   7.169   5.984 -0.6957 -0.0411  0.3315
11668SOL    HW137959   0.438   7.100   6.022 -0.3452  1.2302  2.2913
11668SOL    HW237960   0.324   7.123   5.925 -0.8152 -2.1127  1.9439
11669SOL     OW37961   1.660   2.397   9.403 -0.2086  0.0762 -0.2907
11669SOL    HW137962   1.626   2.406   9.314 -1.2029  4.0599  0.2918
11669SOL    HW237963   1.590   2.431   9.459  1.1591 -0.4701  1.8679
11670SOL     OW37964   6.272   0.424   4.269  0.0188 -0.0461  0.2818
11670SOL    HW137965   6.308   0.362   4.333  1.9724  1.1371  0.4040
11670SOL    HW237966   6.271   0.508   4.315  0.2335  0.5806 -0.8319
11671SOL     OW37967   4.615   3.671   6.640 -0.5226 -0.3940  0.6325
11671SOL    HW137968   4.628   3.763   6.664 -0.6004 -0.3245  0.4148
11671SOL    HW237969   4.644   3.622   6.717  2.4473 -0.3284 -0.3191
11672SOL     OW37970   1.467   1.835   8.825 -0.3513  0.0407 -0.1591
11672SOL    HW137971   1.516   1.869   8.750 -1.8740 -1.3860 -1.8960
11672SOL    HW237972   1.384   1.884   8.823 -1.1185 -1.2419 -0.5307
11673SOL     OW37973   6.785   7.944   6.985 -0.2117  0.5740 -0.0503
11673SOL    HW137974   6.767   8.019   7.043 -0.7811  0.6265 -0.2828
11673SOL    HW237975   6.725   7.957   6.911  1.0245  0.8952 -1.0184
11674SOL     OW37976   9.175   5.612   0.197  0.6198  0.0882 -0.5766
11674SOL    HW137977   9.188   5.568   0.113  2.0400 -2.5166  0.8923
11674SOL    HW237978   9.253   5.592   0.247 -0.9394  0.0302  2.0124
11675SOL     OW37979   2.614   9.596   3.752 -0.7958 -0.4025 -0.2072
11675SOL    HW137980   2.542   9.553   3.706 -1.2502  1.2488 -1.1572
11675SOL    HW237981   2.674   9.623   3.682 -0.6444  0.6711  0.3144
11676SOL     OW37982   9.365   6.426   0.564 -0.1422 -0.0917 -0.4959
11676SOL    HW137983   9.439   6.471   0.524  0.6313 -0.8632  0.0261
11676SOL    HW237984   9.372   6.445   0.657  0.4779 -1.6283 -0.1980
11677SOL     OW37985  10.650   0.449   9.085 -0.0056  0.2179  0.1713
11677SOL    HW137986  10.676   0.493   9.003  1.1879 -0.9132 -0.0925
11677SOL    HW237987  10.642   0.521   9.148 -0.9632  1.1161 -0.9170
11678SOL     OW37988   0.079   4.265   9.080  0.1532 -0.0613  0.1599
11678SOL    HW137989   0.002   4.322   9.085  0.1546  0.0220 -0.6016
11678SOL    HW237990   0.044   4.176   9.087  0.2531  0.0134  2.4986
11679SOL     OW37991   5.199   5.494   5.197 -0.3794 -0.3615 -0.1795
11679SOL    HW137992   5.287   5.490   5.160 -1.2983 -0.3516 -2.5019
11679SOL    HW237993   5.192   5.415   5.250  1.0265 -0.3270  0.0999
11680SOL     OW37994   8.340   8.333   0.746  0.4219  0.2291  0.5629
11680SOL    HW137995   8.399   8.258   0.737 -1.7501 -1.6459  0.9444
11680SOL    HW237996   8.304   8.325   0.834 -0.3843  1.3204  0.3564
11681SOL     OW37997   3.237   3.756   4.058 -0.4594 -0.6388  0.4838
11681SOL    HW137998   3.267   3.683   4.112  1.7080 -0.9207 -0.9466
11681SOL    HW237999   3.283   3.832   4.095 -0.3716 -0.5283  0.1479
11682SOL     OW38000   0.934   3.778   4.447 -0.6649 -0.0748 -0.3431
11682SOL    HW138001   0.851   3.825   4.443 -0.2518  0.6808 -0.2211
11682SOL    HW238002   0.979   3.802   4.366 -0.4683 -0.2820 -0.2967
11683SOL     OW38003   3.704   1.846   3.325  0.0420 -0.2403  0.3253
11683SOL    HW138004   3.662   1.930   3.341 -0.4758 -0.7153  1.6073
11683SOL    HW238005   3.796   1.868   3.309  0.1597  0.4884  1.8531
11684SOL     OW38006   2.047   8.360   7.835  0.3143 -0.1085  0.0726
11684SOL    HW138007   2.124   8.406   7.799  0.6699  0.1843  1.1602
11684SOL    HW238008   2.069   8.346   7.927 -1.2855  0.7445  0.6167
11685SOL     OW38009   7.419   3.802   1.790  0.5397 -0.2533  0.5447
11685SOL    HW138010   7.380   3.836   1.871  0.7375 -2.4866  1.6574
11685SOL    HW238011   7.513   3.806   1.806  0.6004 -0.1695  0.1743
11686SOL     OW38012   1.818   7.540   7.682 -0.5557  0.3617 -0.5378
11686SOL    HW138013   1.855   7.627   7.666 -0.2988  0.7061  1.6240
11686SOL    HW238014   1.882   7.480   7.645 -0.7520  1.0584 -2.0887
11687SOL     OW38015   7.358   4.010   9.432 -0.1752  0.1267  0.1883
11687SOL    HW138016   7.435   4.043   9.477 -0.5757  1.7192 -0.2184
11687SOL    HW238017   7.339   3.926   9.473  1.4503 -0.0356  0.6474
11688SOL     OW38018   7.490   1.286   6.014  0.7968 -0.1551 -0.6292
11688SOL    HW138019   7.556   1.251   6.075  0.3240  1.1068  0.6558
11688SOL    HW238020   7.527   1.368   5.983 -0.3261  0.8230  0.4929
11689SOL     OW38021  10.587   4.694   4.626 -0.1584  0.0061 -0.1104
11689SOL    HW138022  10.668   4.744   4.615 -0.0696 -0.5836 -2.5814
11689SOL    HW238023  10.525   4.756   4.665  0.7312  1.2387 -0.6084
11690SOL     OW38024   4.534   3.030   3.597 -0.2006 -0.2417  0.0429
11690SOL    HW138025   4.588   3.049   3.520 -0.4153 -2.1643 -0.6357
11690SOL    HW238026   4.518   3.116   3.637  0.9988  0.6591 -1.3163
11691SOL     OW38027   5.839   6.306  10.229 -0.2502  0.1068  0.4270
11691SOL    HW138028   5.874   6.390  10.258 -0.2955  0.5650 -0.8016
11691SOL    HW238029   5.882   6.242  10.285 -1.0300  1.0029  2.1349
11692SOL     OW38030   2.291   2.055   5.180 -0.0863  0.3778  0.2084
11692SOL    HW138031   2.246   2.139   5.168  0.3408  0.8488  1.6694
11692SOL    HW238032   2.220   1.993   5.201 -0.2490  0.7355  0.7453
11693SOL     OW38033   2.246   2.621   3.565  0.3036 -0.1694 -0.4074
11693SOL    HW138034   2.256   2.661   3.479  3.3127 -1.4753 -0.7808
11693SOL    HW238035   2.243   2.527   3.548  0.5573 -0.4363  0.8952
11694SOL     OW38036   7.523   2.647   8.958  0.6560 -0.4035  0.5306
11694SOL    HW138037   7.554   2.636   8.868 -0.3990  0.2795  0.0658
11694SOL    HW238038   7.445   2.592   8.963  0.5239 -0.1831  0.9356
11695SOL     OW38039   9.271  10.385   1.412  1.0127 -0.3492  0.0139
11695SOL    HW138040   9.236  10.298   1.434  1.5735 -0.8745 -1.0625
11695SOL    HW238041   9.233  10.404   1.326 -0.2522  1.1369  0.8697
11696SOL     OW38042   5.682   7.475   6.751  0.1165  0.7453  0.0082
11696SOL    HW138043   5.727   7.559   6.754  0.1622  0.8123 -1.6640
11696SOL    HW238044   5.723   7.428   6.679 -1.0008 -0.0564 -0.1409
11697SOL     OW38045   7.737   7.617   0.093  0.1524 -0.1295  0.0897
11697SOL    HW138046   7.787   7.693   0.064 -1.2100  1.1293  0.9395
11697SOL    HW238047   7.743   7.619   0.189  2.5067 -2.7955  0.1165
11698SOL     OW38048   6.705   0.064   3.740 -0.0298 -0.6879  0.2053
11698SOL    HW138049   6.665   0.091   3.657  0.9621  2.1092  0.5158
11698SOL    HW238050   6.680  -0.028   3.750 -1.3919 -0.7164 -2.4537
11699SOL     OW38051   6.907   0.159   4.310 -0.4013  0.0285  0.2625
11699SOL    HW138052   6.915   0.094   4.241  0.4566  0.1232  0.2644
11699SOL    HW238053   6.849   0.119   4.374  0.4716 -0.9315  0.4816
11700SOL     OW38054   5.519   7.556   8.226  0.3255 -0.2627 -0.5156
11700SOL    HW138055   5.606   7.545   8.265  0.5061 -0.1088 -0.8700
11700SOL    HW238056   5.481   7.467   8.227  0.1107 -0.1695  0.4962
11701SOL     OW38057   4.649   3.673   3.053 -0.0986 -0.0949  0.4289
11701SOL    HW138058   4.598   3.753   3.067 -0.4346 -0.3585  0.7256
11701SOL    HW238059   4.680   3.650   3.140  1.9961  1.0188  0.0433
11702SOL     OW38060   2.125   8.415   7.300  0.2714  0.1743 -0.0388
11702SOL    HW138061   2.136   8.416   7.395  1.9375 -1.9581 -0.1573
11702SOL    HW238062   2.208   8.446   7.265 -0.0032  0.0554 -0.8297
11703SOL     OW38063   0.902   0.624   6.158  0.0602  0.2936 -0.0692
11703SOL    HW138064   0.930   0.715   6.172  1.3603 -0.2284  1.0022
11703SOL    HW238065   0.884   0.619   6.065 -1.7579  2.0863  0.1033
11704SOL     OW38066   2.330   9.010   5.794 -0.1197  0.3333  0.1924
11704SOL    HW138067   2.403   9.058   5.756  1.6357 -1.6572  0.8846
11704SOL    HW238068   2.267   9.002   5.722 -0.4430  3.3947 -0.0053
11705SOL     OW38069   7.460   5.503  10.136 -0.2905  0.0652  0.1239
11705SOL    HW138070   7.443   5.595  10.113  1.4858  0.6497  1.0061
11705SOL    HW238071   7.373   5.462  10.133 -1.0779  1.6647 -0.6674
11706SOL     OW38072   9.257   6.625   9.130  0.3048  0.6106 -0.1645
11706SOL    HW138073   9.332   6.567   9.145  0.9021  1.2059 -0.7262
11706SOL    HW238074   9.181   6.576   9.159  0.9441  0.0629  0.6073
11707SOL     OW38075   8.358   8.140   3.810  0.0526 -0.1880 -0.3079
11707SOL    HW138076   8.354   8.096   3.895  0.2591 -0.0186 -0.2111
11707SOL    HW238077   8.368   8.068   3.747  4.3121 -0.1947  0.0849
11708SOL     OW38078   8.007   4.180   1.267 -0.5785  0.4731 -0.0400
11708SOL    HW138079   8.010   4.261   1.316 -1.6275  1.0351 -0.8515
11708SOL    HW238080   8.073   4.191   1.198 -3.4478  2.5016 -2.7746
11709SOL     OW38081   3.628   6.390   5.802 -0.0182 -0.1508 -0.1822
11709SOL    HW138082   3.563   6.429   5.861 -2.2078  0.3828 -2.7206
11709SOL    HW238083   3.660   6.464   5.750  0.7510 -0.7816 -0.6242
11710SOL     OW38084  10.178   7.719   8.894 -0.3321 -0.9239 -0.2264
11710SOL    HW138085  10.161   7.803   8.937  1.5945 -0.7354  0.2818
11710SOL    HW238086  10.098   7.700   8.846 -1.5448  0.2297  1.2202
11711SOL     OW38087   1.875   3.772   6.788 -0.1135 -0.9894  0.1145
11711SOL    HW138088   1.955   3.729   6.756  0.4461  0.1677 -0.0720
11711SOL    HW238089   1.815   3.699   6.805  0.5703 -1.8180 -0.8393
11712SOL     OW38090   6.406   3.462   8.685  0.2339  0.2182  0.0987
11712SOL    HW138091   6.387   3.404   8.611  0.3871  1.0542 -0.6119
11712SOL    HW238092   6.486   3.426   8.723  0.1221 -0.2561 -0.1024
11713SOL     OW38093   2.781   9.254   8.816  0.0257  0.0239 -0.0398
11713SOL    HW138094   2.848   9.302   8.865  1.0790 -1.5649  0.1388
11713SOL    HW238095   2.698   9.294   8.843  0.8432  1.6943  0.1238
11714SOL     OW38096   3.997   2.241   6.807  0.2300 -0.4390 -0.2748
11714SOL    HW138097   3.987   2.297   6.885 -1.6418 -2.7177  1.2626
11714SOL    HW238098   3.946   2.285   6.740  0.7704  0.9046  0.1578
11715SOL     OW38099   2.758   9.550   5.082 -0.0862  0.0000  0.0129
11715SOL    HW138100   2.850   9.570   5.096 -0.1668  0.5059 -0.1764
11715SOL    HW238101   2.712   9.632   5.101 -0.5434 -0.3720  0.5826
11716SOL     OW38102   7.170   8.722   2.512  0.0719  0.3619 -0.2478
11716SOL    HW138103   7.086   8.755   2.481  0.4842  2.2381  0.5288
11716SOL    HW238104   7.208   8.794   2.562  0.8388 -1.4326  1.9559
11717SOL     OW38105   3.153   5.096   0.736 -0.0457  0.4538  0.3210
11717SOL    HW138106   3.147   5.105   0.641  0.8450  0.5082  0.2608
11717SOL    HW238107   3.171   5.185   0.768  0.8462  0.2385  0.4303
11718SOL     OW38108   4.364   8.419   9.104 -0.3154  0.0254  0.4679
11718SOL    HW138109   4.293   8.468   9.061 -0.7927 -0.0388  1.1772
11718SOL    HW238110   4.326   8.333   9.122 -0.1974  0.1260  1.2237
11719SOL     OW38111   1.944   2.953   3.699 -0.2123  0.2323 -0.1798
11719SOL    HW138112   1.896   2.920   3.774  2.3538  0.5580  1.7285
11719SOL    HW238113   1.957   3.046   3.717 -0.5561  0.6034 -1.6487
11720SOL     OW38114   2.956  10.380   0.314  0.1917  0.3660  0.4297
11720SOL    HW138115   2.872  10.333   0.314  0.1493  0.4103 -0.8250
11720SOL    HW238116   3.015  10.325   0.365 -0.2059 -0.3996  0.0722
11721SOL     OW38117   5.445   8.942   5.186 -0.6220 -0.0305  0.6766
11721SOL    HW138118   5.533   8.960   5.151 -0.1513 -0.2039  1.7458
11721SOL    HW238119   5.417   9.024   5.226 -1.1616  0.1654 -0.0769
11722SOL     OW38120   3.379   6.130  10.552 -0.7896 -0.2930 -0.3677
11722SOL    HW138121   3.383   6.217  10.513 -0.4189  0.7094  1.7676
11722SOL    HW238122   3.286   6.112  10.562 -0.8602 -0.0399 -0.5634
11723SOL     OW38123   0.687  10.519   4.145  0.0788 -0.3421  0.2380
11723SOL    HW138124   0.776  10.520   4.182  0.0141  0.6641  0.3991
11723SOL    HW238125   0.689  10.586   4.077 -0.4541 -0.5827 -0.0163
11724SOL     OW38126   0.835   1.558  10.022 -0.3373  0.0163 -0.7019
11724SOL    HW138127   0.758   1.611  10.000 -1.0243 -0.7529 -0.2158
11724SOL    HW238128   0.804   1.468  10.016 -0.3511 -0.2800  2.4586
11725SOL     OW38129   7.167   0.329   8.587  0.2955  0.1286  0.0967
11725SOL    HW138130   7.153   0.422   8.603 -0.9061 -0.0739  0.3006
11725SOL    HW238131   7.080   0.290   8.596  0.6580 -0.9058 -0.7385
11726SOL     OW38132   8.529   5.154   1.385  0.6602 -0.0617  0.2268
11726SOL    HW138133   8.482   5.197   1.456 -0.9789 -0.3067 -0.6589
11726SOL    HW238134   8.524   5.215   1.312 -2.4856 -1.9550 -1.3363
11727SOL     OW38135   2.316   1.455   4.163  0.4433  0.3307  0.2757
11727SOL    HW138136   2.354   1.378   4.206 -2.0487 -1.0426  0.1874
11727SOL    HW238137   2.290   1.512   4.236 -0.9316 -0.5696  0.5206
11728SOL     OW38138   1.314   4.209   8.173 -0.3285 -0.2811 -0.1318
11728SOL    HW138139   1.256   4.134   8.180 -0.1641 -0.3439  0.5953
11728SOL    HW238140   1.401   4.172   8.160 -0.5981 -0.1805 -2.7087
11729SOL     OW38141   4.426   7.850   4.006  0.0961 -0.1217 -0.0176
11729SOL    HW138142   4.452   7.852   3.914  1.1544 -0.7616  0.2477
11729SOL    HW238143   4.331   7.834   4.004 -0.0750  0.8964 -0.9951
11730SOL     OW38144   0.010   1.901   9.023  0.0805 -0.2684  0.2296
11730SOL    HW138145  -0.080   1.910   9.053 -0.5329  0.2277 -1.6811
11730SOL    HW238146   0.061   1.953   9.085 -1.2555  1.5147 -0.0929
11731SOL     OW38147   1.021   6.142   3.270  0.1951 -0.0707  0.0514
11731SOL    HW138148   1.033   6.187   3.354  1.1536 -0.3364  0.0674
11731SOL    HW238149   1.005   6.051   3.294  3.0222 -0.7000 -0.0561
11732SOL     OW38150   1.946   9.356   6.483 -0.1100 -0.0157 -0.5083
11732SOL    HW138151   1.970   9.444   6.514  0.5330  0.2458 -1.6839
11732SOL    HW238152   1.851   9.356   6.484 -0.1769  1.3393 -2.1296
11733SOL     OW38153   4.718   4.592  10.591  0.2163  0.2981 -0.2331
11733SOL    HW138154   4.767   4.511  10.601 -0.2684  0.0429  0.1195
11733SOL    HW238155   4.719   4.632  10.678 -0.4763  0.1259 -0.1386
11734SOL     OW38156   0.245   9.802   6.027 -0.4305 -0.5602  0.2043
11734SOL    HW138157   0.291   9.866   6.081  0.6043 -0.5949 -0.6013
11734SOL    HW238158   0.313   9.739   6.001 -0.7288 -0.1713 -1.6669
11735SOL     OW38159   1.560   2.191   6.813 -0.1751 -0.1496  0.3948
11735SOL    HW138160   1.510   2.133   6.871 -1.8316 -0.4048 -1.1956
11735SOL    HW238161   1.533   2.279   6.840  1.6013 -0.0716  2.1566
11736SOL     OW38162   4.604   3.068   4.546  0.2549 -0.5671 -0.2584
11736SOL    HW138163   4.563   3.030   4.468 -1.3042 -1.7065  1.0331
11736SOL    HW238164   4.644   3.149   4.516 -0.3067 -0.9753 -2.2271
11737SOL     OW38165   2.633   1.936   8.295  0.4377 -0.2373 -0.6957
11737SOL    HW138166   2.619   1.899   8.382  1.5081 -0.9665 -0.8113
11737SOL    HW238167   2.549   1.925   8.250 -0.4120  0.9513  0.5053
11738SOL     OW38168   7.772   6.167   9.064 -0.1826  0.0924  0.0157
11738SOL    HW138169   7.740   6.227   9.132 -0.2746 -0.6075  0.5995
11738SOL    HW238170   7.827   6.222   9.008  1.8163  0.2393  1.9734
11739SOL     OW38171   2.674   4.538   8.173  0.0344 -0.0514  0.4321
11739SOL    HW138172   2.666   4.590   8.253 -0.6674 -0.2680  0.5095
11739SOL    HW238173   2.584   4.530   8.140  0.2416 -0.4804 -0.0478
11740SOL     OW38174   5.684   3.833   7.798 -0.1099  0.2499  0.4973
11740SOL    HW138175   5.600   3.828   7.752  0.3053 -0.5896 -0.2157
11740SOL    HW238176   5.700   3.926   7.809 -0.9361  0.4299  0.2648
11741SOL     OW38177   6.463   5.082   6.992  0.7956 -0.8492  0.2729
11741SOL    HW138178   6.447   5.010   7.052 -0.7146 -0.6962  0.1060
11741SOL    HW238179   6.447   5.045   6.905 -3.2412  0.3055  0.2921
11742SOL     OW38180   1.737   4.976   6.052  0.7153  0.3132  0.3328
11742SOL    HW138181   1.699   4.943   6.133 -0.0679  1.1073  0.3045
11742SOL    HW238182   1.777   5.059   6.077  2.7043 -0.6184  0.4204
11743SOL     OW38183   3.127  10.412   8.847 -0.5148 -0.0656 -0.5417
11743SOL    HW138184   3.204  10.358   8.828 -1.0007 -0.6857 -0.7883
11743SOL    HW238185   3.071  10.401   8.770 -0.0041  1.9375 -1.2512
11744SOL     OW38186   8.963   6.025   3.582  0.6452  0.2959 -0.1796
11744SOL    HW138187   9.022   5.965   3.627  2.5190  1.3397 -1.1224
11744SOL    HW238188   8.977   6.109   3.626 -0.9607  0.3638  0.2603
11745SOL     OW38189   8.427   6.111   0.722 -0.6200 -0.4112  0.0526
11745SOL    HW138190   8.429   6.114   0.627  0.5741  1.7803  0.1000
11745SOL    HW238191   8.502   6.163   0.750 -0.2923 -1.9152  2.2089
11746SOL     OW38192   9.790   1.311   6.653 -0.3135  0.0349 -0.1192
11746SOL    HW138193   9.726   1.263   6.600 -0.4496 -1.9330  1.6946
11746SOL    HW238194   9.854   1.245   6.679  0.8828  1.3752  0.4745
11747SOL     OW38195   9.726   4.259   0.702  0.0409 -0.0767  0.5354
11747SOL    HW138196   9.677   4.326   0.655 -1.1995 -0.7474  0.8472
11747SOL    HW238197   9.799   4.238   0.644 -0.1288  0.8034 -0.0149
11748SOL     OW38198   4.738   6.048   0.520 -0.2778 -0.2974  0.2873
11748SOL    HW138199   4.728   6.141   0.542  1.3818  0.6405 -2.4851
11748SOL    HW238200   4.762   6.047   0.428 -0.9598 -3.5738  0.0141
11749SOL     OW38201   2.972   1.971   1.823 -0.2246  0.0932 -0.4079
11749SOL    HW138202   2.909   1.902   1.844  1.3329 -0.8920  1.3166
11749SOL    HW238203   2.952   1.996   1.733 -3.5054  0.3193  0.2547
11750SOL     OW38204   4.616   8.317   5.000  0.4450 -0.2706 -0.1876
11750SOL    HW138205   4.704   8.353   5.010  1.3971 -2.0110 -1.5759
11750SOL    HW238206   4.578   8.319   5.088  2.4177 -0.7748  0.7294
11751SOL     OW38207   7.597   4.004   2.737  0.4207 -0.6480 -0.3967
11751SOL    HW138208   7.632   4.087   2.705  0.3602 -0.8530 -0.9982
11751SOL    HW238209   7.531   4.029   2.802 -0.9900 -0.1488 -1.9433
11752SOL     OW38210   8.335   8.469   7.469  0.2113  0.4563 -0.0197
11752SOL    HW138211   8.377   8.399   7.419  1.9222  0.7476  0.9385
11752SOL    HW238212   8.312   8.428   7.553 -0.0742  0.6972  0.0216
11753SOL     OW38213   1.115   9.176   4.125  0.1362  0.8508 -0.7232
11753SOL    HW138214   1.153   9.229   4.194 -0.2404 -0.9169  0.9305
11753SOL    HW238215   1.056   9.235   4.078  1.1413  2.3361 -0.1892
11754SOL     OW38216   8.540   8.310   3.732  0.3677 -0.7425 -0.1383
11754SOL    HW138217   8.494   8.241   3.779 -2.8179  0.0043 -1.8879
11754SOL    HW238218   8.544   8.278   3.641 -1.5535  1.4409 -1.0768
11755SOL     OW38219   3.095   9.337   1.660 -0.7889  0.4561 -0.8222
11755SOL    HW138220   3.043   9.396   1.716 -0.2819 -0.8532  1.1049
11755SOL    HW238221   3.049   9.254   1.664  0.8678 -0.4573  0.0915
11756SOL     OW38222  10.632   1.547   7.466  0.2829  0.0288  0.0752
11756SOL    HW138223  10.645   1.548   7.371  0.3380 -1.9068  0.0273
11756SOL    HW238224  10.701   1.604   7.500 -1.4970  3.1634 -1.1601
11757SOL     OW38225   2.368   5.255   1.813 -0.2613 -0.2464 -0.4059
11757SOL    HW138226   2.398   5.178   1.861  0.7680  2.3532  3.5934
11757SOL    HW238227   2.443   5.282   1.760 -0.7479 -2.0440 -2.1341
11758SOL     OW38228   5.659   8.402   9.377  0.2507 -0.5691  0.0514
11758SOL    HW138229   5.729   8.413   9.314  1.6822 -0.8956  1.5180
11758SOL    HW238230   5.616   8.320   9.351  0.8949 -0.7561 -0.4459
11759SOL     OW38231   4.749   1.372   0.753 -0.0582 -0.5889 -0.1030
11759SOL    HW138232   4.836   1.410   0.765  1.0263 -2.7737 -0.5682
11759SOL    HW238233   4.689   1.440   0.784  1.7843  0.9811  0.2492
11760SOL     OW38234   4.592   4.605   1.068  0.7440  0.1942  0.0108
11760SOL    HW138235   4.572   4.643   1.153 -1.8771  0.8692 -0.8105
11760SOL    HW238236   4.665   4.658   1.035  1.2210  0.4747  1.4590
11761SOL     OW38237   5.836   3.051   9.296 -0.1448 -0.4453  0.2072
11761SOL    HW138238   5.913   3.107   9.285 -0.3365  0.1372  1.5354
11761SOL    HW238239   5.871   2.967   9.326 -0.0441  0.2471  2.2319
11762SOL     OW38240   7.976   8.677   3.071 -0.7020 -0.2896  0.3390
11762SOL    HW138241   8.054   8.647   3.119 -0.0427  1.9181  0.7404
11762SOL    HW238242   7.905   8.667   3.134 -0.1232  1.0040  1.2369
11763SOL     OW38243   1.524   0.575   4.075 -0.6908  0.1175 -0.2740
11763SOL    HW138244   1.456   0.508   4.079 -0.3829 -0.2245 -0.7266
11763SOL    HW238245   1.597   0.538   4.124 -1.4344  1.2252  1.8146
11764SOL     OW38246   5.687   6.437   3.183  0.0445 -0.1670  0.5069
11764SOL    HW138247   5.635   6.494   3.126 -0.9617 -0.2034  1.3673
11764SOL    HW238248   5.646   6.445   3.269  2.7488  1.5095  1.7731
11765SOL     OW38249   5.031   9.119   5.069  0.1273  0.0549  0.6901
11765SOL    HW138250   5.049   9.026   5.080 -0.3473 -0.0255  0.8068
11765SOL    HW238251   5.021   9.153   5.158 -2.5390 -0.3659  0.6324
11766SOL     OW38252   3.609   1.903   6.388  0.2276  0.0861  0.1877
11766SOL    HW138253   3.595   1.963   6.462  0.9811 -0.6659  0.9708
11766SOL    HW238254   3.527   1.856   6.380  0.2897 -0.1574  0.8742
11767SOL     OW38255   1.117   1.406   8.316 -0.0228  0.4785  0.1477
11767SOL    HW138256   1.059   1.419   8.391 -0.9768  0.8700 -0.6358
11767SOL    HW238257   1.204   1.394   8.355 -0.5096  0.5646  1.3121
11768SOL     OW38258   5.203   7.081   4.763  0.3986  0.1289 -0.2216
11768SOL    HW138259   5.147   7.029   4.705  0.9325 -0.0296 -0.5991
11768SOL    HW238260   5.142   7.121   4.826  0.0905 -2.5999  1.4052
11769SOL     OW38261   4.970   0.965   7.271 -0.3519 -0.3646  0.3999
11769SOL    HW138262   4.921   0.942   7.192 -1.1720 -0.9115  1.0537
11769SOL    HW238263   5.062   0.955   7.247 -0.5206  1.0687 -0.9788
11770SOL     OW38264   4.676   6.743   4.604 -0.2580  0.2966  0.4275
11770SOL    HW138265   4.673   6.774   4.695 -1.4562  0.2863  0.4102
11770SOL    HW238266   4.611   6.796   4.559  0.5076  0.4750 -0.5007
11771SOL     OW38267   4.410  10.107   2.367 -0.2507 -0.0951 -0.9607
11771SOL    HW138268   4.399  10.032   2.427 -1.3626 -0.4121 -1.5324
11771SOL    HW238269   4.413  10.068   2.280  2.1573  0.2951 -1.1149
11772SOL     OW38270   2.169   5.301   0.924 -0.3061 -0.0523 -0.3192
11772SOL    HW138271   2.157   5.375   0.865  0.9725 -1.6913 -2.7944
11772SOL    HW238272   2.263   5.299   0.943 -0.5414 -0.1911  0.9842
11773SOL     OW38273   9.130   5.197   3.134  0.1119 -0.5637 -0.4220
11773SOL    HW138274   9.150   5.230   3.046 -0.6832 -0.8223 -0.7027
11773SOL    HW238275   9.092   5.271   3.180 -0.9179 -0.8544 -0.7942
11774SOL     OW38276   2.423   5.186   5.752 -0.3311 -0.2504  0.8382
11774SOL    HW138277   2.352   5.131   5.719 -0.0846 -0.3337  0.4390
11774SOL    HW238278   2.503   5.136   5.734 -0.1416  0.0089  0.9445
11775SOL     OW38279   9.981   9.001   1.205 -0.2388  0.4117 -0.3562
11775SOL    HW138280  10.007   8.922   1.158  0.8573  0.6210 -0.1348
11775SOL    HW238281   9.901   8.976   1.251  0.7547 -0.9898  0.7197
11776SOL     OW38282   1.794   1.658   2.519 -0.3995  0.7438  0.1116
11776SOL    HW138283   1.777   1.565   2.506 -0.4269  0.8810 -0.9366
11776SOL    HW238284   1.758   1.677   2.606  1.0655 -0.5583  1.0774
11777SOL     OW38285   5.262   6.056   7.558  0.5175  0.4097  0.2114
11777SOL    HW138286   5.264   6.021   7.647  1.7954 -1.5550 -0.5412
11777SOL    HW238287   5.354   6.065   7.534  0.1823  0.7066 -1.0148
11778SOL     OW38288   2.823   5.403   8.959  0.5801 -0.2248  0.7666
11778SOL    HW138289   2.855   5.326   9.007  1.1289 -0.9782 -0.7368
11778SOL    HW238290   2.810   5.371   8.870  1.1102  1.5039  0.0336
11779SOL     OW38291   6.762   2.113   4.971 -0.2843  0.2346  0.1976
11779SOL    HW138292   6.797   2.131   4.884  2.4365  0.0746  1.1682
11779SOL    HW238293   6.726   2.197   5.000  0.2015  0.6768 -0.4591
11780SOL     OW38294   0.956   7.066   5.174 -0.0472 -0.0026 -0.2371
11780SOL    HW138295   0.963   6.971   5.185  1.4363  0.1880  0.8232
11780SOL    HW238296   0.863   7.085   5.182 -0.6050 -1.5351 -2.2480
11781SOL     OW38297   2.610   7.408   9.147 -0.6411  0.4878 -0.0486
11781SOL    HW138298   2.579   7.483   9.095  0.9079  0.8589 -0.4827
11781SOL    HW238299   2.533   7.352   9.155 -1.0997  0.7052 -2.2452
11782SOL     OW38300   8.903   9.954   6.028 -0.0550 -0.4154  0.4335
11782SOL    HW138301   8.891   9.961   5.933 -0.5115 -1.4054  0.4090
11782SOL    HW238302   8.894  10.044   6.060 -1.4606 -0.2731 -0.2861
11783SOL     OW38303   8.869   5.037   8.885  0.3749 -0.5434  0.2980
11783SOL    HW138304   8.777   5.017   8.869 -0.3735  0.3078  2.9379
11783SOL    HW238305   8.893   4.983   8.961  2.6922 -2.1818 -1.4382
11784SOL     OW38306   4.335   6.671   1.958 -0.4898  0.1031 -0.5984
11784SOL    HW138307   4.414   6.676   1.903  0.1705  0.2624  0.3284
11784SOL    HW238308   4.360   6.612   2.029 -0.4600  1.7799  0.8458
11785SOL     OW38309   5.043   6.973   9.876 -0.2730  0.2346 -1.0316
11785SOL    HW138310   5.070   7.040   9.813 -0.8454  2.0310  0.5320
11785SOL    HW238311   4.958   6.943   9.843  0.6327 -0.8266 -2.5205
11786SOL     OW38312   8.707   9.405   9.285 -0.6414  0.0113  0.0996
11786SOL    HW138313   8.778   9.365   9.336 -0.5711 -0.0621 -0.0553
11786SOL    HW238314   8.748   9.480   9.242 -0.0068 -1.4149 -1.9555
11787SOL     OW38315   5.014   5.159   3.915  0.0043  0.0492 -0.4005
11787SOL    HW138316   4.932   5.162   3.964  0.4451  1.6169  0.2941
11787SOL    HW238317   5.082   5.172   3.981  0.7490 -0.1469 -1.1154
11788SOL     OW38318   5.581   8.569   9.670  0.0948 -0.1828 -0.1987
11788SOL    HW138319   5.641   8.637   9.640 -1.2557  1.0126 -0.2846
11788SOL    HW238320   5.634   8.514   9.728  0.9749  1.5830  0.7617
11789SOL     OW38321   5.229   4.927   4.238  0.2288 -1.1004  0.5385
11789SOL    HW138322   5.195   4.907   4.325 -0.6075 -0.9800  0.2520
11789SOL    HW238323   5.151   4.936   4.183  0.7317 -0.8824 -0.1622
11790SOL     OW38324   7.683  10.024   4.407 -0.2085  0.1228 -0.1226
11790SOL    HW138325   7.754  10.077   4.368  0.6265 -0.9310 -0.0748
11790SOL    HW238326   7.727   9.970   4.472 -1.0757 -0.5118 -0.0563
11791SOL     OW38327   7.688   0.204   0.057  0.3815  0.2299  0.4273
11791SOL    HW138328   7.677   0.164  -0.029  0.8148  0.4119  0.2860
11791SOL    HW238329   7.628   0.278   0.057  2.3301  1.9225 -0.7747
11792SOL     OW38330   9.145   4.847   6.422 -0.1132  0.1300  0.8316
11792SOL    HW138331   9.082   4.842   6.493 -1.4269 -0.3305 -0.3379
11792SOL    HW238332   9.094   4.871   6.345  1.1624 -0.0392 -0.1122
11793SOL     OW38333   9.893   6.133   6.327 -0.1969  0.1033  0.3678
11793SOL    HW138334   9.865   6.190   6.399 -1.3015 -0.7661  0.6557
11793SOL    HW238335   9.847   6.051   6.342 -0.3732 -0.1368 -1.2759
11794SOL     OW38336   9.733   2.956   4.477 -0.4798 -0.2946  0.5214
11794SOL    HW138337   9.724   2.945   4.382 -1.3717  2.1204  0.2720
11794SOL    HW238338   9.821   2.989   4.489 -0.9650  1.1122  0.3286
11795SOL     OW38339   3.618   7.523   9.837  0.5576  0.3176 -0.6345
11795SOL    HW138340   3.713   7.533   9.851  1.7403 -0.8164 -5.7656
11795SOL    HW238341   3.594   7.449   9.892  3.7115 -1.9818 -2.0396
11796SOL     OW38342   3.532   3.570  10.625  0.4359  0.1460  0.2019
11796SOL    HW138343   3.620   3.533  10.631  1.0393  1.1613 -1.7286
11796SOL    HW238344   3.513   3.573  10.531 -2.1454 -1.0971  0.6034
11797SOL     OW38345   7.512   6.209   6.530  0.1603  0.0672 -0.1716
11797SOL    HW138346   7.601   6.182   6.509  0.6799  0.5304  1.3300
11797SOL    HW238347   7.520   6.260   6.610 -1.3914  0.6058 -0.3196
11798SOL     OW38348   7.171   5.588   7.011  0.0532  0.6988  0.0517
11798SOL    HW138349   7.136   5.647   7.078 -0.6063  2.9314 -2.1248
11798SOL    HW238350   7.113   5.599   6.937  2.0610  0.0971 -1.7098
11799SOL     OW38351   8.388   3.741   2.490 -0.1223  0.1126  0.5379
11799SOL    HW138352   8.329   3.798   2.441 -1.6286 -2.4680 -0.8811
11799SOL    HW238353   8.333   3.702   2.559  0.5260 -0.5286  0.7107
11800SOL     OW38354   9.181   8.961   8.906  0.2498 -0.1805 -0.5621
11800SOL    HW138355   9.249   9.012   8.951  1.4760 -0.0032 -2.5229
11800SOL    HW238356   9.203   8.870   8.927  0.1512 -0.0701  0.0611
11801SOL     OW38357   4.810  10.594   8.656 -0.3102  0.0173  0.1057
11801SOL    HW138358   4.771  10.526   8.712 -0.2464 -0.5279 -0.5046
11801SOL    HW238359   4.739  10.619   8.597 -0.8857  1.7660  1.4601
11802SOL     OW38360   6.604   1.443   1.182 -0.3266 -0.1939 -0.1435
11802SOL    HW138361   6.573   1.463   1.270  0.8810  0.4807  0.1559
11802SOL    HW238362   6.652   1.522   1.155  0.5159 -0.9233 -0.8348
11803SOL     OW38363   8.830   1.045   6.773 -0.0530  0.1482  0.1283
11803SOL    HW138364   8.784   1.095   6.706 -0.9828 -1.7071 -0.6910
11803SOL    HW238365   8.771   1.044   6.848 -0.2217 -0.0930 -0.0091
11804SOL     OW38366  10.190   1.363  10.261  0.3152 -0.3702  0.3841
11804SOL    HW138367  10.231   1.318  10.335 -2.6421 -1.2387  1.6385
11804SOL    HW238368  10.099   1.332  10.261 -0.8899  2.7354 -1.0758
11805SOL     OW38369   5.224   6.629   3.403 -0.4522 -1.2545  0.3331
11805SOL    HW138370   5.238   6.689   3.330  3.1455  0.1385  1.9241
11805SOL    HW238371   5.128   6.624   3.412 -0.9632  1.0122 -2.3962
11806SOL     OW38372   5.889   9.600   5.127 -0.3147  0.0265  0.3764
11806SOL    HW138373   5.816   9.620   5.068 -0.7329 -1.1523  0.4597
11806SOL    HW238374   5.861   9.635   5.212 -0.0998  0.9339  0.0869
11807SOL     OW38375   1.034   2.927   4.748 -0.2990  0.5672 -0.2899
11807SOL    HW138376   1.048   2.952   4.656 -0.8250  2.2470  0.0372
11807SOL    HW238377   1.104   2.971   4.796  0.0327 -0.3852  0.1103
11808SOL     OW38378  10.561   0.148   4.272 -0.0711  0.1136 -0.7533
11808SOL    HW138379  10.542   0.221   4.332 -0.9550  0.1863 -1.1008
11808SOL    HW238380  10.618   0.090   4.322  0.2580  0.8085 -0.3005
11809SOL     OW38381   9.337   2.129   0.092  0.3392  0.0082  0.4072
11809SOL    HW138382   9.323   2.223   0.098 -1.2348 -0.1792  0.0595
11809SOL    HW238383   9.271   2.098   0.029  0.9226 -1.3010  0.3962
11810SOL     OW38384   1.838   0.683   4.754 -0.0695  0.3095 -0.5528
11810SOL    HW138385   1.749   0.705   4.727 -0.7728 -0.2452  1.1708
11810SOL    HW238386   1.847   0.589   4.734  0.9917  0.8283 -2.8434
11811SOL     OW38387   8.193   7.571   2.293 -0.4717 -0.3824  0.4114
11811SOL    HW138388   8.205   7.649   2.347  1.4955 -0.8952  0.7962
11811SOL    HW238389   8.162   7.605   2.209 -0.2735  0.7361  0.7680
11812SOL     OW38390   3.899   2.738   8.790  0.4254 -0.3423  0.0887
11812SOL    HW138391   3.915   2.649   8.823  1.2546  0.1879  1.2096
11812SOL    HW238392   3.833   2.774   8.850  0.0385 -0.2255 -0.4042
11813SOL     OW38393   1.133   2.726  10.197  0.0654  0.6963  0.0652
11813SOL    HW138394   1.172   2.813  10.197 -0.2543  0.8468 -0.5065
11813SOL    HW238395   1.083   2.722  10.116  2.5593 -1.1272 -1.5302
11814SOL     OW38396   2.301   6.298   1.326  0.1832  0.1164  0.4244
11814SOL    HW138397   2.307   6.203   1.320  0.7415  0.1773 -0.1069
11814SOL    HW238398   2.351   6.321   1.404  0.8160  0.0404  0.0469
11815SOL     OW38399   3.788   2.803   4.736 -0.2772 -0.6121  0.2375
11815SOL    HW138400   3.717   2.854   4.699  0.7320  0.5494 -0.1766
11815SOL    HW238401   3.854   2.800   4.667  0.7261 -0.2876  1.1566
11816SOL     OW38402   0.103   0.703   9.631 -0.5033  0.2236  0.1035
11816SOL    HW138403   0.177   0.734   9.683 -1.2921  0.5255  1.0687
11816SOL    HW238404   0.030   0.759   9.657 -1.1464 -0.2369 -0.6422
11817SOL     OW38405   8.125   4.608   1.207 -0.2559 -0.7741 -0.1597
11817SOL    HW138406   8.136   4.530   1.262  1.2961 -0.5992 -0.1743
11817SOL    HW238407   8.195   4.667   1.236 -1.6507  0.8020  0.1334
11818SOL     OW38408   9.901   6.235   4.723 -0.4311 -0.5991 -0.2420
11818SOL    HW138409   9.845   6.311   4.705  0.5872 -0.0965 -1.4550
11818SOL    HW238410   9.977   6.272   4.769 -0.1292 -0.9472 -0.4545
11819SOL     OW38411   4.179   5.603   6.664  0.3764  0.0210  0.3342
11819SOL    HW138412   4.233   5.675   6.696  1.2469  0.1585 -1.3675
11819SOL    HW238413   4.136   5.638   6.586 -1.9560 -0.1998  1.4365
11820SOL     OW38414   5.435   1.237   4.503 -0.3247 -0.0890  0.0374
11820SOL    HW138415   5.395   1.154   4.479  1.2346 -0.4951 -1.4295
11820SOL    HW238416   5.448   1.282   4.420  1.1340  0.5109  0.5529
11821SOL     OW38417   9.655   4.180   7.144  0.4276  0.1373  0.1993
11821SOL    HW138418   9.653   4.109   7.079  0.5378  0.6216 -0.3374
11821SOL    HW238419   9.736   4.163   7.194 -0.4052 -1.0916  1.2016
11822SOL     OW38420   1.737   1.038   9.269  0.0536  0.0408 -0.4392
11822SOL    HW138421   1.747   1.073   9.357  2.1104 -0.6506 -0.3350
11822SOL    HW238422   1.656   0.986   9.272 -0.4509  0.8697  0.7232
11823SOL     OW38423   4.351   5.212   7.871  0.3031  0.1257 -0.1495
11823SOL    HW138424   4.387   5.300   7.860  2.6759 -1.0950 -4.1915
11823SOL    HW238425   4.288   5.203   7.799  0.1753 -1.4931  0.1242
11824SOL     OW38426   5.683   8.617   4.992  0.0134 -0.3827  0.2266
11824SOL    HW138427   5.756   8.566   5.026  0.2955  0.3208  0.7031
11824SOL    HW238428   5.724   8.693   4.949 -0.4488  0.7191  1.6571
11825SOL     OW38429   8.511   8.336   2.866 -0.1076  0.4000 -0.7161
11825SOL    HW138430   8.603   8.346   2.891 -0.0914  2.2847 -1.3862
11825SOL    HW238431   8.495   8.407   2.804 -1.4956 -1.0714 -2.1589
11826SOL     OW38432   0.586   3.003   5.835 -0.0870 -0.5565 -0.0332
11826SOL    HW138433   0.651   3.003   5.904 -0.4666 -1.8783  0.3633
11826SOL    HW238434   0.531   2.927   5.854 -2.3517  1.0255  0.2126
11827SOL     OW38435   9.448   8.792   6.302  0.0959 -0.0823  0.3348
11827SOL    HW138436   9.499   8.774   6.223  0.0050 -1.9366  0.6447
11827SOL    HW238437   9.512   8.819   6.367  0.5017 -0.9228  0.2940
11828SOL     OW38438   9.143   3.619   4.263 -0.0950  0.2173  0.3331
11828SOL    HW138439   9.059   3.575   4.278  0.1542 -0.2771  0.2760
11828SOL    HW238440   9.119   3.711   4.249 -0.4686  0.4715  2.3235
11829SOL     OW38441   6.762   7.608   6.752  0.3095 -0.2847  0.2719
11829SOL    HW138442   6.713   7.597   6.834 -0.4872 -0.1232 -0.1682
11829SOL    HW238443   6.847   7.569   6.769 -0.0241 -0.7045  1.0178
11830SOL     OW38444  10.088   3.417   1.822 -0.0367  0.3855  0.1987
11830SOL    HW138445  10.002   3.429   1.781  0.1446  0.1473 -0.2616
11830SOL    HW238446  10.141   3.489   1.787  0.2475 -0.0824 -0.3418
11831SOL     OW38447  10.626   1.545   3.850 -0.3707  0.0814 -0.0710
11831SOL    HW138448  10.661   1.480   3.790 -0.2509 -0.2497  0.3552
11831SOL    HW238449  10.662   1.521   3.935 -1.5833 -0.2453  0.3687
11832SOL     OW38450  10.664   1.547   1.364  0.3793 -0.6964  0.3866
11832SOL    HW138451  10.719   1.619   1.394  0.9327 -0.9951  0.1158
11832SOL    HW238452  10.726   1.482   1.331 -0.1415 -0.9982 -0.0202
11833SOL     OW38453   8.885   0.918   7.340 -0.1226 -0.4099 -0.2678
11833SOL    HW138454   8.922   0.975   7.273  0.4507 -0.0534  0.3364
11833SOL    HW238455   8.791   0.940   7.341  0.0841  0.5035 -0.0683
11834SOL     OW38456   9.394   1.164   0.332 -0.3114 -0.4427 -0.1782
11834SOL    HW138457   9.317   1.207   0.296 -1.3146 -3.3842 -1.8967
11834SOL    HW238458   9.359   1.085   0.374  1.6364 -1.1138  0.2823
11835SOL     OW38459   3.267   3.999   3.595  0.6167 -0.8506 -0.0953
11835SOL    HW138460   3.337   4.049   3.638  0.4400 -1.2308  0.6608
11835SOL    HW238461   3.252   3.925   3.654  1.4176 -2.2491 -1.5659
11836SOL     OW38462   8.306   6.215   9.423 -0.2352 -0.3908  0.1884
11836SOL    HW138463   8.373   6.271   9.462  1.2688 -0.3597 -2.2154
11836SOL    HW238464   8.232   6.274   9.408 -0.0536  0.0691  1.0280
11837SOL     OW38465   8.259   0.338   3.972  0.6301  0.4391 -0.1774
11837SOL    HW138466   8.224   0.299   4.051 -0.4519 -0.3063 -0.9989
11837SOL    HW238467   8.308   0.414   4.003  0.0738  0.2725  1.1854
11838SOL     OW38468   1.990   9.046   5.615 -0.3826 -0.0965 -0.1471
11838SOL    HW138469   2.084   9.041   5.602 -0.1124  0.9567  1.1151
11838SOL    HW238470   1.970   9.139   5.608 -1.2563 -0.2657 -0.0139
11839SOL     OW38471  10.465   5.730   5.399 -0.2811  0.4566 -0.4323
11839SOL    HW138472  10.406   5.706   5.470  0.7305 -1.1300 -0.0561
11839SOL    HW238473  10.550   5.742   5.442 -0.1015  1.6829 -1.0912
11840SOL     OW38474   8.692   1.651   2.453 -0.2146  0.0378 -0.3041
11840SOL    HW138475   8.772   1.703   2.445  0.6122 -1.0590  0.3988
11840SOL    HW238476   8.704   1.579   2.390 -2.0714  1.4865 -2.4915
11841SOL     OW38477   5.663   6.139   8.411  0.3095 -0.2841 -0.2115
11841SOL    HW138478   5.603   6.206   8.443  0.1840 -1.4545  2.2539
11841SOL    HW238479   5.700   6.176   8.331 -0.0905  2.5107  0.7792
11842SOL     OW38480   0.487   5.048   9.260 -0.5372 -0.1930  0.1381
11842SOL    HW138481   0.543   5.027   9.335  0.4572 -0.5933 -0.6808
11842SOL    HW238482   0.547   5.091   9.198 -1.3633  0.2246 -0.3838
11843SOL     OW38483   0.625   9.558   4.871 -0.4246 -0.1902 -0.0692
11843SOL    HW138484   0.562   9.531   4.938 -1.3036 -0.7191 -1.0686
11843SOL    HW238485   0.597   9.646   4.846  0.3480  0.3070  0.7478
11844SOL     OW38486   9.816   5.453   9.614  0.3320 -0.1124 -0.6392
11844SOL    HW138487   9.861   5.375   9.647 -0.1989  0.3032  1.1728
11844SOL    HW238488   9.730   5.451   9.656 -0.8297 -0.0881 -2.8688
11845SOL     OW38489   4.509   9.201   1.843  0.0427 -0.4896  0.4647
11845SOL    HW138490   4.585   9.174   1.791 -0.1356 -1.2573  0.5912
11845SOL    HW238491   4.542   9.201   1.933  0.1583  0.1419  0.4238
11846SOL     OW38492   2.391   0.550   1.415  0.5073 -0.3793 -0.0403
11846SOL    HW138493   2.353   0.595   1.340 -0.8624 -0.1884  0.7309
11846SOL    HW238494   2.390   0.457   1.390 -0.5852 -0.3869 -0.0020
11847SOL     OW38495   1.487   9.453   5.958 -0.4134  0.1764 -0.0096
11847SOL    HW138496   1.440   9.501   5.890 -0.4824  0.0085 -0.0816
11847SOL    HW238497   1.419   9.400   6.000 -0.0746 -1.0052 -0.9220
11848SOL     OW38498   4.652   8.274   9.534  0.4927  0.5785  0.7714
11848SOL    HW138499   4.721   8.311   9.590  1.0301  0.7403  0.0100
11848SOL    HW238500   4.692   8.198   9.493  0.4339  1.0393 -0.1620
11849SOL     OW38501   8.391   7.192   8.010 -0.1973  0.1507 -0.0712
11849SOL    HW138502   8.402   7.269   7.953  1.3226 -0.8914 -1.2584
11849SOL    HW238503   8.346   7.128   7.955  0.1674 -0.4400  0.3115
11850SOL     OW38504   3.444   5.540   7.817  0.1539  0.0930  0.8759
11850SOL    HW138505   3.356   5.503   7.822  0.2361 -0.4126 -0.6672
11850SOL    HW238506   3.437   5.612   7.754  1.0679 -0.7744 -0.2696
11851SOL     OW38507   9.865  10.484   2.449 -0.5515  0.6030 -0.4608
11851SOL    HW138508   9.793  10.514   2.394 -0.4943  1.3767 -0.1314
11851SOL    HW238509   9.824  10.431   2.517 -0.6095 -0.4812 -1.3072
11852SOL     OW38510   3.100   6.559   3.244 -0.0293  0.5209 -0.8641
11852SOL    HW138511   3.193   6.552   3.222  0.2862 -0.1643  0.5752
11852SOL    HW238512   3.091   6.645   3.284  0.1481  0.2660 -0.2749
11853SOL     OW38513   7.863   6.122   1.649  0.4237  0.4430 -0.2767
11853SOL    HW138514   7.945   6.134   1.600  1.7715  0.4815  1.8648
11853SOL    HW238515   7.874   6.039   1.695 -0.2126  1.0373  0.9966
11854SOL     OW38516   6.023   4.106   3.877 -0.0687  0.0906  0.1093
11854SOL    HW138517   6.085   4.034   3.869 -0.4402 -0.0876 -1.7018
11854SOL    HW238518   5.940   4.064   3.901  0.2730  0.2310  1.6280
11855SOL     OW38519   5.393   4.425  10.443 -0.1615 -0.4031  0.6369
11855SOL    HW138520   5.414   4.507  10.488  0.4436 -0.4633  0.4674
11855SOL    HW238521   5.347   4.452  10.364 -0.0130 -0.2266  0.6104
11856SOL     OW38522   9.077   4.975   5.836 -0.1706  0.4559  0.1057
11856SOL    HW138523   9.105   4.963   5.746 -0.8953 -1.0341  0.0387
11856SOL    HW238524   9.096   4.891   5.879  1.0448  1.4417  1.6117
11857SOL     OW38525   2.731   7.447   8.737  0.4249 -0.0944  0.0062
11857SOL    HW138526   2.680   7.426   8.658 -0.0280 -1.6039  0.6583
11857SOL    HW238527   2.789   7.518   8.709  0.3796 -0.6753 -1.7408
11858SOL     OW38528   6.319   7.404   2.166  0.4005  0.3345 -0.2668
11858SOL    HW138529   6.261   7.333   2.192  1.1104 -0.3050 -0.3740
11858SOL    HW238530   6.279   7.483   2.201 -1.2249  0.0886 -1.4735
11859SOL     OW38531   2.657   0.905   5.013  0.3525 -0.0334  0.4207
11859SOL    HW138532   2.586   0.926   4.952  0.2399  2.2483  1.2590
11859SOL    HW238533   2.701   0.829   4.973 -1.0060  0.0645 -1.3858
11860SOL     OW38534   2.982   9.137   3.796 -0.8670  0.2652 -0.3875
11860SOL    HW138535   2.888   9.150   3.788 -1.0303 -0.3696  0.4359
11860SOL    HW238536   2.995   9.103   3.884 -0.0213 -1.0040 -0.9630
11861SOL     OW38537  10.491   2.186   7.448 -0.4880 -0.1198  0.0827
11861SOL    HW138538  10.476   2.183   7.543  0.6601  0.6979  0.3055
11861SOL    HW238539  10.407   2.216   7.413 -0.6904  0.3480  0.9176
11862SOL     OW38540   2.622   0.435   7.587  0.0876 -0.3112 -0.5421
11862SOL    HW138541   2.572   0.390   7.655  1.3326  0.1033  0.6863
11862SOL    HW238542   2.560   0.498   7.550 -0.1780  0.5969  1.3363
11863SOL     OW38543   3.935   6.760   5.808 -0.1474  0.1446  0.4950
11863SOL    HW138544   3.898   6.686   5.856 -2.0317  0.8929  0.2823
11863SOL    HW238545   3.936   6.831   5.872 -1.0756  0.6965 -0.0938
11864SOL     OW38546   1.025   3.354   8.260 -0.0954  0.2701 -0.0237
11864SOL    HW138547   1.063   3.330   8.176  1.9109 -0.9547  1.1456
11864SOL    HW238548   0.974   3.433   8.242  1.0172  0.5633 -2.2022
11865SOL     OW38549   2.919   0.972   3.509  0.7048  0.3860  0.2108
11865SOL    HW138550   2.916   0.902   3.443 -1.3571 -0.7579  1.4272
11865SOL    HW238551   2.916   0.927   3.593  0.9457  1.9103  1.0823
11866SOL     OW38552   4.228   8.824   5.121  0.3784  0.0647 -0.3106
11866SOL    HW138553   4.286   8.762   5.165 -0.6188 -1.4988 -1.0963
11866SOL    HW238554   4.264   8.831   5.032  0.9896  1.3363  0.0090
11867SOL     OW38555   8.805   9.839   9.810 -0.2736  0.1949 -0.1148
11867SOL    HW138556   8.828   9.913   9.754  0.8924 -0.2152 -0.2068
11867SOL    HW238557   8.888   9.812   9.850 -0.9151 -0.1769  1.0147
11868SOL     OW38558   0.795   2.579   6.346 -0.1658  0.0012 -0.0452
11868SOL    HW138559   0.836   2.513   6.290  0.8411  0.1830  0.4523
11868SOL    HW238560   0.862   2.599   6.413 -0.0183  2.2892 -0.7882
11869SOL     OW38561   2.605   4.155   8.372 -0.3657  0.4598  0.2551
11869SOL    HW138562   2.534   4.211   8.340  0.5926  0.3051 -2.3720
11869SOL    HW238563   2.684   4.192   8.333  0.7051 -0.7781  1.1683
11870SOL     OW38564   3.358   2.244   6.227 -1.1233 -0.2656 -1.0882
11870SOL    HW138565   3.438   2.201   6.196  0.4523  1.5650  0.1824
11870SOL    HW238566   3.309   2.265   6.148  0.3407 -0.2215 -2.0143
11871SOL     OW38567   9.856   7.916   0.234  0.3648  0.1594  0.0672
11871SOL    HW138568   9.907   7.994   0.256  0.0923  0.7501 -1.2730
11871SOL    HW238569   9.766   7.949   0.225  0.4931  0.0230 -2.0619
11872SOL     OW38570   3.842   4.300   7.898 -0.5100  0.6653 -0.0821
11872SOL    HW138571   3.786   4.225   7.919 -0.7829  1.1111  0.8530
11872SOL    HW238572   3.803   4.372   7.947  0.6614  1.0715  0.2779
11873SOL     OW38573   2.471   6.339   2.900  0.1133  0.6164  0.0316
11873SOL    HW138574   2.449   6.383   2.818 -0.2862  0.0138 -0.1913
11873SOL    HW238575   2.550   6.289   2.879 -1.0177 -1.0080 -0.5317
11874SOL     OW38576   0.827   3.100   6.732 -0.0283  0.2749  0.6416
11874SOL    HW138577   0.792   3.049   6.805  0.4362 -1.1117 -0.0704
11874SOL    HW238578   0.749   3.128   6.683 -0.2673 -0.3513  0.6545
11875SOL     OW38579   7.208   3.475   6.241  0.1471  0.6435 -0.0081
11875SOL    HW138580   7.144   3.539   6.210 -0.8461 -0.1718  0.2872
11875SOL    HW238581   7.272   3.469   6.171 -0.6537  0.7347 -0.7649
11876SOL     OW38582   9.753   6.016   2.214  0.5472 -0.1554 -0.5695
11876SOL    HW138583   9.699   5.940   2.193  0.3163 -0.3547  0.6491
11876SOL    HW238584   9.788   5.997   2.301  0.7898  0.9619 -0.4037
11877SOL     OW38585   6.543   9.429   8.148  0.7625  0.1683  0.1766
11877SOL    HW138586   6.508   9.356   8.096  2.3318  0.3709 -1.2501
11877SOL    HW238587   6.478   9.499   8.137  1.2555  0.3668 -1.9795
11878SOL     OW38588   9.261   8.804   7.231 -0.5003  0.3083  0.2192
11878SOL    HW138589   9.235   8.712   7.231  0.6764 -0.0422  0.4100
11878SOL    HW238590   9.273   8.826   7.323  1.3157  0.0005  0.1009
11879SOL     OW38591   1.902   9.649   3.983  0.2480  0.2021  0.3287
11879SOL    HW138592   1.914   9.744   3.985  0.3830  0.2730 -1.6319
11879SOL    HW238593   1.990   9.613   3.992  0.3827  0.3245 -0.4218
11880SOL     OW38594   8.822   9.072   5.247  0.4049 -0.3069 -0.7149
11880SOL    HW138595   8.809   9.164   5.270  1.4118 -0.3735  0.1682
11880SOL    HW238596   8.912   9.067   5.216  0.2747 -0.9545 -1.0148
11881SOL     OW38597   5.506   2.497   9.308  0.4171 -0.4125  0.6518
11881SOL    HW138598   5.600   2.497   9.293  0.3778  1.1777  0.2671
11881SOL    HW238599   5.496   2.473   9.400  1.1394 -1.2106  0.5362
11882SOL     OW38600  10.311   4.677   3.090  0.3996  0.5628  0.6270
11882SOL    HW138601  10.292   4.646   3.178  0.0455  0.7429  0.6179
11882SOL    HW238602  10.400   4.711   3.095  1.1371 -1.2284  0.4242
11883SOL     OW38603   7.348   1.131   2.964 -0.0705 -0.1602 -0.2890
11883SOL    HW138604   7.420   1.170   3.013 -0.1477  0.3151 -0.5543
11883SOL    HW238605   7.300   1.080   3.029 -0.2872  0.6252  0.1777
11884SOL     OW38606   2.887   8.031   6.884  0.1717  0.1461  0.0701
11884SOL    HW138607   2.963   8.080   6.916 -0.0949 -0.8877  2.5115
11884SOL    HW238608   2.840   8.006   6.964 -1.9449 -0.5084 -1.3144
11885SOL     OW38609   3.329   0.437   2.546  0.3011  0.3365 -0.2812
11885SOL    HW138610   3.252   0.391   2.512 -0.3010  1.7993 -0.9937
11885SOL    HW238611   3.399   0.415   2.485 -0.0827  0.6869 -0.8545
11886SOL     OW38612  10.469   0.917   5.554 -0.4716  0.2320  0.0230
11886SOL    HW138613  10.400   0.856   5.579 -1.6662  1.1686 -0.9031
11886SOL    HW238614  10.489   0.896   5.463 -1.3876  1.6403 -0.5292
11887SOL     OW38615   7.197   4.787   1.320  0.0301  0.0765  0.2305
11887SOL    HW138616   7.234   4.874   1.310  1.2561 -0.5885 -1.3211
11887SOL    HW238617   7.203   4.748   1.233  2.4753 -2.7030  1.4952
11888SOL     OW38618   9.624  10.154   7.028 -0.1306 -0.6686 -0.4626
11888SOL    HW138619   9.618  10.248   7.012 -0.4363 -0.7560 -0.8846
11888SOL    HW238620   9.543  10.119   6.990 -1.4363 -0.7704  2.1587
11889SOL     OW38621   6.328   7.860   0.607  0.3398 -0.2152 -0.2301
11889SOL    HW138622   6.308   7.898   0.522  1.8164 -0.4119 -0.6829
11889SOL    HW238623   6.389   7.921   0.648  0.9867 -0.9682 -0.0362
11890SOL     OW38624   1.566   3.542   3.397 -0.1682 -0.0463  0.0750
11890SOL    HW138625   1.650   3.586   3.406 -1.5659  2.7389  0.8456
11890SOL    HW238626   1.547   3.544   3.303  0.7829 -1.1144 -0.1588
11891SOL     OW38627   3.571   2.382   6.048 -0.4238  0.0640 -0.1496
11891SOL    HW138628   3.555   2.298   6.091  1.0187  0.3314  0.9548
11891SOL    HW238629   3.517   2.378   5.968 -2.0101 -1.0273  0.9170
11892SOL     OW38630  10.026   8.102   0.302 -0.0299  0.0585  0.2157
11892SOL    HW138631   9.981   8.133   0.381 -2.0662  0.1607 -0.9068
11892SOL    HW238632  10.114   8.140   0.308 -0.0376 -0.1242  2.5106
11893SOL     OW38633   7.149   6.675   4.208 -0.8954  0.0766 -0.4503
11893SOL    HW138634   7.229   6.667   4.259 -1.4877  0.2556  0.5382
11893SOL    HW238635   7.117   6.586   4.200 -2.0984  0.2526  1.6810
11894SOL     OW38636   7.126   0.851  10.376  0.2625  0.0428  0.6138
11894SOL    HW138637   7.169   0.865  10.461  1.1318 -1.5430  0.4712
11894SOL    HW238638   7.036   0.829  10.397  0.3298  0.2252  1.0988
11895SOL     OW38639  10.167  10.190   6.134  0.4535  0.2392 -0.0777
11895SOL    HW138640  10.133  10.139   6.208  0.1597  1.2250  0.4855
11895SOL    HW238641  10.244  10.234   6.169 -1.0598  2.6575  0.4290
11896SOL     OW38642   0.049   3.709   2.766  1.0402 -0.1453 -0.6458
11896SOL    HW138643   0.090   3.713   2.853  1.3253 -0.9708 -0.7379
11896SOL    HW238644   0.050   3.800   2.736  1.5818  0.0477 -0.0803
11897SOL     OW38645   3.138   9.354   6.832  0.0837 -0.3466 -0.1354
11897SOL    HW138646   3.229   9.383   6.824 -0.0729 -0.1305 -1.3888
11897SOL    HW238647   3.087   9.422   6.788 -0.9999  0.8772  2.7623
11898SOL     OW38648   6.112   5.024   6.516  0.0785 -0.3501  0.2427
11898SOL    HW138649   6.104   5.117   6.497 -0.3547 -0.4581 -0.1336
11898SOL    HW238650   6.116   5.019   6.611  1.4855  0.1457  0.2316
11899SOL     OW38651   1.236   9.553   8.266  0.0187  0.1915 -0.1062
11899SOL    HW138652   1.319   9.559   8.314  0.0342  2.1935 -0.2880
11899SOL    HW238653   1.174   9.518   8.330  0.6963  0.0198  0.4713
11900SOL     OW38654   2.572   8.668   8.391 -0.2105 -0.0132 -0.6361
11900SOL    HW138655   2.631   8.696   8.321 -0.7392  0.1243 -1.0293
11900SOL    HW238656   2.611   8.704   8.471 -0.9052  1.9674 -1.1198
11901SOL     OW38657   4.857   3.006   9.420 -0.0813 -0.0458 -0.4097
11901SOL    HW138658   4.863   2.919   9.381  1.6946  0.0372 -0.4044
11901SOL    HW238659   4.927   3.056   9.377 -1.3838  1.5378 -0.7814
11902SOL     OW38660   7.598   4.453   4.648 -0.2599  0.2944  0.3415
11902SOL    HW138661   7.624   4.530   4.597  0.4972  0.0046  0.2800
11902SOL    HW238662   7.509   4.433   4.617  0.3955 -0.2240 -1.3049
11903SOL     OW38663   8.095   0.726   1.668  0.1565  0.3619 -0.3283
11903SOL    HW138664   8.136   0.800   1.712 -1.3047 -0.0110  1.7642
11903SOL    HW238665   8.142   0.719   1.585  3.7821  0.4289  1.5393
11904SOL     OW38666   0.429   5.727   4.390  0.3000  0.2389  0.0751
11904SOL    HW138667   0.494   5.696   4.454  0.9784  2.1054  0.3503
11904SOL    HW238668   0.455   5.686   4.308  1.0305 -0.0768  0.4506
11905SOL     OW38669   7.299   8.323   6.726 -0.5594 -0.2789 -0.3271
11905SOL    HW138670   7.353   8.295   6.801  0.5331 -0.5344 -1.1901
11905SOL    HW238671   7.247   8.395   6.760  0.1831 -0.1576  0.5926
11906SOL     OW38672   6.614   3.868   0.994 -0.2131  0.1634 -0.0995
11906SOL    HW138673   6.646   3.778   0.990 -0.1341  0.1544  0.5934
11906SOL    HW238674   6.552   3.875   0.922 -2.5458 -1.3777  1.5822
11907SOL     OW38675   7.734   6.210   5.220 -0.0303 -0.2507  0.3680
11907SOL    HW138676   7.771   6.196   5.307  0.2019  1.4163  0.5621
11907SOL    HW238677   7.787   6.281   5.183 -0.2335 -0.8264 -1.0739
11908SOL     OW38678   5.133   5.697   8.296 -0.2141  0.4291  0.3687
11908SOL    HW138679   5.208   5.755   8.287 -0.4931  0.9800  1.4097
11908SOL    HW238680   5.167   5.610   8.276  0.0183  1.0133 -2.0675
11909SOL     OW38681   6.251   2.585   1.405  0.4921  0.4330 -0.1399
11909SOL    HW138682   6.160   2.592   1.433  0.8046 -1.0537  1.3871
11909SOL    HW238683   6.277   2.675   1.383 -1.0434  1.0090  0.3287
11910SOL     OW38684   0.630   9.514   5.455 -0.3550 -0.2772 -0.3200
11910SOL    HW138685   0.591   9.498   5.541 -1.6617  1.2025 -0.5904
11910SOL    HW238686   0.703   9.574   5.473  0.2321 -1.0288 -0.1172
11911SOL     OW38687   2.148   6.927   7.507  0.6085  0.5570 -0.2302
11911SOL    HW138688   2.178   6.839   7.483 -0.1060 -0.4789  2.3078
11911SOL    HW238689   2.058   6.914   7.536  1.1175  1.7044  2.1213
11912SOL     OW38690   4.769   0.855   6.173 -0.0802 -0.0973  1.0705
11912SOL    HW138691   4.724   0.927   6.217 -1.6586 -1.2810  1.4985
11912SOL    HW238692   4.769   0.783   6.237 -0.9682 -1.3330 -0.2513
11913SOL     OW38693   3.312   6.438  10.064 -0.3460 -0.0114  0.0278
11913SOL    HW138694   3.333   6.472   9.977 -3.3809  0.9753 -0.4279
11913SOL    HW238695   3.280   6.349  10.048  0.7298 -0.4893  0.3949
11914SOL     OW38696   5.461   9.032   0.620  0.2175 -0.2771  0.4456
11914SOL    HW138697   5.416   9.034   0.704  2.8946  0.2761  1.9855
11914SOL    HW238698   5.518   8.956   0.626 -0.1446 -0.7104 -1.2410
11915SOL     OW38699   6.771   7.434   3.345  0.3832 -0.0252  0.6543
11915SOL    HW138700   6.838   7.430   3.413  0.5977 -1.1866  0.3830
11915SOL    HW238701   6.785   7.356   3.292 -2.0168 -1.0602  1.3974
11916SOL     OW38702   3.142   5.021   4.268  0.1584  0.1455 -0.1087
11916SOL    HW138703   3.219   5.046   4.216  0.2373  1.3125  0.5202
11916SOL    HW238704   3.152   5.071   4.350 -0.6339 -0.6465  0.4860
11917SOL     OW38705   8.362   8.554  10.082 -0.5461  0.2012 -0.2204
11917SOL    HW138706   8.424   8.532  10.012  0.1433 -0.0944  0.4707
11917SOL    HW238707   8.396   8.509  10.159 -1.0467  0.8866  0.4166
11918SOL     OW38708   1.146   1.115  10.683 -0.4221 -0.4021 -0.2142
11918SOL    HW138709   1.179   1.026  10.700  0.1455 -0.0758  0.4447
11918SOL    HW238710   1.054   1.102  10.660 -0.6081 -1.1006  0.8430
11919SOL     OW38711   3.882   5.846   3.285  0.4298  0.1636 -0.3575
11919SOL    HW138712   3.808   5.818   3.231 -0.7930  2.1499  0.1865
11919SOL    HW238713   3.945   5.881   3.221 -0.1875  0.7638 -0.6480
11920SOL     OW38714   8.698   0.566   5.971 -0.0325 -0.1314 -0.1648
11920SOL    HW138715   8.624   0.627   5.960 -0.4276 -0.7616 -1.1643
11920SOL    HW238716   8.667   0.485   5.931  1.1468 -0.4528 -0.4445
11921SOL     OW38717   7.417   9.955   2.964 -0.1093  0.0430 -0.4188
11921SOL    HW138718   7.367   9.959   3.045  0.0362 -0.6797 -0.2887
11921SOL    HW238719   7.501   9.995   2.985  0.6551 -1.8435  0.3514
11922SOL     OW38720   2.145   3.675   3.299  0.0442 -0.1320  0.2329
11922SOL    HW138721   2.238   3.658   3.310 -0.1756 -0.3573  1.9737
11922SOL    HW238722   2.122   3.633   3.216  1.8352  1.5035 -1.1918
11923SOL     OW38723   1.463   1.675   0.619 -0.4217 -0.3331  0.5743
11923SOL    HW138724   1.493   1.754   0.664  1.5085 -0.6345 -0.0904
11923SOL    HW238725   1.425   1.707   0.537 -0.5977 -0.0319  0.7719
11924SOL     OW38726   4.741   7.161   4.888  0.1604 -0.0272 -0.3549
11924SOL    HW138727   4.674   7.154   4.956  0.1230 -0.2418 -0.4148
11924SOL    HW238728   4.719   7.242   4.841  1.0348  0.9282  0.7995
11925SOL     OW38729   3.502   3.606   6.792  0.1539  0.4708  0.1037
11925SOL    HW138730   3.576   3.625   6.849  0.0535  1.4352 -0.0647
11925SOL    HW238731   3.453   3.538   6.838  1.9619 -1.3501 -0.5122
11926SOL     OW38732   7.565   2.404   3.315 -0.0830 -0.1121 -0.2515
11926SOL    HW138733   7.610   2.367   3.391 -0.3259 -1.0160 -0.5285
11926SOL    HW238734   7.514   2.476   3.350  0.0551 -0.3200  0.3920
11927SOL     OW38735   9.228   7.200   2.595 -0.2355 -0.2641  0.0193
11927SOL    HW138736   9.248   7.293   2.585 -0.1682 -0.3605 -0.8360
11927SOL    HW238737   9.166   7.196   2.668  0.7678  0.3117  0.9268
11928SOL     OW38738   3.551   7.792   9.807  0.6505 -0.5254 -0.4222
11928SOL    HW138739   3.557   7.699   9.830 -0.8716 -0.6473 -0.4328
11928SOL    HW238740   3.548   7.837   9.892  0.8436 -0.5166 -0.4181
11929SOL     OW38741   5.938   8.257   9.963 -0.2013  0.0057  0.6432
11929SOL    HW138742   6.007   8.237   9.900  0.0594 -0.4278  1.0715
11929SOL    HW238743   5.983   8.302  10.035 -0.5325  0.7040  0.4258
11930SOL     OW38744   2.172   1.202   6.582 -0.3973 -0.0152 -0.1824
11930SOL    HW138745   2.099   1.249   6.541 -0.8439 -0.0168  0.5809
11930SOL    HW238746   2.160   1.111   6.555 -1.3071 -0.2046  0.7709
11931SOL     OW38747   2.828   0.642   7.935 -0.4363  0.1670  0.2845
11931SOL    HW138748   2.733   0.654   7.939 -0.3073  0.9636  1.8474
11931SOL    HW238749   2.863   0.730   7.928  0.1629 -0.2429 -3.8658
11932SOL     OW38750   3.393   8.190   0.660 -0.3769 -0.5548 -0.5046
11932SOL    HW138751   3.470   8.182   0.716  0.1663 -0.8376 -1.2764
11932SOL    HW238752   3.420   8.248   0.589 -0.9042 -0.5756 -0.7325
11933SOL     OW38753   2.223   2.527   1.767  0.9318 -0.2330 -0.1636
11933SOL    HW138754   2.196   2.598   1.708 -0.2954  0.1903  0.8544
11933SOL    HW238755   2.157   2.459   1.754  0.7406 -0.1992  0.5790
11934SOL     OW38756   2.736   8.095   3.632 -0.1378 -0.0330  0.0332
11934SOL    HW138757   2.713   8.049   3.551  0.3901  0.1134 -0.2051
11934SOL    HW238758   2.752   8.186   3.605 -0.7238  0.1960  0.4277
11935SOL     OW38759   2.968   9.914   3.156 -0.1646 -0.3993  0.4524
11935SOL    HW138760   2.875   9.935   3.162  0.0673  0.4343  1.3344
11935SOL    HW238761   2.974   9.823   3.185 -0.8181 -0.7983 -0.6113
11936SOL     OW38762   6.616   1.190   1.768 -0.3234 -0.2654  0.0162
11936SOL    HW138763   6.566   1.156   1.843 -1.5935  0.7714 -0.3247
11936SOL    HW238764   6.706   1.199   1.801 -0.2775 -2.3510  0.5852
11937SOL     OW38765   5.500   9.121   7.010  0.0835 -0.0586  0.1884
11937SOL    HW138766   5.508   9.029   6.983 -1.0188 -0.3012  0.6241
11937SOL    HW238767   5.446   9.161   6.942 -1.3761 -0.3000  1.1642
11938SOL     OW38768   6.179   0.087   5.783 -0.2768  0.3735 -0.1258
11938SOL    HW138769   6.171   0.133   5.700 -1.7277 -0.1015 -0.2738
11938SOL    HW238770   6.170  -0.005   5.760 -3.8390  0.3376  0.8003
11939SOL     OW38771   4.475   5.997   7.979 -0.2818  0.2418  0.4607
11939SOL    HW138772   4.390   5.959   7.958  0.0270 -0.1844 -0.0779
11939SOL    HW238773   4.472   6.013   8.073 -2.0276  2.9851  0.0490
11940SOL     OW38774  10.016   0.175  10.335  0.4162  0.1867 -0.3699
11940SOL    HW138775   9.949   0.107  10.338  1.2278 -0.6340 -0.2777
11940SOL    HW238776  10.056   0.173  10.422  2.8411 -1.7534 -1.3977
11941SOL     OW38777   3.647   7.812   5.125  0.2874 -0.0036 -0.4596
11941SOL    HW138778   3.720   7.761   5.160  0.2311  0.5036  0.4180
11941SOL    HW238779   3.682   7.852   5.045  1.3161  1.0385  0.4687
11942SOL     OW38780   6.742  10.030   2.014  0.4316  0.4994 -0.5055
11942SOL    HW138781   6.819  10.001   1.966  0.2338  0.5862 -0.8824
11942SOL    HW238782   6.676   9.963   1.997  0.4560  0.3599 -0.0818
11943SOL     OW38783   5.781   6.139   1.045  0.2823  0.2218 -0.3742
11943SOL    HW138784   5.864   6.165   1.005  0.5587  0.4938  0.3607
11943SOL    HW238785   5.715   6.163   0.979  0.8161 -0.5532 -1.2189
11944SOL     OW38786   0.097   6.718   3.663 -0.5651 -0.1433 -0.1053
11944SOL    HW138787   0.150   6.738   3.586 -0.7671  0.1267 -0.1739
11944SOL    HW238788   0.032   6.654   3.632 -0.5720 -0.1239 -0.1304
11945SOL     OW38789   2.687   8.621  10.224 -0.2099  0.1260  0.4283
11945SOL    HW138790   2.704   8.528  10.209 -1.3573  0.0320 -0.4579
11945SOL    HW238791   2.774   8.661  10.233  0.5651 -0.4259 -3.0048
11946SOL     OW38792   7.803   1.881   5.639  0.4910 -0.6484  0.2542
11946SOL    HW138793   7.842   1.968   5.627  0.8956 -0.9023 -0.2293
11946SOL    HW238794   7.836   1.829   5.567 -1.8566 -0.4859 -1.0388
11947SOL     OW38795   9.935   6.064   5.143 -0.2586 -0.1043 -0.9668
11947SOL    HW138796   9.947   6.144   5.194  2.1887 -0.7131 -0.4989
11947SOL    HW238797   9.924   5.994   5.208  0.3193 -0.5265 -1.3168
11948SOL     OW38798   6.505   1.545   2.018  0.2764  0.0862 -0.2030
11948SOL    HW138799   6.498   1.529   1.924 -1.5991 -1.6914  0.1822
11948SOL    HW238800   6.598   1.538   2.037  0.7028  0.6313 -1.9328
11949SOL     OW38801   5.445   9.298   9.206 -0.7496  0.6971 -0.0348
11949SOL    HW138802   5.361   9.342   9.218 -1.6028 -0.9913  0.3427
11949SOL    HW238803   5.431   9.237   9.134 -0.4139 -0.9174  1.2192
11950SOL     OW38804   8.686   4.489   3.861  0.4662 -0.2255 -0.1646
11950SOL    HW138805   8.715   4.470   3.950 -0.9981  1.5304  0.7626
11950SOL    HW238806   8.603   4.441   3.853  0.5009 -0.2244 -0.5045
11951SOL     OW38807   8.715   4.830   2.256 -0.6043 -0.3139 -0.3732
11951SOL    HW138808   8.749   4.802   2.171 -0.8477  0.5044 -0.7567
11951SOL    HW238809   8.718   4.926   2.253 -1.9512 -0.2284 -0.0179
11952SOL     OW38810   8.744   1.782  10.571 -0.6102  0.2274  0.0912
11952SOL    HW138811   8.655   1.816  10.571 -1.0381 -0.7903 -1.1960
11952SOL    HW238812   8.736   1.695  10.531  1.1666  0.7566 -1.5407
11953SOL     OW38813   9.440  10.292   0.192  0.3098 -0.0561  0.0888
11953SOL    HW138814   9.508  10.248   0.244 -0.1451  0.8563  1.4969
11953SOL    HW238815   9.370  10.227   0.185  0.1953 -0.0357  0.9920
11954SOL     OW38816   7.563   0.973   0.176 -0.4566 -0.2935 -0.2376
11954SOL    HW138817   7.480   1.018   0.194 -0.1851  1.3264 -2.6048
11954SOL    HW238818   7.541   0.904   0.114 -0.2505 -0.9174  0.3654
11955SOL     OW38819   5.073   1.059   4.535  0.1784  0.3371  0.0506
11955SOL    HW138820   5.157   1.015   4.531 -0.3638 -0.6662 -0.7932
11955SOL    HW238821   5.019   1.015   4.469 -0.9958  0.9751  0.5414
11956SOL     OW38822   7.914   7.545   9.540 -0.0615 -0.0153 -0.2146
11956SOL    HW138823   7.853   7.505   9.477  0.9903  0.8256 -1.8612
11956SOL    HW238824   7.893   7.639   9.536  0.9604  0.2149 -0.4179
11957SOL     OW38825   5.629   9.669   5.082 -0.2082 -0.5649 -0.1420
11957SOL    HW138826   5.620   9.763   5.099 -0.1862 -0.7271  0.8098
11957SOL    HW238827   5.555   9.648   5.024 -1.7843 -0.4446  1.7100
11958SOL     OW38828   3.720   9.630  10.606  0.6891  0.0276 -0.2086
11958SOL    HW138829   3.662   9.618  10.682  1.6115 -0.2722  0.4736
11958SOL    HW238830   3.774   9.705  10.630  1.6532 -0.6829 -0.1259
11959SOL     OW38831   7.154   8.359   7.317  0.1928  0.4485 -0.0316
11959SOL    HW138832   7.082   8.329   7.261 -1.1151  0.9846  1.3272
11959SOL    HW238833   7.133   8.450   7.337  0.6728  0.2961  1.2585
11960SOL     OW38834   4.875   6.954   5.966  0.3308  0.0178 -0.7040
11960SOL    HW138835   4.962   6.922   5.989  1.2114  1.7994 -1.4074
11960SOL    HW238836   4.870   6.944   5.871 -1.3175 -2.5570 -0.4302
11961SOL     OW38837   9.623   0.650   0.011  0.4121 -0.0052  0.9396
11961SOL    HW138838   9.596   0.725   0.064  2.7678  1.2996  0.4047
11961SOL    HW238839   9.718   0.646   0.022  0.6817 -1.0954 -1.3835
11962SOL     OW38840   6.768   5.184   5.672 -0.3110  0.2053 -0.5159
11962SOL    HW138841   6.843   5.227   5.713 -0.4518  0.7936 -0.8466
11962SOL    HW238842   6.694   5.242   5.693 -0.8154 -0.7827  0.4824
11963SOL     OW38843   0.413   7.639   0.069  0.1909  0.5562 -0.0378
11963SOL    HW138844   0.450   7.552   0.053  2.3310  1.5046 -0.5828
11963SOL    HW238845   0.332   7.640   0.017 -0.1988 -1.2827  0.4544
11964SOL     OW38846   4.806   6.324   3.125  0.2419 -0.0383  0.4941
11964SOL    HW138847   4.772   6.328   3.215 -0.9396  0.6060  0.0432
11964SOL    HW238848   4.898   6.299   3.135  0.4110  1.0233  1.9628
11965SOL     OW38849   9.087   0.554   8.410  0.0350  0.3480 -0.3436
11965SOL    HW138850   9.137   0.579   8.333  2.2680 -1.6443  0.3377
11965SOL    HW238851   9.048   0.469   8.388  4.0024 -2.3596  1.8094
11966SOL     OW38852  10.194   1.321   5.820  0.6937 -0.1823  0.5769
11966SOL    HW138853  10.254   1.272   5.876  0.0051 -0.8583  0.7428
11966SOL    HW238854  10.196   1.275   5.736 -0.0667 -0.5948  0.7778
11967SOL     OW38855   2.775   9.957   6.970  0.2772 -0.0530  0.1798
11967SOL    HW138856   2.849   9.927   6.919  0.9943  0.6465  0.7859
11967SOL    HW238857   2.795   9.929   7.060 -0.6915 -0.7694  0.2002
11968SOL     OW38858   2.214   5.080  10.432 -0.0038 -0.0024  0.3954
11968SOL    HW138859   2.138   5.125  10.470 -0.6516 -0.9037  0.1796
11968SOL    HW238860   2.191   4.987  10.435  0.8000 -0.2317 -0.3092
11969SOL     OW38861   9.963  10.312   5.606 -0.4921 -0.1102 -0.2511
11969SOL    HW138862  10.017  10.378   5.651  1.5684 -2.8438  1.6355
11969SOL    HW238863   9.873  10.333   5.633 -0.0506  2.4031 -0.4747
11970SOL     OW38864   3.430   3.082   5.109  0.8489 -0.4069  0.0335
11970SOL    HW138865   3.477   3.163   5.131 -0.0596 -0.2322  1.4868
11970SOL    HW238866   3.432   3.031   5.189 -0.3891 -0.9119 -0.2314
11971SOL     OW38867   1.623   7.652   8.426 -0.0703 -0.0035 -0.4966
11971SOL    HW138868   1.626   7.556   8.420  1.5469 -0.2153  2.1148
11971SOL    HW238869   1.712   7.680   8.404 -0.1032  0.7501  0.2856
11972SOL     OW38870   3.319   7.530   2.252 -0.1449 -0.5686 -0.3201
11972SOL    HW138871   3.281   7.604   2.299 -1.7931 -0.8516 -1.1193
11972SOL    HW238872   3.301   7.455   2.308 -1.5123 -0.8082 -1.0225
11973SOL     OW38873   0.270   0.909   5.886  0.5157  0.2826 -0.0134
11973SOL    HW138874   0.248   0.819   5.909 -0.5222  1.0406  2.2785
11973SOL    HW238875   0.325   0.939   5.957  1.5780  1.2268 -1.1900
11974SOL     OW38876   9.428   3.152   8.879  0.3476  0.0053  0.0606
11974SOL    HW138877   9.508   3.168   8.930 -0.9344  0.2147  2.0799
11974SOL    HW238878   9.396   3.239   8.856  1.3142 -0.0911 -1.8449
11975SOL     OW38879   1.710   3.113   3.193  0.2488  0.1142 -0.7690
11975SOL    HW138880   1.787   3.080   3.240 -0.2664  1.5976  1.2222
11975SOL    HW238881   1.638   3.099   3.253 -1.1294 -1.2702 -2.6110
11976SOL     OW38882   4.411   9.978   4.433 -0.0797 -0.3467  0.2779
11976SOL    HW138883   4.453   9.945   4.512 -1.4558  0.2061  1.2846
11976SOL    HW238884   4.319   9.992   4.458 -0.7771 -1.0149 -1.6726
11977SOL     OW38885   7.188   0.758   2.956 -0.5032  0.8295  0.4927
11977SOL    HW138886   7.173   0.836   3.008  0.7801  0.9027  0.7776
11977SOL    HW238887   7.244   0.702   3.010 -2.3736 -0.8562  0.8074
11978SOL     OW38888   3.965  10.558   9.743  0.4409 -0.1549  0.0687
11978SOL    HW138889   4.009  10.643   9.741  2.7281 -1.1821  1.6579
11978SOL    HW238890   4.001  10.511   9.668  0.9340 -0.4780  0.5001
11979SOL     OW38891   9.156   9.813  10.121 -0.1803 -0.1587 -0.3084
11979SOL    HW138892   9.099   9.763  10.180 -0.0808 -1.9441 -1.6489
11979SOL    HW238893   9.096   9.869  10.072 -0.8375 -1.8501 -1.5436
11980SOL     OW38894   8.408   4.466   7.765  0.1880 -0.3425 -0.3202
11980SOL    HW138895   8.442   4.395   7.820 -0.4512 -1.3704 -1.2331
11980SOL    HW238896   8.364   4.524   7.827  2.5544  0.4578  0.7581
11981SOL     OW38897   2.025   1.460   5.714  0.3302 -0.1143 -0.0094
11981SOL    HW138898   2.054   1.542   5.754  0.3083 -0.1312  0.0419
11981SOL    HW238899   2.025   1.478   5.620  1.6067 -0.4582 -0.0980
11982SOL     OW38900   3.808   5.154   9.943 -0.2311  0.3045  0.0145
11982SOL    HW138901   3.867   5.182   9.873  0.7418 -0.3667  0.5381
11982SOL    HW238902   3.759   5.232   9.966  1.7572  1.3767  0.8243
11983SOL     OW38903   3.889   4.869   7.532 -0.6078  0.4690  0.7477
11983SOL    HW138904   3.799   4.900   7.529 -1.6271 -2.1643  1.4179
11983SOL    HW238905   3.896   4.824   7.616  1.2460  0.2964  0.5375
11984SOL     OW38906   6.974   9.193   5.439 -0.6602  0.1240 -0.0024
11984SOL    HW138907   7.002   9.126   5.501 -1.1695 -1.2643 -1.1911
11984SOL    HW238908   7.030   9.268   5.456  2.8257 -1.9602 -1.2519
11985SOL     OW38909   5.764   3.057   1.556 -0.1919  0.2996  0.7649
11985SOL    HW138910   5.817   3.082   1.632  0.5954  0.7525  0.0805
11985SOL    HW238911   5.827   3.019   1.494 -0.4511  1.8071 -0.5014
11986SOL     OW38912   0.258   5.966   9.888 -0.1003 -0.7497  0.4508
11986SOL    HW138913   0.347   5.950   9.854  0.9573  1.7187  1.7725
11986SOL    HW238914   0.226   6.040   9.836 -0.5499 -0.3385  1.2893
11987SOL     OW38915   7.401   0.568  10.403  0.6968 -0.2245  0.1644
11987SOL    HW138916   7.308   0.544  10.401  0.7867 -0.5467 -0.1935
11987SOL    HW238917   7.447   0.485  10.409  0.9448 -0.0287  1.2821
11988SOL     OW38918   1.253   5.453   7.375  0.4054  0.0608 -0.0438
11988SOL    HW138919   1.161   5.449   7.348  0.4512 -0.5547 -0.1330
11988SOL    HW238920   1.251   5.434   7.468  0.2115  2.5433  0.5329
11989SOL     OW38921   8.461   7.044   9.320  0.0064 -0.7363 -0.1419
11989SOL    HW138922   8.386   7.099   9.340  0.1724 -0.8987  1.0109
11989SOL    HW238923   8.423   6.967   9.278 -0.3568 -0.3091 -0.6018
11990SOL     OW38924   7.575   6.236   8.521  0.2703  0.0620 -0.4242
11990SOL    HW138925   7.598   6.227   8.613 -2.0050 -0.3654  0.1811
11990SOL    HW238926   7.569   6.146   8.489  3.3862  0.2117 -1.7206
11991SOL     OW38927   5.675   0.287   9.545  0.1527  0.1844 -0.3279
11991SOL    HW138928   5.716   0.373   9.552 -1.4106  0.8412  1.4875
11991SOL    HW238929   5.749   0.226   9.541  1.2886  1.5211 -0.7039
11992SOL     OW38930   5.692   5.854   8.468  0.6586  0.3253  0.0260
11992SOL    HW138931   5.677   5.943   8.436 -2.5782  0.0116  0.2943
11992SOL    HW238932   5.777   5.829   8.432  1.4474  3.3148 -0.4599
11993SOL     OW38933   7.389   1.288   5.142  0.0210 -0.0537  1.1034
11993SOL    HW138934   7.331   1.365   5.138 -0.0765 -0.1777 -0.3414
11993SOL    HW238935   7.468   1.321   5.183  0.3170  1.0848 -0.2861
11994SOL     OW38936   8.407   6.250   6.756  0.6124 -0.4669  0.2515
11994SOL    HW138937   8.423   6.239   6.849  1.4348  0.4964  0.2479
11994SOL    HW238938   8.433   6.167   6.717 -1.7467 -1.6604  1.0676
11995SOL     OW38939   7.504   0.467   9.483  0.1357 -0.1996 -0.5625
11995SOL    HW138940   7.508   0.489   9.576 -1.9933  0.4656 -0.5753
11995SOL    HW238941   7.594   0.442   9.460  0.8296  0.2222  1.5069
11996SOL     OW38942   5.345   0.863   7.684  0.3485  0.1428 -0.3086
11996SOL    HW138943   5.314   0.949   7.715 -2.1246 -0.4856 -0.8506
11996SOL    HW238944   5.433   0.880   7.651  0.2468  2.2962  0.3651
11997SOL     OW38945   4.330   4.799   1.163 -0.5456  0.0589 -0.4435
11997SOL    HW138946   4.301   4.745   1.089 -1.0567  0.1546 -0.3188
11997SOL    HW238947   4.257   4.860   1.178  0.1097  0.9361 -0.7237
11998SOL     OW38948   5.127   4.229   6.515  0.8504 -0.1941 -0.4015
11998SOL    HW138949   5.061   4.195   6.576  0.0327  0.8092 -0.7046
11998SOL    HW238950   5.082   4.298   6.468  0.3902 -2.8917 -4.3984
11999SOL     OW38951   3.226   3.527   5.511 -0.1843  0.1396  0.5536
11999SOL    HW138952   3.275   3.513   5.431  0.7586 -0.1881  1.1716
11999SOL    HW238953   3.219   3.622   5.519 -0.6105  0.1653 -0.1057
12000SOL     OW38954   7.959   9.992   9.498 -0.2441 -0.5031  0.2156
12000SOL    HW138955   7.896   9.934   9.455 -1.1800  0.4298  0.3041
12000SOL    HW238956   7.921  10.011   9.584  0.8547 -1.0715  0.8522
12001SOL     OW38957   7.703   3.251   7.681  0.0034  0.3855  0.1090
12001SOL    HW138958   7.776   3.213   7.731 -0.6051  0.9943  1.5319
12001SOL    HW238959   7.625   3.210   7.718 -0.4061 -0.1927 -1.3432
12002SOL     OW38960  10.315  10.094   1.563  0.1648 -0.2007 -0.0123
12002SOL    HW138961  10.381  10.024   1.560  0.3976  0.0210 -0.0761
12002SOL    HW238962  10.325  10.133   1.650 -1.5999 -1.8085  0.9864
12003SOL     OW38963   0.642   2.095   0.225 -0.2827  0.4114 -0.1039
12003SOL    HW138964   0.558   2.088   0.181 -0.2921  1.7505 -0.3398
12003SOL    HW238965   0.687   2.167   0.180  0.6136  0.3286  0.6255
12004SOL     OW38966   7.900  10.204   4.288 -0.0388  0.1918  0.1895
12004SOL    HW138967   7.908  10.298   4.275  0.6773  0.1812  0.5401
12004SOL    HW238968   7.940  10.165   4.210  1.2213  0.1647  0.8368
12005SOL     OW38969   7.216   2.427   3.640 -0.0683  0.3994  0.3184
12005SOL    HW138970   7.231   2.332   3.635 -0.8099  0.2874  0.1038
12005SOL    HW238971   7.163   2.438   3.719  0.4725  0.7085  0.6522
12006SOL     OW38972   3.604   9.126   7.435 -0.0641 -0.4695  0.6516
12006SOL    HW138973   3.532   9.064   7.448  1.2407 -2.0007  0.9725
12006SOL    HW238974   3.564   9.202   7.392 -1.8382 -1.2950  0.7749
12007SOL     OW38975   3.593   3.441   5.222  0.5160  0.3784  0.1092
12007SOL    HW138976   3.605   3.518   5.166 -0.1386 -0.5401 -1.3499
12007SOL    HW238977   3.661   3.449   5.288 -0.0290  2.6225  0.4888
12008SOL     OW38978   0.327   5.162   8.369 -0.2640  0.4456  0.5315
12008SOL    HW138979   0.330   5.113   8.287  2.4521  0.9065  0.2628
12008SOL    HW238980   0.358   5.101   8.435  0.7592  1.0320  0.6123
12009SOL     OW38981   9.732   2.620   0.718 -0.2936 -0.4431  0.1321
12009SOL    HW138982   9.799   2.688   0.707 -0.9950  0.3611  0.6962
12009SOL    HW238983   9.698   2.633   0.807 -0.8380 -1.1699  0.0442
12010SOL     OW38984   9.472   7.364   3.601 -0.3203 -0.3220 -0.0013
12010SOL    HW138985   9.386   7.352   3.642 -1.2651  1.5103 -1.2968
12010SOL    HW238986   9.453   7.372   3.508  1.4626 -1.4445 -0.5090
12011SOL     OW38987  10.623   5.002   5.472 -0.0492  0.0025  0.2488
12011SOL    HW138988  10.571   4.999   5.552  0.7101 -0.3439  0.7509
12011SOL    HW238989  10.696   4.942   5.489 -0.3952 -0.8349 -1.0754
12012SOL     OW38990   8.368   6.223   2.707 -0.2115  0.0741  0.0830
12012SOL    HW138991   8.285   6.210   2.752  0.0091  0.4917  0.6211
12012SOL    HW238992   8.408   6.298   2.751  0.3243  0.0548 -0.3558
12013SOL     OW38993   5.538   1.592   6.155 -0.2046  0.8083  0.1142
12013SOL    HW138994   5.446   1.618   6.145 -0.9849 -1.6157  0.4407
12013SOL    HW238995   5.569   1.578   6.066  0.0374  2.1117 -0.0281
12014SOL     OW38996   2.659   8.003   2.932  0.3039 -0.5720  0.0443
12014SOL    HW138997   2.752   8.019   2.916  0.3718 -0.7560  0.2408
12014SOL    HW238998   2.652   7.908   2.941 -0.2648 -0.7832 -2.1967
12015SOL     OW38999   4.256   7.483   7.651 -0.0054  0.4572  0.6859
12015SOL    HW139000   4.295   7.565   7.622  1.8423 -0.0011  1.7078
12015SOL    HW239001   4.309   7.457   7.726 -1.4285 -0.9720  1.2490
12016SOL     OW39002   0.366   7.946   4.406 -0.1372 -0.0553  0.0817
12016SOL    HW139003   0.303   7.877   4.426  0.8625 -1.4882 -1.4322
12016SOL    HW239004   0.315   8.026   4.403 -1.6506 -0.9876  0.1563
12017SOL     OW39005   5.838  10.593   2.273 -0.2392  0.5369 -0.2331
12017SOL    HW139006   5.849  10.685   2.297  0.3024  0.3821  0.1281
12017SOL    HW239007   5.743  10.578   2.278 -0.2513  0.8275  0.6505
12018SOL     OW39008   5.863   6.325   5.525 -0.8773 -0.4359 -0.0669
12018SOL    HW139009   5.773   6.354   5.542 -1.1894 -1.3804 -0.0228
12018SOL    HW239010   5.859   6.288   5.436 -0.9276 -1.9577  0.5450
12019SOL     OW39011   3.083   4.567   3.115 -0.3356 -0.2866  0.1140
12019SOL    HW139012   3.108   4.549   3.205  0.7047  0.6338  0.0292
12019SOL    HW239013   3.166   4.569   3.067 -0.9485 -2.3830 -1.2084
12020SOL     OW39014   5.770   5.646   4.273 -0.4025 -0.3801  0.2982
12020SOL    HW139015   5.783   5.728   4.225  2.0559 -1.1807 -0.5521
12020SOL    HW239016   5.721   5.671   4.351  0.8926  2.0532  0.4203
12021SOL     OW39017   0.251   7.757  10.311 -0.2818 -0.1451  0.0958
12021SOL    HW139018   0.346   7.754  10.307 -0.1467  1.6657  0.8350
12021SOL    HW239019   0.228   7.836  10.262 -1.3174  0.0788  0.9163
12022SOL     OW39020   9.415   7.136   2.075 -0.7335  0.2508 -0.0455
12022SOL    HW139021   9.351   7.076   2.114  0.9694  0.3124  3.1910
12022SOL    HW239022   9.393   7.222   2.112  2.2141 -0.0342  2.8153
12023SOL     OW39023   7.762   9.925   0.842  0.4157 -0.3464 -0.2049
12023SOL    HW139024   7.797   9.854   0.789 -0.5747 -1.1494  0.1951
12023SOL    HW239025   7.832   9.990   0.843  1.7381 -1.7320  0.2570
12024SOL     OW39026   1.091   3.618   0.520  0.0767  0.0482  0.5511
12024SOL    HW139027   1.113   3.525   0.524  0.2995  0.0375 -0.6390
12024SOL    HW239028   1.165   3.659   0.476 -0.5099  0.6158  0.0679
12025SOL     OW39029   8.415   4.812   7.744 -0.4359 -0.1545  0.3486
12025SOL    HW139030   8.458   4.747   7.688  0.0381  0.0568  0.4708
12025SOL    HW239031   8.321   4.800   7.726 -0.2525  0.5717 -1.2477
12026SOL     OW39032   3.493   0.290   2.946  0.1060  0.6592 -0.5275
12026SOL    HW139033   3.399   0.285   2.962 -0.0990  2.1309 -1.1819
12026SOL    HW239034   3.509   0.229   2.873 -0.3028  0.2968 -0.3160
12027SOL     OW39035   5.291   7.840   9.328 -0.1446  0.1593 -0.0856
12027SOL    HW139036   5.308   7.813   9.238  0.9260  0.0162  0.1449
12027SOL    HW239037   5.197   7.856   9.331  0.0469  2.0099 -1.7292
12028SOL     OW39038   2.749   6.975   4.838 -0.0461  0.4051  0.7604
12028SOL    HW139039   2.655   6.961   4.850 -0.1706  0.6216  0.0912
12028SOL    HW239040   2.781   6.894   4.800 -0.1301  0.6450  0.1611
12029SOL     OW39041   2.217   7.414   5.646 -0.8254  0.1540  0.1719
12029SOL    HW139042   2.211   7.439   5.738 -2.4998  0.4257  0.0082
12029SOL    HW239043   2.170   7.331   5.640 -0.8515  0.2110 -0.4787
12030SOL     OW39044   6.982   7.570   6.917  0.2099 -0.1919  0.2792
12030SOL    HW139045   7.002   7.652   6.962  0.6859 -1.0886  1.8075
12030SOL    HW239046   7.002   7.502   6.982  2.2313 -1.6731 -1.7196
12031SOL     OW39047   4.534   7.658   5.584  0.0908 -0.1617  0.0886
12031SOL    HW139048   4.448   7.652   5.542 -0.5458 -0.1349  1.3533
12031SOL    HW239049   4.580   7.726   5.534  0.5527 -2.2687 -2.5721
12032SOL     OW39050   3.059   7.608  10.198  0.7620 -0.1521  0.2964
12032SOL    HW139051   3.097   7.525  10.170  0.4818 -1.0122  2.3104
12032SOL    HW239052   3.028   7.592  10.287 -1.8865  1.2740 -0.2464
12033SOL     OW39053   7.015   5.222   9.169 -0.5689 -0.0831  1.1117
12033SOL    HW139054   6.929   5.261   9.152 -0.3632  0.5684  1.5303
12033SOL    HW239055   7.038   5.178   9.087 -1.4143 -0.4892  1.0784
12034SOL     OW39056   2.306  10.420   2.388  0.4434 -0.0487 -0.4666
12034SOL    HW139057   2.331  10.328   2.398  0.4848  0.0734  0.6582
12034SOL    HW239058   2.255  10.422   2.307 -0.8115 -1.3332  0.2342
12035SOL     OW39059   0.163   6.011   6.051  0.0811  0.0145 -0.2837
12035SOL    HW139060   0.204   5.944   6.106  0.7045 -0.8676 -1.7866
12035SOL    HW239061   0.178   5.982   5.961 -2.1576  0.6594 -0.9431
12036SOL     OW39062   0.790   2.520   0.553  0.2110 -0.0471 -0.2463
12036SOL    HW139063   0.767   2.613   0.555  1.8392  0.5698 -3.4612
12036SOL    HW239064   0.719   2.480   0.503 -0.1718 -0.4532  0.6076
12037SOL     OW39065   7.721   0.929   6.017 -0.0627  0.0059 -0.4586
12037SOL    HW139066   7.746   0.931   6.109  0.4526  1.2875 -0.6042
12037SOL    HW239067   7.630   0.957   6.016  0.2519  1.0799 -0.4128
12038SOL     OW39068   5.597   4.755   3.108  0.1033  0.1423 -0.1871
12038SOL    HW139069   5.675   4.810   3.110  0.4312 -0.3349  0.2419
12038SOL    HW239070   5.629   4.667   3.126 -0.4431 -0.1667 -0.6968
12039SOL     OW39071   3.499   3.248   7.947 -0.0953 -0.4097 -0.3635
12039SOL    HW139072   3.416   3.202   7.961 -0.8164  0.5705 -1.1948
12039SOL    HW239073   3.505   3.310   8.019 -0.5690  0.1643 -0.8064
12040SOL     OW39074  10.566   2.880   2.981  0.5860  0.0428 -0.1276
12040SOL    HW139075  10.580   2.969   2.947 -0.8777  0.4049  0.1666
12040SOL    HW239076  10.503   2.841   2.921 -1.1925  0.3096  1.4881
12041SOL     OW39077   1.117   6.698   4.115  0.3144 -0.3015 -0.9028
12041SOL    HW139078   1.144   6.790   4.111 -0.4481  0.0980  1.2861
12041SOL    HW239079   1.091   6.677   4.026 -0.5418  1.9667 -1.2723
12042SOL     OW39080   4.310   3.020   9.868  0.2737 -0.0900  0.0732
12042SOL    HW139081   4.259   3.094   9.836 -1.2801 -1.5060 -0.8488
12042SOL    HW239082   4.357   2.987   9.792  2.3673  0.9761  0.8379
12043SOL     OW39083   4.332   4.360   1.189 -0.0168  0.0420 -0.2468
12043SOL    HW139084   4.361   4.385   1.102 -0.2201 -1.4225 -0.7634
12043SOL    HW239085   4.293   4.273   1.178  0.3356 -0.3687  1.3678
12044SOL     OW39086   4.378   5.193   4.059 -0.0992  0.1792 -0.0815
12044SOL    HW139087   4.458   5.240   4.081  1.1560 -0.9681 -1.9294
12044SOL    HW239088   4.333   5.182   4.143  1.6609  0.8531  1.0107
12045SOL     OW39089   5.526   9.329   7.522 -0.0732  0.1272 -0.2432
12045SOL    HW139090   5.483   9.407   7.487 -0.8554  0.7816  1.9987
12045SOL    HW239091   5.497   9.257   7.465  1.3720  1.5086 -2.9177
12046SOL     OW39092   3.462   0.401   7.647 -0.0838 -0.4733 -0.1561
12046SOL    HW139093   3.431   0.440   7.729  0.1273  0.5269 -0.5421
12046SOL    HW239094   3.452   0.307   7.661 -0.0226 -0.3251  1.0329
12047SOL     OW39095   1.981   2.282  10.209  0.6092 -0.2112  0.2069
12047SOL    HW139096   2.067   2.308  10.241 -0.1963 -0.2712  2.6297
12047SOL    HW239097   1.922   2.351  10.240 -0.4084 -0.8568 -0.2446
12048SOL     OW39098   8.941   8.947  10.673 -0.5507 -0.0737  0.3908
12048SOL    HW139099   8.982   8.870  10.712  1.5085  0.6354 -0.1992
12048SOL    HW239100   8.938   9.011  10.745 -0.9469 -0.2403  0.5229
12049SOL     OW39101   0.714   5.624   8.418 -0.0008  0.0213 -0.0674
12049SOL    HW139102   0.778   5.667   8.361 -1.3001  1.2978 -0.6287
12049SOL    HW239103   0.673   5.559   8.362  0.1684 -0.1690  0.0284
12050SOL     OW39104   2.431   5.067   3.841 -0.0658  0.8631 -0.3187
12050SOL    HW139105   2.501   5.003   3.854  0.4364  1.4611 -0.0575
12050SOL    HW239106   2.410   5.061   3.748  0.3909  0.7400 -0.4167
12051SOL     OW39107   5.987   0.250   4.434  0.2074  0.6240  0.4333
12051SOL    HW139108   5.977   0.253   4.339 -1.3488  0.4682  0.5577
12051SOL    HW239109   5.898   0.235   4.467  0.6395  1.1332  1.9370
12052SOL     OW39110   6.179   0.503   2.411  0.2059 -0.2365 -0.2227
12052SOL    HW139111   6.099   0.503   2.359 -0.3731 -0.7792  0.6303
12052SOL    HW239112   6.246   0.466   2.353  0.9619  4.0105 -2.4475
12053SOL     OW39113   1.503   7.896   0.493 -0.9327 -0.2255  0.5992
12053SOL    HW139114   1.423   7.858   0.455  0.5330 -2.4997 -0.4209
12053SOL    HW239115   1.569   7.828   0.481  1.1493  1.5425  1.5445
12054SOL     OW39116   8.116  10.347   1.737 -0.1587 -0.1986 -0.2499
12054SOL    HW139117   8.205  10.378   1.720 -0.5981  0.6874 -1.0413
12054SOL    HW239118   8.117  10.255   1.711  0.2288  0.1196 -1.4340
12055SOL     OW39119   3.638   5.838   2.030 -0.3813  0.2372  0.5136
12055SOL    HW139120   3.682   5.791   1.958  0.4149  0.9636  0.5049
12055SOL    HW239121   3.655   5.784   2.107 -0.1179  0.1198  0.3761
12056SOL     OW39122   2.753   2.901  10.039  0.2279 -0.1161 -0.2213
12056SOL    HW139123   2.759   2.836  10.109 -2.7522 -1.2940 -0.9102
12056SOL    HW239124   2.774   2.852   9.959 -2.4403 -0.4832 -0.7946
12057SOL     OW39125  10.161  10.050   9.665 -0.4410  0.0038  0.0841
12057SOL    HW139126  10.144  10.143   9.653  0.0520  0.0136 -0.6159
12057SOL    HW239127  10.255  10.040   9.647  0.4115 -0.0420  3.7704
12058SOL     OW39128   6.772   9.751   9.341 -0.1534  0.1558  0.3350
12058SOL    HW139129   6.755   9.844   9.332  2.3869  0.5773 -1.0474
12058SOL    HW239130   6.799   9.739   9.432 -0.2074  0.8172  0.4379
12059SOL     OW39131   3.114   6.389   0.682 -0.2579 -0.2787 -0.1163
12059SOL    HW139132   3.080   6.425   0.765 -1.7158  0.7402 -1.0917
12059SOL    HW239133   3.037   6.384   0.626  0.7341 -0.8236 -1.4658
12060SOL     OW39134   9.209   1.589   2.883 -0.2807  0.4166 -0.3693
12060SOL    HW139135   9.139   1.541   2.928 -0.9242  0.1202 -1.6620
12060SOL    HW239136   9.163   1.649   2.825  0.4527 -1.2111 -2.7992
12061SOL     OW39137   2.381   9.291   6.968 -0.5815 -0.5799 -0.2441
12061SOL    HW139138   2.369   9.215   6.911 -1.5805 -1.1203  0.6678
12061SOL    HW239139   2.315   9.354   6.938 -1.4605 -1.0648  0.6155
12062SOL     OW39140   1.518  10.049   7.103  0.6257  0.1947 -0.3736
12062SOL    HW139141   1.430  10.086   7.091  1.0805  1.6499  0.5113
12062SOL    HW239142   1.577  10.123   7.090  1.6605 -0.5185  0.1401
12063SOL     OW39143   0.848   2.808   8.187  0.1703 -0.3109  0.3262
12063SOL    HW139144   0.864   2.901   8.204  2.0331 -0.3781 -0.7397
12063SOL    HW239145   0.859   2.765   8.272  2.1735  0.1419  0.3350
12064SOL     OW39146   8.918   7.137   0.526 -0.0766  0.4712 -0.6752
12064SOL    HW139147   8.926   7.171   0.615 -1.4650  0.8135 -0.6483
12064SOL    HW239148   8.910   7.042   0.537 -0.3149  0.5187 -0.4139
12065SOL     OW39149   3.009   4.688   7.777 -0.4968  0.1251 -0.3743
12065SOL    HW139150   3.077   4.638   7.733 -0.5955  0.3917 -0.8330
12065SOL    HW239151   2.985   4.635   7.853  0.1789  0.0028 -0.2409
12066SOL     OW39152   5.187   7.199   0.769  0.3084 -0.0865 -0.1168
12066SOL    HW139153   5.173   7.137   0.697  1.5450 -0.2463 -0.2308
12066SOL    HW239154   5.260   7.163   0.819 -0.7781 -0.1888  1.4850
12067SOL     OW39155   5.520   5.715   4.430 -0.3369  0.1903 -0.0403
12067SOL    HW139156   5.506   5.784   4.495  0.1353  0.0709  0.1969
12067SOL    HW239157   5.506   5.633   4.477  0.2649  0.0953 -0.0130
12068SOL     OW39158   8.990   6.582   4.367 -0.5247 -0.5422 -0.0103
12068SOL    HW139159   9.026   6.514   4.309 -0.3588  1.2937 -2.2304
12068SOL    HW239160   9.056   6.593   4.435  0.3081 -1.3184 -0.6687
12069SOL     OW39161   7.877  10.024  10.394 -0.1118 -0.1698 -0.4414
12069SOL    HW139162   7.836  10.109  10.377 -1.4976 -0.5762  0.6539
12069SOL    HW239163   7.863   9.974  10.313  0.1961  0.4272 -0.8750
12070SOL     OW39164   4.391   6.094   6.154  0.5142  0.1194  0.8857
12070SOL    HW139165   4.434   6.084   6.239  0.7769 -0.0292  0.7379
12070SOL    HW239166   4.415   6.182   6.125  1.8541 -0.4345  0.1930
12071SOL     OW39167   6.920   8.906   0.705 -0.1390 -0.1003  0.1905
12071SOL    HW139168   6.870   8.947   0.634  1.6505  0.0003 -1.0809
12071SOL    HW239169   6.938   8.977   0.766 -0.1186  0.2336 -0.2011
12072SOL     OW39170   7.600   8.587   0.278  0.1379 -0.3018 -0.0406
12072SOL    HW139171   7.620   8.673   0.240  0.4055 -0.2603  0.1941
12072SOL    HW239172   7.648   8.525   0.224 -1.1758 -0.4449 -1.1047
12073SOL     OW39173   8.026   3.423   2.730 -0.3667 -0.1686  0.1632
12073SOL    HW139174   8.030   3.340   2.777 -1.2460  0.3119  1.1061
12073SOL    HW239175   8.052   3.488   2.794 -0.5979  0.3964 -0.3083
12074SOL     OW39176   1.479   4.419   7.712  0.5191 -0.0308  0.5564
12074SOL    HW139177   1.524   4.434   7.795  1.0963  0.3325  0.1855
12074SOL    HW239178   1.446   4.505   7.687  0.4801 -0.1093  0.3379
12075SOL     OW39179   2.012  10.256   4.755  0.1099  0.0364  0.2991
12075SOL    HW139180   2.018  10.162   4.735  0.4029  0.3625 -1.2762
12075SOL    HW239181   2.102  10.281   4.778  0.4416  0.3004 -1.1789
12076SOL     OW39182   4.719   8.597   5.486 -0.1332 -0.2700 -0.6335
12076SOL    HW139183   4.650   8.550   5.533 -1.7618  3.2747  0.8847
12076SOL    HW239184   4.783   8.620   5.553  0.4703 -0.0759 -1.2678
12077SOL     OW39185   5.644   4.616   9.592  0.0143  0.3625 -0.7355
12077SOL    HW139186   5.557   4.581   9.613  0.0138  1.7945  2.2640
12077SOL    HW239187   5.704   4.545   9.612 -0.3210  0.2581 -0.0646
12078SOL     OW39188   3.318   6.378   3.709 -0.3781 -0.6725 -0.0290
12078SOL    HW139189   3.310   6.429   3.789 -0.1655 -0.2235 -0.2931
12078SOL    HW239190   3.229   6.371   3.676 -0.3376  0.0345 -0.3041
12079SOL     OW39191  10.430  10.599   0.370  0.1722  0.4285 -0.0433
12079SOL    HW139192  10.420  10.572   0.461 -1.6334 -0.7500 -0.5430
12079SOL    HW239193  10.487  10.532   0.331 -4.9081 -3.7254 -1.4788
12080SOL     OW39194   5.742   8.610   9.163 -0.3154  0.1899  0.0370
12080SOL    HW139195   5.806   8.644   9.101 -0.2715 -0.4481 -0.2735
12080SOL    HW239196   5.741   8.675   9.234 -0.2505  0.8438 -0.5467
12081SOL     OW39197   1.849   9.356   3.187 -0.0612  0.3664  0.3063
12081SOL    HW139198   1.914   9.340   3.118 -0.6926 -0.5052 -0.1019
12081SOL    HW239199   1.804   9.272   3.197 -2.0435  1.2937 -0.3710
12082SOL     OW39200   6.171   8.625   7.370 -0.6189  0.0389 -0.0526
12082SOL    HW139201   6.218   8.686   7.426 -0.4269  0.4521 -0.6547
12082SOL    HW239202   6.185   8.539   7.410 -0.2491  0.2957  0.3656
12083SOL     OW39203   1.491   8.742   4.508  0.4703  0.7615 -0.1076
12083SOL    HW139204   1.544   8.688   4.450 -2.0272  1.1724 -3.0281
12083SOL    HW239205   1.488   8.693   4.590  0.0471 -2.5469 -1.9183
12084SOL     OW39206   9.513   4.452   5.846  0.0902  0.0976  0.6847
12084SOL    HW139207   9.426   4.443   5.885 -0.6868  2.6006 -0.2714
12084SOL    HW239208   9.501   4.429   5.754  0.7363 -0.6936  0.7869
12085SOL     OW39209   0.042   2.096   9.650  0.2228  0.1108  0.3227
12085SOL    HW139210   0.113   2.160   9.647 -0.8801  1.3654 -1.7778
12085SOL    HW239211   0.081   2.019   9.691  2.0853  1.5395  1.4108
12086SOL     OW39212   4.267   6.750   6.050 -0.4102  0.5429 -0.0436
12086SOL    HW139213   4.361   6.732   6.044 -0.8557 -1.8844 -0.4771
12086SOL    HW239214   4.258   6.796   6.134  1.0085 -0.2835  0.6086
12087SOL     OW39215   5.751   6.161   7.687  0.0849 -0.4128  0.3372
12087SOL    HW139216   5.808   6.105   7.739 -0.3287  0.0507  1.3053
12087SOL    HW239217   5.802   6.240   7.672  0.5238 -0.8721 -0.7053
12088SOL     OW39218   6.988   1.225   2.744 -0.4177  0.3747  0.4985
12088SOL    HW139219   6.981   1.132   2.722  2.0301  0.4646 -1.0729
12088SOL    HW239220   6.914   1.265   2.698  0.0493 -0.5078 -1.1290
12089SOL     OW39221   7.428   4.544   7.235  0.0757 -0.0788  0.2713
12089SOL    HW139222   7.368   4.607   7.275  0.2249 -0.5741  1.3038
12089SOL    HW239223   7.373   4.470   7.209  0.1591 -0.2923  0.7035
12090SOL     OW39224   9.182  10.321   5.452 -0.2449  0.1215  0.7898
12090SOL    HW139225   9.112  10.268   5.414  0.7961 -0.6455 -0.1381
12090SOL    HW239226   9.253  10.315   5.388  0.3064  1.7233  1.2155
12091SOL     OW39227   9.734   2.692   8.098 -0.4585 -0.0070 -0.4616
12091SOL    HW139228   9.646   2.709   8.130 -0.2479  1.2354 -0.4864
12091SOL    HW239229   9.745   2.751   8.023  1.3577  1.9938  1.2411
12092SOL     OW39230   8.603   9.885   6.013 -0.5556  0.4615 -0.6357
12092SOL    HW139231   8.609   9.856   6.104 -0.3319 -2.7183 -1.5418
12092SOL    HW239232   8.584   9.978   6.019  0.4388  0.5795  2.6465
12093SOL     OW39233   4.392   6.130   9.387 -0.4261  0.3942  0.4322
12093SOL    HW139234   4.357   6.181   9.460  0.6916  2.6976 -0.5482
12093SOL    HW239235   4.482   6.162   9.376 -1.0975  1.5433 -3.0846
12094SOL     OW39236   4.628   1.632   9.034 -0.4942 -0.5286 -0.7119
12094SOL    HW139237   4.658   1.545   9.059 -0.0656 -0.4912 -1.0887
12094SOL    HW239238   4.600   1.673   9.116  2.3702  0.1888 -0.0095
12095SOL     OW39239   5.927   5.740   1.287  0.2225 -0.0754 -0.4558
12095SOL    HW139240   5.906   5.833   1.287  1.1215  0.1442 -1.7485
12095SOL    HW239241   5.929   5.716   1.380 -0.1043  1.1654 -0.1118
12096SOL     OW39242   9.692   0.284   0.441  0.5603  0.1206  0.3760
12096SOL    HW139243   9.745   0.228   0.498  0.0384 -0.3879  0.3667
12096SOL    HW239244   9.607   0.289   0.485  0.1831 -0.1966 -0.3088
12097SOL     OW39245   2.616   1.636   4.393  0.2103  0.7268 -0.5236
12097SOL    HW139246   2.694   1.580   4.397 -0.1020  0.2749 -0.7832
12097SOL    HW239247   2.626   1.685   4.312 -0.7054 -0.7106 -1.5499
12098SOL     OW39248   5.676   6.362   5.845 -0.1167  0.0207  0.8668
12098SOL    HW139249   5.675   6.333   5.937  1.2251 -1.2049  0.5439
12098SOL    HW239250   5.753   6.418   5.839  1.0453 -1.5798  0.0679
12099SOL     OW39251   1.419   2.891   4.916  0.2547 -0.0850  0.3381
12099SOL    HW139252   1.513   2.899   4.931  0.7690 -2.3742 -0.9922
12099SOL    HW239253   1.409   2.803   4.878 -2.1011  1.0165 -1.8788
12100SOL     OW39254   5.898   1.954   2.654 -0.0355 -0.2505  0.7517
12100SOL    HW139255   5.984   1.977   2.690 -0.0723 -0.0165  0.6872
12100SOL    HW239256   5.835   2.001   2.709 -0.2201 -1.6392  1.8053
12101SOL     OW39257   0.206   8.120   2.060  0.2414  0.0189 -0.2357
12101SOL    HW139258   0.217   8.211   2.089 -1.2615  0.6276 -1.4337
12101SOL    HW239259   0.293   8.094   2.028  0.5604  1.2102 -0.3731
12102SOL     OW39260   2.178   3.770   3.614  0.1780  0.2451  0.4117
12102SOL    HW139261   2.165   3.723   3.532  2.5372  1.4484 -0.7335
12102SOL    HW239262   2.267   3.804   3.609 -0.0185  1.3889  2.9719
12103SOL     OW39263   9.089   8.298   0.841  0.5322  0.0083 -0.1490
12103SOL    HW139264   9.164   8.325   0.895  1.2496 -1.1155 -0.5487
12103SOL    HW239265   9.068   8.375   0.789  0.8082  0.6306  0.6364
12104SOL     OW39266   4.769   5.022   4.363  0.5477 -0.0661  0.2843
12104SOL    HW139267   4.682   5.054   4.387 -0.2835 -1.9313 -0.0661
12104SOL    HW239268   4.797   4.969   4.438  1.0701 -0.0565  0.1023
12105SOL     OW39269   9.550   6.459   9.647 -0.3947 -0.3911 -0.5278
12105SOL    HW139270   9.496   6.418   9.581 -0.3172  0.4036 -1.0956
12105SOL    HW239271   9.520   6.421   9.730 -0.4151 -1.4729 -1.0096
12106SOL     OW39272   1.894   5.698   4.430 -0.4288  0.0199  0.1690
12106SOL    HW139273   1.804   5.730   4.427 -0.7568 -0.9114 -0.7973
12106SOL    HW239274   1.885   5.603   4.422  0.6291 -0.1136  0.4410
12107SOL     OW39275  10.656   7.562   9.691 -0.8220  0.0826  0.0926
12107SOL    HW139276  10.598   7.533   9.621 -0.2090 -1.0308  0.0195
12107SOL    HW239277  10.743   7.536   9.663 -0.4589  0.4239  0.8636
12108SOL     OW39278   6.600   0.144   6.091 -0.2747 -0.3563 -0.2326
12108SOL    HW139279   6.549   0.106   6.020 -0.5179 -1.5349  0.5504
12108SOL    HW239280   6.670   0.081   6.108 -0.5979 -0.4250  0.9809
12109SOL     OW39281   1.740   2.850   3.423  0.0133 -0.4767  0.1528
12109SOL    HW139282   1.816   2.795   3.440  1.1919  1.0770  0.0848
12109SOL    HW239283   1.751   2.880   3.333  0.3514  1.2434  0.7245
12110SOL     OW39284   8.416   0.212   4.821  0.0114 -0.0946  0.3684
12110SOL    HW139285   8.476   0.250   4.757 -0.1417  0.0158  0.2913
12110SOL    HW239286   8.473   0.159   4.878  0.1976  0.1018  0.3664
12111SOL     OW39287   5.681   3.780   6.901  0.6154  0.7133 -0.1107
12111SOL    HW139288   5.686   3.763   6.995  1.5271  0.2312 -0.2362
12111SOL    HW239289   5.753   3.840   6.883  2.2387 -1.3256 -0.9123
12112SOL     OW39290   1.233   6.581   8.967 -0.2480  0.1533  0.3742
12112SOL    HW139291   1.297   6.510   8.969 -0.0432  0.3195 -0.1060
12112SOL    HW239292   1.265   6.646   9.028  0.9624  1.0100 -1.1032
12113SOL     OW39293   9.384   1.147   2.538 -0.4567  1.0879 -0.3272
12113SOL    HW139294   9.416   1.078   2.480 -1.9755 -1.2155  1.4150
12113SOL    HW239295   9.455   1.212   2.539  0.8469 -0.1874 -2.4023
12114SOL     OW39296   4.879   5.782   5.448  0.0219  0.1177 -0.4239
12114SOL    HW139297   4.943   5.712   5.434  0.3319  0.2864  0.1363
12114SOL    HW239298   4.921   5.842   5.509 -0.8237  0.0096  0.2958
12115SOL     OW39299  10.012   3.558   1.102 -0.2558 -0.4772  0.1602
12115SOL    HW139300  10.005   3.466   1.129  0.5078 -0.3990  0.6782
12115SOL    HW239301  10.038   3.604   1.182  1.8213 -0.1917 -0.6131
12116SOL     OW39302   4.935   9.377   3.008 -0.2160  0.2197 -0.3249
12116SOL    HW139303   4.866   9.335   2.957  0.3100 -1.7605  0.4741
12116SOL    HW239304   5.005   9.312   3.010  0.3729  0.8521  1.6304
12117SOL     OW39305   0.210   6.623   6.530 -0.0794  0.0038  0.3030
12117SOL    HW139306   0.227   6.676   6.607 -2.3294  1.2035  0.0591
12117SOL    HW239307   0.277   6.555   6.532  1.3370  1.3618  2.0188
12118SOL     OW39308   3.120   2.283   7.603  0.1737 -0.1029  0.2870
12118SOL    HW139309   3.192   2.325   7.649  0.2676 -1.4061  1.3815
12118SOL    HW239310   3.050   2.348   7.604  1.0876  0.9188 -0.1837
12119SOL     OW39311   3.160   9.913   4.826  0.1185 -0.0613  0.3791
12119SOL    HW139312   3.245   9.957   4.813  0.4064 -0.6097  0.3851
12119SOL    HW239313   3.179   9.820   4.813 -0.7773 -0.0658 -1.0434
12120SOL     OW39314   2.532   6.281   6.172 -0.5430  0.5963 -0.1942
12120SOL    HW139315   2.609   6.301   6.224 -1.3684  3.3471  0.1555
12120SOL    HW239316   2.557   6.302   6.082 -0.1200 -1.0303 -0.4801
12121SOL     OW39317  10.090   0.253  10.082 -0.5418  0.1084  0.2729
12121SOL    HW139318  10.062   0.237  10.172 -0.5922 -0.0407  0.2303
12121SOL    HW239319  10.139   0.175  10.058  1.0814  0.9115  0.8055
12122SOL     OW39320   8.906   3.360   0.954  0.2547  0.2443 -0.0024
12122SOL    HW139321   8.835   3.386   1.012 -0.2256 -1.4688  0.2253
12122SOL    HW239322   8.864   3.310   0.885  0.8739  1.8432 -1.6323
12123SOL     OW39323   3.387   7.405   0.938  0.3775  0.6932  0.2815
12123SOL    HW139324   3.467   7.353   0.930  1.3772  1.7291  2.4711
12123SOL    HW239325   3.416   7.496   0.926 -0.8818  0.9692 -0.9835
12124SOL     OW39326   7.067   7.547   5.781  0.8069  0.0076  0.0913
12124SOL    HW139327   7.151   7.521   5.746  0.9355 -0.2868  0.6128
12124SOL    HW239328   7.088   7.615   5.845  0.7573 -0.8470  1.0358
12125SOL     OW39329   4.786   6.463   8.504 -0.3820  0.4466  0.0241
12125SOL    HW139330   4.759   6.427   8.420 -0.2068  0.1579  0.0908
12125SOL    HW239331   4.721   6.530   8.524 -0.7713  0.0929 -0.0487
12126SOL     OW39332   1.689   8.895   7.040  0.4482  0.3794  0.2882
12126SOL    HW139333   1.749   8.903   6.966  0.0966  0.3124 -0.0075
12126SOL    HW239334   1.744   8.905   7.118  0.8573  0.1862  0.0219
12127SOL     OW39335   3.841   3.792   8.266 -0.0179 -0.5270 -0.3981
12127SOL    HW139336   3.746   3.798   8.261  0.0498 -0.2654 -2.1415
12127SOL    HW239337   3.860   3.699   8.253 -0.0548 -0.7920  1.2274
12128SOL     OW39338   9.604   3.614   4.955  0.3701  0.0235  0.7926
12128SOL    HW139339   9.560   3.529   4.953 -0.2357  0.3414 -0.0938
12128SOL    HW239340   9.676   3.606   4.893 -0.1438  0.3906  0.1424
12129SOL     OW39341   8.955   4.792  10.162  0.0418  0.1845 -0.3990
12129SOL    HW139342   8.991   4.840  10.237  0.0161  0.7117 -0.7131
12129SOL    HW239343   8.887   4.736  10.200  0.1167  0.3473 -0.0130
12130SOL     OW39344   8.912   5.621   0.145 -0.5255 -0.1958 -0.5908
12130SOL    HW139345   8.942   5.596   0.058  0.5979 -0.7638 -0.0528
12130SOL    HW239346   8.992   5.630   0.197 -1.1655  0.3128  0.3408
12131SOL     OW39347   3.055   8.704   2.624 -0.1998  0.1038 -0.0551
12131SOL    HW139348   3.100   8.768   2.569 -0.3024  3.2639  3.1513
12131SOL    HW239349   3.124   8.663   2.676 -0.3970 -0.4438 -0.2144
12132SOL     OW39350   1.254   5.537   7.093  0.2721 -0.2505  0.1499
12132SOL    HW139351   1.256   5.517   7.187 -0.8026  1.4802  0.5763
12132SOL    HW239352   1.345   5.527   7.065  0.6566 -0.5536  1.4233
12133SOL     OW39353   4.907   4.514   0.765 -0.0471  0.1722 -0.4253
12133SOL    HW139354   4.976   4.525   0.831 -0.1649  0.9206 -0.4265
12133SOL    HW239355   4.844   4.456   0.806  0.3535 -0.1430 -0.2452
12134SOL     OW39356   7.807   1.982   4.181 -0.9082 -0.2920 -0.3152
12134SOL    HW139357   7.760   2.041   4.239 -1.0982 -0.8886  0.1511
12134SOL    HW239358   7.824   2.034   4.102 -0.0578  0.7322  0.5137
12135SOL     OW39359   8.888   8.878   3.372  0.1058 -0.1369  0.1816
12135SOL    HW139360   8.864   8.912   3.286  2.0314  2.3107  0.4840
12135SOL    HW239361   8.836   8.929   3.434  0.5938 -0.0609  0.5385
12136SOL     OW39362   0.746   8.972   2.379 -0.2570  0.2273  0.4752
12136SOL    HW139363   0.686   9.017   2.319 -0.3826 -0.3444  0.1673
12136SOL    HW239364   0.703   8.978   2.465 -2.2101 -2.5964 -0.1541
12137SOL     OW39365   5.216   2.437   7.542 -0.1166 -0.2447 -0.3509
12137SOL    HW139366   5.277   2.453   7.615 -1.0682  0.7635  0.2509
12137SOL    HW239367   5.203   2.523   7.503 -1.6894 -0.3096 -0.0189
12138SOL     OW39368   8.965   8.664   0.254 -0.0797  0.6400  0.4098
12138SOL    HW139369   9.003   8.717   0.324  1.6100 -3.0057  2.5238
12138SOL    HW239370   9.022   8.680   0.179  0.5285  1.5628  1.0445
12139SOL     OW39371   2.711   9.707   6.033 -0.3765 -0.2101 -0.5508
12139SOL    HW139372   2.693   9.783   6.089  1.1888  1.8352 -2.5838
12139SOL    HW239373   2.624   9.673   6.010 -1.1820  1.4718 -0.1764
12140SOL     OW39374   6.810   7.728   1.717 -0.3048  0.3093  0.4493
12140SOL    HW139375   6.895   7.728   1.673 -1.0283  2.1334 -1.1194
12140SOL    HW239376   6.830   7.740   1.810  1.1509  1.9722 -0.0343
12141SOL     OW39377   4.725   8.618   7.847  0.1721 -0.0427 -0.3696
12141SOL    HW139378   4.675   8.676   7.904  0.9692 -1.7379  2.2244
12141SOL    HW239379   4.696   8.640   7.759 -0.5976  3.2352  0.5820
12142SOL     OW39380   4.073   7.274   6.445  0.4764 -0.5000  0.2318
12142SOL    HW139381   4.113   7.265   6.532 -0.5011  0.9242  0.8839
12142SOL    HW239382   4.062   7.184   6.414  2.2384 -0.9848  0.9125
12143SOL     OW39383   0.093   8.827   3.325 -0.1738 -0.3612 -0.4153
12143SOL    HW139384   0.061   8.744   3.291  1.3105 -0.0154 -2.9114
12143SOL    HW239385   0.015   8.881   3.334 -0.9477 -1.4471 -0.4448
12144SOL     OW39386   4.283   3.644   0.048 -0.1225  0.6934 -0.4321
12144SOL    HW139387   4.285   3.549   0.063 -1.9342  0.6260 -0.3559
12144SOL    HW239388   4.254   3.653  -0.043  0.1269  1.1718 -0.4646
12145SOL     OW39389   1.732   2.645   6.859  0.1654 -0.5245  0.4946
12145SOL    HW139390   1.669   2.616   6.793  0.9590 -0.2315 -0.4143
12145SOL    HW239391   1.765   2.728   6.826 -0.2154  0.1887  1.8120
12146SOL     OW39392   6.666   2.380   1.516 -0.2556  0.0421 -0.4939
12146SOL    HW139393   6.712   2.357   1.597 -0.0709  1.5422 -0.1402
12146SOL    HW239394   6.735   2.415   1.459 -0.3421 -1.2191 -1.4111
12147SOL     OW39395   6.015   9.087   1.779  0.1111 -0.1277  0.1747
12147SOL    HW139396   5.971   9.005   1.754  0.4810 -0.5286  0.8272
12147SOL    HW239397   6.089   9.094   1.719  1.7319 -1.7297  1.8792
12148SOL     OW39398   5.919   7.842   2.369  0.2125  0.4214  0.4924
12148SOL    HW139399   5.939   7.876   2.282  1.6770  0.4075  0.7932
12148SOL    HW239400   5.926   7.747   2.360 -3.4667  0.0867 -0.2478
12149SOL     OW39401   7.787   0.131   3.301 -0.2959 -0.1930 -0.0883
12149SOL    HW139402   7.874   0.096   3.279 -1.1994 -1.0059 -2.7481
12149SOL    HW239403   7.803   0.191   3.373  2.4330 -0.5405 -0.2946
12150SOL     OW39404   8.223   4.718   0.271 -0.3968 -0.5526  0.1105
12150SOL    HW139405   8.198   4.635   0.231 -0.5160 -0.0619 -0.8478
12150SOL    HW239406   8.238   4.777   0.198  1.1404 -0.1278  0.7326
12151SOL     OW39407   3.611  10.208   8.283 -0.3385 -0.4791  0.4685
12151SOL    HW139408   3.628  10.124   8.326 -0.3837 -0.2682  0.9037
12151SOL    HW239409   3.674  10.211   8.211 -0.3639 -0.9050  0.4271
12152SOL     OW39410   1.347   1.053   1.849 -0.0427 -0.1079  0.3004
12152SOL    HW139411   1.395   1.050   1.766 -1.5496 -0.8036 -0.5838
12152SOL    HW239412   1.404   1.006   1.910  0.9859  0.1992 -0.3858
12153SOL     OW39413   5.688   8.345   5.748 -0.1982 -0.2340  0.2884
12153SOL    HW139414   5.677   8.347   5.843 -0.6475 -0.4502  0.2392
12153SOL    HW239415   5.771   8.298   5.735 -0.1978 -0.3119  0.5667
12154SOL     OW39416   9.572   1.761  10.498 -0.4686 -0.2710 -0.0509
12154SOL    HW139417   9.477   1.755  10.508 -0.8991 -0.5881 -3.2469
12154SOL    HW239418   9.606   1.686  10.546 -2.1839 -2.2663 -1.7664
12155SOL     OW39419   6.904   9.929   5.314  0.1589  0.1304 -0.1603
12155SOL    HW139420   6.993   9.909   5.343 -0.3341 -0.4466  1.0584
12155SOL    HW239421   6.914  10.003   5.254  1.4083  0.3639  0.3033
12156SOL     OW39422   4.032   6.500   2.261 -0.6954 -1.0101 -0.0527
12156SOL    HW139423   3.950   6.530   2.300 -0.3120 -0.0325  0.0354
12156SOL    HW239424   4.027   6.529   2.170 -1.1778 -2.4540 -0.5111
12157SOL     OW39425   7.665   3.746   2.808  0.1497 -0.5492  0.8201
12157SOL    HW139426   7.586   3.693   2.805 -0.0664 -0.2618  1.2918
12157SOL    HW239427   7.636   3.834   2.782  0.6155 -0.7804 -0.5375
12158SOL     OW39428   2.558  10.237   8.918 -0.3010  0.2282  0.4750
12158SOL    HW139429   2.475  10.266   8.956  0.3523  0.7970  1.5183
12158SOL    HW239430   2.594  10.315   8.875 -0.6321 -0.1987 -0.6067
12159SOL     OW39431   9.812   9.775   7.166 -0.4341 -0.4222  0.1289
12159SOL    HW139432   9.754   9.710   7.207 -0.7493 -0.9873 -1.1693
12159SOL    HW239433   9.897   9.732   7.163 -0.0892  0.1313  1.3722
12160SOL     OW39434   3.912   5.288   1.157 -0.0138  0.2274 -0.2317
12160SOL    HW139435   3.906   5.382   1.173 -0.4348  0.4619 -1.6225
12160SOL    HW239436   3.927   5.280   1.063  0.2347 -1.0953 -0.1054
12161SOL     OW39437  10.399   9.120   4.385  0.0432 -0.7878 -0.4665
12161SOL    HW139438  10.475   9.177   4.382  0.4565 -1.3949 -2.2892
12161SOL    HW239439  10.355   9.144   4.467  0.0820  2.2566 -1.2402
12162SOL     OW39440   2.451   3.407   6.211  0.1717  0.0138 -0.2023
12162SOL    HW139441   2.458   3.391   6.305  1.2169  0.0318 -0.2632
12162SOL    HW239442   2.511   3.479   6.195  0.5004 -0.4216 -0.9829
12163SOL     OW39443   6.942   7.640   8.776  0.0277 -0.4064  0.3358
12163SOL    HW139444   6.849   7.623   8.764  0.2077 -1.7507  0.7270
12163SOL    HW239445   6.975   7.658   8.688 -0.7064  0.7459  0.2763
12164SOL     OW39446   5.293   6.326   8.959 -0.3925 -0.0596  0.6367
12164SOL    HW139447   5.230   6.257   8.941 -0.1027 -0.3928  0.8877
12164SOL    HW239448   5.370   6.281   8.992  0.3206  0.2523 -0.5198
12165SOL     OW39449   2.282   5.137   3.179 -0.4810 -0.2765  0.1082
12165SOL    HW139450   2.364   5.168   3.219  0.5029 -1.1963 -1.0858
12165SOL    HW239451   2.255   5.207   3.121  1.0674 -1.0641 -1.6614
12166SOL     OW39452   0.919  10.220   9.779 -0.2369  0.5010  0.2164
12166SOL    HW139453   0.943  10.147   9.721 -1.5668  0.8213 -0.7905
12166SOL    HW239454   0.854  10.182   9.838 -0.0464  0.5795  0.4784
12167SOL     OW39455   5.629   9.998   0.691  0.0337  0.1096 -0.2774
12167SOL    HW139456   5.716   9.957   0.688 -0.0100 -0.1106  1.0371
12167SOL    HW239457   5.579   9.945   0.753  0.2948  2.6638  2.3387
12168SOL     OW39458   4.471   5.872   0.327  0.3916 -0.2408  0.3158
12168SOL    HW139459   4.510   5.957   0.308  0.4778 -0.6870 -1.6354
12168SOL    HW239460   4.546   5.813   0.337  0.3489 -0.8746 -2.3671
12169SOL     OW39461   0.165   5.603   7.092  0.1023  0.0018  0.7861
12169SOL    HW139462   0.151   5.574   7.182 -0.0778 -3.0378 -0.1068
12169SOL    HW239463   0.094   5.664   7.075 -1.4312 -1.3785  1.9410
12170SOL     OW39464   0.248   6.806   0.926 -0.6370 -0.7499 -0.5089
12170SOL    HW139465   0.290   6.720   0.928  0.9118 -0.0787  2.9648
12170SOL    HW239466   0.194   6.808   1.005 -0.6200  1.4503 -0.4986
12171SOL     OW39467   2.961   3.661   6.863 -0.2978  0.6364  0.3138
12171SOL    HW139468   3.003   3.706   6.936  3.1383  1.5303 -1.9488
12171SOL    HW239469   2.994   3.571   6.868 -0.4090  0.5842  0.1196
12172SOL     OW39470   3.748   1.626   0.215  0.1681  0.0604 -0.5358
12172SOL    HW139471   3.824   1.684   0.221  0.4891 -0.4948  1.5217
12172SOL    HW239472   3.770   1.566   0.143  1.3606  0.3661 -0.4554
12173SOL     OW39473   9.280   4.326   9.367  0.3694  0.8438  0.2468
12173SOL    HW139474   9.352   4.300   9.308 -0.9606  0.5746 -1.3317
12173SOL    HW239475   9.289   4.268   9.443  0.0406 -1.3493 -1.2883
12174SOL     OW39476   2.162   4.146   8.193 -0.1179 -0.0626 -0.3968
12174SOL    HW139477   2.154   4.088   8.269 -0.7244  1.1744  0.5282
12174SOL    HW239478   2.092   4.117   8.134 -0.9020  0.1826  0.3836
12175SOL     OW39479   7.474   9.055   6.306 -0.0451  0.1669 -0.2115
12175SOL    HW139480   7.534   9.127   6.327 -0.0304  0.3396 -0.8400
12175SOL    HW239481   7.528   8.995   6.254 -0.0647 -0.2905  0.2868
12176SOL     OW39482   0.551   5.163  10.546  0.3037 -0.2468  0.7156
12176SOL    HW139483   0.645   5.178  10.542  0.2649  0.5125  1.9362
12176SOL    HW239484   0.514   5.248  10.569 -0.6959 -0.5115  0.1401
12177SOL     OW39485   4.834   4.580   4.860  0.2282 -0.1067  0.2854
12177SOL    HW139486   4.826   4.509   4.797  0.1004 -0.8636  1.1440
12177SOL    HW239487   4.841   4.537   4.945 -1.0345  0.9261  0.9470
12178SOL     OW39488   6.902   5.195   9.831 -0.0498  0.4298  0.3227
12178SOL    HW139489   6.883   5.178   9.739 -0.3705 -2.1667  0.7838
12178SOL    HW239490   6.831   5.252   9.860 -1.8589 -1.3688 -0.3179
12179SOL     OW39491   4.255   6.849   1.422 -0.3076  0.3095 -0.6451
12179SOL    HW139492   4.327   6.856   1.360  0.1971 -2.2900 -0.4966
12179SOL    HW239493   4.178   6.829   1.368 -0.2989  0.1255 -0.5907
12180SOL     OW39494   1.817   8.042   3.667  0.1055  0.0145  0.2566
12180SOL    HW139495   1.871   8.118   3.691 -0.6717  0.9299 -0.7789
12180SOL    HW239496   1.729   8.065   3.696  0.0155 -0.8988  0.7440
12181SOL     OW39497   7.878   4.098   7.306 -0.7208  0.0088 -0.0831
12181SOL    HW139498   7.866   4.093   7.400 -0.4190 -0.2910 -0.0562
12181SOL    HW239499   7.790   4.109   7.271 -0.8888 -0.3672  0.2066
12182SOL     OW39500   6.010   3.085   0.697  0.6714  0.3209  0.2105
12182SOL    HW139501   5.982   3.138   0.621  0.0564  0.2172  0.3594
12182SOL    HW239502   6.103   3.107   0.708  0.6541  0.6824 -0.2924
12183SOL     OW39503   2.931   6.589   7.467  0.1245 -0.5434  0.3285
12183SOL    HW139504   2.993   6.543   7.523 -0.0697 -1.0021  0.1727
12183SOL    HW239505   2.963   6.575   7.378  0.2835 -0.0419  0.3051
12184SOL     OW39506   3.925   9.716   8.445  0.3301  0.2893  0.0927
12184SOL    HW139507   3.870   9.757   8.512 -1.3630  1.4709 -1.9028
12184SOL    HW239508   3.875   9.641   8.414  1.8570 -1.2981  1.2396
12185SOL     OW39509   0.521   3.947   8.482 -0.1143  0.0080 -0.3005
12185SOL    HW139510   0.524   4.037   8.448 -0.6861 -0.0680 -0.5627
12185SOL    HW239511   0.573   3.950   8.562 -1.7138  1.0473  0.7656
12186SOL     OW39512   3.858   0.358   7.452  0.2288 -0.4041 -0.3889
12186SOL    HW139513   3.811   0.321   7.377  0.3886 -1.1029 -0.1488
12186SOL    HW239514   3.892   0.442   7.419 -0.4699 -0.2801 -0.8155
12187SOL     OW39515   7.782   0.159   5.599  0.7923  0.2066  0.0581
12187SOL    HW139516   7.805   0.212   5.675  0.5226  1.2074 -0.5430
12187SOL    HW239517   7.698   0.194   5.569 -0.2266 -1.6274  0.6132
12188SOL     OW39518   0.641   0.676   4.332 -0.4800 -0.2894  0.3173
12188SOL    HW139519   0.622   0.707   4.243 -0.9294 -2.8447 -0.5571
12188SOL    HW239520   0.561   0.631   4.359 -0.7179  1.2417  2.4744
12189SOL     OW39521   8.329   5.429   4.313  0.4314  0.7049  0.1516
12189SOL    HW139522   8.308   5.337   4.328 -0.6000  0.9680  0.3420
12189SOL    HW239523   8.313   5.442   4.219  0.6522  0.6782  0.1087
12190SOL     OW39524   8.093  10.272  10.237 -0.0941 -0.1122 -0.1955
12190SOL    HW139525   8.051  10.213  10.175  1.9795 -0.5997 -1.2139
12190SOL    HW239526   8.036  10.269  10.315 -1.1805 -1.7656 -0.9950
12191SOL     OW39527   7.569   4.917  10.531  0.3083 -0.2300 -0.2838
12191SOL    HW139528   7.565   4.921  10.435 -1.1490  1.9849 -0.1844
12191SOL    HW239529   7.498   4.857  10.556 -1.3713  1.5677 -0.5265
12192SOL     OW39530   6.947   7.966   3.197  0.2839  0.4818 -0.6338
12192SOL    HW139531   6.883   7.898   3.216 -1.6798  2.5106  0.6200
12192SOL    HW239532   6.999   7.931   3.125 -0.3396 -2.4397  0.1983
12193SOL     OW39533  10.557  10.002  10.566 -0.3222  0.2510 -0.0350
12193SOL    HW139534  10.632   9.973  10.514  0.1499  2.9156 -1.0412
12193SOL    HW239535  10.589  10.002  10.656  0.5130  0.2195 -0.3231
12194SOL     OW39536   5.553  10.160   7.872  0.0368 -0.0911  0.5040
12194SOL    HW139537   5.532  10.233   7.930  2.2898 -0.2541  1.6546
12194SOL    HW239538   5.479  10.101   7.880 -1.1461  1.3498  0.7351
12195SOL     OW39539   6.420   6.367   7.328 -0.0633  0.5475  0.3223
12195SOL    HW139540   6.357   6.321   7.273  0.4099 -0.8721  0.9159
12195SOL    HW239541   6.369   6.397   7.403 -0.5894  1.9668 -0.5761
12196SOL     OW39542   6.710  10.571   1.168 -0.8450  0.5784  0.0929
12196SOL    HW139543   6.773  10.500   1.156 -1.7198  0.0724 -2.0073
12196SOL    HW239544   6.764  10.648   1.189  0.1778 -0.4821  1.5556
12197SOL     OW39545  10.131   5.173   7.303 -0.5049  0.4376  0.4663
12197SOL    HW139546  10.051   5.166   7.356 -0.9725  2.4735  0.1420
12197SOL    HW239547  10.159   5.264   7.315  1.5281 -0.1038  0.1983
12198SOL     OW39548   6.105   2.712   2.138 -0.1004  0.1208 -1.0117
12198SOL    HW139549   6.127   2.655   2.065 -0.3797  0.6671 -1.5234
12198SOL    HW239550   6.010   2.701   2.149  0.0996 -0.8296  0.0136
12199SOL     OW39551   2.230   5.384   1.329  0.2541 -0.0840  0.3219
12199SOL    HW139552   2.217   5.430   1.246 -0.0954  0.6024  0.7392
12199SOL    HW239553   2.320   5.352   1.326 -0.1227 -1.0682 -0.8020
12200SOL     OW39554   5.136  10.400   5.331 -0.5820  0.0409  0.8240
12200SOL    HW139555   5.092  10.315   5.333  0.7597 -0.7478 -1.1058
12200SOL    HW239556   5.168  10.409   5.242  0.4017  2.0244  1.3211
12201SOL     OW39557  10.133   7.902   0.072  0.2312  0.1394 -0.0046
12201SOL    HW139558  10.125   7.893   0.167 -0.5788 -2.3026 -0.2298
12201SOL    HW239559  10.089   7.984   0.051 -0.3237  0.2842  1.6294
12202SOL     OW39560   6.693   1.083   6.221 -0.3068 -0.0140 -0.2283
12202SOL    HW139561   6.665   0.995   6.193 -0.9958 -0.3615  1.4100
12202SOL    HW239562   6.784   1.090   6.191 -0.7860 -0.5625 -1.9391
12203SOL     OW39563   0.599   6.812   8.124 -0.2716  0.7229  0.7059
12203SOL    HW139564   0.539   6.743   8.151 -0.8271  0.7037 -0.4725
12203SOL    HW239565   0.660   6.769   8.064  0.7884  0.7960  1.7018
12204SOL     OW39566   8.099   8.515   7.349 -0.4338  0.3129  0.1829
12204SOL    HW139567   8.189   8.529   7.378 -0.1886  0.1792 -0.4950
12204SOL    HW239568   8.106   8.506   7.254 -1.1273 -0.0149  0.1605
12205SOL     OW39569   3.987   4.954   5.564  0.6527 -0.0948  0.2644
12205SOL    HW139570   3.966   4.894   5.492  0.3332  1.7650 -1.2682
12205SOL    HW239571   3.908   4.955   5.618 -0.6898  1.4592 -1.5823
12206SOL     OW39572   7.171   3.418  10.551 -0.7661  0.2875 -0.1843
12206SOL    HW139573   7.160   3.353  10.481 -1.4242  0.0779  0.1049
12206SOL    HW239574   7.154   3.369  10.632  2.7169 -0.1960  0.4062
12207SOL     OW39575   9.439   9.982   6.782 -0.2595 -0.6145 -0.0180
12207SOL    HW139576   9.498  10.041   6.735 -0.1909 -0.2966  0.4588
12207SOL    HW239577   9.496   9.922   6.829 -0.3318 -1.6323 -1.1889
12208SOL     OW39578   2.576   1.348   0.751  0.0617 -0.3120  0.2533
12208SOL    HW139579   2.602   1.439   0.763  1.0987 -0.5829  0.0894
12208SOL    HW239580   2.480   1.350   0.762 -0.0272  0.9099 -0.4771
12209SOL     OW39581   0.505   8.515   1.747  0.6521 -0.4107 -0.8024
12209SOL    HW139582   0.448   8.462   1.802  2.3489 -1.7722 -0.2737
12209SOL    HW239583   0.451   8.590   1.722 -1.6453 -2.0119 -1.0312
12210SOL     OW39584   2.176   9.919  10.498 -0.6104  0.1855 -0.5831
12210SOL    HW139585   2.268   9.945  10.505 -0.3789 -1.0662  3.7532
12210SOL    HW239586   2.173   9.862  10.421  1.7856  1.6927 -1.9165
12211SOL     OW39587   1.336   8.612   0.805  0.4191  0.1868 -0.0009
12211SOL    HW139588   1.342   8.544   0.738 -0.9079 -0.0197  0.0641
12211SOL    HW239589   1.318   8.564   0.886 -0.3493  0.5932  0.0751
12212SOL     OW39590   2.938   1.286   3.829  0.0295 -0.1405  0.4329
12212SOL    HW139591   3.003   1.276   3.898 -1.2358  1.8015  2.0416
12212SOL    HW239592   2.855   1.261   3.870 -0.5512 -0.5702 -0.9296
12213SOL     OW39593   8.214   8.053   3.249  0.2269 -0.0137  0.0375
12213SOL    HW139594   8.202   7.991   3.176 -1.2235  0.2739 -0.0071
12213SOL    HW239595   8.307   8.051   3.267  0.0508 -3.7489  1.3764
12214SOL     OW39596   2.312   7.302  10.096 -0.5369 -0.3373 -0.5686
12214SOL    HW139597   2.307   7.289  10.001  0.9930  0.3677 -0.7878
12214SOL    HW239598   2.292   7.395  10.108 -1.5352 -0.6069 -0.1083
12215SOL     OW39599   4.950   3.616   0.729 -0.5166  0.0429  0.1779
12215SOL    HW139600   4.872   3.560   0.734 -0.1402 -0.4234  0.9016
12215SOL    HW239601   4.935   3.670   0.651 -0.9721 -0.9405 -0.4326
12216SOL     OW39602   5.219   3.247   3.970 -0.7061  0.4099  0.2597
12216SOL    HW139603   5.163   3.313   3.928 -0.3607  0.5583  0.0291
12216SOL    HW239604   5.178   3.163   3.949 -0.5383  0.4854 -0.3675
12217SOL     OW39605   9.178   6.654   6.552 -0.0786 -0.1951 -0.1080
12217SOL    HW139606   9.119   6.596   6.600 -0.2709  0.5703  0.6057
12217SOL    HW239607   9.222   6.705   6.620  0.5345  0.0656 -0.6929
12218SOL     OW39608   4.677   6.311   9.970  0.4178  0.0201 -0.4819
12218SOL    HW139609   4.664   6.295   9.877 -0.1914  0.8249 -0.5416
12218SOL    HW239610   4.697   6.224  10.006 -3.7031 -1.2419 -0.6437
12219SOL     OW39611   2.842   2.387   1.300  0.1394  0.0180  0.1353
12219SOL    HW139612   2.875   2.383   1.211  0.7085 -0.0923  0.3432
12219SOL    HW239613   2.756   2.344   1.297  0.7797 -1.2981 -0.0783
12220SOL     OW39614   0.122   4.370   3.835  0.1750 -0.3074 -0.6989
12220SOL    HW139615   0.169   4.413   3.907  0.0610  0.4908 -1.0919
12220SOL    HW239616   0.069   4.303   3.878 -0.5017  0.6754  0.0668
12221SOL     OW39617   1.356   7.396   9.230  0.0925 -0.0810  0.1801
12221SOL    HW139618   1.350   7.471   9.288  2.3961 -0.2197  0.6921
12221SOL    HW239619   1.305   7.328   9.274 -1.7848  1.0435 -0.1556
12222SOL     OW39620  10.640   8.106   2.437  0.8638  0.3524 -0.2863
12222SOL    HW139621  10.639   8.066   2.524  0.2100  1.5363  0.2727
12222SOL    HW239622  10.601   8.039   2.380  2.8889 -1.1326 -0.0420
12223SOL     OW39623   4.255   6.780   9.418  0.2190 -0.2290 -0.0927
12223SOL    HW139624   4.181   6.779   9.478  0.5622 -1.0886  0.3307
12223SOL    HW239625   4.251   6.867   9.376  0.4333  0.7204  1.7440
12224SOL     OW39626   5.336   6.616   7.482 -0.2160 -0.4853  0.3596
12224SOL    HW139627   5.406   6.586   7.539  0.7585 -0.9075 -1.0191
12224SOL    HW239628   5.296   6.689   7.530  1.6971  0.3190  0.8238
12225SOL     OW39629   6.561   1.773   2.728  0.0581  0.1227  0.2109
12225SOL    HW139630   6.590   1.861   2.702  0.4061 -0.6635 -2.3441
12225SOL    HW239631   6.490   1.752   2.667 -1.9548 -0.3545  2.5482
12226SOL     OW39632   8.590   8.504   7.064 -0.4811  0.1467 -0.3274
12226SOL    HW139633   8.619   8.426   7.017 -1.2570 -0.3849  0.0596
12226SOL    HW239634   8.645   8.507   7.143 -1.7714 -1.1581  0.6733
12227SOL     OW39635   4.098   8.903   6.209 -0.6979 -0.1458  0.3463
12227SOL    HW139636   4.070   8.868   6.124 -0.7451  1.0616 -0.1560
12227SOL    HW239637   4.031   8.968   6.231 -0.4747 -0.1734  1.1328
12228SOL     OW39638   0.374   0.188   9.488 -0.1335  0.2090  0.2229
12228SOL    HW139639   0.434   0.161   9.558 -1.4735 -0.7767  1.0284
12228SOL    HW239640   0.376   0.115   9.426  0.3437  0.6771 -0.3228
12229SOL     OW39641   4.594   3.658  10.648  0.0670  0.0487 -0.0909
12229SOL    HW139642   4.564   3.627  10.734  0.0927  0.4850  0.0822
12229SOL    HW239643   4.589   3.581  10.591 -1.2425  0.0678 -0.0386
12230SOL     OW39644   1.918   6.156   4.353 -0.1146  0.1409  0.1154
12230SOL    HW139645   1.964   6.072   4.360 -3.3520 -1.8599 -0.4865
12230SOL    HW239646   1.848   6.150   4.418 -1.8616  1.3527 -1.5549
12231SOL     OW39647   2.456   4.205   6.830 -0.2365 -0.1222 -0.2354
12231SOL    HW139648   2.542   4.172   6.857 -0.5438 -1.6247 -0.9564
12231SOL    HW239649   2.394   4.144   6.870 -0.9671  0.8331  0.1171
12232SOL     OW39650   1.026   7.668   9.904 -0.1118 -0.2576 -0.1871
12232SOL    HW139651   0.989   7.669   9.816  0.1704  2.2978 -0.3622
12232SOL    HW239652   1.099   7.731   9.900 -0.7097  0.6787  2.0749
12233SOL     OW39653   4.002   2.522   6.483 -0.5713  0.9556 -0.2330
12233SOL    HW139654   4.079   2.572   6.457  0.8629  0.1514  2.0854
12233SOL    HW239655   3.999   2.449   6.422 -0.6741  2.0211 -1.5448
12234SOL     OW39656   5.499   0.139   4.322 -0.1357 -0.1606 -0.1484
12234SOL    HW139657   5.526   0.145   4.230  1.2005 -1.2575  0.1471
12234SOL    HW239658   5.437   0.066   4.323  0.0152 -0.2889 -0.1423
12235SOL     OW39659   5.864   8.708   3.850 -0.1399  0.4659 -0.2844
12235SOL    HW139660   5.829   8.790   3.885 -2.2843  0.0175 -1.1732
12235SOL    HW239661   5.892   8.658   3.927 -0.5234  1.3005  0.4060
12236SOL     OW39662   7.676   4.212   4.740  0.4722 -0.2940  0.8625
12236SOL    HW139663   7.772   4.222   4.737  0.4936 -0.7799 -1.1649
12236SOL    HW239664   7.643   4.289   4.694  0.1183 -2.2563 -2.4600
12237SOL     OW39665   6.654   0.526   7.214 -0.0027  0.4558  0.3933
12237SOL    HW139666   6.572   0.572   7.198 -0.7930 -0.4769  1.6490
12237SOL    HW239667   6.689   0.565   7.294 -0.9053 -1.3362  1.7339
12238SOL     OW39668   0.080   4.967   5.834  0.1919 -0.5125  0.1448
12238SOL    HW139669  -0.001   4.990   5.788 -0.4031 -3.1934 -0.2925
12238SOL    HW239670   0.051   4.933   5.918  1.0035  0.1841  0.7187
12239SOL     OW39671   2.110   1.068   4.791 -0.7693  0.0440  0.0742
12239SOL    HW139672   2.071   1.003   4.734 -0.0075 -0.4003  0.0468
12239SOL    HW239673   2.036   1.119   4.825 -1.3875 -0.9879  0.2912
12240SOL     OW39674   0.748   4.460   3.151 -0.3199  0.0279 -0.3605
12240SOL    HW139675   0.743   4.365   3.156  0.4300 -0.3662 -4.2109
12240SOL    HW239676   0.841   4.479   3.144 -0.3519  1.2610  1.7132
12241SOL     OW39677   4.371   9.156   2.862  0.3152 -0.0038 -0.2085
12241SOL    HW139678   4.303   9.149   2.929  0.8630 -1.7551  0.1957
12241SOL    HW239679   4.339   9.102   2.789  0.5921  0.3816 -0.6257
12242SOL     OW39680   1.830   5.556   1.748  0.8648 -0.4243  0.0331
12242SOL    HW139681   1.866   5.469   1.763 -1.4551 -1.2353  1.4463
12242SOL    HW239682   1.785   5.549   1.664 -0.9179 -1.2143  1.0138
12243SOL     OW39683   0.001   3.162   8.709 -0.2429  0.2290 -0.1806
12243SOL    HW139684  -0.040   3.117   8.635  0.0133 -0.8664  0.3093
12243SOL    HW239685   0.080   3.110   8.726 -0.1463  0.6451  0.6651
12244SOL     OW39686   9.592   3.523   9.465  0.2967  0.2747  0.3177
12244SOL    HW139687   9.557   3.562   9.385  1.7493 -0.7807 -0.8954
12244SOL    HW239688   9.567   3.584   9.534 -1.2154  1.0958 -0.8982
12245SOL     OW39689   9.088   5.245   0.395 -0.2543 -0.2364  0.5060
12245SOL    HW139690   9.025   5.314   0.415  1.1780  1.4371 -0.3588
12245SOL    HW239691   9.137   5.233   0.477 -0.6762 -0.4248  0.7334
12246SOL     OW39692   6.648   0.857   9.404 -0.2090 -0.6364 -0.6343
12246SOL    HW139693   6.640   0.927   9.470  1.8284 -0.2665 -0.6953
12246SOL    HW239694   6.664   0.778   9.455  1.2908 -0.3630 -0.6234
12247SOL     OW39695   0.052   1.013   9.577  0.1073 -0.3362  0.3691
12247SOL    HW139696  -0.018   1.033   9.639 -0.3412 -0.5279 -0.0718
12247SOL    HW239697   0.130   1.054   9.615 -0.1401 -0.5272  1.1017
12248SOL     OW39698   4.948   7.772   5.833  0.1966  0.5196  0.1401
12248SOL    HW139699   4.982   7.801   5.748  1.1477 -2.7122 -0.7374
12248SOL    HW239700   4.854   7.766   5.821  0.4734 -2.7183 -1.8965
12249SOL     OW39701   5.871   6.131   9.483 -0.5684 -0.2325  0.2774
12249SOL    HW139702   5.808   6.150   9.553 -1.3295 -1.9454  0.1011
12249SOL    HW239703   5.956   6.151   9.523 -1.1359  4.3283 -0.1818
12250SOL     OW39704   1.732   9.031   4.020 -0.2600  0.7742 -0.2225
12250SOL    HW139705   1.819   9.029   3.978 -0.5394 -0.3190 -0.7823
12250SOL    HW239706   1.746   9.078   4.102  1.0998 -0.3019  0.2021
12251SOL     OW39707   6.025   8.953   5.122  0.1587  0.0345  0.4920
12251SOL    HW139708   6.054   8.991   5.039 -1.7958  0.8733  0.1564
12251SOL    HW239709   6.060   9.012   5.189  0.7376  0.0132  0.2159
12252SOL     OW39710   8.183   8.555   3.185 -0.0383 -0.0320  0.1679
12252SOL    HW139711   8.230   8.514   3.112  2.6965  0.9390  1.2699
12252SOL    HW239712   8.150   8.482   3.237 -0.8972 -0.7308 -1.2915
12253SOL     OW39713   2.084   3.925   7.139  0.5460 -0.3845 -0.2974
12253SOL    HW139714   2.099   3.978   7.218 -0.2869  1.0995 -1.0867
12253SOL    HW239715   1.989   3.913   7.136  0.7595 -2.7622  0.3385
12254SOL     OW39716  10.453   8.281   5.666 -0.2380  0.0835  0.3562
12254SOL    HW139717  10.489   8.244   5.747  1.4822  1.4793  0.2905
12254SOL    HW239718  10.403   8.357   5.695 -0.0568  0.2805  0.1558
12255SOL     OW39719   2.046   7.705   2.726 -0.0297  0.0820 -0.1354
12255SOL    HW139720   2.002   7.621   2.737 -0.4327  0.2648 -0.3154
12255SOL    HW239721   1.997   7.766   2.782 -0.6737  0.5158 -1.1323
12256SOL     OW39722   1.370   1.854   2.337 -0.2783  0.4060 -0.2274
12256SOL    HW139723   1.397   1.817   2.421 -0.1467  1.4564  0.2073
12256SOL    HW239724   1.298   1.798   2.308 -0.2802 -0.0032  0.5519
12257SOL     OW39725   5.976   3.384   1.587 -0.2696  0.2841  1.2113
12257SOL    HW139726   5.939   3.458   1.634 -1.4786 -0.1628  1.0092
12257SOL    HW239727   5.937   3.307   1.629 -0.3602 -0.1660  0.3347
12258SOL     OW39728   0.648   8.786   3.711  0.1146  0.0479  0.5227
12258SOL    HW139729   0.624   8.844   3.638  0.0649  0.6087  0.9727
12258SOL    HW239730   0.661   8.700   3.671  2.1351  0.7657 -0.4759
12259SOL     OW39731   4.773   0.587   5.450 -0.0221 -0.3110 -0.7604
12259SOL    HW139732   4.706   0.558   5.512  0.7680  1.1421  0.8209
12259SOL    HW239733   4.726   0.597   5.367 -1.9952  1.5669  0.5097
12260SOL     OW39734   2.006   4.251   2.417 -0.3164  0.1996 -0.2702
12260SOL    HW139735   2.072   4.226   2.481 -0.2891  0.2232 -0.2888
12260SOL    HW239736   2.050   4.316   2.361 -0.0196 -0.5425 -0.9204
12261SOL     OW39737   1.982   4.437   3.529 -0.0239  0.2076 -0.7649
12261SOL    HW139738   2.019   4.348   3.527 -1.0788 -0.2694 -0.1889
12261SOL    HW239739   1.890   4.424   3.506 -0.1105  1.2057 -0.9980
12262SOL     OW39740   2.736   8.135   3.909  0.2210  0.1346  0.2492
12262SOL    HW139741   2.738   8.223   3.872 -2.2283  0.5249  0.8631
12262SOL    HW239742   2.708   8.079   3.836  0.0162  0.1536  0.3124
12263SOL     OW39743  10.348   2.933   7.157 -0.1093  0.1562 -0.0358
12263SOL    HW139744  10.437   2.899   7.159 -0.1917 -0.0572  0.0775
12263SOL    HW239745  10.351   3.007   7.097  0.9050  2.2836  2.4923
12264SOL     OW39746   2.816   3.252   5.174 -0.2234  0.6557 -0.2570
12264SOL    HW139747   2.826   3.334   5.222  1.1710 -0.2901  1.1755
12264SOL    HW239748   2.894   3.201   5.197 -0.9346 -0.9801 -1.2949
12265SOL     OW39749   4.004   0.877   5.148 -0.6308  0.1934  0.4230
12265SOL    HW139750   4.008   0.876   5.244 -0.4108 -1.3103  0.4203
12265SOL    HW239751   3.938   0.812   5.126 -0.9337  0.7858 -0.4484
12266SOL     OW39752   9.729   8.605   2.889  0.1186 -0.2114  0.3007
12266SOL    HW139753   9.742   8.669   2.959  1.2450 -0.0827 -0.0024
12266SOL    HW239754   9.763   8.648   2.810 -0.5745 -0.5813 -0.2136
12267SOL     OW39755   6.357   5.430   2.039 -0.0356 -0.6875 -0.4773
12267SOL    HW139756   6.339   5.493   1.970  0.6263 -0.1186 -0.1445
12267SOL    HW239757   6.441   5.390   2.013  0.8841  0.4539  0.6256
12268SOL     OW39758   5.272   4.564   2.770 -0.4248  0.1622  0.6310
12268SOL    HW139759   5.327   4.622   2.718  0.5955 -0.9144  0.4832
12268SOL    HW239760   5.201   4.621   2.801 -0.2113  1.1710 -0.6315
12269SOL     OW39761   1.244   8.617   1.289  0.5806 -0.1075 -0.5268
12269SOL    HW139762   1.232   8.646   1.379  0.7275  1.0134 -0.8566
12269SOL    HW239763   1.337   8.595   1.283  0.6147  0.0215 -0.4662
12270SOL     OW39764   6.334   5.528   1.489  0.1386 -0.1328  0.5392
12270SOL    HW139765   6.374   5.471   1.423  0.3642  1.1360 -0.4627
12270SOL    HW239766   6.406   5.556   1.545  0.4011  0.8048 -0.2405
12271SOL     OW39767   2.613   7.417   6.885  0.2733 -0.3313 -0.4399
12271SOL    HW139768   2.689   7.375   6.925 -0.1760  0.2955  1.1380
12271SOL    HW239769   2.587   7.484   6.948  0.2713  1.5735 -2.3454
12272SOL     OW39770   0.057   0.930   8.545  0.2374 -0.5846  0.1414
12272SOL    HW139771   0.152   0.929   8.557  0.3609 -1.9166 -0.7349
12272SOL    HW239772   0.035   0.840   8.523 -1.2735 -0.3411  0.5287
12273SOL     OW39773   0.375   8.835   2.662 -0.1272  0.1579 -0.2573
12273SOL    HW139774   0.344   8.895   2.730 -0.5210 -1.5897  1.2022
12273SOL    HW239775   0.468   8.852   2.654 -0.0297  0.2265  0.9318
12274SOL     OW39776  10.132   0.110   3.125  0.2302 -0.1628  0.3668
12274SOL    HW139777  10.040   0.098   3.145  0.4938 -0.6831  1.3205
12274SOL    HW239778  10.174   0.122   3.210  0.7468  2.3588 -0.1672
12275SOL     OW39779   2.372   5.732   2.321  0.2626  0.4559  0.0824
12275SOL    HW139780   2.348   5.643   2.295  1.6369  0.1444 -0.2105
12275SOL    HW239781   2.302   5.787   2.287 -0.3040 -0.4468 -0.2504
12276SOL     OW39782   2.417   9.556  10.425 -0.4841  0.0948 -0.1885
12276SOL    HW139783   2.384   9.486  10.481 -0.3407  0.8441  0.8706
12276SOL    HW239784   2.384   9.636  10.465  4.6085  1.2173  2.7017
12277SOL     OW39785   5.447   1.135   8.475 -0.4466 -0.2966 -0.3274
12277SOL    HW139786   5.542   1.145   8.476 -0.4904  0.3904 -1.5351
12277SOL    HW239787   5.413   1.223   8.459 -1.1744 -0.9043 -2.3835
12278SOL     OW39788   6.013   6.373   9.102 -0.1901 -0.0935 -0.2952
12278SOL    HW139789   6.032   6.326   9.020 -1.6097  1.8736 -1.8408
12278SOL    HW239790   6.100   6.389   9.140  0.6966  0.6800 -2.4669
12279SOL     OW39791   0.612   7.337  10.181 -0.3154 -0.2605  0.5057
12279SOL    HW139792   0.612   7.386  10.098  1.2935  0.6561  0.9884
12279SOL    HW239793   0.550   7.266  10.167 -3.1478  2.1547 -0.0821
12280SOL     OW39794   4.098   0.580   4.774 -0.0788  0.4318 -0.8549
12280SOL    HW139795   4.123   0.533   4.853 -2.2789  0.8698  0.1827
12280SOL    HW239796   4.156   0.546   4.706  0.7569 -1.1688  0.5851
12281SOL     OW39797   2.675   3.983   9.012  0.0683 -0.2710 -0.3438
12281SOL    HW139798   2.699   3.926   9.085 -0.6281  1.4271  1.3209
12281SOL    HW239799   2.689   3.930   8.934  0.9532 -2.1469  1.0055
12282SOL     OW39800   8.629   8.972   3.472 -0.2744  0.5226  0.3392
12282SOL    HW139801   8.644   8.878   3.465  1.1877  0.6047  1.7161
12282SOL    HW239802   8.588   8.983   3.558 -0.0448  1.1689  0.3715
12283SOL     OW39803   9.059   1.683   0.146  0.2285 -0.4895  0.2180
12283SOL    HW139804   8.980   1.735   0.156  1.2990  1.4770 -0.8255
12283SOL    HW239805   9.028   1.594   0.130 -1.9498  0.6835 -3.2482
12284SOL     OW39806   9.049  10.467   4.085  0.5294  0.1113  0.6476
12284SOL    HW139807   8.955  10.454   4.093  0.5059  0.3094  0.6986
12284SOL    HW239808   9.080  10.390   4.037  0.1637  0.6188 -0.4471
12285SOL     OW39809   8.963   8.869   5.018  0.2167 -0.4593  0.3664
12285SOL    HW139810   8.872   8.892   5.035  0.5862  0.4696  1.2086
12285SOL    HW239811   9.012   8.950   5.033  1.1834 -0.9390 -0.0848
12286SOL     OW39812   4.590   2.735   9.461 -0.8289  0.3588  0.4790
12286SOL    HW139813   4.671   2.760   9.416 -0.7547  0.2221  0.5384
12286SOL    HW239814   4.618   2.708   9.548 -0.9047 -0.0101  0.3872
12287SOL     OW39815   2.162   0.591   3.415  0.7074  0.3030  0.0582
12287SOL    HW139816   2.169   0.675   3.460 -0.0845  1.1604 -1.3525
12287SOL    HW239817   2.198   0.607   3.328 -1.4673 -0.1734 -0.9989
12288SOL     OW39818   5.672   6.765   8.401 -0.4634 -0.0742 -0.5901
12288SOL    HW139819   5.630   6.848   8.425 -0.1487  0.1167 -0.6896
12288SOL    HW239820   5.638   6.702   8.464 -0.9266  0.0691 -0.6921
12289SOL     OW39821   2.666  10.432  10.478  0.0038  0.1475  0.4764
12289SOL    HW139822   2.688  10.380  10.556 -0.1884  0.7569  0.9470
12289SOL    HW239823   2.721  10.510  10.486 -0.5265  0.5402  0.3768
12290SOL     OW39824   0.350   0.296   2.742 -0.0438 -0.9553 -0.0028
12290SOL    HW139825   0.317   0.226   2.685 -0.5086 -0.2076 -0.6983
12290SOL    HW239826   0.343   0.375   2.687 -1.9055  0.0474  1.5603
12291SOL     OW39827   9.450  10.193   9.556  0.2123  0.7517  0.2031
12291SOL    HW139828   9.498  10.249   9.495  2.7515  1.3412  2.5407
12291SOL    HW239829   9.359  10.197   9.526  1.1013  2.0842 -2.6515
12292SOL     OW39830   8.865   1.807   3.744 -0.1380  0.0523 -0.3582
12292SOL    HW139831   8.848   1.759   3.825  1.1670 -1.0682 -0.7029
12292SOL    HW239832   8.915   1.884   3.772 -0.3261  0.0571 -0.0265
12293SOL     OW39833   2.540   9.865   2.134 -0.5441  0.5235  0.1151
12293SOL    HW139834   2.621   9.849   2.182  1.0579  0.5303 -2.4245
12293SOL    HW239835   2.523   9.784   2.086 -1.7134  0.7489  0.1046
12294SOL     OW39836  10.085   6.926  10.389 -0.5396 -0.1835 -0.6393
12294SOL    HW139837   9.993   6.905  10.404 -0.2016 -1.1169  0.1969
12294SOL    HW239838  10.096   7.014  10.425 -0.7289 -0.7404  0.8306
12295SOL     OW39839   5.367   2.063   3.609 -0.0684 -0.0264 -0.2299
12295SOL    HW139840   5.297   2.107   3.560  1.5008  1.9543 -0.8295
12295SOL    HW239841   5.389   2.125   3.679  1.7492 -0.1296 -0.6688
12296SOL     OW39842   9.808   3.368   3.724  0.1248  0.1708 -0.0970
12296SOL    HW139843   9.888   3.322   3.750 -0.3241  0.0218  1.1250
12296SOL    HW239844   9.786   3.420   3.801 -1.4811 -0.5351 -0.0489
12297SOL     OW39845   2.331   6.210   4.921 -0.1876  0.5291  0.1383
12297SOL    HW139846   2.245   6.207   4.881 -0.3394  0.8974  0.4296
12297SOL    HW239847   2.317   6.183   5.012 -0.3323  2.3904  0.7179
12298SOL     OW39848   9.326  10.195   1.740 -0.3120 -0.0689  0.0660
12298SOL    HW139849   9.340  10.236   1.825 -0.4858  1.1082 -0.4558
12298SOL    HW239850   9.376  10.249   1.678 -0.5484 -0.6402 -0.6433
12299SOL     OW39851   1.884   4.616   5.640  0.6251  0.2418  0.2452
12299SOL    HW139852   1.952   4.555   5.611 -0.4664 -0.9835  0.1413
12299SOL    HW239853   1.860   4.665   5.562 -1.0550 -1.8062 -0.6225
12300SOL     OW39854   2.086   5.486   7.910 -0.5188  0.0581 -0.0844
12300SOL    HW139855   2.003   5.465   7.953 -1.6345  1.1776 -1.5802
12300SOL    HW239856   2.107   5.407   7.859 -0.7125 -0.1971  0.2254
12301SOL     OW39857   8.500   0.294   0.261 -0.0827  0.3034  0.3912
12301SOL    HW139858   8.539   0.217   0.303 -0.1313  1.2265  2.2109
12301SOL    HW239859   8.574   0.341   0.223 -0.1924 -1.4037 -2.2279
12302SOL     OW39860   7.316   5.717   3.269 -0.3760 -0.2303 -0.1724
12302SOL    HW139861   7.400   5.673   3.285 -0.0505  0.1114 -0.8836
12302SOL    HW239862   7.320   5.743   3.177 -0.8887  0.5802  0.0212
12303SOL     OW39863   2.888   1.849   8.954 -0.3302 -0.0081 -0.4926
12303SOL    HW139864   2.858   1.839   8.864 -0.9577 -0.0335 -0.2837
12303SOL    HW239865   2.962   1.788   8.962  0.1342  0.4468 -1.1678
12304SOL     OW39866   0.530   4.978   3.886  0.1794 -0.1153 -0.3867
12304SOL    HW139867   0.512   4.919   3.812 -2.0735 -1.5216  1.1506
12304SOL    HW239868   0.553   5.061   3.846 -1.0466 -0.8085 -2.6856
12305SOL     OW39869   6.744   1.300   5.061  0.3688  0.0109 -0.3169
12305SOL    HW139870   6.685   1.240   5.016 -1.6146  0.7472  1.1369
12305SOL    HW239871   6.705   1.386   5.049  0.2789  0.3536  1.8809
12306SOL     OW39872   1.222   0.389   5.416 -0.2009 -0.0706  0.5545
12306SOL    HW139873   1.215   0.381   5.511 -0.2556  0.3775  0.5912
12306SOL    HW239874   1.317   0.396   5.400 -0.2415  1.1387  0.6987
12307SOL     OW39875   1.119   6.603   3.822 -0.8299  0.5328  0.3142
12307SOL    HW139876   1.025   6.596   3.807 -0.6335 -1.2475 -0.3699
12307SOL    HW239877   1.152   6.647   3.744 -1.1254  1.6196  0.7800
12308SOL     OW39878   1.573   9.290   3.948  0.2951  0.4677  0.2386
12308SOL    HW139879   1.481   9.263   3.949  0.2042  0.7862  0.8157
12308SOL    HW239880   1.621   9.208   3.957  0.1554  0.0314 -2.3052
12309SOL     OW39881   8.503   0.942   3.803  0.1445 -0.4114  0.3104
12309SOL    HW139882   8.498   1.037   3.815  3.4634  0.0450 -0.7427
12309SOL    HW239883   8.523   0.907   3.890 -2.3419 -0.3631  0.9541
12310SOL     OW39884   6.059   2.168   0.257 -0.1459  0.0675 -0.3492
12310SOL    HW139885   6.007   2.132   0.185  1.1422  0.3745 -1.4791
12310SOL    HW239886   6.007   2.241   0.291 -0.7087  0.0090 -1.0800
12311SOL     OW39887   4.066   0.446   3.353  0.3414 -0.8572 -0.4016
12311SOL    HW139888   4.121   0.464   3.429 -0.6429 -0.6406  0.2791
12311SOL    HW239889   4.126   0.408   3.289  1.3834 -0.1560  0.1195
12312SOL     OW39890   7.848   4.627   2.053 -0.0817 -0.2608  0.2795
12312SOL    HW139891   7.818   4.536   2.055 -1.0492  0.0673  0.9834
12312SOL    HW239892   7.768   4.679   2.056  0.5143  0.6318  1.5410
12313SOL     OW39893   5.546   6.785   9.778 -0.3915 -0.4164  0.1260
12313SOL    HW139894   5.578   6.846   9.712  2.5719 -0.6625  1.1785
12313SOL    HW239895   5.465   6.824   9.810  0.9263  2.5790  0.1668
12314SOL     OW39896   8.637   1.834   1.904  0.0747  0.0996  0.4623
12314SOL    HW139897   8.720   1.794   1.931  0.5012 -0.8083 -1.9661
12314SOL    HW239898   8.571   1.790   1.957  0.9223 -1.0506  0.6045
12315SOL     OW39899   7.673   2.851   7.595 -0.4448  0.5156  0.6948
12315SOL    HW139900   7.756   2.853   7.548  1.2462 -0.0131  3.4143
12315SOL    HW239901   7.656   2.758   7.610 -0.5213  0.6941  1.7804
12316SOL     OW39902   7.047   2.148  10.669  0.7787  0.7022 -0.4483
12316SOL    HW139903   7.036   2.056  10.692 -1.3929  0.9659 -0.2454
12316SOL    HW239904   7.139   2.156  10.644  1.1965 -1.3403  0.2879
12317SOL     OW39905   9.805   9.188   0.374  0.4181  0.1365 -0.2191
12317SOL    HW139906   9.820   9.281   0.392  1.0413  0.0585 -0.3424
12317SOL    HW239907   9.715   9.173   0.403  0.0926  0.9265 -0.7865
12318SOL     OW39908   0.552   4.012   2.424  0.2529 -0.3728  0.0065
12318SOL    HW139909   0.611   4.044   2.356 -0.0009 -1.9659 -1.0167
12318SOL    HW239910   0.580   4.057   2.504  2.1833 -0.3218 -0.6533
12319SOL     OW39911   3.499   8.471   7.348  0.1282  0.0119 -0.0486
12319SOL    HW139912   3.404   8.474   7.357  0.0468 -2.5307  0.6253
12319SOL    HW239913   3.518   8.524   7.271 -2.0546 -1.2347 -1.5409
12320SOL     OW39914  10.320   7.920   3.580 -0.3570 -0.0522 -0.2008
12320SOL    HW139915  10.338   7.947   3.670  0.0860 -1.2458  0.0872
12320SOL    HW239916  10.368   7.984   3.526  1.1334 -0.5621  0.4648
12321SOL     OW39917   0.188   9.527   8.298  0.3413  0.6451 -0.3921
12321SOL    HW139918   0.279   9.545   8.272 -0.0649  1.8199 -1.0953
12321SOL    HW239919   0.161   9.454   8.243  1.2606 -0.6162  0.7654
12322SOL     OW39920   5.150   9.418   4.591 -0.3663  0.6005 -0.0482
12322SOL    HW139921   5.209   9.493   4.584  0.8242 -0.3726 -0.8798
12322SOL    HW239922   5.065   9.452   4.564  0.0504  1.7546  0.0155
12323SOL     OW39923   9.476   7.908   9.466  0.2985 -0.1073 -0.3718
12323SOL    HW139924   9.565   7.904   9.431  0.4239 -1.8095  0.0816
12323SOL    HW239925   9.477   7.852   9.543 -1.7732 -2.3399 -1.8050
12324SOL     OW39926   2.684   4.596   0.365 -0.0878  0.0492 -0.0156
12324SOL    HW139927   2.607   4.602   0.308  0.4301 -0.8933 -0.8532
12324SOL    HW239928   2.748   4.547   0.313 -0.2046 -2.4576  2.0069
12325SOL     OW39929   5.752   3.373   6.495  0.3103 -0.5821 -0.3384
12325SOL    HW139930   5.726   3.430   6.567  1.0613 -0.6975  0.0341
12325SOL    HW239931   5.755   3.430   6.419  0.2098 -0.3142 -0.1428
12326SOL     OW39932   1.425   0.060   2.853 -0.2136 -0.3688  0.1177
12326SOL    HW139933   1.445  -0.026   2.817  0.2566 -0.3231  0.2609
12326SOL    HW239934   1.334   0.076   2.827 -0.4608 -1.1094  0.5028
12327SOL     OW39935   5.195   8.115   6.647 -0.1700  0.4352 -0.2975
12327SOL    HW139936   5.249   8.178   6.693 -0.1587 -0.4938  1.0166
12327SOL    HW239937   5.197   8.036   6.702  0.1003 -0.8330 -2.0372
12328SOL     OW39938   0.769  10.613  10.627  0.5673  0.1115 -0.3033
12328SOL    HW139939   0.856  10.637  10.658  1.0949 -0.1668 -1.4873
12328SOL    HW239940   0.785  10.572  10.542 -0.8162  1.1389 -1.0994
12329SOL     OW39941   5.136   5.982   7.115 -0.5564 -0.1494 -0.2909
12329SOL    HW139942   5.151   5.888   7.119  0.3669 -0.0887 -1.7524
12329SOL    HW239943   5.222   6.020   7.101 -0.9255  0.9292  0.2209
12330SOL     OW39944   1.687   5.837   1.439  0.4382  0.1864  0.4766
12330SOL    HW139945   1.667   5.857   1.347 -0.6131 -0.7509  0.4805
12330SOL    HW239946   1.691   5.922   1.482  0.2021  0.6011 -0.2991
12331SOL     OW39947   1.101   8.041   4.322  0.2020 -0.3110 -0.4289
12331SOL    HW139948   1.059   8.117   4.282  1.4340 -0.1618 -1.5215
12331SOL    HW239949   1.118   8.067   4.413 -1.2100 -0.0556 -0.2220
12332SOL     OW39950   3.447   9.495   9.501  0.2837  0.6291 -0.4622
12332SOL    HW139951   3.423   9.490   9.408 -0.4706  0.0101 -0.2460
12332SOL    HW239952   3.366   9.473   9.547  0.0682  2.9391  0.4007
12333SOL     OW39953   0.433   1.713   8.194  0.0611 -0.5163 -0.7459
12333SOL    HW139954   0.480   1.652   8.139  0.7657 -1.1335  0.4921
12333SOL    HW239955   0.393   1.658   8.262  3.1951  0.5086  2.2249
12334SOL     OW39956   1.852   4.358   2.189  0.0680  0.1272  0.2021
12334SOL    HW139957   1.875   4.273   2.227  2.5651 -0.3634 -2.0137
12334SOL    HW239958   1.923   4.416   2.216 -0.5277  0.9608  0.0160
12335SOL     OW39959   1.420   5.811   3.190  0.6582  0.0636 -0.0306
12335SOL    HW139960   1.512   5.832   3.178  0.6685 -0.4209 -0.9364
12335SOL    HW239961   1.416   5.715   3.185 -0.0772  0.1447 -1.6991
12336SOL     OW39962   2.222   8.696  10.653 -0.4417 -0.0218  0.3515
12336SOL    HW139963   2.152   8.709  10.717 -0.3821 -1.2816  0.7094
12336SOL    HW239964   2.302   8.719  10.700 -0.2714 -2.0272  1.1774
12337SOL     OW39965   8.299   2.699   1.007 -0.4195 -0.2849 -0.4143
12337SOL    HW139966   8.218   2.715   0.960 -0.5187  0.2071 -0.0912
12337SOL    HW239967   8.273   2.689   1.098 -0.0601  0.6168 -0.1933
12338SOL     OW39968   9.776   2.704   7.499  0.3585 -0.4550  0.4266
12338SOL    HW139969   9.800   2.769   7.565  1.4315  1.5465 -1.7659
12338SOL    HW239970   9.743   2.630   7.549  2.3012  0.4148  3.2478
12339SOL     OW39971   0.649   4.416   9.319 -0.4465  0.6385 -0.7316
12339SOL    HW139972   0.598   4.337   9.335  0.9945 -0.1450  0.2934
12339SOL    HW239973   0.734   4.384   9.288 -0.0370  1.8062 -0.8574
12340SOL     OW39974   6.337   1.143   9.534 -0.0896 -0.0702  0.0306
12340SOL    HW139975   6.293   1.226   9.518  0.3719  0.1612 -0.0479
12340SOL    HW239976   6.284   1.079   9.486 -1.4374 -0.1013  1.4751
12341SOL     OW39977   0.863   7.698   1.710  0.0120 -0.0154  0.1089
12341SOL    HW139978   0.924   7.644   1.659 -0.5464 -0.6360  0.0933
12341SOL    HW239979   0.912   7.778   1.728  0.2804  0.1746 -1.3036
12342SOL     OW39980  10.569   6.633   0.516 -0.1047 -0.0995 -0.5267
12342SOL    HW139981  10.626   6.705   0.489  0.5098 -0.1454  0.6043
12342SOL    HW239982  10.481   6.666   0.504  0.1703  0.9794  0.2871
12343SOL     OW39983   9.590  10.084   3.089  0.1212  0.0127 -0.0199
12343SOL    HW139984   9.652  10.144   3.131 -0.0638  1.0886 -1.2166
12343SOL    HW239985   9.640  10.003   3.077  1.3441  0.8766 -1.0155
12344SOL     OW39986   7.466   0.616   2.328  0.5424  0.1009 -0.2094
12344SOL    HW139987   7.505   0.694   2.369 -1.6867  1.6938 -0.9084
12344SOL    HW239988   7.414   0.576   2.398  0.0534  0.4498 -0.3632
12345SOL     OW39989   2.429   2.758   6.814 -0.4845 -0.2483 -0.0826
12345SOL    HW139990   2.501   2.708   6.776  2.0408  1.8717  1.4643
12345SOL    HW239991   2.385   2.799   6.739  0.7087 -0.6518 -1.0341
12346SOL     OW39992  10.604   2.433  10.202 -0.1542  0.1384  0.3472
12346SOL    HW139993  10.516   2.469  10.191  0.4205  1.2801 -0.8141
12346SOL    HW239994  10.648   2.450  10.119  0.4179 -2.6613 -0.0273
12347SOL     OW39995   0.316   9.802   6.413 -0.3360 -0.2771 -0.1240
12347SOL    HW139996   0.230   9.798   6.455 -0.2063  1.8750  0.4663
12347SOL    HW239997   0.317   9.886   6.367  1.9032  0.4027  1.0003
12348SOL     OW39998   6.298   7.871   2.290  0.0715 -0.1854 -0.8873
12348SOL    HW139999   6.350   7.882   2.210  0.9811 -1.4437 -0.4817
12348SOL    HW240000   6.269   7.780   2.288 -0.6881  0.0276 -0.2315
12349SOL     OW40001   2.805   7.904   9.493 -0.7056 -0.3535  0.1997
12349SOL    HW140002   2.844   7.820   9.468 -0.4752 -0.3524  0.5460
12349SOL    HW240003   2.724   7.909   9.442 -0.7516 -0.8113  0.2241
12350SOL     OW40004  10.308   1.948   9.768  0.0110  0.2008  0.2525
12350SOL    HW140005  10.215   1.930   9.757  0.2884 -1.1699 -0.0124
12350SOL    HW240006  10.352   1.879   9.719  1.1800  0.4074  0.9727
12351SOL     OW40007   1.265   4.192   6.711 -0.0045  0.0735 -0.1380
12351SOL    HW140008   1.188   4.139   6.733 -0.3083  0.4953 -0.1799
12351SOL    HW240009   1.259   4.205   6.616 -0.2115  0.6131 -0.0552
12352SOL     OW40010   1.193   3.565   1.987 -0.4542 -0.1765  0.3836
12352SOL    HW140011   1.179   3.659   1.997  0.7597  0.5359 -3.1750
12352SOL    HW240012   1.265   3.545   2.047 -0.5886  1.1980  1.0402
12353SOL     OW40013   0.418   5.185   3.384 -0.1910 -1.0286 -0.0187
12353SOL    HW140014   0.419   5.138   3.467 -1.9593  0.5234  0.9644
12353SOL    HW240015   0.344   5.149   3.336  0.9654 -2.0913 -1.1035
12354SOL     OW40016   2.489   9.127   3.801  0.0218  0.3022 -0.0643
12354SOL    HW140017   2.482   9.136   3.897 -0.0035  1.1740 -0.1345
12354SOL    HW240018   2.404   9.091   3.775 -0.3596  1.0232  0.1459
12355SOL     OW40019   5.133   1.588   9.730  0.1812 -0.0277 -0.4031
12355SOL    HW140020   5.161   1.624   9.645 -0.7181 -2.1200 -1.6756
12355SOL    HW240021   5.039   1.604   9.732  0.3621  0.9974  0.7531
12356SOL     OW40022   6.845   2.750   9.708 -0.1038 -0.3180 -0.3052
12356SOL    HW140023   6.926   2.748   9.759  0.6594  0.1089 -1.4576
12356SOL    HW240024   6.830   2.842   9.689 -1.4355 -0.2955  0.7499
12357SOL     OW40025   9.540   0.906   0.843  0.0422 -0.1389  0.2706
12357SOL    HW140026   9.622   0.874   0.804 -0.8580 -0.4842 -1.4139
12357SOL    HW240027   9.544   0.876   0.934  2.9146  1.9645  1.0055
12358SOL     OW40028   7.973   8.018   4.910 -0.4957 -0.4428 -0.0464
12358SOL    HW140029   8.057   8.047   4.946 -1.4023 -1.2637  2.9906
12358SOL    HW240030   7.988   7.926   4.886  0.0870  0.0849 -1.9312
12359SOL     OW40031   9.346   7.155   7.542  0.2422 -0.4006 -0.7560
12359SOL    HW140032   9.368   7.163   7.449 -1.7040 -0.7035 -1.2964
12359SOL    HW240033   9.290   7.230   7.560 -0.8722 -1.2877 -0.3391
12360SOL     OW40034   9.582   3.954   9.337 -0.1042  0.1614  0.9482
12360SOL    HW140035   9.635   3.914   9.268 -0.2627  1.2065  0.2057
12360SOL    HW240036   9.496   3.913   9.330 -0.4603  1.0608 -0.2354
12361SOL     OW40037   1.569   1.258   9.064 -0.1899 -0.8136 -0.1325
12361SOL    HW140038   1.544   1.265   9.157 -0.5567  0.4428 -0.3066
12361SOL    HW240039   1.654   1.216   9.066  0.4081  0.3531  0.8941
12362SOL     OW40040   3.332   3.789   0.451 -0.0282 -0.5558  0.2593
12362SOL    HW140041   3.245   3.765   0.418 -0.5137  0.0306  1.0657
12362SOL    HW240042   3.326   3.773   0.545  0.2414  0.8959  0.5479
12363SOL     OW40043   9.585   6.870   7.315  0.0770  0.1341 -0.5346
12363SOL    HW140044   9.557   6.962   7.313 -1.3130 -0.2642 -1.5300
12363SOL    HW240045   9.660   6.868   7.374 -1.8158  1.3642  2.0662
12364SOL     OW40046   9.428   7.323   2.370 -0.0464 -0.1369  0.4931
12364SOL    HW140047   9.466   7.367   2.293  0.5316 -1.7813 -0.2104
12364SOL    HW240048   9.490   7.342   2.440  1.3277 -1.4939 -0.2861
12365SOL     OW40049   0.386   8.845   8.202 -0.3099  0.5626  0.1382
12365SOL    HW140050   0.292   8.864   8.193 -0.3522  0.2999  0.0352
12365SOL    HW240051   0.427   8.890   8.128 -0.3169  0.9528  0.3686
12366SOL     OW40052   1.430   7.706   5.612 -0.0432 -0.3509  0.5921
12366SOL    HW140053   1.419   7.675   5.522  0.7942  1.5838 -0.2449
12366SOL    HW240054   1.414   7.629   5.666 -1.0094 -1.4691 -1.1822
12367SOL     OW40055   9.275   4.719  10.014 -0.1410  0.4374  0.1925
12367SOL    HW140056   9.298   4.651   9.950  1.9484  0.5858  0.7250
12367SOL    HW240057   9.209   4.772   9.969  0.9401  0.2948 -1.7067
12368SOL     OW40058   6.615   5.792   0.808 -0.0001  0.0334  0.2519
12368SOL    HW140059   6.694   5.831   0.770 -0.6325 -0.0700 -1.2349
12368SOL    HW240060   6.549   5.861   0.801 -0.2555 -0.1648  0.7106
12369SOL     OW40061   9.876   2.354   5.692 -0.0708  0.2001  0.5892
12369SOL    HW140062   9.960   2.325   5.658  0.0708 -0.6485  1.6388
12369SOL    HW240063   9.817   2.349   5.617  0.9563  1.5437 -0.3613
12370SOL     OW40064   1.712   3.717   9.890 -0.4565  0.1818 -0.0099
12370SOL    HW140065   1.760   3.664   9.954  0.7325  1.9510  0.6630
12370SOL    HW240066   1.748   3.691   9.806 -1.4797 -1.6164  0.0538
12371SOL     OW40067   2.985   4.821   0.363 -0.0808  0.0187  0.0808
12371SOL    HW140068   3.047   4.819   0.436 -1.5006 -0.3941  1.3466
12371SOL    HW240069   3.022   4.883   0.301  0.4831  1.5132  1.8179
12372SOL     OW40070   5.384   4.755   7.094 -0.0334  1.2404  0.5339
12372SOL    HW140071   5.343   4.721   7.174 -1.1427  0.7366 -0.2291
12372SOL    HW240072   5.472   4.780   7.122  0.1103 -0.3187  1.5902
12373SOL     OW40073   6.216   1.849   5.271 -0.4287  0.3188 -0.4841
12373SOL    HW140074   6.180   1.902   5.200  1.4655 -0.9198 -2.5220
12373SOL    HW240075   6.216   1.759   5.236  1.1762 -0.2298  0.8005
12374SOL     OW40076   8.731   5.622   5.838  0.4932  0.8620 -0.0573
12374SOL    HW140077   8.763   5.644   5.750  0.5320  1.2313  0.0471
12374SOL    HW240078   8.771   5.688   5.895  2.4905 -0.8357  0.6210
12375SOL     OW40079   6.994   8.962   5.562 -0.3517 -0.5051  0.1640
12375SOL    HW140080   6.907   8.932   5.536 -0.7463 -0.0163  0.8837
12375SOL    HW240081   6.980   9.004   5.647  0.3700  0.6895 -0.2904
12376SOL     OW40082   9.336   2.818   6.421  0.1374 -0.3099 -0.4455
12376SOL    HW140083   9.257   2.841   6.371 -0.9310 -1.8041  0.4790
12376SOL    HW240084   9.350   2.725   6.402  0.5156 -0.5588  0.9399
12377SOL     OW40085  10.126   7.863   1.127  0.2874 -0.2389  0.2698
12377SOL    HW140086  10.069   7.787   1.122 -2.2917  1.5310  0.6579
12377SOL    HW240087  10.195   7.837   1.188 -0.9411 -1.9920  0.9927
12378SOL     OW40088   8.226   8.904   0.126 -0.2041 -0.0844  0.2369
12378SOL    HW140089   8.191   8.822   0.162 -0.8305  0.1136  0.0930
12378SOL    HW240090   8.307   8.919   0.175 -1.0051  0.1465  1.5356
12379SOL     OW40091   6.348   9.284   4.462 -0.2821 -0.0678 -0.6579
12379SOL    HW140092   6.369   9.233   4.383  1.0815  0.4315 -0.6544
12379SOL    HW240093   6.430   9.328   4.483 -0.5793 -0.3050  1.1390
12380SOL     OW40094   7.983   1.567   2.660  0.1485 -0.0024  0.2841
12380SOL    HW140095   8.020   1.653   2.641  0.1178  0.1257  0.7899
12380SOL    HW240096   7.919   1.583   2.729  0.1803 -0.4398  0.4183
12381SOL     OW40097   1.979   0.633   9.884 -0.4110 -0.2152  0.0003
12381SOL    HW140098   2.009   0.723   9.875 -2.6577  0.5055 -1.1961
12381SOL    HW240099   2.037   0.582   9.827  0.7383  0.4749  0.5179
12382SOL     OW40100   4.418   1.382   0.413  0.2543 -0.3376  0.1048
12382SOL    HW140101   4.381   1.317   0.352  0.7146 -0.4437 -0.0661
12382SOL    HW240102   4.368   1.461   0.396 -0.8889 -0.8577  0.9046
12383SOL     OW40103   5.497   3.895   4.150  0.5350  0.0821  0.3457
12383SOL    HW140104   5.425   3.955   4.171 -0.4148 -1.2604  1.0508
12383SOL    HW240105   5.533   3.870   4.235  2.8088  1.8028 -0.0226
12384SOL     OW40106   2.425   1.734  10.336 -0.0821 -0.0288  0.6063
12384SOL    HW140107   2.502   1.753  10.283 -0.1433  0.2500  0.6141
12384SOL    HW240108   2.401   1.644  10.313 -1.5196  0.8356 -1.6518
12385SOL     OW40109   3.253   0.878   7.016 -0.4851  0.0031  0.2408
12385SOL    HW140110   3.183   0.821   7.049 -0.0570  0.7828  2.6649
12385SOL    HW240111   3.268   0.941   7.087  1.3566  1.0586 -1.0161
12386SOL     OW40112   3.322   0.178   3.287 -0.2107 -0.2561 -0.5506
12386SOL    HW140113   3.266   0.232   3.342  0.7541 -0.8004  1.0362
12386SOL    HW240114   3.297   0.088   3.308  0.7290 -0.4858 -0.3916
12387SOL     OW40115   9.967   4.858   3.362 -0.5142  0.2439  0.2573
12387SOL    HW140116   9.977   4.763   3.354  0.0295  0.2780  0.4983
12387SOL    HW240117   9.990   4.877   3.452 -0.2244  0.6560  0.0979
12388SOL     OW40118   3.116   9.364   5.111  0.0262 -0.0369  0.5125
12388SOL    HW140119   3.055   9.437   5.121 -2.0197 -1.6721  0.6463
12388SOL    HW240120   3.130   9.331   5.200 -0.1752 -0.6444  0.3247
12389SOL     OW40121   8.240   1.869   4.976 -0.2389  0.4127 -0.0775
12389SOL    HW140122   8.233   1.845   4.883  1.1613  1.6473 -0.5433
12389SOL    HW240123   8.187   1.948   4.984 -0.3227  0.3317  0.1632
12390SOL     OW40124   0.299   5.959  10.663  0.2661  0.5144  0.2814
12390SOL    HW140125   0.320   5.881  10.713  0.2457  0.6109  0.4425
12390SOL    HW240126   0.268   6.022  10.728  0.5897  0.7645  0.1958
12391SOL     OW40127   7.899   7.202   3.000  0.0246  0.6498 -0.0184
12391SOL    HW140128   7.968   7.236   3.057 -0.6193  0.9314  0.6146
12391SOL    HW240129   7.852   7.138   3.054 -0.1435  0.3788 -0.4768
12392SOL     OW40130   7.160   4.100   0.414  0.2229 -0.1343 -0.4156
12392SOL    HW140131   7.236   4.053   0.380 -0.3158 -0.4622 -1.1788
12392SOL    HW240132   7.120   4.039   0.476  1.5537  0.6904  1.3581
12393SOL     OW40133   8.082   8.323  10.176 -0.1041 -0.1799  0.3575
12393SOL    HW140134   8.026   8.345  10.102 -0.7948 -0.7360  0.6981
12393SOL    HW240135   8.104   8.407  10.215 -0.4713  0.0658  0.0494
12394SOL     OW40136   2.804   8.978   1.902 -0.3039  0.1905 -0.6321
12394SOL    HW140137   2.726   8.932   1.871 -0.1850 -0.2729 -0.2545
12394SOL    HW240138   2.810   8.955   1.994 -0.3818  1.1673 -0.3753
12395SOL     OW40139   2.526   7.675   3.804  0.5831  0.0560 -0.2741
12395SOL    HW140140   2.595   7.731   3.768 -0.2698  0.6552 -1.0247
12395SOL    HW240141   2.568   7.631   3.878  2.5101 -1.5201 -2.1912
12396SOL     OW40142   0.382   3.758   2.686 -0.4159 -0.7412  0.1587
12396SOL    HW140143   0.340   3.841   2.711 -1.0427 -1.0533  0.1644
12396SOL    HW240144   0.355   3.744   2.596  2.1550  0.5789 -0.9294
12397SOL     OW40145   2.699   9.103   9.801  0.2767 -0.2205 -0.1620
12397SOL    HW140146   2.635   9.078   9.868  0.8795 -0.7433  0.2299
12397SOL    HW240147   2.686   9.197   9.790  1.3722  0.2617  2.0210
12398SOL     OW40148   0.390   2.802   6.295 -0.2289  0.0419 -0.2078
12398SOL    HW140149   0.324   2.839   6.237 -0.5189  3.2088  1.8786
12398SOL    HW240150   0.340   2.771   6.371  0.4373 -0.5840 -0.0085
12399SOL     OW40151   7.252   4.380   9.632  0.1554 -0.4643 -0.5011
12399SOL    HW140152   7.205   4.459   9.658 -0.3762 -0.6186 -0.9634
12399SOL    HW240153   7.342   4.408   9.619 -0.2367  0.3110 -1.7360
12400SOL     OW40154   1.542   5.540   9.391 -0.0017  0.1614 -0.1734
12400SOL    HW140155   1.516   5.626   9.424 -1.3509 -0.0664 -0.5858
12400SOL    HW240156   1.562   5.489   9.469 -0.1883  0.5423  0.1238
12401SOL     OW40157   2.171   1.609   3.663  0.3595 -0.4735  0.3723
12401SOL    HW140158   2.138   1.570   3.582 -2.9904  2.6525 -0.0013
12401SOL    HW240159   2.216   1.688   3.636  1.7005 -0.8125  1.4724
12402SOL     OW40160   1.559   4.069   5.035 -0.0434 -0.1327 -0.4736
12402SOL    HW140161   1.576   3.981   5.069  0.1764  0.2432  0.4137
12402SOL    HW240162   1.558   4.059   4.940 -0.3205 -1.1495 -0.3695
12403SOL     OW40163   0.559   0.202   0.677 -0.2617  0.0687  0.5899
12403SOL    HW140164   0.484   0.250   0.642 -1.1676  0.3022  2.6824
12403SOL    HW240165   0.550   0.114   0.642 -0.5993  0.5018 -0.4536
12404SOL     OW40166   2.173   4.245   2.956  0.2070 -0.8657  0.3879
12404SOL    HW140167   2.253   4.208   2.919 -0.6154 -0.4489 -1.9438
12404SOL    HW240168   2.190   4.339   2.963 -0.3978 -0.6275 -1.0790
12405SOL     OW40169   2.723   8.075   7.972 -0.3524 -0.1525  1.0796
12405SOL    HW140170   2.716   8.144   8.038  0.7454  0.9690  0.0764
12405SOL    HW240171   2.634   8.063   7.939 -0.3566  1.8820  0.2217
12406SOL     OW40172   4.776   3.283   9.168  0.0695  0.5313 -0.1450
12406SOL    HW140173   4.844   3.331   9.215  0.2033  0.3333 -0.1392
12406SOL    HW240174   4.756   3.340   9.093 -0.6656  1.1925  0.5394
12407SOL     OW40175   1.455   0.215   3.593  0.4976  0.0124 -0.0246
12407SOL    HW140176   1.482   0.237   3.683 -0.0987  0.5212  0.0342
12407SOL    HW240177   1.410   0.293   3.562 -1.0195 -0.8540 -0.0720
12408SOL     OW40178   0.333  10.481   1.973  0.0108 -0.0829  1.0647
12408SOL    HW140179   0.271  10.411   1.952  0.3476 -0.3856  1.0658
12408SOL    HW240180   0.415  10.453   1.933  0.0307  0.5466  0.6513
12409SOL     OW40181   6.618   6.212   4.144 -0.1348 -0.0506  0.0456
12409SOL    HW140182   6.552   6.237   4.079 -0.8186 -0.5399  0.5476
12409SOL    HW240183   6.642   6.123   4.121  0.8026  0.3188 -0.4897
12410SOL     OW40184   0.930   9.868   7.473  0.0753 -0.1083 -0.6394
12410SOL    HW140185   0.999   9.923   7.436 -0.3177  1.2798  0.5840
12410SOL    HW240186   0.872   9.930   7.519 -1.1155 -1.4108 -0.3212
12411SOL     OW40187   9.970   5.205   4.175  0.0791  0.5209 -1.2132
12411SOL    HW140188   9.993   5.279   4.232  0.7702 -0.1204 -0.6437
12411SOL    HW240189   9.992   5.235   4.087 -2.3961  2.1031 -1.3899
12412SOL     OW40190   6.695  10.120  10.435  0.3397 -0.3869  1.0215
12412SOL    HW140191   6.643  10.048  10.399 -1.9626  1.1112  1.1680
12412SOL    HW240192   6.728  10.086  10.518 -0.5415 -1.3515  0.9988
12413SOL     OW40193  10.128   3.585   3.757 -0.1434 -0.0543  0.0828
12413SOL    HW140194  10.070   3.659   3.770 -0.9087 -0.4110 -1.0757
12413SOL    HW240195  10.161   3.564   3.844 -1.1616  0.6402  0.6559
12414SOL     OW40196   6.225   2.398   6.760 -0.6449  0.0692 -0.1679
12414SOL    HW140197   6.267   2.432   6.681  0.5726 -0.5130  0.2054
12414SOL    HW240198   6.232   2.470   6.823 -0.3585  0.0386 -0.1623
12415SOL     OW40199   1.097   2.939   8.420 -0.3382 -0.3335  0.3045
12415SOL    HW140200   1.050   2.887   8.486  2.1231 -1.4316  1.3228
12415SOL    HW240201   1.143   2.874   8.367  0.5064  0.6979 -0.2639
12416SOL     OW40202   5.572   8.014   3.528 -0.3010 -0.1413  0.4095
12416SOL    HW140203   5.603   8.054   3.447 -2.3268 -0.7678 -0.7455
12416SOL    HW240204   5.476   8.015   3.520 -0.5018 -1.5560  2.1180
12417SOL     OW40205   2.181   8.477   8.297 -0.1622 -0.3831  0.3557
12417SOL    HW140206   2.109   8.473   8.359  0.4561  0.4577  1.1484
12417SOL    HW240207   2.240   8.545   8.331  0.2444  0.0474 -1.0892
12418SOL     OW40208   9.926   7.119   2.768  0.3652 -0.0459 -0.3067
12418SOL    HW140209   9.875   7.074   2.836  0.6669  0.0171 -0.0388
12418SOL    HW240210   9.949   7.050   2.706 -0.6684  0.0470 -0.8216
12419SOL     OW40211   1.494   8.070   1.490  0.5253 -0.5913  0.0769
12419SOL    HW140212   1.423   8.132   1.472  1.7302  0.1404 -2.7567
12419SOL    HW240213   1.533   8.101   1.572 -0.2119  1.1858 -0.1886
12420SOL     OW40214   0.949   9.150   5.436 -0.1762 -0.0396  0.6967
12420SOL    HW140215   0.925   9.217   5.372 -2.5739  0.7762  2.2903
12420SOL    HW240216   0.933   9.067   5.391  2.7224  0.3196 -1.2656
12421SOL     OW40217   7.246   2.379   5.828 -0.4461  0.2701 -0.3747
12421SOL    HW140218   7.265   2.438   5.755 -0.1939  1.0261  0.2950
12421SOL    HW240219   7.306   2.406   5.897 -0.0258 -1.0484 -0.1892
12422SOL     OW40220   8.113   1.510   6.867 -0.5587  0.0658  0.6118
12422SOL    HW140221   8.036   1.563   6.849 -0.5128  0.3037  1.1151
12422SOL    HW240222   8.187   1.571   6.862 -0.6202  0.3787  2.5769
12423SOL     OW40223   2.500  10.519  10.298  0.0795 -0.1134  0.7208
12423SOL    HW140224   2.551  10.470  10.363  0.2324 -1.2690 -0.2382
12423SOL    HW240225   2.410  10.489  10.312  0.0097  0.1551  0.8496
12424SOL     OW40226   6.035   3.872   4.645  0.1143 -0.2458  0.4203
12424SOL    HW140227   5.960   3.825   4.683 -0.0782 -0.5142 -0.2701
12424SOL    HW240228   6.095   3.885   4.718 -0.4562 -0.3325  0.9111
12425SOL     OW40229   0.251   2.744  10.344  0.0002  0.7459  0.5003
12425SOL    HW140230   0.217   2.823  10.386 -0.7498 -1.0824  3.6356
12425SOL    HW240231   0.325   2.718  10.398 -0.8245 -1.5948  0.5890
12426SOL     OW40232   6.682   1.088   0.821 -0.0219 -0.2838  0.1314
12426SOL    HW140233   6.629   1.085   0.741  0.2113 -0.9487 -0.0076
12426SOL    HW240234   6.625   1.054   0.889  0.5041 -1.8888 -0.1939
12427SOL     OW40235   7.393   0.201   2.833 -0.3881  0.2239  0.0676
12427SOL    HW140236   7.432   0.244   2.909  0.8762  1.3927 -1.1737
12427SOL    HW240237   7.333   0.266   2.797 -0.2201  0.0865 -0.4858
12428SOL     OW40238   1.061   5.455   5.460 -0.0718 -0.1370  0.1090
12428SOL    HW140239   1.023   5.374   5.494  0.9775 -0.6277  0.1516
12428SOL    HW240240   0.992   5.493   5.405 -1.2937 -0.0292  1.6665
12429SOL     OW40241   6.274   1.450   8.069 -0.1150 -0.0344  0.3945
12429SOL    HW140242   6.274   1.355   8.064  2.0427 -0.0285 -2.0468
12429SOL    HW240243   6.345   1.470   8.131 -0.4087 -0.0080  0.7241
12430SOL     OW40244   2.918   0.502   8.919  0.0241 -0.3086 -0.0795
12430SOL    HW140245   2.909   0.421   8.869 -0.8943 -0.1506 -0.1924
12430SOL    HW240246   3.009   0.527   8.908  0.2703 -1.2293 -0.1941
12431SOL     OW40247   0.563   8.422   9.868  0.0338 -0.0652 -0.7217
12431SOL    HW140248   0.588   8.406   9.776  0.6674 -0.0396 -0.5562
12431SOL    HW240249   0.485   8.368   9.880  0.2443 -0.4797 -1.1311
12432SOL     OW40250   5.894   7.708   4.413 -0.2829 -0.4492 -0.3028
12432SOL    HW140251   5.915   7.767   4.340  1.4575 -1.0742 -0.3405
12432SOL    HW240252   5.806   7.676   4.392 -0.5301  0.7302 -1.2098
12433SOL     OW40253   5.187   1.980   0.129  0.2653  0.1859 -0.1933
12433SOL    HW140254   5.281   1.989   0.140  0.1588  3.4460 -0.9399
12433SOL    HW240255   5.159   1.926   0.203  2.3090  2.3348  2.3454
12434SOL     OW40256   8.808   8.547   1.158 -0.1014  0.3926 -0.8921
12434SOL    HW140257   8.795   8.489   1.084  2.1070  0.9258 -1.7770
12434SOL    HW240258   8.852   8.624   1.122 -0.3038  1.3185  0.7194
12435SOL     OW40259   2.282   5.459   3.935 -0.2847 -0.1269  0.3075
12435SOL    HW140260   2.373   5.482   3.957  0.0001 -0.1657 -0.7577
12435SOL    HW240261   2.260   5.388   3.995  0.8612 -1.0366 -0.3020
12436SOL     OW40262   1.976   5.606   5.002 -0.2610  0.3558 -0.1100
12436SOL    HW140263   1.927   5.591   5.083  0.9656 -0.7739  0.4600
12436SOL    HW240264   1.915   5.582   4.932 -0.2347 -2.1326  0.6120
12437SOL     OW40265   9.734   0.072   9.352  0.4568  0.0694 -0.0017
12437SOL    HW140266   9.799   0.142   9.342 -0.2805  0.6574 -0.8311
12437SOL    HW240267   9.708   0.050   9.262 -0.2865 -0.3415  0.3027
12438SOL     OW40268   6.613   6.594   6.856 -0.0054 -0.0912  0.1928
12438SOL    HW140269   6.672   6.583   6.931 -0.5313 -0.4783  0.5566
12438SOL    HW240270   6.578   6.507   6.840 -1.6376  0.3916  0.9433
12439SOL     OW40271   6.328   8.997   6.415  0.5388 -0.4317  0.2495
12439SOL    HW140272   6.338   8.911   6.456 -0.0548 -0.6154  0.0213
12439SOL    HW240273   6.306   8.978   6.324  2.4485 -0.0259 -0.3353
12440SOL     OW40274   7.580   3.504   6.287 -0.2436  0.0663 -0.5104
12440SOL    HW140275   7.670   3.518   6.256 -0.1611  0.4822 -0.0853
12440SOL    HW240276   7.526   3.508   6.208  0.3034 -2.1436 -1.0779
12441SOL     OW40277   9.258   3.708  10.487 -0.2230  0.4866 -0.0008
12441SOL    HW140278   9.343   3.676  10.456 -1.4379 -3.0501 -0.1486
12441SOL    HW240279   9.271   3.726  10.580  0.5063 -0.9627  0.2045
12442SOL     OW40280   2.591   8.246   9.639 -0.1740 -0.6881  0.3241
12442SOL    HW140281   2.524   8.209   9.696 -1.7957  2.6574  0.8502
12442SOL    HW240282   2.669   8.255   9.694 -0.2877 -1.6806  0.6472
12443SOL     OW40283   0.112   6.747   2.332 -0.1128 -0.0815  0.3075
12443SOL    HW140284   0.173   6.691   2.379  0.1872 -0.3848 -0.4275
12443SOL    HW240285   0.165   6.787   2.262 -0.7018 -0.1992 -0.2181
12444SOL     OW40286   6.353   5.826   1.113 -0.3312 -0.3688  0.1608
12444SOL    HW140287   6.419   5.757   1.106 -0.7806 -0.6364 -2.9312
12444SOL    HW240288   6.302   5.803   1.191  0.8061 -2.3462  0.3799
12445SOL     OW40289   7.363   1.963   9.581 -0.0397  0.3634  0.3254
12445SOL    HW140290   7.294   1.934   9.640 -0.8993  2.3032  0.3404
12445SOL    HW240291   7.442   1.918   9.612 -0.8538 -0.1568  1.7188
12446SOL     OW40292  10.534   9.367   8.305  0.1605  0.5446 -0.3760
12446SOL    HW140293  10.535   9.345   8.212 -2.8366  1.2303 -0.6868
12446SOL    HW240294  10.517   9.283   8.348  1.2128  0.2829 -0.4432
12447SOL     OW40295   7.844   4.377   1.647  0.6540  0.3967  0.1985
12447SOL    HW140296   7.898   4.304   1.616  1.9414  0.1509  2.7688
12447SOL    HW240297   7.820   4.353   1.736 -1.0608  2.0006  0.2303
12448SOL     OW40298   9.216   1.168   4.924  0.0972 -0.1778  0.6203
12448SOL    HW140299   9.211   1.094   4.864  2.0681 -0.9952  1.3687
12448SOL    HW240300   9.207   1.245   4.868  0.2838 -0.9366 -0.4868
12449SOL     OW40301   5.617   9.936  10.490  0.6326 -0.0786  0.1780
12449SOL    HW140302   5.576  10.014  10.453  0.0163 -0.1379  0.7111
12449SOL    HW240303   5.546   9.893  10.539  1.0287 -0.8325  0.1023
12450SOL     OW40304   2.847   1.919   5.627  0.5294  0.9893 -0.3396
12450SOL    HW140305   2.807   1.911   5.540  0.3860  1.4080 -0.3119
12450SOL    HW240306   2.879   1.831   5.646  0.6790  0.9226 -0.8760
12451SOL     OW40307   2.948   1.427   6.052 -0.5725  0.1876 -0.2688
12451SOL    HW140308   2.894   1.496   6.090 -0.8071  0.3804 -0.9444
12451SOL    HW240309   3.037   1.460   6.060 -0.5330 -0.1708  0.9340
12452SOL     OW40310   6.704   3.192   1.966  0.3400 -0.2002  0.0658
12452SOL    HW140311   6.669   3.261   2.021  1.6612  0.6218 -0.0877
12452SOL    HW240312   6.721   3.235   1.882  0.9198 -0.7720 -0.1157
12453SOL     OW40313   6.752   0.120   2.320  0.6649  0.3217 -0.0465
12453SOL    HW140314   6.714   0.080   2.242 -0.2923  0.3763  0.3769
12453SOL    HW240315   6.843   0.090   2.320  0.1591 -1.3375 -0.0940
12454SOL     OW40316   2.346   3.670   8.775 -0.5387  0.4177 -0.0049
12454SOL    HW140317   2.346   3.742   8.712 -0.4528 -0.3748 -0.9335
12454SOL    HW240318   2.425   3.620   8.755 -0.5914  0.0646  0.6333
12455SOL     OW40319   5.319   6.072   5.579  0.0044  0.0467  0.7523
12455SOL    HW140320   5.351   6.127   5.651  1.6926  2.0355 -1.3748
12455SOL    HW240321   5.386   6.004   5.570  0.3764  0.4490  0.4001
12456SOL     OW40322  10.223   7.491   7.571  0.5222 -0.1908  0.1073
12456SOL    HW140323  10.278   7.425   7.529 -0.1312 -1.3757  1.0085
12456SOL    HW240324  10.133   7.464   7.550  0.2462  1.7153 -1.3700
12457SOL     OW40325   6.833  10.209   8.368  0.1381  0.2481 -0.1434
12457SOL    HW140326   6.773  10.275   8.402  0.2125  0.5615 -0.6150
12457SOL    HW240327   6.785  10.126   8.375 -0.7310  0.6172 -1.4205
12458SOL     OW40328   0.044   3.385   5.035 -0.2601  0.1860 -0.2159
12458SOL    HW140329   0.010   3.465   5.075  1.5913  0.4748  0.9027
12458SOL    HW240330   0.124   3.413   4.990  0.8653 -1.1184  0.8716
12459SOL     OW40331   6.506   3.409   5.851  0.1517  0.2414 -0.0959
12459SOL    HW140332   6.545   3.397   5.937  0.4459  0.3091 -0.2193
12459SOL    HW240333   6.574   3.453   5.800  0.7515 -1.5305 -0.9408
12460SOL     OW40334   7.112  10.259   1.638 -0.0696 -0.0909 -1.1045
12460SOL    HW140335   7.124  10.351   1.615 -0.5263 -0.3872 -2.6103
12460SOL    HW240336   7.028  10.256   1.683 -0.7488  0.0216 -2.3461
12461SOL     OW40337   8.645   6.409   5.965  0.3466 -0.2115  0.2194
12461SOL    HW140338   8.669   6.425   6.057 -2.0991  0.4362  0.8207
12461SOL    HW240339   8.670   6.489   5.920  0.7185 -0.1718  0.4828
12462SOL     OW40340  10.281   0.301   2.165 -0.3985 -0.0175 -0.0781
12462SOL    HW140341  10.375   0.302   2.182 -0.7936 -0.4147  2.4601
12462SOL    HW240342  10.271   0.351   2.084  1.9558  0.3290 -0.2138
12463SOL     OW40343   1.121   4.466   6.442  0.1286 -0.2722 -0.2350
12463SOL    HW140344   1.173   4.531   6.489  1.1234 -0.5208 -0.9529
12463SOL    HW240345   1.119   4.497   6.352 -0.9085 -0.3272 -0.2462
12464SOL     OW40346  10.608   8.812   2.191  0.2912  0.0934  0.2694
12464SOL    HW140347  10.558   8.730   2.185  1.3202 -0.4979 -0.5700
12464SOL    HW240348  10.565   8.870   2.129 -0.6534  0.3242  1.1140
12465SOL     OW40349   3.427  10.170   0.207 -0.1931  0.4602  0.3852
12465SOL    HW140350   3.343  10.211   0.186  0.8060  2.4773  0.0832
12465SOL    HW240351   3.476  10.238   0.252  1.7172 -0.2518 -0.5088
12466SOL     OW40352   0.765   4.476   3.694  0.3001 -0.2711 -0.0382
12466SOL    HW140353   0.779   4.543   3.761  0.4320 -0.3298 -0.0052
12466SOL    HW240354   0.683   4.433   3.720  0.8693 -0.9721  0.6759
12467SOL     OW40355   7.619   4.999   9.224  0.3157 -0.4523  0.5333
12467SOL    HW140356   7.617   5.033   9.135  1.2091 -1.7856 -0.0407
12467SOL    HW240357   7.671   4.919   9.217 -2.7616 -2.7164  1.5152
12468SOL     OW40358   7.811   1.984   7.915 -0.7369 -0.2248  0.5942
12468SOL    HW140359   7.737   1.972   7.975 -1.4841  2.3302  0.3329
12468SOL    HW240360   7.848   2.069   7.940 -1.0205  0.9152 -2.4473
12469SOL     OW40361   0.698   9.364   4.211  0.0029  0.4790  0.1925
12469SOL    HW140362   0.688   9.296   4.143 -0.1655 -1.3616  1.9704
12469SOL    HW240363   0.780   9.408   4.189  1.7817 -2.3592  0.6467
12470SOL     OW40364   6.105   7.832   6.054 -0.4717 -0.3204 -0.1308
12470SOL    HW140365   6.070   7.902   5.999 -0.5472 -1.1643 -1.2020
12470SOL    HW240366   6.200   7.845   6.050 -0.5109  0.0538  0.1347
12471SOL     OW40367   6.042   4.348   4.424 -0.4732  0.3556 -0.8776
12471SOL    HW140368   6.057   4.350   4.519 -0.6918 -0.6445 -0.8155
12471SOL    HW240369   5.976   4.281   4.411  0.7871 -0.7568 -1.8929
12472SOL     OW40370   3.307   6.355   1.995 -0.4396 -0.1038 -0.0132
12472SOL    HW140371   3.323   6.331   1.904 -0.7599  0.5409 -0.2439
12472SOL    HW240372   3.298   6.450   1.994 -1.2448 -0.1596  0.5644
12473SOL     OW40373   6.829   2.527   0.882 -0.1511  0.4693  0.0660
12473SOL    HW140374   6.825   2.441   0.839 -1.8300  1.1377 -1.2671
12473SOL    HW240375   6.893   2.576   0.830 -0.5717  0.5942 -0.3415
12474SOL     OW40376  10.017   1.549   8.151  0.0014 -0.0090  0.3738
12474SOL    HW140377  10.050   1.486   8.088 -0.8183 -1.0717  0.9719
12474SOL    HW240378  10.090   1.564   8.211  1.0206  1.5329 -1.1537
12475SOL     OW40379   1.441   6.415  10.217  0.0937  0.8330  0.0187
12475SOL    HW140380   1.416   6.449  10.131  1.4713 -1.4642 -1.3931
12475SOL    HW240381   1.437   6.491  10.274  0.7156  2.8595 -2.4152
12476SOL     OW40382   4.293   8.282   3.123  0.0387 -0.5120 -0.2049
12476SOL    HW140383   4.218   8.308   3.070 -0.6468 -0.4839  0.7659
12476SOL    HW240384   4.325   8.363   3.163  0.4489 -0.5568 -0.4354
12477SOL     OW40385   8.987   1.299   2.059  0.0896  0.1703 -0.1766
12477SOL    HW140386   9.010   1.225   2.115 -0.9751 -0.3181 -0.3682
12477SOL    HW240387   8.984   1.263   1.971  0.9357  0.7541 -0.4524
12478SOL     OW40388   6.365   0.591   2.610 -0.2250  0.1665 -0.7090
12478SOL    HW140389   6.349   0.542   2.529 -0.9705 -0.4487 -0.2027
12478SOL    HW240390   6.315   0.672   2.600 -0.1980  0.1572 -0.9238
12479SOL     OW40391   8.468   1.451   8.187  0.2550 -0.1008 -0.2074
12479SOL    HW140392   8.539   1.390   8.169 -0.0029 -0.2226 -0.8329
12479SOL    HW240393   8.400   1.430   8.123 -1.0382 -1.0540  1.3721
12480SOL     OW40394   8.826   8.394   5.682 -0.0526 -0.8318 -0.1978
12480SOL    HW140395   8.831   8.436   5.596  2.7002 -2.2859 -0.8693
12480SOL    HW240396   8.916   8.370   5.703 -0.5423 -0.1245  3.3764
12481SOL     OW40397   2.891   9.804   3.693 -0.1147 -0.2677 -0.1139
12481SOL    HW140398   2.968   9.836   3.645  0.9410 -0.2401  1.5079
12481SOL    HW240399   2.846   9.883   3.723  0.3919 -0.2683  0.6810
12482SOL     OW40400   8.981   3.657   1.475  0.0262 -0.3614 -0.5376
12482SOL    HW140401   8.988   3.598   1.400  0.3807 -1.8049  0.5636
12482SOL    HW240402   9.067   3.699   1.481  0.6172 -1.5990  0.0810
12483SOL     OW40403   9.416   2.858  10.571 -0.2190 -0.1576  0.2041
12483SOL    HW140404   9.435   2.913  10.495 -3.1273 -0.5983 -0.9663
12483SOL    HW240405   9.381   2.918  10.636 -0.9205 -0.2554 -0.0830
12484SOL     OW40406   0.561  10.320   0.299 -0.2625  0.4127  0.2167
12484SOL    HW140407   0.516  10.373   0.364  1.2884 -0.2056  1.8577
12484SOL    HW240408   0.542  10.229   0.325 -0.1986  0.1485 -0.6227
12485SOL     OW40409   3.022   4.057   7.559  0.5679 -0.9190 -0.3189
12485SOL    HW140410   3.072   4.066   7.640 -0.7110 -1.4902  0.5456
12485SOL    HW240411   3.025   3.964   7.539  4.0313 -0.4746 -3.0398
12486SOL     OW40412   3.123   1.743   2.776 -0.1504 -0.0931  0.2957
12486SOL    HW140413   3.035   1.758   2.812  0.9580  1.4432  2.5803
12486SOL    HW240414   3.163   1.680   2.835  0.6740  0.0893 -0.0503
12487SOL     OW40415   5.151   7.393   0.387  0.0611 -0.8567 -0.4242
12487SOL    HW140416   5.074   7.443   0.360  0.8784  1.1316  0.7014
12487SOL    HW240417   5.160   7.325   0.320 -1.7894 -0.2306 -1.3849
12488SOL     OW40418   8.502   5.129   4.871 -0.3715  0.0256 -0.3799
12488SOL    HW140419   8.554   5.103   4.795 -0.6331 -1.0625 -0.2155
12488SOL    HW240420   8.495   5.048   4.923 -0.5324  0.6492  0.5954
12489SOL     OW40421   1.886   9.672   8.463  0.0938  0.2693  0.0929
12489SOL    HW140422   1.911   9.584   8.435 -0.9903 -0.3099  0.8825
12489SOL    HW240423   1.802   9.688   8.420 -0.8417 -0.0252  1.7237
12490SOL     OW40424   7.011   7.804   7.066  0.3453 -0.1851  0.0909
12490SOL    HW140425   6.982   7.807   7.157  2.3814  0.0314  0.8007
12490SOL    HW240426   6.950   7.861   7.019 -0.9483 -0.5852  1.2374
12491SOL     OW40427   4.883   9.852   4.601 -0.7043 -0.1648 -0.1042
12491SOL    HW140428   4.953   9.908   4.635 -1.3375 -0.8082  2.5470
12491SOL    HW240429   4.921   9.810   4.524  1.6492 -0.0330  0.8962
12492SOL     OW40430   0.992   2.431   1.435  0.2635 -0.4718 -0.5525
12492SOL    HW140431   0.983   2.451   1.528 -0.7418 -0.4663 -0.6367
12492SOL    HW240432   0.972   2.338   1.428 -1.3489 -0.1370 -0.9501
12493SOL     OW40433   5.655   1.030   8.701 -0.4914  0.2214  0.2829
12493SOL    HW140434   5.682   1.116   8.667 -1.2191 -0.5377 -2.4762
12493SOL    HW240435   5.736   0.980   8.705 -0.4100  0.2846 -0.5108
12494SOL     OW40436   6.607   1.487   5.800 -0.1070  0.0912 -0.0183
12494SOL    HW140437   6.573   1.513   5.886  0.0570  0.6138 -0.1133
12494SOL    HW240438   6.609   1.567   5.749  0.4414 -0.0976 -0.2952
12495SOL     OW40439   9.773   4.362  10.193  0.2714 -0.1684 -0.3740
12495SOL    HW140440   9.683   4.363  10.162 -0.1168  2.0569  0.6263
12495SOL    HW240441   9.776   4.429  10.262  3.1395  1.3702 -1.7954
12496SOL     OW40442   6.713   3.556   5.667 -0.4032 -0.6762  0.1740
12496SOL    HW140443   6.768   3.534   5.741  0.5265  1.1543  0.1033
12496SOL    HW240444   6.658   3.628   5.698  0.0583  0.1802 -0.9036
12497SOL     OW40445   2.974   9.240   3.446 -0.4694 -0.0813  0.3887
12497SOL    HW140446   3.039   9.189   3.494 -1.3707 -1.0074  0.6795
12497SOL    HW240447   3.008   9.245   3.357  0.1416 -0.2861  0.6033
12498SOL     OW40448  10.175  10.681   0.014 -0.0884  0.4924 -0.5761
12498SOL    HW140449  10.270  10.692   0.010 -0.2142  1.3683 -3.5093
12498SOL    HW240450  10.157  10.608  -0.046 -1.2736  0.1262  0.1945
12499SOL     OW40451   5.011   4.678   4.184  1.0585  1.0739  1.1427
12499SOL    HW140452   4.950   4.681   4.258  0.4302  2.7620  0.6175
12499SOL    HW240453   5.014   4.768   4.152 -0.3275  0.1099 -2.1698
12500SOL     OW40454   2.298   2.683   4.892  0.3001  0.1126 -0.1869
12500SOL    HW140455   2.292   2.592   4.864  0.8382  0.8633 -3.0950
12500SOL    HW240456   2.388   2.708   4.871  0.8791  0.7464  2.6835
12501SOL     OW40457   7.353   5.407   4.365 -0.0361  0.1795  0.3352
12501SOL    HW140458   7.295   5.373   4.297  0.2420  1.8343 -0.7919
12501SOL    HW240459   7.423   5.451   4.317  0.7177  0.5240  1.6934
12502SOL     OW40460   6.666   8.455   9.122  0.3929  0.3174  0.1362
12502SOL    HW140461   6.609   8.531   9.134  0.6792  0.2885  1.8390
12502SOL    HW240462   6.610   8.391   9.079 -0.0437  1.2422 -0.7291
12503SOL     OW40463   4.451   7.184   7.194 -0.0025 -0.4218  0.1974
12503SOL    HW140464   4.392   7.110   7.182 -1.1161  0.5903 -1.0156
12503SOL    HW240465   4.533   7.157   7.154  0.8044 -2.2683  2.8694
12504SOL     OW40466   2.011   1.250   6.827  0.4353 -0.2535 -0.0985
12504SOL    HW140467   1.930   1.202   6.814 -0.5600  0.5536  2.5079
12504SOL    HW240468   2.074   1.208   6.769 -1.4298 -1.9484 -0.9881
12505SOL     OW40469   9.542  10.110   8.331 -0.3944 -0.2949  0.3428
12505SOL    HW140470   9.631  10.077   8.321 -0.1206  0.6156 -0.3477
12505SOL    HW240471   9.490  10.057   8.271 -0.1179 -0.0794 -0.0907
12506SOL     OW40472   8.994   9.308   4.331  0.3471 -0.1210 -0.1297
12506SOL    HW140473   9.063   9.295   4.266  0.2802 -0.2870 -0.1677
12506SOL    HW240474   9.008   9.239   4.396  0.2831 -0.0880 -0.0799
12507SOL     OW40475   3.148   6.614   5.382  0.0642 -0.5194  0.3361
12507SOL    HW140476   3.235   6.579   5.402  0.0107 -0.1046  1.3578
12507SOL    HW240477   3.157   6.709   5.392 -0.2918 -0.4018 -0.4089
12508SOL     OW40478   8.120   0.178   3.634  0.0086 -0.0406 -0.4786
12508SOL    HW140479   8.079   0.159   3.718 -0.5446  0.3845 -0.6413
12508SOL    HW240480   8.093   0.105   3.578 -0.7430  0.3527 -0.6490
12509SOL     OW40481   0.748   6.710   4.288  0.0621  0.0207  0.1859
12509SOL    HW140482   0.813   6.669   4.344 -1.2337 -2.5419 -0.0302
12509SOL    HW240483   0.664   6.688   4.329 -0.8006  0.2616 -1.3649
12510SOL     OW40484   8.342   8.083   5.797  0.2219 -0.4946  0.3207
12510SOL    HW140485   8.294   8.038   5.728 -3.5007  1.8236  1.0898
12510SOL    HW240486   8.415   8.125   5.752  0.8491 -3.0192 -1.2095
12511SOL     OW40487   2.828   0.593   7.573  0.2027 -0.3285 -0.3781
12511SOL    HW140488   2.760   0.526   7.583 -0.6923  0.8425  2.2604
12511SOL    HW240489   2.788   0.673   7.607  2.3363  0.8158 -0.4078
12512SOL     OW40490   8.639   5.704   4.966  0.0967 -0.1667 -0.0307
12512SOL    HW140491   8.543   5.714   4.969 -0.0581 -1.3676 -0.4795
12512SOL    HW240492   8.667   5.759   4.894 -0.0342  1.6173  1.2182
12513SOL     OW40493   4.555   3.095   2.944 -0.2201  0.3053 -0.2132
12513SOL    HW140494   4.631   3.140   2.982  0.9085 -1.0185 -0.8133
12513SOL    HW240495   4.580   3.080   2.853 -0.3602 -1.8867  0.0711
12514SOL     OW40496   1.554  10.135   9.002 -0.3083  0.2312  0.3511
12514SOL    HW140497   1.621  10.118   9.068 -0.7364  0.4489  0.8411
12514SOL    HW240498   1.581  10.081   8.927 -1.1933 -2.0971  1.5870
12515SOL     OW40499   6.582   5.287   3.846  0.2938 -0.3143  0.0197
12515SOL    HW140500   6.566   5.211   3.790  1.6073  0.3320 -1.3118
12515SOL    HW240501   6.675   5.306   3.833  0.2012  0.9556  1.0676
12516SOL     OW40502   1.506   7.047   4.359 -0.2925  0.1626 -0.0905
12516SOL    HW140503   1.485   7.136   4.331  1.9148 -0.0565 -2.9802
12516SOL    HW240504   1.473   7.041   4.449 -1.8641  3.3444 -0.3155
12517SOL     OW40505   7.317   6.331   7.215 -0.3255 -0.4589 -0.2685
12517SOL    HW140506   7.228   6.361   7.197  0.1518  1.0305 -0.2327
12517SOL    HW240507   7.305   6.247   7.260 -1.7541  0.1967  0.6595
12518SOL     OW40508   0.589   5.276   2.118  0.3039  0.3160  0.4564
12518SOL    HW140509   0.598   5.288   2.024  0.1444 -0.2240  0.3699
12518SOL    HW240510   0.664   5.322   2.156  1.1390 -0.6300 -0.0145
12519SOL     OW40511   6.385   3.861   1.419 -0.3117 -0.0601 -0.0094
12519SOL    HW140512   6.308   3.837   1.469 -0.4314 -2.4052 -1.1719
12519SOL    HW240513   6.451   3.795   1.443  0.5861  0.5634 -0.6808
12520SOL     OW40514   8.594   6.313   9.277  0.7145 -0.3193 -0.1750
12520SOL    HW140515   8.594   6.378   9.347  2.4172 -1.3411  0.8368
12520SOL    HW240516   8.507   6.321   9.238  0.2738  1.3658  1.0242
12521SOL     OW40517   2.443   2.086   0.654 -0.6370 -0.3070  0.5761
12521SOL    HW140518   2.375   2.054   0.713 -0.2299 -1.2490  0.5523
12521SOL    HW240519   2.438   2.028   0.577 -2.2698  1.9058 -1.1090
12522SOL     OW40520   4.867   4.070   9.553 -0.5665 -0.0219 -0.0050
12522SOL    HW140521   4.865   4.061   9.458 -0.8648 -0.7013  0.0612
12522SOL    HW240522   4.849   4.163   9.569  1.4475  0.5374 -0.6798
12523SOL     OW40523   4.609   9.827   3.244 -0.5087 -0.2529 -0.0152
12523SOL    HW140524   4.570   9.902   3.199 -0.6668  0.0488  0.6140
12523SOL    HW240525   4.545   9.802   3.311 -0.0084 -0.2987  0.4579
12524SOL     OW40526   5.463   9.551   6.584 -0.4976  0.2380  0.0973
12524SOL    HW140527   5.393   9.490   6.606  0.8392 -1.3829  0.0334
12524SOL    HW240528   5.525   9.499   6.533  0.6020  1.7130 -0.1360
12525SOL     OW40529   1.804   9.091   8.488 -0.4095  1.1815  0.1096
12525SOL    HW140530   1.780   9.010   8.443 -1.5858  0.0366  2.6218
12525SOL    HW240531   1.892   9.111   8.457 -0.1773 -0.9395 -0.7138
12526SOL     OW40532   7.508   2.308   2.126 -0.1061  0.1470 -0.2981
12526SOL    HW140533   7.602   2.323   2.133 -0.0494 -0.3718  0.0782
12526SOL    HW240534   7.497   2.214   2.140 -0.8895  0.5160  1.9244
12527SOL     OW40535   4.717   7.840   8.882  0.3484  0.2027  0.4098
12527SOL    HW140536   4.787   7.870   8.825  0.2109  1.1055  0.6964
12527SOL    HW240537   4.716   7.745   8.872  1.6629  0.1753  0.4724
12528SOL     OW40538   9.554   3.772   5.179  0.9743 -0.0455  0.2202
12528SOL    HW140539   9.631   3.803   5.228  1.8341  0.7284 -1.5269
12528SOL    HW240540   9.591   3.719   5.108 -0.3507 -3.2238  1.7208
12529SOL     OW40541   0.348   9.146   6.325  0.0557  0.6768 -0.0542
12529SOL    HW140542   0.387   9.075   6.377 -0.9798  0.8926  1.0799
12529SOL    HW240543   0.357   9.117   6.234  1.1475 -0.1245  0.2923
12530SOL     OW40544   2.467   7.572  10.306  0.0965 -0.7490 -0.0049
12530SOL    HW140545   2.449   7.482  10.332  0.3335 -1.0235 -0.7807
12530SOL    HW240546   2.542   7.566  10.247 -0.6518 -0.1755 -1.0381
12531SOL     OW40547   7.983   0.112   0.978 -0.8183  0.1389 -0.1315
12531SOL    HW140548   7.894   0.134   1.006 -1.7798 -0.2356 -2.6269
12531SOL    HW240549   8.002   0.030   1.024 -1.8397  0.1321  0.3137
12532SOL     OW40550   1.285   5.420   3.661 -0.1412 -0.4728  1.0329
12532SOL    HW140551   1.284   5.410   3.566 -1.3385  1.0834  0.8346
12532SOL    HW240552   1.301   5.514   3.675 -1.2904 -0.4366  2.3084
12533SOL     OW40553   8.073   3.394   1.679 -0.8668  0.5563  0.2379
12533SOL    HW140554   8.035   3.437   1.756  0.1426  1.9420  0.0075
12533SOL    HW240555   8.002   3.339   1.645 -0.9500 -1.1667  2.8783
12534SOL     OW40556   9.437   4.248   4.842  0.8665  0.4324 -0.1460
12534SOL    HW140557   9.500   4.320   4.839  0.7113  0.6350  0.9433
12534SOL    HW240558   9.476   4.185   4.904  1.1676 -0.5936 -1.3459
12535SOL     OW40559   5.643   7.709   3.563  0.8227  0.0710 -0.4508
12535SOL    HW140560   5.661   7.803   3.568 -1.0766  0.4194  1.8545
12535SOL    HW240561   5.684   7.673   3.642 -3.2266  0.0395  1.9217
12536SOL     OW40562   6.816  10.004   4.923 -0.1350  0.7613  0.0459
12536SOL    HW140563   6.720  10.007   4.920 -0.1235  1.3717  0.2367
12536SOL    HW240564   6.845  10.065   4.855  0.1084  1.9043  1.1362
12537SOL     OW40565   8.822   7.903   6.479 -0.3456 -0.4073  0.5800
12537SOL    HW140566   8.734   7.906   6.441 -0.5972 -0.1175  1.1628
12537SOL    HW240567   8.839   7.994   6.505 -0.3095 -0.6462  1.4229
12538SOL     OW40568   9.587   8.931   1.872  0.1238  0.0496  0.3053
12538SOL    HW140569   9.652   8.865   1.897 -0.7632 -0.8296  0.3361
12538SOL    HW240570   9.509   8.909   1.923 -0.9178 -0.2707 -1.3227
12539SOL     OW40571   1.087   6.797  10.178 -0.1486 -0.3469  0.0135
12539SOL    HW140572   1.061   6.885  10.152 -0.1332 -0.3051  0.1414
12539SOL    HW240573   1.036   6.779  10.257 -1.2471 -1.0141 -0.8238
12540SOL     OW40574   2.685   1.783   6.695 -0.4263 -0.0506 -0.1351
12540SOL    HW140575   2.613   1.721   6.680  0.3041 -0.9015 -0.2190
12540SOL    HW240576   2.755   1.730   6.733  0.2701  0.7027 -0.3307
12541SOL     OW40577   7.372   9.456   2.101 -0.3401  0.0331  0.7433
12541SOL    HW140578   7.348   9.477   2.011  0.9441  1.9267  0.7662
12541SOL    HW240579   7.468   9.448   2.099 -0.3157 -0.1874  1.8853
12542SOL     OW40580   7.116   4.981   0.197  0.1514  0.1314  0.3230
12542SOL    HW140581   7.202   4.999   0.159  0.1765 -0.9133 -0.1620
12542SOL    HW240582   7.083   4.906   0.147 -0.1615 -0.7764  1.8424
12543SOL     OW40583   6.869   5.476   6.101 -0.3666  0.7963 -0.2949
12543SOL    HW140584   6.833   5.389   6.116 -0.3204  0.4721 -1.9030
12543SOL    HW240585   6.873   5.516   6.188 -2.0100 -0.1663  0.2517
12544SOL     OW40586   4.537   6.172   3.112 -0.1903  0.1855  0.1259
12544SOL    HW140587   4.512   6.189   3.021 -0.8750 -1.2861  0.0109
12544SOL    HW240588   4.579   6.085   3.110  0.9870  0.6997  1.0204
12545SOL     OW40589  10.660   0.193  10.683 -0.3248  0.2427  0.2419
12545SOL    HW140590  10.644   0.231  10.770 -0.5349  0.2628  0.1945
12545SOL    HW240591  10.748   0.156  10.689  0.2858  1.6009 -0.0095
12546SOL     OW40592   2.617   3.549   9.937  0.2999 -0.3203  0.1250
12546SOL    HW140593   2.649   3.494  10.008  1.1997  0.5130  0.3886
12546SOL    HW240594   2.535   3.508   9.909  0.0230 -0.7564  1.5214
12547SOL     OW40595  10.090   1.040   9.591  0.1114  0.3145 -0.1546
12547SOL    HW140596  10.076   1.064   9.499 -0.0520 -1.9178 -0.7633
12547SOL    HW240597  10.141   1.113   9.626  1.8898  0.3385 -2.5253
12548SOL     OW40598   4.930   8.171   8.696 -0.2144  0.1842 -0.2749
12548SOL    HW140599   4.939   8.079   8.721  0.0935  0.1808 -0.3863
12548SOL    HW240600   4.892   8.168   8.609 -0.4949  0.1707 -0.1514
12549SOL     OW40601  10.413   5.089   8.191  0.7269  0.5815  0.7468
12549SOL    HW140602  10.492   5.082   8.244  0.6257  0.2104  0.8511
12549SOL    HW240603  10.351   5.136   8.247  0.3853 -0.4204  1.2483
12550SOL     OW40604   9.344   4.418   0.653  0.1484  0.4196 -0.0876
12550SOL    HW140605   9.310   4.406   0.564  1.1215 -0.3624 -0.3749
12550SOL    HW240606   9.348   4.329   0.689  0.4689  0.6564  0.4624
12551SOL     OW40607   4.191  10.334   7.559 -0.2589 -0.4446  0.4321
12551SOL    HW140608   4.160  10.422   7.581  0.9343 -0.6724  3.5736
12551SOL    HW240609   4.284  10.334   7.585  0.0245 -2.3557 -0.3847
12552SOL     OW40610   1.175   2.916   3.782  0.2297 -0.7121 -0.0030
12552SOL    HW140611   1.139   2.848   3.840  0.4875 -0.8525 -0.0064
12552SOL    HW240612   1.259   2.939   3.822 -0.3370  0.3717  0.5946
12553SOL     OW40613   1.192   6.396   2.774 -0.5622 -0.1323 -0.0435
12553SOL    HW140614   1.116   6.364   2.726  0.5624 -0.7881 -1.4424
12553SOL    HW240615   1.234   6.318   2.809 -0.6507  0.2451  0.9586
12554SOL     OW40616   3.570   8.742   2.081  0.8044  0.1538 -0.0801
12554SOL    HW140617   3.578   8.698   1.997 -1.9882  1.6273 -1.2395
12554SOL    HW240618   3.501   8.694   2.127  0.5124  0.8956  0.2808
12555SOL     OW40619   5.901   9.923   9.013  0.4170  0.2689  0.2004
12555SOL    HW140620   5.993   9.949   9.018  0.6622 -0.5593  0.0379
12555SOL    HW240621   5.894   9.878   8.929  0.5037 -2.1382  1.4138
12556SOL     OW40622   4.163   1.103   3.162 -1.1562  0.0908  0.3894
12556SOL    HW140623   4.226   1.076   3.096 -1.1022  0.1857  0.4018
12556SOL    HW240624   4.142   1.023   3.210 -0.5553  0.1761  0.8014
12557SOL     OW40625   0.875   6.525   4.435 -0.4944 -0.7622  0.5223
12557SOL    HW140626   0.787   6.491   4.415 -0.2735 -0.0305 -2.0163
12557SOL    HW240627   0.930   6.447   4.441 -0.8963 -1.1318 -0.3591
12558SOL     OW40628   9.182   9.806   2.498  0.2671 -0.1543 -0.4459
12558SOL    HW140629   9.133   9.879   2.461  0.8916 -0.1280 -1.2492
12558SOL    HW240630   9.116   9.753   2.542 -0.3437  0.3575 -0.7233
12559SOL     OW40631   6.847   2.039   7.818  0.0965 -0.1412 -0.3107
12559SOL    HW140632   6.775   2.102   7.827 -0.6395 -1.1212  1.1635
12559SOL    HW240633   6.809   1.956   7.844  1.4719 -0.9182 -0.6863
12560SOL     OW40634   6.672   2.330   3.752  0.0201  0.0459  0.0267
12560SOL    HW140635   6.736   2.394   3.782 -0.4087 -0.1586  1.4950
12560SOL    HW240636   6.617   2.378   3.690 -0.3408  1.1410  1.1501
12561SOL     OW40637   0.880   7.403   4.974  0.0455  0.3156  0.2203
12561SOL    HW140638   0.850   7.493   4.991  0.5341  0.1045  2.6295
12561SOL    HW240639   0.973   7.405   4.996  0.0976 -0.7470  0.1304
12562SOL     OW40640   2.500   1.040   8.366 -0.1293  0.5554  0.1946
12562SOL    HW140641   2.459   1.009   8.447 -0.1526  0.0514 -0.0051
12562SOL    HW240642   2.594   1.037   8.385 -0.1779  2.0892  0.7889
12563SOL     OW40643   5.711   7.222   6.022  0.0676  0.5405  0.2309
12563SOL    HW140644   5.655   7.221   6.099 -0.9059  0.6538 -0.4498
12563SOL    HW240645   5.728   7.315   6.007  0.7397  0.4841  0.6502
12564SOL     OW40646   2.141   7.095  10.211 -0.3946 -1.1536  0.0894
12564SOL    HW140647   2.179   7.171  10.167  0.2451 -0.5426  1.6596
12564SOL    HW240648   2.084   7.055  10.144 -0.1680  0.2609 -0.9877
12565SOL     OW40649   9.961   9.897   4.282 -0.1286 -0.0297 -0.3765
12565SOL    HW140650   9.935   9.808   4.256 -0.5902  0.2681 -0.9576
12565SOL    HW240651   9.953   9.948   4.202  1.6186  0.2355 -0.4248
12566SOL     OW40652   0.436   3.615   7.847  0.0406 -0.1515  0.3314
12566SOL    HW140653   0.495   3.641   7.776  0.4786 -0.1405  0.6949
12566SOL    HW240654   0.466   3.666   7.922 -0.9828  0.5060  0.3086
12567SOL     OW40655   1.262   4.392   4.674 -0.2651  0.1011  0.4978
12567SOL    HW140656   1.331   4.447   4.711  1.4013 -0.9155 -0.9307
12567SOL    HW240657   1.308   4.317   4.637 -2.2032 -0.8514 -0.1479
12568SOL     OW40658   4.371   4.933   2.702  0.3232  0.4501 -0.4350
12568SOL    HW140659   4.397   4.869   2.769  2.0458  0.6144 -0.8943
12568SOL    HW240660   4.333   5.005   2.751 -0.1055 -0.2083  0.2213
12569SOL     OW40661   7.185   7.565   2.920  0.1173 -0.4872 -0.5037
12569SOL    HW140662   7.242   7.517   2.858  0.9550 -0.3378  0.1368
12569SOL    HW240663   7.237   7.571   3.000 -0.8987 -0.5333  0.1727
12570SOL     OW40664   7.862   1.636   6.022  0.0997 -0.1051  0.1160
12570SOL    HW140665   7.911   1.629   6.104  1.1123  1.2186 -0.3416
12570SOL    HW240666   7.927   1.667   5.959 -0.8332 -0.4408 -1.0268
12571SOL     OW40667   1.015   5.489   4.390 -0.8643  0.7229  0.2285
12571SOL    HW140668   0.941   5.465   4.335  0.7754  1.3041 -2.4477
12571SOL    HW240669   1.087   5.433   4.361  0.2254  1.4133  1.4411
12572SOL     OW40670   5.417   9.336  10.285  0.1262  0.2094 -0.0297
12572SOL    HW140671   5.424   9.240  10.286 -1.8684  0.0234 -0.8713
12572SOL    HW240672   5.500   9.365  10.245 -0.2222 -1.3100 -2.0279
12573SOL     OW40673   5.118   9.592   0.561  0.3507 -0.5034  0.5321
12573SOL    HW140674   5.194   9.541   0.532  0.4152 -0.7700  1.1508
12573SOL    HW240675   5.147   9.683   0.556  0.5606 -0.5790  0.3372
12574SOL     OW40676   7.970   2.154   6.296 -0.2279 -0.1734 -0.7072
12574SOL    HW140677   7.886   2.109   6.301 -0.1927 -0.1542  0.6416
12574SOL    HW240678   7.953   2.238   6.339  0.7302 -0.6059  0.5641
12575SOL     OW40679   3.754  10.395   9.742 -0.1946  0.2407  0.3299
12575SOL    HW140680   3.678  10.440   9.779 -2.4262 -0.4497 -2.9803
12575SOL    HW240681   3.825  10.458   9.749 -1.5330  1.6906  1.7914
12576SOL     OW40682   4.054   1.339   9.908 -0.3543  0.3789 -0.2281
12576SOL    HW140683   4.064   1.419   9.960  2.2753  0.9409 -1.4651
12576SOL    HW240684   4.014   1.369   9.826 -2.0240 -0.0952  0.3624
12577SOL     OW40685   8.165   8.420   6.815  0.5722  0.3663  0.1193
12577SOL    HW140686   8.170   8.325   6.818  0.7102  0.4056  1.5186
12577SOL    HW240687   8.082   8.438   6.769 -1.7494 -0.5076  3.6201
12578SOL     OW40688   1.946   1.081  10.471  0.6107 -0.2346  0.2301
12578SOL    HW140689   2.039   1.089  10.447  0.7958 -0.0571  0.9802
12578SOL    HW240690   1.903   1.056  10.390  1.2116  0.4137 -0.3031
12579SOL     OW40691   1.660   0.181   9.132  0.3014  0.9662 -0.2090
12579SOL    HW140692   1.734   0.200   9.075  0.6141 -0.5187 -0.3315
12579SOL    HW240693   1.593   0.145   9.073  1.5257 -3.0518  0.5380
12580SOL     OW40694   4.399   6.037   5.273  0.3802  0.3990  0.2823
12580SOL    HW140695   4.409   6.049   5.178  3.5492  0.3171  0.4759
12580SOL    HW240696   4.346   5.958   5.282  1.7398 -0.8228 -1.5152
12581SOL     OW40697   6.102   9.924   8.413  0.0105 -0.4183 -0.5767
12581SOL    HW140698   6.068   9.837   8.436  0.0851 -0.2761  0.0928
12581SOL    HW240699   6.187   9.929   8.456  0.8262 -0.7077 -2.1156
12582SOL     OW40700   5.178   0.908   4.126  0.3384 -0.1650 -0.3518
12582SOL    HW140701   5.235   0.976   4.090 -1.2951  1.3232 -0.2309
12582SOL    HW240702   5.108   0.898   4.061 -0.9411  0.3028  0.9109
12583SOL     OW40703   1.756   3.310   9.773  0.0696  0.0824  0.1367
12583SOL    HW140704   1.850   3.300   9.763 -0.0921 -0.0252 -1.6252
12583SOL    HW240705   1.731   3.373   9.705 -1.3029 -0.9460 -0.3634
12584SOL     OW40706   0.059   2.737   2.715 -0.3276  0.3674 -0.8068
12584SOL    HW140707   0.051   2.703   2.626 -2.0806  0.6956 -0.8088
12584SOL    HW240708   0.058   2.832   2.705 -0.1520  0.4099 -0.4579
12585SOL     OW40709   6.683   4.180   9.346  0.0273 -0.3665 -0.6040
12585SOL    HW140710   6.656   4.227   9.425 -1.5344 -3.1002  0.6485
12585SOL    HW240711   6.671   4.242   9.275  0.6318  1.9141  1.1825
12586SOL     OW40712   5.853   5.530   0.578 -0.8142 -0.3197  0.1832
12586SOL    HW140713   5.773   5.534   0.631 -0.7590 -0.4903  0.2812
12586SOL    HW240714   5.920   5.571   0.633 -0.6910 -0.7657  0.3680
12587SOL     OW40715   7.664   5.595   9.879  0.0442 -0.3924  0.4186
12587SOL    HW140716   7.623   5.593   9.966  1.4727 -0.1908  1.1301
12587SOL    HW240717   7.753   5.563   9.894  0.4931  0.1768 -0.8798
12588SOL     OW40718   1.782   9.790   7.976 -0.3381 -0.0672 -0.7082
12588SOL    HW140719   1.749   9.707   7.942 -0.0010 -0.4545 -0.1054
12588SOL    HW240720   1.870   9.797   7.940  0.0332 -0.4951  0.0863
12589SOL     OW40721   8.835   3.051   8.482 -0.4888 -0.2680 -0.3725
12589SOL    HW140722   8.787   3.097   8.551  0.1249 -0.5703  0.2675
12589SOL    HW240723   8.927   3.054   8.510 -0.2746 -0.6955 -1.0053
12590SOL     OW40724   9.111   8.229   2.598  0.3999  0.0481 -0.6162
12590SOL    HW140725   9.088   8.249   2.508  0.8370 -1.0528 -0.9920
12590SOL    HW240726   9.028   8.206   2.640  0.0999  1.2162 -0.5451
12591SOL     OW40727   0.067   8.131   1.767 -0.1374  0.3417 -0.2639
12591SOL    HW140728   0.073   8.037   1.756 -1.5053  0.0621  0.9976
12591SOL    HW240729   0.068   8.166   1.678  1.7167 -0.7244 -0.7155
12592SOL     OW40730  10.426   8.856   4.720 -0.3861  0.0892 -0.1002
12592SOL    HW140731  10.473   8.838   4.801 -0.2927  2.7070  0.5270
12592SOL    HW240732  10.338   8.821   4.735 -0.0767 -0.3763  0.6947
12593SOL     OW40733   8.840   2.641   5.280 -0.1712 -0.2901  0.0227
12593SOL    HW140734   8.788   2.581   5.334 -1.8094  0.5196 -0.5561
12593SOL    HW240735   8.872   2.586   5.208 -1.8883 -0.4702 -0.6596
12594SOL     OW40736   5.984   5.474   4.181  0.2794 -0.0973  0.0495
12594SOL    HW140737   5.988   5.412   4.254  2.5478  2.0746  1.9718
12594SOL    HW240738   5.918   5.537   4.207  0.5742  0.2837 -0.1240
12595SOL     OW40739   3.599   8.908   4.377  0.3227 -1.0229 -0.2438
12595SOL    HW140740   3.620   8.819   4.406  0.7391 -1.2069 -1.0870
12595SOL    HW240741   3.622   8.964   4.451 -0.8637 -1.6935  0.6706
12596SOL     OW40742   2.148   0.885   6.026 -0.2589 -0.0205 -0.0474
12596SOL    HW140743   2.231   0.850   5.991 -0.8457  0.1540 -1.6990
12596SOL    HW240744   2.172   0.970   6.063  0.7361 -1.0348  1.8152
12597SOL     OW40745   4.691   3.266   2.772 -0.9031  0.2216 -0.2285
12597SOL    HW140746   4.714   3.274   2.679 -1.8868 -0.7468 -0.5735
12597SOL    HW240747   4.619   3.328   2.784  0.6851  2.0593  0.4758
12598SOL     OW40748   7.750   2.494   4.842 -0.0271 -0.0070  0.0526
12598SOL    HW140749   7.781   2.454   4.761 -1.6523 -0.9564 -0.1383
12598SOL    HW240750   7.744   2.422   4.904 -3.1565 -0.2560 -0.3416
12599SOL     OW40751   5.154   3.152   1.383  0.5492  0.2051  0.5321
12599SOL    HW140752   5.226   3.185   1.437  1.1059 -1.4439  0.8548
12599SOL    HW240753   5.196   3.096   1.318 -0.4672 -1.3626  1.1611
12600SOL     OW40754   7.877   2.121   8.435 -0.3362  0.0216 -0.2948
12600SOL    HW140755   7.942   2.075   8.489  0.8637  1.6929 -0.2322
12600SOL    HW240756   7.915   2.121   8.347 -1.6895 -1.5669 -0.9390
12601SOL     OW40757   8.773   6.705   2.982  0.3385  0.0655 -0.3542
12601SOL    HW140758   8.868   6.691   2.984  0.2823 -0.2800  1.1537
12601SOL    HW240759   8.736   6.617   2.972  0.1700  0.2037 -0.9867
12602SOL     OW40760   4.312   8.154   9.133  0.1471 -0.4177 -0.3457
12602SOL    HW140761   4.247   8.086   9.152  0.6284 -1.1873 -1.4002
12602SOL    HW240762   4.386   8.132   9.190 -0.6145  0.6841  1.1484
12603SOL     OW40763   1.568   3.010   0.073 -0.1147  0.4034 -0.0395
12603SOL    HW140764   1.496   2.948   0.086  0.3797 -0.9362 -2.9447
12603SOL    HW240765   1.537   3.069   0.004  0.2574  2.1054  1.1862
12604SOL     OW40766   5.828   6.241   5.255 -0.1270  0.1536  0.0886
12604SOL    HW140767   5.739   6.212   5.234 -1.1607  2.5638  0.8522
12604SOL    HW240768   5.835   6.328   5.217  2.3498 -0.3838 -0.9107
12605SOL     OW40769   7.353   5.541   4.106  0.8618 -0.2829 -0.0517
12605SOL    HW140770   7.287   5.495   4.157  0.6612 -1.3588 -1.2295
12605SOL    HW240771   7.349   5.501   4.019  0.2515  2.3460 -1.3483
12606SOL     OW40772   5.402   8.123   3.845  0.1501 -0.4439  0.3249
12606SOL    HW140773   5.372   8.163   3.763  2.4139 -0.0432 -0.3769
12606SOL    HW240774   5.493   8.151   3.854  0.6267 -2.2351  1.8766
12607SOL     OW40775   3.906   1.899   7.745  0.1815 -0.2591 -0.6059
12607SOL    HW140776   3.970   1.855   7.689 -0.0454 -0.2817 -0.8501
12607SOL    HW240777   3.950   1.906   7.830 -0.5724 -2.9584  0.1104
12608SOL     OW40778  10.387   5.080   6.076  0.0970 -0.0248 -0.5959
12608SOL    HW140779  10.371   5.018   6.005 -0.3571 -0.2117 -0.3297
12608SOL    HW240780  10.363   5.034   6.156  2.4466 -0.5053 -0.1004
12609SOL     OW40781   0.924   0.851   6.774  0.2467  0.0101  0.0463
12609SOL    HW140782   0.839   0.894   6.767  0.5417  0.4152 -1.5303
12609SOL    HW240783   0.913   0.787   6.844 -1.2945  0.1896  0.0064
12610SOL     OW40784   9.828   0.470   7.001 -0.6896  0.0870 -0.0845
12610SOL    HW140785   9.784   0.408   7.059 -0.4310  0.8577  0.9571
12610SOL    HW240786   9.841   0.421   6.919 -1.6017 -0.8179  0.2910
12611SOL     OW40787   9.111   0.406   7.437 -0.5913  0.0668 -0.3044
12611SOL    HW140788   9.103   0.409   7.532  0.7635 -0.8809 -0.1330
12611SOL    HW240789   9.087   0.317   7.413  0.8290 -0.2530 -0.6362
12612SOL     OW40790   0.112   5.075   4.627 -0.3391  0.0681 -0.3347
12612SOL    HW140791   0.177   5.116   4.570  0.6863 -0.7374  0.2126
12612SOL    HW240792   0.160   5.005   4.671 -1.6189 -0.6155  0.0141
12613SOL     OW40793   1.182   6.477   1.266  0.1624  0.5954  0.5820
12613SOL    HW140794   1.277   6.486   1.272  0.2148 -0.3153  1.4532
12613SOL    HW240795   1.149   6.565   1.288  0.8063  1.8097 -2.7588
12614SOL     OW40796   5.508   9.338   9.753 -0.4854 -0.1653  0.0805
12614SOL    HW140797   5.441   9.290   9.803  0.8457 -1.5849  0.6007
12614SOL    HW240798   5.482   9.326   9.661 -0.8934 -0.7922  0.2665
12615SOL     OW40799   6.407   0.689   4.651  0.5600  1.0721 -0.7886
12615SOL    HW140800   6.464   0.643   4.589 -0.4177  2.2663 -2.6646
12615SOL    HW240801   6.378   0.621   4.711  1.2597 -0.2344 -1.8581
12616SOL     OW40802   7.639   3.630   1.263  0.3363  0.8655  1.2040
12616SOL    HW140803   7.574   3.605   1.198  1.6524  0.9581 -0.2148
12616SOL    HW240804   7.591   3.684   1.326 -0.9816  0.7792  0.3188
12617SOL     OW40805   7.265   9.674   2.720 -0.0042 -0.3797  0.0482
12617SOL    HW140806   7.190   9.720   2.757 -1.7165 -0.9009 -2.5526
12617SOL    HW240807   7.267   9.700   2.628  1.5758 -2.2152 -0.5096
12618SOL     OW40808   4.012   8.130   6.057  0.5257 -0.0804 -0.0372
12618SOL    HW140809   4.027   8.141   5.963  1.2092 -1.1444 -0.0690
12618SOL    HW240810   4.071   8.059   6.082  0.3856  0.2321  1.2119
12619SOL     OW40811   9.716  10.402   1.850 -0.0714 -0.1854  0.1443
12619SOL    HW140812   9.802  10.372   1.820  0.0128 -0.9035  1.0505
12619SOL    HW240813   9.676  10.325   1.889 -0.3165  0.5943  1.5142
12620SOL     OW40814   6.825   4.403   3.691 -0.6493 -0.6050  0.2392
12620SOL    HW140815   6.878   4.391   3.612 -0.8894  0.3403 -0.0802
12620SOL    HW240816   6.735   4.391   3.661 -0.6160 -3.2604  0.9804
12621SOL     OW40817   1.404   8.258   0.785 -0.4658  0.5921 -0.1515
12621SOL    HW140818   1.491   8.223   0.805 -0.4510  0.4376 -0.4903
12621SOL    HW240819   1.382   8.312   0.862 -0.4101 -0.0073  0.2952
12622SOL     OW40820   3.619   4.934   4.532  0.3340 -0.5219 -0.1960
12622SOL    HW140821   3.535   4.971   4.506 -0.4890 -1.2442  1.3017
12622SOL    HW240822   3.684   4.987   4.486 -0.8696 -3.3254 -5.9598
12623SOL     OW40823   2.608  10.623   0.663 -0.6337  0.3492  0.2597
12623SOL    HW140824   2.690  10.661   0.697  1.0511 -1.2663 -1.7309
12623SOL    HW240825   2.602  10.656   0.573  0.2454 -2.9252 -1.1223
12624SOL     OW40826   1.385   2.619   3.814  0.1245 -0.4203 -0.4440
12624SOL    HW140827   1.458   2.585   3.866  0.3464  0.8921  0.1380
12624SOL    HW240828   1.410   2.708   3.793 -1.0885 -0.1187 -0.6860
12625SOL     OW40829   4.764   4.419   9.063  0.4573  0.9451 -0.3793
12625SOL    HW140830   4.802   4.386   8.981  0.5148  0.2953 -0.0971
12625SOL    HW240831   4.672   4.392   9.059  0.0916  2.1487 -0.8658
12626SOL     OW40832  10.408   8.308   4.891  0.2177 -0.0057  0.5267
12626SOL    HW140833  10.378   8.245   4.956  1.2806 -0.4370  0.5988
12626SOL    HW240834  10.367   8.279   4.809  1.4171 -1.3363  0.3703
12627SOL     OW40835   5.626   1.795   8.775 -0.1127 -0.4211 -0.5847
12627SOL    HW140836   5.609   1.854   8.701  1.0464 -0.7591 -1.1322
12627SOL    HW240837   5.600   1.847   8.852 -0.5242  0.2506 -1.1574
12628SOL     OW40838   2.314   5.903   7.646  0.1318 -0.1960 -0.0437
12628SOL    HW140839   2.395   5.878   7.603 -0.6509 -1.2463 -0.9776
12628SOL    HW240840   2.340   5.970   7.709  1.7575 -0.7365 -0.0916
12629SOL     OW40841   0.714   8.391   2.104  0.1894  0.0694  0.1751
12629SOL    HW140842   0.754   8.478   2.109  0.2987 -0.0271  1.0695
12629SOL    HW240843   0.787   8.330   2.115 -0.0876 -0.1119  1.1203
12630SOL     OW40844  10.505   5.947   0.054  0.1676 -0.4614  0.5087
12630SOL    HW140845  10.575   6.007   0.028 -0.5642 -0.4452 -1.5530
12630SOL    HW240846  10.426   5.982   0.013 -0.3445 -2.6332 -0.5358
12631SOL     OW40847   0.567   7.841   0.865 -0.3035 -0.5524  0.5030
12631SOL    HW140848   0.565   7.779   0.793 -1.9214  0.4728 -0.3948
12631SOL    HW240849   0.606   7.920   0.828 -0.8886 -0.1098  0.8011
12632SOL     OW40850   4.480   1.053   6.831  0.9150  0.1773 -0.1402
12632SOL    HW140851   4.510   0.962   6.824  1.3901  0.4129 -1.4702
12632SOL    HW240852   4.461   1.079   6.741 -2.1740  0.4429  0.4666
12633SOL     OW40853   6.214   8.357   7.430  0.0937  0.0375 -1.1037
12633SOL    HW140854   6.241   8.292   7.495 -0.3646  0.8122 -0.1256
12633SOL    HW240855   6.186   8.304   7.354 -1.1115 -0.9466 -0.0187
12634SOL     OW40856   0.910   0.021   1.691 -0.1382 -0.4408  0.0904
12634SOL    HW140857   0.928   0.068   1.773 -0.1423  0.5020 -0.4341
12634SOL    HW240858   0.936  -0.070   1.709  1.6381  0.1059  0.5633
12635SOL     OW40859   4.280   5.948   3.001  0.1663  0.5621 -0.1345
12635SOL    HW140860   4.329   6.025   3.028  0.5963  0.1065  0.3918
12635SOL    HW240861   4.344   5.892   2.956  0.3953 -0.4643  1.3763
12636SOL     OW40862   5.220   9.897   9.230  0.2830  0.4222  0.2463
12636SOL    HW140863   5.267   9.841   9.169 -0.7640  0.0978 -0.2952
12636SOL    HW240864   5.134   9.856   9.239  0.8101 -0.3361  3.0206
12637SOL     OW40865   6.507   0.071   2.484  0.5225 -0.1843  0.0283
12637SOL    HW140866   6.566   0.088   2.411 -1.0746  0.5682 -1.1526
12637SOL    HW240867   6.539   0.128   2.554 -0.2315  2.1646 -1.4141
12638SOL     OW40868   5.658   0.441   5.303  0.2682  0.0876  0.2532
12638SOL    HW140869   5.564   0.428   5.294  0.2631 -1.7343  2.2180
12638SOL    HW240870   5.681   0.503   5.234 -2.3104  0.3536 -0.4355
12639SOL     OW40871   0.445   4.563   0.723  0.0571 -0.0156 -0.0067
12639SOL    HW140872   0.480   4.637   0.674 -0.1612 -0.3336 -0.6564
12639SOL    HW240873   0.517   4.536   0.780  0.1125  0.7359  0.3010
12640SOL     OW40874   7.189   7.285   8.422  0.0992  0.1237  0.5010
12640SOL    HW140875   7.248   7.245   8.358  1.3245  1.1831  0.9212
12640SOL    HW240876   7.175   7.217   8.488  1.5244  0.0932  0.8085
12641SOL     OW40877   0.792   1.985   9.835  0.0102  0.1474 -0.4142
12641SOL    HW140878   0.708   1.949   9.864  0.9692 -1.2778  0.7164
12641SOL    HW240879   0.770   2.073   9.803 -1.8033  0.0807  0.5103
12642SOL     OW40880   3.794   2.532  10.489  0.4754 -0.0197 -0.3250
12642SOL    HW140881   3.760   2.600  10.431  0.5263 -0.5014 -0.9282
12642SOL    HW240882   3.878   2.506  10.450  0.6500 -0.1416  0.1253
12643SOL     OW40883   7.794   5.548   5.734  0.0291  0.3779  0.6448
12643SOL    HW140884   7.730   5.514   5.797  0.8725 -0.0081  1.3187
12643SOL    HW240885   7.865   5.483   5.735 -0.4111 -0.2458 -1.5442
12644SOL     OW40886   8.790   2.871   3.312  0.0829  0.3010  0.0536
12644SOL    HW140887   8.822   2.923   3.385 -1.3279  0.3745  0.6477
12644SOL    HW240888   8.832   2.786   3.323 -0.5121  0.1478  1.2575
12645SOL     OW40889   5.051   4.903   1.128 -0.3608 -0.0582 -0.1257
12645SOL    HW140890   4.995   4.836   1.168 -2.1083 -0.0003 -2.2846
12645SOL    HW240891   5.050   4.975   1.191 -1.9265 -0.4555  0.3490
12646SOL     OW40892   8.921   3.358   5.647  0.2018  0.0844  0.0774
12646SOL    HW140893   8.915   3.370   5.553  2.5744 -2.3932 -0.5243
12646SOL    HW240894   8.992   3.417   5.674 -0.2410  0.5326  0.2885
12647SOL     OW40895   2.160   2.494   4.170 -0.0066 -0.0518  0.2346
12647SOL    HW140896   2.245   2.523   4.205 -1.1681  2.4870  1.2469
12647SOL    HW240897   2.100   2.504   4.243 -1.5038 -0.1010 -0.9515
12648SOL     OW40898   9.800   4.169  10.012  0.1580  0.3571 -0.1338
12648SOL    HW140899   9.888   4.142   9.988  0.3047  0.8268 -0.1301
12648SOL    HW240900   9.812   4.247  10.065 -0.2470  0.2403  0.1369
12649SOL     OW40901   1.598   7.257  10.489  0.3206 -0.1240 -0.3001
12649SOL    HW140902   1.645   7.200  10.427  0.1352 -1.6910  0.9630
12649SOL    HW240903   1.553   7.198  10.547 -0.3705  1.3472  0.7189
12650SOL     OW40904   0.617   6.066   0.718  0.1778  0.5185  0.1030
12650SOL    HW140905   0.567   5.996   0.677  1.3585 -0.9993  1.1367
12650SOL    HW240906   0.622   6.135   0.652 -0.4231 -0.6568 -1.2085
12651SOL     OW40907   4.786   1.084   8.108  0.1891  0.3523  0.2951
12651SOL    HW140908   4.773   1.049   8.020  1.2653 -0.2425  0.3576
12651SOL    HW240909   4.750   1.017   8.166  0.1009  0.4288  0.3280
12652SOL     OW40910   1.857   0.130   2.971  0.2784 -0.6572  0.3277
12652SOL    HW140911   1.783   0.095   2.922 -0.4140 -2.0379  2.2203
12652SOL    HW240912   1.817   0.179   3.043  1.0712 -2.5544  2.1859
12653SOL     OW40913   7.470   8.301   6.223  0.8215  0.0979  0.5635
12653SOL    HW140914   7.518   8.308   6.140  2.4482 -0.3101  1.4260
12653SOL    HW240915   7.446   8.391   6.245 -1.7397  0.0397 -1.4674
12654SOL     OW40916   2.848   2.103  10.660 -0.2397 -0.5194  0.5233
12654SOL    HW140917   2.805   2.073  10.579  1.4136 -1.8312  0.0930
12654SOL    HW240918   2.776   2.116  10.721 -1.5675  0.6471 -1.1733
12655SOL     OW40919   4.597   5.767   7.612  0.1460 -0.1590 -0.1825
12655SOL    HW140920   4.609   5.858   7.583 -1.3524  0.1100 -0.0422
12655SOL    HW240921   4.585   5.717   7.531 -0.8883  0.0931 -0.2075
12656SOL     OW40922   3.876   4.061   6.770  0.3074 -0.3151 -0.4383
12656SOL    HW140923   3.853   4.036   6.680  1.9901  0.7202 -1.2022
12656SOL    HW240924   3.970   4.047   6.775  0.4188  0.7597  0.7895
12657SOL     OW40925   9.605   6.799   5.986  0.0210 -0.5396  0.3479
12657SOL    HW140926   9.642   6.711   5.993  3.5403  0.6327 -1.1595
12657SOL    HW240927   9.563   6.801   5.900 -0.8939 -0.9488  0.7656
12658SOL     OW40928   7.444  10.263   1.089  0.0480  0.1909  0.1464
12658SOL    HW140929   7.528  10.231   1.124 -0.6195 -0.6086  1.0555
12658SOL    HW240930   7.419  10.197   1.024  1.0290  1.4064 -1.5682
12659SOL     OW40931   3.815   3.537   1.521 -0.3366 -0.5354 -0.1804
12659SOL    HW140932   3.868   3.577   1.591 -0.5222  1.6104 -1.1908
12659SOL    HW240933   3.864   3.554   1.441 -2.2178  1.0196 -1.0772
12660SOL     OW40934   6.367   9.395   4.736 -1.0844  0.4848  0.4747
12660SOL    HW140935   6.424   9.347   4.676 -1.6762 -0.0442  0.3211
12660SOL    HW240936   6.282   9.395   4.693 -0.6408  3.7367 -0.6685
12661SOL     OW40937   0.587   4.025  10.031 -0.0040 -0.6918 -0.3650
12661SOL    HW140938   0.670   4.063  10.057 -0.6881  2.0288 -1.7628
12661SOL    HW240939   0.572   3.954  10.094  0.4934  2.5445  3.8431
12662SOL     OW40940   6.172   2.245   2.536  0.0801 -0.4257 -0.7556
12662SOL    HW140941   6.098   2.199   2.497  0.6757 -1.8648 -0.2464
12662SOL    HW240942   6.203   2.186   2.605  0.6247  0.9297  0.2024
12663SOL     OW40943   5.362   7.447   5.404 -0.2820  0.2327  0.1694
12663SOL    HW140944   5.442   7.396   5.412 -0.1886  0.4797  0.8916
12663SOL    HW240945   5.334   7.461   5.494 -1.5657 -0.5231 -0.0818
12664SOL     OW40946   7.292   0.088   4.827  0.2996  0.0249 -0.1491
12664SOL    HW140947   7.348   0.126   4.895 -0.0739  0.3276 -0.0099
12664SOL    HW240948   7.340   0.103   4.746  0.2221  0.6757 -0.0806
12665SOL     OW40949   4.265   7.591   5.238  0.3854  0.2154 -0.1457
12665SOL    HW140950   4.329   7.519   5.243  0.1333 -0.0460 -0.6617
12665SOL    HW240951   4.230   7.586   5.149  0.0618  0.7227 -0.0497
12666SOL     OW40952   5.683   5.359   9.724 -0.2984  0.1855  0.0901
12666SOL    HW140953   5.662   5.298   9.653  0.0847  1.2610 -0.9956
12666SOL    HW240954   5.765   5.325   9.761 -0.6796 -0.5745  0.2507
12667SOL     OW40955   6.667   9.610   6.318 -0.0932  0.3832  0.4932
12667SOL    HW140956   6.686   9.625   6.410  2.0264 -1.1341  0.3791
12667SOL    HW240957   6.698   9.522   6.301 -2.4744 -0.2433 -1.1993
12668SOL     OW40958   2.107   4.233   0.082  0.1686  0.4484 -0.0552
12668SOL    HW140959   2.125   4.171   0.011  2.2531  2.0439 -1.0635
12668SOL    HW240960   2.013   4.249   0.076 -0.2423 -1.7423 -0.4450
12669SOL     OW40961   1.544   4.035   0.745 -0.1414  0.1611  0.0715
12669SOL    HW140962   1.483   3.962   0.739 -1.2103  0.7790  2.3943
12669SOL    HW240963   1.593   4.032   0.663 -3.9816  0.2924 -2.4817
12670SOL     OW40964   0.579   4.208   9.562 -0.0682  0.1161  0.3363
12670SOL    HW140965   0.584   4.154   9.483 -0.7110 -0.4397  0.6626
12670SOL    HW240966   0.557   4.146   9.632  0.9790  0.5162  1.0515
12671SOL     OW40967   4.726   1.375   1.667  0.6134  0.1480 -0.5306
12671SOL    HW140968   4.817   1.357   1.692  0.7364  0.4468 -0.7437
12671SOL    HW240969   4.698   1.444   1.728  0.4571 -0.1006 -0.3221
12672SOL     OW40970   8.347   1.940   9.393 -0.1675 -0.2101  0.1339
12672SOL    HW140971   8.341   1.986   9.309  1.7988 -1.9973 -1.1098
12672SOL    HW240972   8.400   1.998   9.448 -1.4139  0.9461  0.1625
12673SOL     OW40973   1.311   4.963   6.716 -0.0735 -0.2708 -0.0594
12673SOL    HW140974   1.324   4.869   6.704 -0.4372 -0.4550  0.9439
12673SOL    HW240975   1.378   4.989   6.779 -0.8087 -0.1121  0.6679
12674SOL     OW40976   4.120   3.230   7.569  0.1549 -0.2202 -0.2862
12674SOL    HW140977   4.195   3.282   7.538 -0.1927 -0.7459 -2.0818
12674SOL    HW240978   4.115   3.156   7.509  0.3704 -2.2006  1.9555
12675SOL     OW40979  10.091   7.435   3.936  0.0946 -0.4122  0.1852
12675SOL    HW140980  10.016   7.427   3.996  0.8451  0.2963  1.2516
12675SOL    HW240981  10.150   7.496   3.980  0.4617  0.5105 -1.5104
12676SOL     OW40982   2.240   3.629   8.404 -0.6357  0.4156 -0.1266
12676SOL    HW140983   2.266   3.700   8.346  0.3083 -0.1841 -0.4488
12676SOL    HW240984   2.322   3.596   8.440 -1.0393 -0.6618 -0.1597
12677SOL     OW40985   6.628   1.021   2.757 -0.1183  0.3720  0.6242
12677SOL    HW140986   6.578   1.089   2.714  2.0575  0.2238 -2.4654
12677SOL    HW240987   6.605   0.940   2.710  0.5557 -0.2561  1.3388
12678SOL     OW40988  10.529  10.596   6.173  0.1997 -0.1677 -0.0219
12678SOL    HW140989  10.621  10.570   6.167 -0.1574 -2.0471  1.6889
12678SOL    HW240990  10.530  10.673   6.231  0.6784 -0.3683  0.2444
12679SOL     OW40991   3.048   3.938   7.939 -1.1975  0.5337 -0.5183
12679SOL    HW140992   3.128   3.885   7.938 -1.4862  0.0723  0.0178
12679SOL    HW240993   3.062   4.004   7.872  0.5035  1.7369  0.9331
12680SOL     OW40994   9.442   9.929  10.542 -0.3047  0.6388 -0.3015
12680SOL    HW140995   9.406   9.865  10.481 -0.8437  1.6758 -1.0979
12680SOL    HW240996   9.378  10.000  10.544 -0.0756  0.8422  1.1342
12681SOL     OW40997   6.761   2.281   2.647  0.1080 -0.3170  0.3893
12681SOL    HW140998   6.683   2.333   2.629  0.4692  0.0143 -0.2846
12681SOL    HW240999   6.829   2.321   2.593  0.7178 -0.6695  0.8759
12682SOL     OW41000   3.271   9.649   4.757  0.2970 -0.0754 -0.7149
12682SOL    HW141001   3.359   9.686   4.769  0.0667  0.4126 -0.4974
12682SOL    HW241002   3.277   9.561   4.793 -0.1568  1.0391  2.3847
12683SOL     OW41003   8.726   9.607   0.177  0.8375 -0.6212  0.4781
12683SOL    HW141004   8.757   9.688   0.218  3.6419 -1.5542  0.4090
12683SOL    HW241005   8.769   9.606   0.091  0.6272 -2.0345  0.3686
12684SOL     OW41006   2.562   8.084   6.938  0.1297  0.1945 -0.2217
12684SOL    HW141007   2.509   8.164   6.943 -0.6362 -0.3720  1.2912
12684SOL    HW241008   2.608   8.081   7.022 -0.0744 -1.1053 -0.1413
12685SOL     OW41009  10.356   3.589   0.004 -0.3963  0.4044  0.5419
12685SOL    HW141010  10.384   3.668   0.051  0.2165 -0.8469  2.3865
12685SOL    HW241011  10.347   3.618  -0.087  2.1732  2.0665  0.6956
12686SOL     OW41012   9.273   1.629   7.893  0.1575  0.5088 -0.4476
12686SOL    HW141013   9.307   1.657   7.978  0.8659 -0.9288 -0.2169
12686SOL    HW241014   9.185   1.596   7.912  0.8344 -1.1305  0.0243
12687SOL     OW41015   1.152   0.523   6.220 -0.1837 -0.4559 -0.1309
12687SOL    HW141016   1.071   0.573   6.209 -0.3116 -0.7812 -0.7037
12687SOL    HW241017   1.131   0.435   6.187  0.2762 -0.6658  0.1202
12688SOL     OW41018   7.703   0.543   3.097 -0.4127 -0.5286 -0.2804
12688SOL    HW141019   7.738   0.515   3.013  1.8516  1.0308  0.0306
12688SOL    HW241020   7.715   0.638   3.098 -2.1689 -0.2667  1.0577
12689SOL     OW41021   4.959   0.039   0.670 -0.2997 -0.4164 -0.2426
12689SOL    HW141022   4.876   0.027   0.624 -1.0214 -0.3787  1.0093
12689SOL    HW241023   4.953  -0.019   0.746 -0.5969  2.0140  1.6980
12690SOL     OW41024   3.012   6.815   3.373  0.0988  0.3111  0.3807
12690SOL    HW141025   3.050   6.800   3.460 -1.4108 -1.2791  0.8168
12690SOL    HW241026   2.921   6.789   3.382 -0.3546  1.1329 -1.4322
12691SOL     OW41027   7.241   9.676   5.627  0.4025 -0.0203 -0.3647
12691SOL    HW141028   7.296   9.690   5.550  0.5627  1.2247 -0.0406
12691SOL    HW241029   7.302   9.656   5.697  0.4115  0.6954 -0.1571
12692SOL     OW41030   5.868   0.987   2.500  0.1542 -0.0078 -0.2245
12692SOL    HW141031   5.775   0.966   2.509  0.4117 -0.4603  1.8007
12692SOL    HW241032   5.873   1.081   2.518 -0.1639  0.5961 -2.8290
12693SOL     OW41033   4.867  10.560  10.513  0.1206  0.6022  0.0359
12693SOL    HW141034   4.776  10.531  10.511  1.1454 -3.4441  1.7550
12693SOL    HW241035   4.882  10.587  10.604  1.0975 -1.0015  0.4036
12694SOL     OW41036  10.132   0.405   3.703  0.4256  0.3526  0.1759
12694SOL    HW141037  10.162   0.339   3.766 -2.7271 -0.1910  1.2556
12694SOL    HW241038  10.170   0.487   3.735  1.2552 -0.3533  1.0769
12695SOL     OW41039   2.058   9.467   8.355 -0.0951  0.1595  0.2284
12695SOL    HW141040   2.007   9.391   8.326  0.7359  0.1982 -1.4625
12695SOL    HW241041   2.148   9.434   8.362  0.3234  1.0461 -0.8227
12696SOL     OW41042   9.325   8.828   2.476  0.0515  0.6809  0.2486
12696SOL    HW141043   9.290   8.740   2.465 -0.9465  1.0449  0.3105
12696SOL    HW241044   9.416   8.816   2.501 -0.9485 -0.4410  3.8053
12697SOL     OW41045   3.833   2.383   2.750 -0.5420 -0.4662 -0.4926
12697SOL    HW141046   3.778   2.381   2.828 -0.6650 -0.7898 -0.5868
12697SOL    HW241047   3.783   2.436   2.687  0.3864  1.3844  0.2584
12698SOL     OW41048   9.838   5.316   7.091  0.3880 -0.0610 -0.2244
12698SOL    HW141049   9.784   5.237   7.100  0.6225 -0.0829  1.3098
12698SOL    HW241050   9.852   5.346   7.181  2.8724 -0.0249 -0.5474
12699SOL     OW41051   7.303   3.695   9.879  0.0251  0.7417  0.2790
12699SOL    HW141052   7.264   3.655   9.957 -1.4139  1.0930 -0.2328
12699SOL    HW241053   7.379   3.743   9.913  2.3286 -2.9070  0.8411
12700SOL     OW41054   8.382  10.142   6.560 -0.3221  0.5629  0.4677
12700SOL    HW141055   8.470  10.135   6.598 -0.6561  1.1201  1.3724
12700SOL    HW241056   8.398  10.156   6.467  0.5898  1.6486  0.7606
12701SOL     OW41057   0.841   2.679   1.664 -0.1463 -0.3942  0.0615
12701SOL    HW141058   0.776   2.749   1.653 -0.4582 -0.7001 -0.0409
12701SOL    HW241059   0.918   2.710   1.617 -0.4767 -0.3735 -0.4763
12702SOL     OW41060   1.226   2.051   3.487 -0.2647 -0.1679 -0.3167
12702SOL    HW141061   1.199   1.959   3.476 -2.6451  0.3022  0.9527
12702SOL    HW241062   1.175   2.099   3.422 -0.2252  0.4248  0.0834
12703SOL     OW41063   7.867   3.986   4.883  0.3641  0.4006  0.0632
12703SOL    HW141064   7.777   4.019   4.886  0.6638  1.6725 -2.3243
12703SOL    HW241065   7.916   4.046   4.939  0.0339  0.8484 -0.1175
12704SOL     OW41066   4.809   8.794   5.297  0.4954 -0.4336 -0.4217
12704SOL    HW141067   4.870   8.738   5.247  1.3054 -1.8503  1.9969
12704SOL    HW241068   4.773   8.736   5.364 -1.2323  1.1736  0.1053
12705SOL     OW41069   0.144   8.004   8.775  0.4758  0.6215 -0.3582
12705SOL    HW141070   0.094   7.932   8.813 -0.3596  1.3596 -0.0373
12705SOL    HW241071   0.211   8.024   8.840  0.3299  0.5284 -0.1798
12706SOL     OW41072   9.783   3.089   5.876 -0.4131 -0.3170  0.1804
12706SOL    HW141073   9.742   3.020   5.929  0.0612  0.0734  1.0859
12706SOL    HW241074   9.711   3.149   5.855 -0.7957 -0.9948 -0.4828
12707SOL     OW41075   3.837   7.305   3.950 -0.0145 -0.1032  0.1864
12707SOL    HW141076   3.816   7.284   4.041  0.9098 -1.1661  0.1865
12707SOL    HW241077   3.755   7.293   3.903  0.0597 -2.1888  0.4897
12708SOL     OW41078   8.084   2.368   3.821 -0.0380 -0.7373 -0.3101
12708SOL    HW141079   8.147   2.417   3.769  0.4535  0.2906  1.1893
12708SOL    HW241080   8.129   2.286   3.843 -0.3214 -1.2664 -1.6069
12709SOL     OW41081   7.467   8.180   4.846 -0.1281 -0.3564 -0.4110
12709SOL    HW141082   7.552   8.154   4.812  0.0214  0.0874 -0.3925
12709SOL    HW241083   7.419   8.098   4.860  0.3069 -0.6070 -0.3941
12710SOL     OW41084   4.477   8.450   5.191 -0.5778  0.2292  0.2916
12710SOL    HW141085   4.421   8.519   5.227  1.3547  2.3562 -0.4907
12710SOL    HW241086   4.468   8.460   5.096 -0.1129 -0.4603  0.1742
12711SOL     OW41087   8.644   8.294   8.945 -0.1839 -0.1324  0.8604
12711SOL    HW141088   8.582   8.236   8.901  0.5010  0.5702 -1.1638
12711SOL    HW241089   8.608   8.382   8.932  0.5315  0.1678  0.8482
12712SOL     OW41090   7.171   9.587   9.153 -0.0014 -0.0641  0.2363
12712SOL    HW141091   7.097   9.577   9.095 -0.6744  1.6464  0.7359
12712SOL    HW241092   7.247   9.562   9.100 -0.7129  0.2209 -0.9497
12713SOL     OW41093   6.153   3.097   5.884 -0.2660  0.6221  0.6747
12713SOL    HW141094   6.132   3.153   5.958 -2.1152  1.8796 -0.7096
12713SOL    HW241095   6.111   3.013   5.904 -1.8885  1.3546  0.5286
12714SOL     OW41096   6.040   6.960   2.442 -0.0875  0.3181 -0.6982
12714SOL    HW141097   6.031   6.993   2.531 -0.6371 -1.7482  0.0834
12714SOL    HW241098   6.129   6.925   2.439  0.1421  0.9350 -1.1740
12715SOL     OW41099   5.409   7.066   5.759 -0.6507 -0.3406 -0.1176
12715SOL    HW141100   5.469   7.007   5.713 -1.8755 -2.3765  0.7145
12715SOL    HW241101   5.322   7.026   5.746 -1.2491 -0.1247  2.5130
12716SOL     OW41102   7.393   1.241   1.010  0.0005 -0.0366 -0.6658
12716SOL    HW141103   7.482   1.222   0.983  0.4345  1.2167 -0.1886
12716SOL    HW241104   7.372   1.323   0.967 -1.1142 -0.5532 -1.1519
12717SOL     OW41105   4.559   7.608   8.474 -0.0326  0.4773 -0.3896
12717SOL    HW141106   4.550   7.702   8.490 -0.4018  0.2924  0.5680
12717SOL    HW241107   4.476   7.570   8.505  0.1591 -0.1788 -0.6510
12718SOL     OW41108   7.140   7.898   8.616 -0.8305  0.1161  0.2215
12718SOL    HW141109   7.178   7.980   8.647  1.5259 -0.7355 -0.1947
12718SOL    HW241110   7.112   7.852   8.695 -1.0724  0.7921  0.5357
12719SOL     OW41111   2.531   0.580   7.973  0.5397 -0.0401  0.4403
12719SOL    HW141112   2.444   0.543   7.955  0.6486  0.6224 -1.8091
12719SOL    HW241113   2.545   0.564   8.066 -0.5898 -3.1652  0.2080
12720SOL     OW41114   3.335   4.114   0.822 -0.0241 -0.7293  0.0945
12720SOL    HW141115   3.310   4.067   0.901  0.5123 -1.0613  0.0760
12720SOL    HW241116   3.259   4.167   0.800  0.3410  0.5091  1.6649
12721SOL     OW41117   8.202   9.823  10.495 -0.1521 -0.4215  0.3708
12721SOL    HW141118   8.170   9.892  10.552 -0.1007 -0.5070  0.5068
12721SOL    HW241119   8.137   9.753  10.503 -2.0033  0.8393 -2.3295
12722SOL     OW41120   9.846   1.125   1.474  0.1187  0.3637  0.5018
12722SOL    HW141121   9.829   1.208   1.430  1.0958  0.5246  0.4063
12722SOL    HW241122   9.899   1.076   1.411 -0.6236 -0.4316  0.4676
12723SOL     OW41123   4.031  10.482   7.267 -0.2934  0.1968  1.2614
12723SOL    HW141124   4.010  10.552   7.328  1.2148  0.6624  1.2719
12723SOL    HW241125   4.080  10.524   7.197 -2.5302 -0.2136 -0.6647
12724SOL     OW41126  10.169   6.773   0.085 -0.0840  0.4803 -0.4113
12724SOL    HW141127  10.197   6.854   0.127 -0.2705  0.3908 -0.1129
12724SOL    HW241128  10.153   6.797  -0.007  0.5708  0.6187 -0.4894
12725SOL     OW41129   2.148  10.604   9.621 -0.6711 -0.0946  0.3463
12725SOL    HW141130   2.180  10.609   9.711  0.6973 -1.1793 -0.0469
12725SOL    HW241131   2.070  10.660   9.620  0.6341  1.8624  1.6095
12726SOL     OW41132   1.386   0.545   0.046 -0.4321  0.0560 -0.4764
12726SOL    HW141133   1.478   0.571   0.050 -0.0164 -1.3484 -0.3101
12726SOL    HW241134   1.349   0.574   0.130 -0.2907  1.0650 -0.7433
12727SOL     OW41135   9.975   8.150  10.446  0.1205  0.1497  0.6752
12727SOL    HW141136   9.889   8.192  10.449 -0.2205 -0.5798  1.7572
12727SOL    HW241137   9.997   8.134  10.538  0.9143 -0.6662  0.3592
12728SOL     OW41138   6.932   9.135   8.325  0.3427 -0.0132  0.2303
12728SOL    HW141139   6.839   9.128   8.305  0.2841 -1.8451  0.9361
12728SOL    HW241140   6.951   9.058   8.379  2.2389  0.3856  0.2128
12729SOL     OW41141   1.538   4.904   6.244 -0.5565  0.0792 -0.0467
12729SOL    HW141142   1.464   4.912   6.185  0.3296  1.9616 -1.0049
12729SOL    HW241143   1.522   4.970   6.311  0.0809  0.2610 -0.0689
12730SOL     OW41144   3.242   9.567   4.062  0.2373  0.1382  0.2240
12730SOL    HW141145   3.189   9.515   4.001 -0.8324 -0.8236  1.9034
12730SOL    HW241146   3.177   9.614   4.115  1.1442  0.6815  0.8745
12731SOL     OW41147   0.840   7.007   8.212 -0.2158 -0.1343  0.2290
12731SOL    HW141148   0.881   6.994   8.126 -1.0640 -0.0972 -0.1958
12731SOL    HW241149   0.750   6.974   8.201 -1.0994  2.0689  0.3643
12732SOL     OW41150   2.468   2.145  10.551 -0.2811  0.1431  0.9016
12732SOL    HW141151   2.374   2.153  10.540 -0.1104  0.9375 -0.1623
12732SOL    HW241152   2.481   2.056  10.583 -1.3785 -0.0335  0.8926
12733SOL     OW41153   7.803   3.117  10.544  0.2780  0.3590 -0.0862
12733SOL    HW141154   7.846   3.161  10.471  2.2620  1.3556  1.5791
12733SOL    HW241155   7.845   3.031  10.547  0.8082  0.6235  0.3511
12734SOL     OW41156   7.323   4.450  10.541  0.1860 -0.1453 -0.2980
12734SOL    HW141157   7.270   4.436  10.463  0.6847  1.3833 -0.9268
12734SOL    HW241158   7.311   4.370  10.592 -1.5734 -0.4190 -1.0884
12735SOL     OW41159   7.522   2.794   8.251 -0.1826 -0.0171  0.0237
12735SOL    HW141160   7.474   2.714   8.230 -1.7880  1.1736 -1.0356
12735SOL    HW241161   7.461   2.847   8.302  0.0941  1.3633 -1.0039
12736SOL     OW41162  10.427   1.197   2.245 -0.1242 -0.1640  0.2356
12736SOL    HW141163  10.445   1.138   2.172  1.6831 -0.9910  1.2824
12736SOL    HW241164  10.451   1.147   2.323  0.0721  1.4476  1.2471
12737SOL     OW41165   7.045   2.051  10.406  0.3953 -0.9124 -0.3340
12737SOL    HW141166   7.063   2.000  10.485 -0.2881 -1.3059 -0.4205
12737SOL    HW241167   6.965   2.011  10.370 -0.1454  0.2049 -0.4172
12738SOL     OW41168   2.113   4.948   8.961  0.0464  0.1321  0.0444
12738SOL    HW141169   2.095   4.930   9.053 -0.3311 -0.5011 -0.1409
12738SOL    HW241170   2.204   4.976   8.958  0.2863 -0.5863  0.5149
12739SOL     OW41171   5.294   2.572   2.050 -0.4857  0.2028 -0.2235
12739SOL    HW141172   5.384   2.594   2.077 -0.7811  0.1774  0.7905
12739SOL    HW241173   5.305   2.499   1.989  0.1281 -0.3339  0.5226
12740SOL     OW41174   0.435   8.797   3.046 -0.1033  0.6749  0.1981
12740SOL    HW141175   0.438   8.739   2.969 -0.1145  1.9804 -0.8245
12740SOL    HW241176   0.351   8.842   3.038 -1.4518 -1.1905  2.5735
12741SOL     OW41177   9.258   1.395   4.796 -0.3921 -0.4074  0.2123
12741SOL    HW141178   9.352   1.408   4.800 -0.3223 -1.1350  1.9087
12741SOL    HW241179   9.221   1.482   4.814 -0.0784  0.0022 -1.0340
12742SOL     OW41180   0.526   5.676   3.527 -0.4838 -0.3209  0.0357
12742SOL    HW141181   0.476   5.757   3.515  0.3549  0.1557 -0.3670
12742SOL    HW241182   0.515   5.629   3.444  1.0847  0.5813 -0.7549
12743SOL     OW41183   4.233   5.894   7.923  0.4510  0.1454 -0.5571
12743SOL    HW141184   4.198   5.810   7.952 -0.2968  0.2388 -1.1552
12743SOL    HW241185   4.169   5.958   7.953  0.4646  0.3927 -1.0467
12744SOL     OW41186   1.861   1.022   9.775  0.3788 -0.4347 -0.3199
12744SOL    HW141187   1.940   1.053   9.819 -0.0613  0.3754 -0.0837
12744SOL    HW241188   1.810   0.978   9.843  0.3046 -0.3507 -0.3216
12745SOL     OW41189   7.012   1.121   9.086 -0.0515  0.2961 -0.1216
12745SOL    HW141190   7.022   1.202   9.137 -1.6195  0.5491 -0.1849
12745SOL    HW241191   6.942   1.073   9.130  0.5786 -0.8552 -0.3317
12746SOL     OW41192   3.144   2.313   2.281  0.6734  0.1317 -0.4720
12746SOL    HW141193   3.129   2.231   2.233  0.2701  0.7319 -1.3987
12746SOL    HW241194   3.215   2.356   2.234  0.6313  0.4874 -0.2179
12747SOL     OW41195   4.799   5.967   6.244  0.2420  0.4170  0.6456
12747SOL    HW141196   4.713   5.966   6.285 -0.0963  1.2014 -0.0163
12747SOL    HW241197   4.849   6.030   6.296  1.0479 -1.4137  2.2068
12748SOL     OW41198   1.464   9.048  10.189 -0.3695 -0.6674 -0.4285
12748SOL    HW141199   1.520   8.974  10.165  0.4288 -0.4774  0.7729
12748SOL    HW241200   1.511   9.125  10.158  0.2133 -0.4872  0.8202
12749SOL     OW41201   1.344   0.684   1.969  0.4320  0.7523  0.3888
12749SOL    HW141202   1.439   0.698   1.975  0.8325 -0.9217 -1.1620
12749SOL    HW241203   1.306   0.771   1.984  2.2247  1.5658  0.4859
12750SOL     OW41204   7.597   9.028   0.541 -0.1872 -0.2641  0.0846
12750SOL    HW141205   7.645   9.058   0.464 -0.4329  1.3543  0.5364
12750SOL    HW241206   7.507   9.021   0.512 -0.3396  0.7005  0.3114
12751SOL     OW41207   9.011   8.912   4.691 -0.5281 -0.2344 -0.9838
12751SOL    HW141208   9.042   8.857   4.619  1.3582 -2.5767  1.4079
12751SOL    HW241209   8.952   8.856   4.742 -0.5468  0.7821  0.1875
12752SOL     OW41210   5.710   8.651   1.748  0.0544 -0.3441 -0.2427
12752SOL    HW141211   5.756   8.717   1.695  0.7411 -1.0473 -0.5293
12752SOL    HW241212   5.776   8.586   1.769 -0.1667 -0.0026  1.6636
12753SOL     OW41213   5.390   3.137   4.201 -0.1634  0.1141  0.3982
12753SOL    HW141214   5.381   3.213   4.143  0.9725 -0.0232  0.0146
12753SOL    HW241215   5.419   3.066   4.143  1.5087  0.1039  1.1870
12754SOL     OW41216   3.479   6.777   0.552  0.2276 -0.4073  0.1356
12754SOL    HW141217   3.422   6.847   0.518 -0.9543 -1.5832 -0.3961
12754SOL    HW241218   3.562   6.821   0.570 -0.6137  1.2254  0.2443
12755SOL     OW41219   2.743   7.095   7.703 -0.4840 -0.0228 -0.0121
12755SOL    HW141220   2.766   7.181   7.669 -0.4340  0.1544  0.4665
12755SOL    HW241221   2.694   7.054   7.632 -0.4247  0.3618 -0.2789
12756SOL     OW41222   9.589   5.507   8.177 -0.4823 -0.2321  0.2688
12756SOL    HW141223   9.554   5.593   8.155 -1.8480 -0.6568  0.6491
12756SOL    HW241224   9.513   5.458   8.210  0.3360 -1.4565  0.4144
12757SOL     OW41225   1.179   7.879   8.188  0.0889  0.1573 -0.0987
12757SOL    HW141226   1.207   7.889   8.097 -0.3571  1.0168 -0.1568
12757SOL    HW241227   1.084   7.872   8.183 -0.0449  1.3907  0.3660
12758SOL     OW41228   7.855   8.607   6.048  0.3117 -0.0791 -0.3299
12758SOL    HW141229   7.810   8.650   6.121 -0.2711  1.0925 -1.3376
12758SOL    HW241230   7.790   8.606   5.977  1.2496 -0.0893 -1.2147
12759SOL     OW41231  10.688   2.887   3.822  0.4872 -0.3765 -0.3278
12759SOL    HW141232  10.707   2.891   3.728 -1.0417  0.0697 -0.6485
12759SOL    HW241233  10.662   2.976   3.845  1.1523 -0.4114  0.6050
12760SOL     OW41234   8.788   7.261   6.957 -0.4407 -0.0216  0.3841
12760SOL    HW141235   8.697   7.272   6.985 -0.4886 -0.5352  0.4291
12760SOL    HW241236   8.803   7.167   6.961 -0.5772 -0.1728 -1.7805
12761SOL     OW41237   2.650   2.705   5.950 -0.3720  0.3719  0.3625
12761SOL    HW141238   2.726   2.725   6.005  2.0355  0.1033 -2.5279
12761SOL    HW241239   2.648   2.777   5.886 -2.7675  0.4917  0.5053
12762SOL     OW41240   6.793  10.001  10.666  0.3722  0.4256  0.8809
12762SOL    HW141241   6.750  10.029  10.747  0.1640 -1.2865  1.3954
12762SOL    HW241242   6.766   9.910  10.654  0.6471  0.5504 -0.9689
12763SOL     OW41243  10.546   3.201  10.250  0.5315  0.1962  0.2867
12763SOL    HW141244  10.527   3.129  10.311  0.9324 -0.7718 -0.7008
12763SOL    HW241245  10.616   3.167  10.194  0.2049  1.0826 -0.6839
12764SOL     OW41246   9.801   1.732   4.518 -0.3998 -0.2245  0.3130
12764SOL    HW141247   9.732   1.665   4.518 -0.3417 -0.2898 -0.3772
12764SOL    HW241248   9.869   1.696   4.575 -0.2924 -0.8394 -0.1902
12765SOL     OW41249   0.866   6.970   4.139 -0.2644  1.0248  0.3938
12765SOL    HW141250   0.960   6.981   4.153  0.0509  0.1023 -0.8624
12765SOL    HW241251   0.848   6.881   4.167 -0.9156  1.4022  1.2327
12766SOL     OW41252   1.502   7.485  10.596 -0.2558 -0.3618 -0.4593
12766SOL    HW141253   1.422   7.510  10.550  0.7606 -0.4607 -2.4023
12766SOL    HW241254   1.522   7.397  10.564 -0.4886 -1.2272  1.6354
12767SOL     OW41255   9.457  10.602   8.415  0.2225  0.0177 -0.4161
12767SOL    HW141256   9.410  10.668   8.466 -0.8850 -1.8041  1.0259
12767SOL    HW241257   9.540  10.591   8.461 -0.1246 -0.4945  0.0963
12768SOL     OW41258   8.925   9.415   9.450 -0.0669  0.2214  0.0243
12768SOL    HW141259   8.982   9.345   9.481 -1.7205 -0.5169  1.5308
12768SOL    HW241260   8.868   9.435   9.524 -0.4026  2.3944 -0.7396
12769SOL     OW41261   1.459  10.138   8.129 -0.3084 -0.1260  0.2500
12769SOL    HW141262   1.506  10.219   8.149 -1.2191  0.6155 -0.5633
12769SOL    HW241263   1.521  10.088   8.075  0.1129  0.1648  0.4531
12770SOL     OW41264   1.978   8.766   4.632  0.4022 -0.1013 -0.6573
12770SOL    HW141265   2.046   8.706   4.602 -0.0727 -0.6924 -0.5610
12770SOL    HW241266   1.952   8.732   4.717 -1.8050 -1.4092 -1.7785
12771SOL     OW41267   9.413   7.234   8.063  0.6039 -0.1429  0.2254
12771SOL    HW141268   9.463   7.314   8.050  0.4034 -0.1138 -0.4388
12771SOL    HW241269   9.332   7.262   8.105  1.3390 -0.2542  1.7511
12772SOL     OW41270   7.361   3.229   8.924 -0.4512 -0.0447 -0.2018
12772SOL    HW141271   7.347   3.307   8.870  0.2841  0.8952  0.9039
12772SOL    HW241272   7.408   3.169   8.867 -0.7438  0.4431 -0.9770
12773SOL     OW41273   4.208   7.739  10.077 -0.0687 -0.4714 -0.0449
12773SOL    HW141274   4.237   7.814  10.129 -2.0627 -0.1319  0.6908
12773SOL    HW241275   4.239   7.663  10.125  0.0465 -0.1282  0.4347
12774SOL     OW41276   8.131   6.736   7.753 -0.4834  0.2732 -0.4101
12774SOL    HW141277   8.067   6.684   7.802  0.4140 -0.1641  0.3134
12774SOL    HW241278   8.170   6.674   7.691  0.8990 -0.0695  0.7481
12775SOL     OW41279   8.046  10.327   5.635 -0.1760 -0.1120  0.6629
12775SOL    HW141280   8.112  10.345   5.702 -0.0243 -0.7715  0.7012
12775SOL    HW241281   8.028  10.233   5.644 -1.1300  0.0655  0.6575
12776SOL     OW41282   5.154   9.970   2.697 -0.1690 -0.3119  0.2163
12776SOL    HW141283   5.191   9.977   2.785  1.0845 -0.3531 -0.2967
12776SOL    HW241284   5.066  10.007   2.706  0.5601  1.3213  1.0954
12777SOL     OW41285   8.168   5.732   3.210 -0.0418 -0.0317 -0.0471
12777SOL    HW141286   8.242   5.682   3.176  1.5847  1.9360  0.4364
12777SOL    HW241287   8.126   5.769   3.132  0.5611  0.2819 -0.2246
12778SOL     OW41288   6.438   9.513   6.990  0.1321 -0.3796 -0.2412
12778SOL    HW141289   6.353   9.537   6.952  0.9893 -0.1378 -2.1557
12778SOL    HW241290   6.461   9.431   6.947  0.5922 -0.7835  0.7462
12779SOL     OW41291   5.617   6.956   5.974 -0.1589  0.3818  0.3615
12779SOL    HW141292   5.638   7.032   6.028  2.8563  0.8964 -1.3033
12779SOL    HW241293   5.626   6.987   5.884  0.0320 -1.6353 -0.3804
12780SOL     OW41294   0.226   4.333   7.100 -0.1805  0.2764  0.3801
12780SOL    HW141295   0.148   4.384   7.079  1.1768  2.1215 -0.4138
12780SOL    HW241296   0.296   4.370   7.046  1.2931 -1.2464  1.1174
12781SOL     OW41297   2.608   5.978   8.914 -0.1282  0.0067  0.0877
12781SOL    HW141298   2.538   5.950   8.972  0.9931  0.3988  1.7012
12781SOL    HW241299   2.652   5.897   8.888 -1.5840 -0.3214 -1.5788
12782SOL     OW41300   7.788   9.187   5.838  0.6829  0.3515  0.1191
12782SOL    HW141301   7.793   9.267   5.787 -2.4346  0.8310  0.3411
12782SOL    HW241302   7.768   9.118   5.775 -0.9536  0.5711  0.3318
12783SOL     OW41303   9.881   8.908   7.181 -0.0356 -0.4257  0.2388
12783SOL    HW141304   9.794   8.882   7.209 -0.2610  0.6789  0.5944
12783SOL    HW241305   9.939   8.878   7.251 -0.2553 -0.2181  0.5101
12784SOL     OW41306   5.362   2.828   2.423  0.0193  0.0465 -0.1440
12784SOL    HW141307   5.454   2.825   2.399  0.2951 -2.1114  0.9705
12784SOL    HW241308   5.352   2.911   2.471  1.2103  0.5862 -0.8023
12785SOL     OW41309   4.895   7.185   4.189  0.1352 -0.1547  0.1001
12785SOL    HW141310   4.917   7.119   4.123  2.5228  1.2448 -0.5862
12785SOL    HW241311   4.940   7.156   4.268  1.3127  0.6718 -0.2420
12786SOL     OW41312   9.061   1.693   8.084  0.2230 -0.2533 -0.2230
12786SOL    HW141313   8.992   1.760   8.078  0.7646  0.2102 -2.1766
12786SOL    HW241314   9.141   1.743   8.101  0.1680 -0.7565  1.6785
12787SOL     OW41315   1.362   7.530   5.817  0.2322  0.2561  0.3383
12787SOL    HW141316   1.382   7.608   5.868  1.8798  0.4342 -0.5058
12787SOL    HW241317   1.269   7.513   5.834 -0.2338  2.5077  0.3818
12788SOL     OW41318   5.122   3.585   6.261  0.0464 -0.3598 -0.0117
12788SOL    HW141319   5.160   3.646   6.324 -0.5711  0.3616 -0.3185
12788SOL    HW241320   5.050   3.634   6.221 -0.4814 -1.2974 -0.2484
12789SOL     OW41321   3.019   7.122   2.404 -0.0991 -0.0003 -0.4079
12789SOL    HW141322   2.984   7.175   2.333  1.7067  0.4354 -1.0207
12789SOL    HW241323   3.050   7.185   2.469 -1.3243 -0.3886  0.6063
12790SOL     OW41324   4.341   5.748   5.632  0.5680 -0.4705  0.3000
12790SOL    HW141325   4.383   5.828   5.599 -0.2249  0.5758  1.7283
12790SOL    HW241326   4.326   5.765   5.724 -3.4227 -0.5415 -0.1666
12791SOL     OW41327   7.769   5.451   5.461 -0.6117 -0.2439  0.6250
12791SOL    HW141328   7.841   5.488   5.411 -0.3210 -1.7229 -0.1125
12791SOL    HW241329   7.771   5.498   5.545 -0.1889  1.2492 -0.1872
12792SOL     OW41330   1.580  10.603  10.465 -0.5487  0.2688  0.3481
12792SOL    HW141331   1.544  10.686  10.434 -2.4931 -1.6864 -3.3547
12792SOL    HW241332   1.522  10.576  10.536 -1.0574  1.2038  0.2969
12793SOL     OW41333   5.286   4.316   2.416 -0.4979  0.4883  0.5127
12793SOL    HW141334   5.214   4.253   2.424 -0.2632  0.4163  2.4931
12793SOL    HW241335   5.316   4.330   2.505  2.1876  0.2847 -0.2680
12794SOL     OW41336   7.321   1.888   0.735 -0.1580 -0.6692 -0.3140
12794SOL    HW141337   7.341   1.972   0.692 -1.2365 -0.2223  0.0307
12794SOL    HW241338   7.399   1.835   0.720  0.6565  0.4833 -0.3220
12795SOL     OW41339   7.297  10.369   7.797 -0.4496 -0.4226  0.8338
12795SOL    HW141340   7.221  10.389   7.741 -1.5376 -0.5133  2.2422
12795SOL    HW241341   7.315  10.277   7.780 -0.1864 -0.2305 -0.0236
12796SOL     OW41342   2.911   2.490   5.310  0.0117  0.2435  0.5315
12796SOL    HW141343   2.899   2.409   5.359 -0.3770  0.1546  0.2965
12796SOL    HW241344   2.995   2.479   5.266 -0.5547 -0.5190 -0.3993
12797SOL     OW41345   8.381   9.795   0.306 -0.1800  0.0100  1.1795
12797SOL    HW141346   8.425   9.799   0.390  2.6363 -0.4453 -0.1453
12797SOL    HW241347   8.359   9.886   0.286  2.6612  0.7149  0.7800
12798SOL     OW41348   0.789   2.593   1.061 -0.0922 -0.0800 -0.9328
12798SOL    HW141349   0.757   2.653   1.129 -0.0550 -0.3467 -0.6759
12798SOL    HW241350   0.711   2.571   1.010 -0.3590 -0.8509 -0.2122
12799SOL     OW41351   1.395   4.016   9.856 -0.2140 -0.1296  0.2185
12799SOL    HW141352   1.307   3.998   9.890 -0.1167 -0.5882  0.2437
12799SOL    HW241353   1.454   3.976   9.920 -0.0496 -2.1688 -1.1067
12800SOL     OW41354   1.224   7.409  10.380 -0.2466 -0.0289  0.5389
12800SOL    HW141355   1.193   7.444  10.296  0.2771 -0.1347  0.2987
12800SOL    HW241356   1.245   7.318  10.362  0.3308  0.0746  0.6633
12801SOL     OW41357   3.353   2.250   3.008  0.1772  0.3429  0.3850
12801SOL    HW141358   3.341   2.212   2.921 -2.9363  0.2311  0.7515
12801SOL    HW241359   3.436   2.213   3.039  0.6451 -0.7385 -1.9537
12802SOL     OW41360   9.308   8.058   4.290  0.2452  0.1767  0.2829
12802SOL    HW141361   9.364   8.129   4.262  0.4836 -0.3578 -0.6570
12802SOL    HW241362   9.224   8.076   4.248  0.3143 -0.0970  0.0185
12803SOL     OW41363   8.534   1.822   6.763 -0.3577  0.2936 -0.1099
12803SOL    HW141364   8.621   1.809   6.803  0.2556  0.3685 -1.3626
12803SOL    HW241365   8.519   1.916   6.768 -0.0655  0.3615 -0.4869
12804SOL     OW41366   4.276   3.772   6.068  0.2008  0.3141 -0.5072
12804SOL    HW141367   4.229   3.764   6.151  0.0211  0.5287 -0.5866
12804SOL    HW241368   4.230   3.713   6.008  1.2291 -0.9745 -0.0688
12805SOL     OW41369  10.114   6.044   4.933 -0.5251 -0.0444  0.1398
12805SOL    HW141370  10.097   5.951   4.922 -1.5200 -0.0155  1.1693
12805SOL    HW241371  10.061   6.069   5.009 -1.0760  1.5766 -0.7214
12806SOL     OW41372   4.365  10.230   2.968 -0.0581 -0.0284 -0.1453
12806SOL    HW141373   4.398  10.231   2.878 -0.1442 -2.0604 -0.2581
12806SOL    HW241374   4.272  10.208   2.958 -0.0262 -0.4465  0.4252
12807SOL     OW41375   8.561   4.367   9.580 -0.0363 -0.2010  0.1314
12807SOL    HW141376   8.510   4.449   9.581 -2.1549 -1.4219 -0.1847
12807SOL    HW241377   8.611   4.369   9.661 -0.3875  1.2020  0.3498
12808SOL     OW41378   8.961   8.431   0.421  0.3832  0.1403 -0.1388
12808SOL    HW141379   8.871   8.406   0.440  0.3824  1.1628  1.3587
12808SOL    HW241380   8.953   8.502   0.356  0.1398 -0.0917 -0.3644
12809SOL     OW41381   1.343   6.627   0.170 -0.4911  0.0594  0.5543
12809SOL    HW141382   1.336   6.541   0.211  1.4532  0.1821  1.2316
12809SOL    HW241383   1.270   6.677   0.207 -1.6238 -1.2419  0.1917
12810SOL     OW41384   7.763   7.147  10.599  0.4104  0.1363 -1.0046
12810SOL    HW141385   7.754   7.227  10.650 -2.9072  0.4642 -1.8748
12810SOL    HW241386   7.822   7.171  10.527  1.3276  1.0490  0.0155
12811SOL     OW41387   0.420   5.986   8.810 -0.2648  0.2278 -0.3218
12811SOL    HW141388   0.488   5.991   8.877 -0.0062 -2.1086 -0.3512
12811SOL    HW241389   0.456   5.929   8.742 -1.7753 -0.0699 -0.9232
12812SOL     OW41390   2.642   3.999   4.450 -0.2218  0.3430  0.9314
12812SOL    HW141391   2.632   3.998   4.546  1.1303 -0.0751  1.0889
12812SOL    HW241392   2.561   4.038   4.418 -0.5283  0.8650  2.2758
12813SOL     OW41393   8.598   9.367   2.450  0.3450  0.1047  0.2773
12813SOL    HW141394   8.559   9.454   2.437 -0.0819 -0.0386  0.6189
12813SOL    HW241395   8.575   9.319   2.371  0.4753  0.2590  0.1427
12814SOL     OW41396  10.624   8.238   6.882 -0.0123 -0.1600  0.3152
12814SOL    HW141397  10.564   8.187   6.937 -2.4810 -0.1394 -2.1393
12814SOL    HW241398  10.673   8.172   6.833  0.4328 -0.1591  0.7498
12815SOL     OW41399   8.997   1.171   3.243  0.1865 -0.0347  0.4956
12815SOL    HW141400   9.058   1.245   3.241 -0.7398  0.7365 -1.1560
12815SOL    HW241401   8.923   1.202   3.296 -1.1173  1.0502 -1.8291
12816SOL     OW41402   8.054   8.511   2.700 -0.3290  0.1585  0.3806
12816SOL    HW141403   8.088   8.540   2.784  0.4550  0.2771  0.0356
12816SOL    HW241404   8.097   8.427   2.684 -0.5046  0.1159  0.1251
12817SOL     OW41405   7.658   3.129   2.740  0.5638 -0.2968  0.2206
12817SOL    HW141406   7.606   3.068   2.688 -1.3688  0.5746  1.0114
12817SOL    HW241407   7.656   3.211   2.690  0.9676 -0.1725  0.4017
12818SOL     OW41408   4.086  10.436   4.548 -0.4018 -0.6451 -0.4635
12818SOL    HW141409   4.098  10.529   4.568 -0.2000 -1.1483  2.1694
12818SOL    HW241410   4.099  10.429   4.453 -0.6153  2.0117 -0.7472
12819SOL     OW41411  10.440   6.994   1.125 -0.1055  0.0652 -0.4477
12819SOL    HW141412  10.463   6.901   1.130 -1.9129 -0.3747  0.2641
12819SOL    HW241413  10.448   7.016   1.032 -0.9270 -1.1572 -0.8324
12820SOL     OW41414   1.532   2.245   7.917 -0.2407  0.3841  0.6030
12820SOL    HW141415   1.589   2.187   7.867  0.3278 -0.0843  1.7421
12820SOL    HW241416   1.491   2.301   7.852 -2.2053 -2.4074 -0.7677
12821SOL     OW41417   9.928   0.079   3.952 -0.7018  0.4401  0.4084
12821SOL    HW141418   9.840   0.050   3.976 -1.0403  1.6900  0.7346
12821SOL    HW241419   9.920   0.173   3.940  0.0645  0.2738 -1.9579
12822SOL     OW41420  10.216   8.092   7.892  0.6231 -0.1516 -0.5162
12822SOL    HW141421  10.131   8.051   7.878  0.2829  0.6415 -0.8363
12822SOL    HW241422  10.242   8.066   7.980  0.2046 -0.6645 -0.5451
12823SOL     OW41423   1.356   0.547   2.574  0.0566 -0.2100  0.0825
12823SOL    HW141424   1.357   0.451   2.573  1.4934 -0.2182  0.2083
12823SOL    HW241425   1.267   0.570   2.548 -0.6504 -1.5911  1.1335
12824SOL     OW41426   1.747   7.759   3.658 -0.3703  0.1991  0.5753
12824SOL    HW141427   1.833   7.721   3.638 -0.7847  0.6843 -2.6590
12824SOL    HW241428   1.768   7.841   3.703  1.0986  1.4769 -2.1612
12825SOL     OW41429   2.817   7.498   0.987  0.7932 -0.5996  0.1950
12825SOL    HW141430   2.901   7.520   0.948  0.7505  0.3448  0.5856
12825SOL    HW241431   2.758   7.489   0.912  1.3237 -1.6812 -0.1015
12826SOL     OW41432   8.265   3.090   4.379  0.2838 -0.2373 -0.8642
12826SOL    HW141433   8.274   3.130   4.466 -1.0821 -2.0905  0.1831
12826SOL    HW241434   8.295   3.000   4.391  0.7626 -0.3296 -2.5272
12827SOL     OW41435   3.787   7.278   4.950  0.3099 -0.6688 -0.6159
12827SOL    HW141436   3.692   7.289   4.964  0.5241  0.3350  0.1882
12827SOL    HW241437   3.816   7.226   5.026  0.6291  0.2679 -0.0871
12828SOL     OW41438   7.354   3.196   4.537  0.2958  0.2301 -0.1048
12828SOL    HW141439   7.443   3.205   4.569  0.9579 -2.0332 -1.1099
12828SOL    HW241440   7.345   3.103   4.514 -2.7244  0.0866  1.1360
12829SOL     OW41441   1.658   5.605   3.859 -0.2130  0.6033 -0.0062
12829SOL    HW141442   1.700   5.647   3.934  1.7372 -3.0673  1.1738
12829SOL    HW241443   1.604   5.536   3.897  0.0134 -0.7038 -1.9118
12830SOL     OW41444   7.419   4.860   1.683  0.9666 -0.0082  0.6198
12830SOL    HW141445   7.444   4.941   1.727  0.6857  0.6073 -0.3233
12830SOL    HW241446   7.499   4.830   1.640  0.9625  0.0124  0.5973
12831SOL     OW41447   7.242   6.989   6.173 -0.2032 -0.6102  0.0332
12831SOL    HW141448   7.244   7.078   6.138 -0.5849 -0.0578  1.3304
12831SOL    HW241449   7.167   6.948   6.130 -0.9319  0.1965  0.4921
12832SOL     OW41450   9.440   9.209   9.265  0.2663  0.0309  0.7465
12832SOL    HW141451   9.396   9.268   9.203 -0.1054 -0.8260  0.1809
12832SOL    HW241452   9.392   9.220   9.347  1.3296  1.8682  1.1958
12833SOL     OW41453  10.605   7.903   3.396  0.3245  0.4170  0.2103
12833SOL    HW141454  10.663   7.862   3.460  2.0612  0.0811 -1.5101
12833SOL    HW241455  10.656   7.975   3.359 -1.0332  1.2780 -0.0755
12834SOL     OW41456   5.219   8.628   5.381  0.1959  0.1588  0.2198
12834SOL    HW141457   5.286   8.600   5.319  0.9065  0.5980  0.7626
12834SOL    HW241458   5.268   8.654   5.459 -0.7103 -0.9231  1.1814
12835SOL     OW41459   1.212   4.192   2.300  0.0354  0.0833  0.2984
12835SOL    HW141460   1.258   4.108   2.294 -1.7837 -1.1381  1.9537
12835SOL    HW241461   1.237   4.227   2.386 -0.2227  0.5719  0.1770
12836SOL     OW41462   1.413   9.203   8.223  0.1153 -0.0273 -0.1826
12836SOL    HW141463   1.320   9.192   8.246  0.1672 -1.1789 -0.4293
12836SOL    HW241464   1.452   9.117   8.240  1.4454  0.7922  1.1883
12837SOL     OW41465   1.899  10.042   2.861  0.6102  0.0748 -1.2738
12837SOL    HW141466   1.944  10.093   2.928  0.0037  0.3638 -1.0809
12837SOL    HW241467   1.898   9.953   2.897 -2.1096  0.6716  0.4396
12838SOL     OW41468   1.897   9.329   1.766  0.1176  0.2850  0.0916
12838SOL    HW141469   1.892   9.284   1.851  2.4212  0.3085  0.3068
12838SOL    HW241470   1.835   9.283   1.710 -2.1059  0.7895  1.9777
12839SOL     OW41471   0.465   6.660   7.121 -0.0638  0.5642 -0.6949
12839SOL    HW141472   0.550   6.620   7.138 -0.4112  0.3241  0.5812
12839SOL    HW241473   0.483   6.729   7.057  1.5207  2.1005  1.3022
12840SOL     OW41474   2.190   6.251   2.757 -1.0204 -0.9186 -0.3446
12840SOL    HW141475   2.247   6.188   2.800  2.8266  1.5726 -1.3188
12840SOL    HW241476   2.140   6.290   2.828  1.8418 -0.0927  1.3588
12841SOL     OW41477   0.081  10.120   3.746  0.0975 -0.5992 -0.0988
12841SOL    HW141478   0.137  10.192   3.716  0.9683 -1.3408 -0.3016
12841SOL    HW241479  -0.008  10.152   3.734  0.4375 -0.2253 -1.8752
12842SOL     OW41480   0.276   4.682   9.674  0.5729 -0.0319  0.0210
12842SOL    HW141481   0.353   4.649   9.720  2.1568 -1.4186 -3.3138
12842SOL    HW241482   0.308   4.756   9.623 -0.3563 -0.4009 -1.1541
12843SOL     OW41483  10.009   6.819   6.499 -0.5727 -0.3815  0.3089
12843SOL    HW141484   9.994   6.838   6.407 -0.9980 -0.9130  0.2602
12843SOL    HW241485  10.101   6.793   6.504 -0.5794 -0.4638  0.0109
12844SOL     OW41486   5.623   0.771   3.005  0.3765 -0.5522 -0.0539
12844SOL    HW141487   5.672   0.813   2.935 -1.7176  1.7804 -0.2742
12844SOL    HW241488   5.669   0.795   3.085 -1.0253  2.9217 -0.1173
12845SOL     OW41489   2.386   5.174   2.444 -0.2626  0.2339 -0.7650
12845SOL    HW141490   2.406   5.235   2.515 -0.4708  2.4692 -2.5013
12845SOL    HW241491   2.417   5.089   2.476 -1.9746  0.7378  2.6732
12846SOL     OW41492   9.429   2.251   8.612 -0.1234  0.0052 -0.7070
12846SOL    HW141493   9.430   2.170   8.663 -1.7315  0.3680 -0.0317
12846SOL    HW241494   9.503   2.243   8.552  0.1262 -1.6736 -0.2178
12847SOL     OW41495   8.375   9.556   4.025  0.0957 -0.6285  0.4943
12847SOL    HW141496   8.454   9.609   4.014  0.3431 -1.0158  0.4045
12847SOL    HW241497   8.351   9.529   3.936 -2.3994  2.7068 -0.0434
12848SOL     OW41498  10.632   3.960   8.078 -0.3683  0.1324  0.5088
12848SOL    HW141499  10.702   4.014   8.115 -1.9022  1.7774  1.1398
12848SOL    HW241500  10.678   3.892   8.029  1.6889  2.0842 -0.4735
12849SOL     OW41501   1.804   5.464   2.265  0.1289 -0.3514  0.2273
12849SOL    HW141502   1.859   5.396   2.305  0.1445 -0.6740 -0.3259
12849SOL    HW241503   1.766   5.511   2.339  0.2698 -0.8429  0.6188
12850SOL     OW41504   4.075   1.804  10.494 -0.2125  0.0029 -0.2081
12850SOL    HW141505   3.986   1.828  10.468 -0.5132  0.0998  0.8555
12850SOL    HW241506   4.097   1.867  10.563  0.1139 -0.9199  0.5500
12851SOL     OW41507   4.164   6.711   0.672 -0.6909  0.5272  0.6084
12851SOL    HW141508   4.238   6.770   0.679 -0.0552 -0.1136 -0.4016
12851SOL    HW241509   4.156   6.693   0.578 -1.1503 -0.6277  0.8460
12852SOL     OW41510   5.092   1.100   1.620 -0.4598  0.8322 -0.1329
12852SOL    HW141511   5.093   1.005   1.612 -1.0792  0.8742 -0.7720
12852SOL    HW241512   5.064   1.131   1.534  0.9979  1.6433 -0.3560
12853SOL     OW41513   6.882   7.800   5.098  0.7080 -0.1383  0.0406
12853SOL    HW141514   6.866   7.894   5.096  1.7606  0.0806  0.9753
12853SOL    HW241515   6.859   7.774   5.188  3.7889 -0.1023  0.9292
12854SOL     OW41516   8.201   2.814   2.463  1.0140 -0.1009  0.0107
12854SOL    HW141517   8.153   2.868   2.527 -0.0367  0.0511 -0.8804
12854SOL    HW241518   8.193   2.725   2.498  1.7452  0.1541  0.8707
12855SOL     OW41519   1.162   2.255   3.932  0.6378  0.3696 -0.0359
12855SOL    HW141520   1.249   2.261   3.970  2.0117  0.6792 -2.9363
12855SOL    HW241521   1.145   2.342   3.897  0.6931 -0.4925 -2.4038
12856SOL     OW41522   3.447   5.684   1.787  0.1611 -0.2466  0.1469
12856SOL    HW141523   3.358   5.719   1.793  0.0856  0.4433 -3.2978
12856SOL    HW241524   3.444   5.624   1.713  2.8605  0.8620 -0.9663
12857SOL     OW41525   0.108   2.335   1.708 -0.0182 -0.6906 -1.0473
12857SOL    HW141526   0.185   2.388   1.729 -0.1647 -0.6525 -0.6053
12857SOL    HW241527   0.046   2.398   1.672 -0.4966 -0.4068  0.2306
12858SOL     OW41528   5.472   0.293   7.743  1.0042  0.2686  0.0495
12858SOL    HW141529   5.461   0.352   7.669 -1.2750  0.4915  0.4789
12858SOL    HW241530   5.408   0.323   7.807  1.2611 -1.3784  1.1543
12859SOL     OW41531   7.132   0.394   6.390  0.3262 -0.2149 -0.3236
12859SOL    HW141532   7.111   0.481   6.424  1.5411 -0.4001  1.0311
12859SOL    HW241533   7.186   0.411   6.313 -1.2595  0.2103 -1.3970
12860SOL     OW41534   1.096   6.372   3.439 -1.0315 -0.7676 -0.1657
12860SOL    HW141535   1.092   6.464   3.465  0.1843 -0.2994 -1.4830
12860SOL    HW241536   1.146   6.372   3.358 -1.3202 -2.5693 -0.3998
12861SOL     OW41537   1.760   9.980  10.348 -1.2118 -1.0842 -0.0107
12861SOL    HW141538   1.716   9.898  10.367 -0.3745 -1.1410  1.9224
12861SOL    HW241539   1.823   9.991  10.420 -1.1068  1.1011 -0.3588
12862SOL     OW41540   7.220   7.878   7.758  0.1561  0.1366 -0.0917
12862SOL    HW141541   7.298   7.911   7.713  0.8923 -1.6199 -0.1811
12862SOL    HW241542   7.249   7.861   7.848 -0.2147 -0.2201 -0.0370
12863SOL     OW41543   0.406   9.662   7.195  0.4084  0.5497 -0.0680
12863SOL    HW141544   0.386   9.572   7.221  0.9835  0.2118 -0.7649
12863SOL    HW241545   0.395   9.663   7.100 -0.4293  1.4446  0.0332
12864SOL     OW41546   5.123   8.879   3.385  0.3173  0.1244 -0.4078
12864SOL    HW141547   5.069   8.842   3.454 -1.4391  0.4315 -1.5355
12864SOL    HW241548   5.105   8.973   3.388 -1.0952 -0.0023 -2.2176
12865SOL     OW41549   9.874   9.276  10.030  0.1200  0.4791  0.0812
12865SOL    HW141550   9.867   9.181  10.020 -0.4635  0.5130  0.1091
12865SOL    HW241551   9.784   9.307  10.022  0.4452  1.1535 -1.1411
12866SOL     OW41552   8.587   1.185   2.871  0.2258 -0.0651  0.3625
12866SOL    HW141553   8.587   1.112   2.808 -1.8120 -0.2418  0.4905
12866SOL    HW241554   8.559   1.260   2.819  0.2678  0.1723  0.6824
12867SOL     OW41555   4.473   1.586   7.430 -0.4584 -0.1526 -0.0910
12867SOL    HW141556   4.561   1.559   7.401  0.7031  1.7668  1.3821
12867SOL    HW241557   4.440   1.640   7.358 -0.4815 -0.9387 -0.6851
12868SOL     OW41558   4.106   8.897   2.432 -0.0846  0.0011  0.5636
12868SOL    HW141559   4.201   8.895   2.445  0.1185  0.1993 -0.6921
12868SOL    HW241560   4.084   8.807   2.406  0.0197  0.3118 -0.6485
12869SOL     OW41561   8.464   8.076   7.133  0.1124  0.1756  0.0530
12869SOL    HW141562   8.443   8.168   7.146  0.6558  0.3189 -0.0707
12869SOL    HW241563   8.539   8.059   7.190  1.2502  0.3098 -1.3554
12870SOL     OW41564   1.912   9.322   6.140  0.2101  0.5565  0.2791
12870SOL    HW141565   1.838   9.265   6.159  0.8477  0.1399  1.6567
12870SOL    HW241566   1.885   9.408   6.174  0.2725  0.4479  0.6114
12871SOL     OW41567   8.083   4.145   6.949  0.2170  0.3803  0.0338
12871SOL    HW141568   8.170   4.185   6.955  0.6131 -0.6606  1.8257
12871SOL    HW241569   8.083   4.078   7.016 -1.5557 -0.4948 -0.7855
12872SOL     OW41570   0.749   4.930   8.451 -0.5138  0.4276  0.4752
12872SOL    HW141571   0.785   4.856   8.402 -2.4716 -1.2034  1.3687
12872SOL    HW241572   0.767   5.006   8.395 -0.1197 -0.9697 -1.4080
12873SOL     OW41573   7.984  10.540   5.456  0.0018 -0.1273  0.4501
12873SOL    HW141574   8.064  10.521   5.407  0.6047  1.7457  0.6211
12873SOL    HW241575   8.000  10.506   5.544  1.4771  1.9212  1.0588
12874SOL     OW41576   7.848   3.817   5.720  0.4601 -0.5873  0.1207
12874SOL    HW141577   7.796   3.800   5.798  0.9141 -1.1215  0.3204
12874SOL    HW241578   7.801   3.885   5.673 -0.0754 -0.6127  0.6161
12875SOL     OW41579   9.473   2.771   3.046  0.2824  0.3400  0.6354
12875SOL    HW141580   9.509   2.852   3.083  0.7569  0.9249 -1.0008
12875SOL    HW241581   9.512   2.701   3.099  1.0131  1.1234  1.1588
12876SOL     OW41582   0.694  10.133   4.140 -0.2632 -0.1286  0.5949
12876SOL    HW141583   0.765  10.152   4.078  0.7262 -0.4160  1.6189
12876SOL    HW241584   0.685  10.038   4.137 -1.1671 -0.0370 -0.1129
12877SOL     OW41585   3.630   3.915   4.372 -0.4255 -0.5759  0.6930
12877SOL    HW141586   3.662   3.890   4.459 -0.3244  0.5991  1.0108
12877SOL    HW241587   3.675   3.855   4.312  1.2330  0.0225  1.2648
12878SOL     OW41588   7.581   5.970   8.419  0.3867 -0.7392  0.1794
12878SOL    HW141589   7.588   5.981   8.324  0.2432  2.6877  0.4322
12878SOL    HW241590   7.664   5.929   8.444  1.4366  0.4065 -1.2222
12879SOL     OW41591   8.744   6.977   6.406  0.1127  0.2088 -0.7533
12879SOL    HW141592   8.765   7.068   6.428  1.0431  0.2418 -1.6515
12879SOL    HW241593   8.822   6.928   6.432 -1.0901 -0.6462  1.4276
12880SOL     OW41594   0.705   0.730   2.687  0.3485  0.2205 -0.7991
12880SOL    HW141595   0.702   0.736   2.782 -1.3143 -1.6005 -0.6806
12880SOL    HW241596   0.690   0.638   2.668  1.8632  0.3108 -2.8279
12881SOL     OW41597   6.540   8.675   5.963  0.1378 -0.1458 -0.3063
12881SOL    HW141598   6.473   8.627   6.011  0.5584 -0.4231  0.0027
12881SOL    HW241599   6.525   8.767   5.987 -0.9710 -0.0451 -1.2697
12882SOL     OW41600   4.231   7.843   0.742  0.0221 -0.0165 -0.1558
12882SOL    HW141601   4.148   7.853   0.695 -1.9986  0.9747  3.2987
12882SOL    HW241602   4.216   7.769   0.801  1.5260  0.3296  0.6900
12883SOL     OW41603   1.657   8.153   7.375 -0.5584 -0.1884  0.2805
12883SOL    HW141604   1.593   8.140   7.305  0.4669 -1.1310 -0.5158
12883SOL    HW241605   1.612   8.210   7.438 -1.7183  0.1933 -0.8450
12884SOL     OW41606   4.976   0.837   6.014 -0.3434 -0.6235  0.0382
12884SOL    HW141607   5.034   0.782   6.067  0.3283 -0.3016 -0.3503
12884SOL    HW241608   4.895   0.842   6.065  0.6210  0.5193  1.5691
12885SOL     OW41609   4.025   6.724   9.598 -0.0427  0.0652  0.5000
12885SOL    HW141610   4.059   6.702   9.685  1.9998  1.0281  0.0154
12885SOL    HW241611   3.984   6.643   9.568  1.5824 -1.1350  1.3151
12886SOL     OW41612   3.052   3.053   4.321  0.1939 -0.3856  0.2112
12886SOL    HW141613   2.966   3.024   4.292 -0.4809  0.7961  0.9602
12886SOL    HW241614   3.034   3.129   4.376  1.5797 -1.1782  1.8286
12887SOL     OW41615   9.486   0.496   7.696 -0.2695 -0.1113 -0.5332
12887SOL    HW141616   9.417   0.513   7.760 -1.1814  0.4334 -1.6260
12887SOL    HW241617   9.491   0.400   7.691  0.9557 -0.2135  1.5040
12888SOL     OW41618   5.326   4.441   3.006  0.4618 -0.2676 -0.2533
12888SOL    HW141619   5.337   4.503   2.934 -1.0505 -0.0706 -0.3386
12888SOL    HW241620   5.289   4.493   3.077  0.9752 -0.6800  0.3262
12889SOL     OW41621   9.094   3.241   4.627  0.0074 -0.6794 -0.0133
12889SOL    HW141622   9.141   3.158   4.637  4.1284  0.7473 -3.8701
12889SOL    HW241623   9.142   3.303   4.681 -2.1118 -0.3857  1.6540
12890SOL     OW41624   4.278   2.108  10.299  0.2384  0.0089 -0.3478
12890SOL    HW141625   4.273   2.196  10.337  1.4494  0.6807 -1.6110
12890SOL    HW241626   4.220   2.111  10.224 -1.2362 -0.9334  0.7132
12891SOL     OW41627   6.499   7.691   9.079  0.1235  0.0262  0.7730
12891SOL    HW141628   6.451   7.769   9.050 -0.0654 -0.1858  0.5163
12891SOL    HW241629   6.536   7.717   9.164  1.1377  0.8399  0.1036
12892SOL     OW41630   1.786   3.986   1.064  0.1390 -0.4656 -0.0590
12892SOL    HW141631   1.766   4.064   1.012 -1.1374  1.5348  3.1234
12892SOL    HW241632   1.701   3.942   1.074  0.6414 -1.6372 -0.8757
12893SOL     OW41633   0.544   7.408   0.328  0.1385  0.2487  0.6205
12893SOL    HW141634   0.514   7.481   0.383 -1.1442  0.1917  0.0107
12893SOL    HW241635   0.479   7.401   0.259  1.2550 -0.2615 -0.4224
12894SOL     OW41636   9.989   0.828   9.128 -0.0036  0.9558  0.3400
12894SOL    HW141637  10.079   0.810   9.102 -0.0328  0.0848  0.7953
12894SOL    HW241638   9.973   0.919   9.101  0.8311  0.9421 -0.2134
12895SOL     OW41639   1.845   9.036   0.777 -0.1734  0.0430 -0.3710
12895SOL    HW141640   1.805   9.020   0.691 -0.3728 -0.6495 -0.1549
12895SOL    HW241641   1.795   8.981   0.837  0.0013  0.4847  0.1835
12896SOL     OW41642   8.761  10.576   7.337  0.3570  0.5981  0.0988
12896SOL    HW141643   8.721  10.570   7.424  1.1133  0.6971  0.4593
12896SOL    HW241644   8.855  10.568   7.353  0.5669  1.4592 -0.6244
12897SOL     OW41645   4.015   8.469   4.401  0.4566 -0.0172 -0.4962
12897SOL    HW141646   4.011   8.477   4.496  0.3749  0.3592 -0.5324
12897SOL    HW241647   4.008   8.374   4.385  2.0373 -0.2214 -0.0629
12898SOL     OW41648   6.872   1.107   3.128 -0.4911  0.3351  0.2875
12898SOL    HW141649   6.912   1.063   3.203  1.5326  0.5632 -0.5874
12898SOL    HW241650   6.808   1.044   3.095  0.2664 -0.7454  0.8079
12899SOL     OW41651   6.921   7.341   2.394 -0.0154  0.1337  0.1501
12899SOL    HW141652   6.936   7.256   2.436  1.2818  0.3301  0.1207
12899SOL    HW241653   6.904   7.401   2.467 -1.6814 -0.2628  0.1325
12900SOL     OW41654   7.051   9.019   3.792 -0.0168 -0.2704 -0.1828
12900SOL    HW141655   7.132   8.977   3.822  0.3402  0.6829  0.2309
12900SOL    HW241656   6.981   8.970   3.835  0.3958 -0.3383  0.4165
12901SOL     OW41657   4.961   5.403   7.494 -0.6137 -0.0524 -0.2190
12901SOL    HW141658   5.020   5.478   7.483  0.4349 -0.8966 -0.5560
12901SOL    HW241659   5.012   5.340   7.544 -1.4620 -0.5814  0.0047
12902SOL     OW41660   8.821  10.434   6.250  0.4661  0.0854  0.5325
12902SOL    HW141661   8.853  10.345   6.264 -0.6166 -0.7603 -1.8018
12902SOL    HW241662   8.897  10.490   6.264  1.2104 -1.2109  1.8589
12903SOL     OW41663   3.873   9.074   1.540 -0.0051  0.2374 -0.3843
12903SOL    HW141664   3.891   9.167   1.551 -2.5823  0.8471 -0.6517
12903SOL    HW241665   3.904   9.033   1.621  1.5401  1.2306 -0.4402
12904SOL     OW41666   5.877  10.635   5.746 -0.0612  0.2413  0.3168
12904SOL    HW141667   5.821  10.571   5.790 -0.7818  0.4406 -0.2981
12904SOL    HW241668   5.894  10.597   5.660 -0.9572  1.1132 -0.2675
12905SOL     OW41669   5.730   7.697   7.584  0.3416 -0.2384 -0.2015
12905SOL    HW141670   5.785   7.623   7.559  0.3076 -1.0925  2.0159
12905SOL    HW241671   5.788   7.773   7.582  1.0879 -0.7936  0.0896
12906SOL     OW41672   0.971   1.073   0.869 -0.2715  0.7538  0.7052
12906SOL    HW141673   0.997   1.004   0.930  1.6059  0.4510 -0.3625
12906SOL    HW241674   1.007   1.153   0.908  0.3968  0.6461  0.3249
12907SOL     OW41675   3.857   8.176   9.535 -0.4066  0.0720  0.4246
12907SOL    HW141676   3.794   8.219   9.592 -0.4059 -1.0830  1.3320
12907SOL    HW241677   3.927   8.241   9.523  0.1407 -0.0429  2.6663
12908SOL     OW41678   8.117   7.560   2.953  0.0477  0.5689 -0.5769
12908SOL    HW141679   8.213   7.558   2.946  0.0095  1.3671 -1.4301
12908SOL    HW241680   8.094   7.652   2.940 -0.7719  0.5570  0.6446
12909SOL     OW41681   8.650   6.152   3.932  0.1151  0.4062 -0.5636
12909SOL    HW141682   8.696   6.231   3.961  0.8021 -0.3860  0.5733
12909SOL    HW241683   8.698   6.080   3.973 -1.9489 -0.4877  0.4058
12910SOL     OW41684   9.542   8.935   8.215  0.1700  0.1478 -0.0459
12910SOL    HW141685   9.467   8.881   8.243  1.0105 -0.9994  0.0659
12910SOL    HW241686   9.610   8.871   8.193  2.2574  1.1211  2.9127
12911SOL     OW41687   7.709   1.139   5.651  0.2213 -0.0367 -0.2063
12911SOL    HW141688   7.641   1.126   5.718  0.6832  0.3276  0.3480
12911SOL    HW241689   7.764   1.061   5.657  0.7599  0.3793  0.4477
12912SOL     OW41690   2.388   3.401   7.596  0.0095 -0.4391 -0.2330
12912SOL    HW141691   2.359   3.321   7.553 -0.8686 -0.4227  0.3115
12912SOL    HW241692   2.329   3.411   7.671 -0.9139  1.5320 -1.1419
12913SOL     OW41693   5.697   9.874   8.673  0.2064  0.3194  0.3670
12913SOL    HW141694   5.611   9.841   8.646  0.8243  0.9676 -2.7901
12913SOL    HW241695   5.732   9.805   8.729 -1.3608 -1.1188 -0.3164
12914SOL     OW41696   7.246   7.692   6.415 -0.7583  0.8267  0.0143
12914SOL    HW141697   7.167   7.715   6.365 -0.7480 -0.0727 -0.4443
12914SOL    HW241698   7.219   7.697   6.506 -1.9121 -1.2368 -0.1409
12915SOL     OW41699   8.752   6.171   0.016 -1.5357  0.2872  0.1069
12915SOL    HW141700   8.760   6.168  -0.079  1.9434  0.0375  0.2865
12915SOL    HW241701   8.799   6.094   0.047 -2.4038  0.4685  2.0755
12916SOL     OW41702  10.303   5.025   5.155 -0.8369 -0.3428 -0.2964
12916SOL    HW141703  10.258   4.960   5.102 -3.8864  1.7262 -0.5041
12916SOL    HW241704  10.324   5.096   5.094  2.9136 -1.1689 -0.2053
12917SOL     OW41705   5.364   4.389   6.585 -0.1275 -0.0998 -0.0394
12917SOL    HW141706   5.275   4.360   6.564 -0.2787 -0.0258  0.4882
12917SOL    HW241707   5.352   4.472   6.632  0.2467  0.1897 -0.4509
12918SOL     OW41708   5.697   5.162   6.271 -0.3613  0.1325  0.0822
12918SOL    HW141709   5.772   5.124   6.316 -0.0789  1.9641  1.2696
12918SOL    HW241710   5.711   5.256   6.277 -2.1326  0.4870 -0.7616
12919SOL     OW41711   8.682   7.385   4.898  0.6233 -0.1546 -0.0687
12919SOL    HW141712   8.691   7.300   4.941 -0.4553  0.0082  0.5111
12919SOL    HW241713   8.670   7.447   4.969 -0.0091  0.2821 -0.5427
12920SOL     OW41714   2.288   2.053   6.149  0.5913 -0.6468  0.0100
12920SOL    HW141715   2.196   2.029   6.139  0.2792  0.8380 -1.2139
12920SOL    HW241716   2.306   2.044   6.242 -0.0690 -3.3037 -0.0401
12921SOL     OW41717   5.322   2.807   5.740  0.8751  0.3946  0.1015
12921SOL    HW141718   5.233   2.836   5.717  1.5690  2.1129 -0.5850
12921SOL    HW241719   5.363   2.884   5.780  1.8843 -0.5454  0.9187
12922SOL     OW41720   4.557   6.834   2.201 -0.0068 -0.4152  0.1185
12922SOL    HW141721   4.588   6.889   2.273 -1.7363  2.0092 -0.8619
12922SOL    HW241722   4.493   6.775   2.242  0.3510 -0.3151  0.8460
12923SOL     OW41723   8.526   0.439   1.166  0.4850  0.0180  0.2564
12923SOL    HW141724   8.460   0.371   1.178  0.3386 -0.1044 -1.0901
12923SOL    HW241725   8.521   0.462   1.073  1.8261  0.5386  0.2868
12924SOL     OW41726   4.947   3.773   8.736 -0.7361 -0.2685  0.7872
12924SOL    HW141727   5.014   3.750   8.801  0.0696  0.7277  0.3420
12924SOL    HW241728   4.997   3.798   8.658 -1.6016  0.9365  0.5916
12925SOL     OW41729   6.474   0.526   4.112  0.2263  0.2128 -0.1824
12925SOL    HW141730   6.397   0.482   4.150  0.5502  0.9555  1.4082
12925SOL    HW241731   6.487   0.482   4.028 -0.5100 -1.5512  0.5665
12926SOL     OW41732   4.368   7.143   6.496 -0.7136  0.5400 -0.2450
12926SOL    HW141733   4.348   7.138   6.402  1.5502 -1.4138 -0.7310
12926SOL    HW241734   4.455   7.180   6.500 -0.6520  0.3042  1.0657
12927SOL     OW41735   5.456   9.665   8.798  0.0277  0.5454 -0.6887
12927SOL    HW141736   5.418   9.726   8.735 -1.5108 -1.3760 -1.7556
12927SOL    HW241737   5.531   9.627   8.751  0.5005  1.0390 -0.3341
12928SOL     OW41738   3.768   4.454   4.583  0.2887  0.4043  0.4983
12928SOL    HW141739   3.705   4.437   4.653 -0.9334  0.4393 -0.5618
12928SOL    HW241740   3.830   4.516   4.621  1.2064 -1.5627  2.3964
12929SOL     OW41741   0.589   9.296   1.916 -0.0630  0.2214  0.1448
12929SOL    HW141742   0.493   9.290   1.922 -0.0786 -1.3149 -1.1177
12929SOL    HW241743   0.605   9.333   1.829  0.5044 -1.5649 -0.5389
12930SOL     OW41744   5.607   4.999   8.668  0.3695 -0.1965  0.5426
12930SOL    HW141745   5.598   5.080   8.718  0.0568  1.1555 -1.5711
12930SOL    HW241746   5.518   4.975   8.644  0.5993 -0.1617 -0.3621
12931SOL     OW41747   3.778   7.744   4.639  0.4330  0.5364 -0.1096
12931SOL    HW141748   3.830   7.724   4.561  0.2899 -0.1435 -0.0381
12931SOL    HW241749   3.695   7.777   4.604  0.9620  1.8040 -0.2212
12932SOL     OW41750   0.858   1.780   7.166 -0.5313  0.1026 -0.2375
12932SOL    HW141751   0.836   1.703   7.219 -1.8963 -0.5679 -1.6901
12932SOL    HW241752   0.780   1.795   7.113  0.2529  1.6258 -1.0125
12933SOL     OW41753   8.621   4.970   9.543 -0.1792  0.2150  0.1071
12933SOL    HW141754   8.570   4.960   9.463 -0.8918  0.3579  0.5351
12933SOL    HW241755   8.663   5.055   9.534  0.3737 -0.1090 -0.4595
12934SOL     OW41756   3.751   1.787   1.254 -0.2735 -0.3366 -0.2213
12934SOL    HW141757   3.700   1.714   1.290 -0.5402  0.0290  0.1506
12934SOL    HW241758   3.785   1.832   1.331 -0.8299  0.4442 -0.4206
12935SOL     OW41759  10.264   6.829   8.134  0.2168 -0.2161  0.3031
12935SOL    HW141760  10.267   6.821   8.039  1.8377  0.4172  0.2523
12935SOL    HW241761  10.213   6.754   8.164  2.2813 -2.2304 -0.8973
12936SOL     OW41762   0.793  10.023   0.642 -0.0734 -0.1823  0.3470
12936SOL    HW141763   0.827   9.989   0.559  1.1677  0.5075  0.5587
12936SOL    HW241764   0.868  10.022   0.701 -0.5745  0.7833  1.0178
12937SOL     OW41765   0.821  10.082   8.202 -0.1996  0.7005 -0.4178
12937SOL    HW141766   0.757  10.093   8.273 -0.2648 -0.2511 -0.3158
12937SOL    HW241767   0.772  10.039   8.132  0.3293 -0.0481 -0.3358
12938SOL     OW41768   9.310   9.901   0.732 -0.1631 -0.2273  0.1266
12938SOL    HW141769   9.280   9.811   0.744  0.1883 -0.4716 -0.7730
12938SOL    HW241770   9.277   9.927   0.646  0.9502 -0.0021 -0.2462
12939SOL     OW41771   6.897   1.942   7.550  0.0604  0.0681  0.3591
12939SOL    HW141772   6.934   2.007   7.490  2.2597 -1.3192  0.1075
12939SOL    HW241773   6.905   1.983   7.637  0.7709  0.4306  0.1295
12940SOL     OW41774   0.652   6.120   5.766 -0.3568  0.0529  0.4368
12940SOL    HW141775   0.605   6.050   5.721  0.5832 -0.1755 -0.1980
12940SOL    HW241776   0.689   6.174   5.696  1.4685 -0.5392  0.8810
12941SOL     OW41777   8.772   3.820   5.365 -0.2744  0.3127  0.0136
12941SOL    HW141778   8.702   3.839   5.428 -1.4543 -2.4458 -0.3233
12941SOL    HW241779   8.726   3.793   5.285  1.1992  0.3301 -0.8740
12942SOL     OW41780   9.149   5.567   6.573  0.4125 -0.3630 -0.1024
12942SOL    HW141781   9.129   5.524   6.656 -0.1032  0.8609  0.4410
12942SOL    HW241782   9.088   5.529   6.510 -0.4793  0.0246  0.5093
12943SOL     OW41783   1.581   3.376   7.627  0.2402  0.2954  0.0139
12943SOL    HW141784   1.670   3.352   7.604 -0.2757 -2.1131  0.3172
12943SOL    HW241785   1.528   3.301   7.601 -1.6763  1.5279  0.1424
12944SOL     OW41786   4.755   8.111   7.705 -0.1919  0.2986  0.4160
12944SOL    HW141787   4.757   8.017   7.723 -1.9988  0.2215  0.4486
12944SOL    HW241788   4.833   8.127   7.652  0.3377 -1.1484  0.6986
12945SOL     OW41789   5.485   6.988   0.005 -0.6038 -0.6959 -0.4931
12945SOL    HW141790   5.435   7.012   0.083 -0.5799  0.4724 -0.8083
12945SOL    HW241791   5.555   6.932   0.037 -0.4725 -0.0644  0.3656
12946SOL     OW41792   2.464   3.557   8.502  0.2248  0.8717  0.5023
12946SOL    HW141793   2.473   3.478   8.555  2.0191  1.8480  1.7636
12946SOL    HW241794   2.540   3.557   8.444 -1.4373  0.0879 -1.8381
12947SOL     OW41795   1.364   1.697   5.468 -0.2717  0.1085 -0.3193
12947SOL    HW141796   1.272   1.692   5.442 -0.1188 -0.1130 -0.8196
12947SOL    HW241797   1.385   1.610   5.502 -0.2513  0.1620 -0.1946
12948SOL     OW41798   0.344   9.733   2.217  0.0175 -0.7327  0.1293
12948SOL    HW141799   0.437   9.751   2.204 -0.4871  0.1603 -3.1122
12948SOL    HW241800   0.337   9.638   2.214  0.7476 -0.7754 -0.6278
12949SOL     OW41801   4.557   0.795   6.738  0.5115  0.0875 -0.2636
12949SOL    HW141802   4.488   0.736   6.709 -0.4122  1.4378 -0.9389
12949SOL    HW241803   4.625   0.789   6.671 -0.3475  1.0446 -1.2630
12950SOL     OW41804   1.106   2.890   1.088 -0.0449  0.4791  0.5510
12950SOL    HW141805   1.021   2.922   1.117 -1.0760 -0.9458 -0.7189
12950SOL    HW241806   1.157   2.881   1.169 -1.4068  0.4758  1.4487
12951SOL     OW41807   7.788   9.108   0.366  0.3665  0.8353  0.4786
12951SOL    HW141808   7.863   9.052   0.382 -0.4176  0.2249  2.2369
12951SOL    HW241809   7.820   9.196   0.382  0.4691  0.4977  2.2830
12952SOL     OW41810   6.339   7.880   8.251  0.3468 -0.1755 -0.5252
12952SOL    HW141811   6.330   7.787   8.229 -0.4439  0.0354 -1.1493
12952SOL    HW241812   6.292   7.926   8.181  0.5537  0.6854 -0.1153
12953SOL     OW41813   8.322   5.492   0.427  0.3707 -0.1438  0.3450
12953SOL    HW141814   8.256   5.423   0.435 -0.0335  0.3710  1.9005
12953SOL    HW241815   8.282   5.568   0.471  1.8425  0.2942  0.9768
12954SOL     OW41816   2.775   0.768   5.401  0.1022 -0.4018 -0.4806
12954SOL    HW141817   2.750   0.677   5.385  0.4314 -0.4848 -0.5379
12954SOL    HW241818   2.840   0.787   5.333  0.8680 -0.4859  0.2119
12955SOL     OW41819   9.765   6.477   2.002 -0.4125  0.1091 -0.4587
12955SOL    HW141820   9.684   6.503   2.044  0.3633 -0.4210  1.4529
12955SOL    HW241821   9.810   6.560   1.983 -1.1575  0.3809 -1.0992
12956SOL     OW41822   4.629   9.757   7.660  0.4006 -0.1723  0.0429
12956SOL    HW141823   4.685   9.719   7.728 -0.3914 -0.1761  0.7084
12956SOL    HW241824   4.546   9.710   7.668  0.2807 -0.1397 -0.9046
12957SOL     OW41825  10.402   9.769  10.485 -0.2462 -0.3162  0.1947
12957SOL    HW141826  10.469   9.821  10.529  1.1306 -1.0979 -0.9140
12957SOL    HW241827  10.437   9.680  10.482 -0.6384 -0.4568 -1.6888
12958SOL     OW41828   4.924   6.327   8.158 -0.4863 -0.0677 -0.1351
12958SOL    HW141829   5.004   6.379   8.169 -0.6064 -0.0415  0.6700
12958SOL    HW241830   4.929   6.294   8.068  0.2438  0.2445 -0.2165
12959SOL     OW41831   5.741   4.961   1.854  0.6268  0.4666 -0.3368
12959SOL    HW141832   5.659   4.930   1.815  0.4965  2.2438 -1.5981
12959SOL    HW241833   5.717   5.041   1.901  1.2738 -0.2051  1.2138
12960SOL     OW41834   3.277   0.650   6.238  0.5270  0.0315 -0.3489
12960SOL    HW141835   3.217   0.700   6.293 -0.0443  0.5437 -1.4123
12960SOL    HW241836   3.342   0.714   6.209  1.4774 -0.4742  0.6125
12961SOL     OW41837   4.166   8.890  10.306 -0.1860  0.7800  0.2210
12961SOL    HW141838   4.079   8.928  10.292 -0.3651  0.2432 -0.1956
12961SOL    HW241839   4.148   8.806  10.348 -0.0874 -0.5344 -2.1438
12962SOL     OW41840   8.174   9.692   5.470 -0.1106 -0.0387  0.3204
12962SOL    HW141841   8.115   9.617   5.460  0.3911 -0.5016  0.7907
12962SOL    HW241842   8.258   9.653   5.494  0.2506  0.6554  0.1924
12963SOL     OW41843   9.453   6.846   1.570  0.2585  0.3406  0.4096
12963SOL    HW141844   9.397   6.861   1.645  1.0364 -0.2761  1.1319
12963SOL    HW241845   9.416   6.901   1.501 -0.4094  0.9874  1.2628
12964SOL     OW41846   0.770   2.202   3.560  0.2905  0.0662  0.4206
12964SOL    HW141847   0.855   2.194   3.601  0.1228  0.2036  0.7980
12964SOL    HW241848   0.710   2.221   3.632 -0.0893 -0.2196  0.1850
12965SOL     OW41849   9.882   8.282   3.295  0.0584 -0.1020 -0.5772
12965SOL    HW141850   9.875   8.192   3.327  0.7891  0.6910  2.0082
12965SOL    HW241851   9.915   8.272   3.205  2.0979 -2.3733  0.2920
12966SOL     OW41852  10.678   9.232   5.430 -0.0344 -0.4651 -0.2622
12966SOL    HW141853  10.747   9.172   5.457 -1.7522 -2.1018  0.7692
12966SOL    HW241854  10.700   9.315   5.472 -0.3198 -1.8036  2.7703
12967SOL     OW41855   5.916   6.073   8.504  0.2357  0.9542 -0.1484
12967SOL    HW141856   5.826   6.106   8.506 -0.9925 -2.1126  0.8965
12967SOL    HW241857   5.931   6.038   8.591  0.9706 -2.0375 -1.3582
12968SOL     OW41858   2.152   3.420   8.746 -0.0844  0.1915 -0.4099
12968SOL    HW141859   2.123   3.485   8.810  2.0558 -0.1021  0.9739
12968SOL    HW241860   2.230   3.459   8.706  1.9560 -1.8591  1.2822
12969SOL     OW41861   1.477   3.287   2.441  0.0206  0.4585  0.2699
12969SOL    HW141862   1.519   3.210   2.479  1.0610  0.7634 -0.2388
12969SOL    HW241863   1.540   3.357   2.453 -0.1437  0.8304 -0.9068
12970SOL     OW41864   6.653   3.996   0.309  0.3984  0.2132 -0.0531
12970SOL    HW141865   6.655   3.900   0.312 -0.2587  0.2251  0.9630
12970SOL    HW241866   6.740   4.020   0.276  0.8207 -0.7060  0.3545
12971SOL     OW41867   1.805   8.135   6.986 -0.2165  0.2059  0.2730
12971SOL    HW141868   1.787   8.071   7.054  1.0814  0.3699  0.8022
12971SOL    HW241869   1.863   8.199   7.028  0.2482  0.5514 -0.8545
12972SOL     OW41870   2.807   6.013   9.690  0.3685 -0.6618 -0.5186
12972SOL    HW141871   2.901   6.015   9.676  0.2302 -0.9567 -1.6530
12972SOL    HW241872   2.771   6.050   9.609 -0.5229 -1.7060 -0.6229
12973SOL     OW41873   7.528   4.149   6.197  0.2819  0.1493  0.0045
12973SOL    HW141874   7.497   4.063   6.225  1.3466 -0.6039 -1.0033
12973SOL    HW241875   7.505   4.155   6.105  1.6429  0.2362 -0.3553
12974SOL     OW41876   2.200   4.509   7.621  0.4688 -0.2398 -0.1928
12974SOL    HW141877   2.206   4.603   7.606  1.0523 -0.1176  0.7491
12974SOL    HW241878   2.124   4.498   7.678  0.7360 -0.2808  0.1574
12975SOL     OW41879   4.493   4.754   6.433 -0.1072  0.4443  0.8395
12975SOL    HW141880   4.402   4.770   6.405 -0.5058  0.9009  2.3191
12975SOL    HW241881   4.486   4.734   6.526  1.4131  1.4119  1.1840
12976SOL     OW41882   9.389   2.896   9.910  0.2681 -0.1668 -0.0337
12976SOL    HW141883   9.451   2.863   9.974 -0.5720 -1.0402  0.3399
12976SOL    HW241884   9.303   2.885   9.950 -0.1900  0.4314 -0.8023
12977SOL     OW41885   6.392   1.822   5.974 -0.3796 -0.5130 -0.0616
12977SOL    HW141886   6.375   1.863   5.890  0.3407  3.0933  1.3537
12977SOL    HW241887   6.480   1.785   5.965  1.0075  2.4958 -0.1537
12978SOL     OW41888   5.738   9.046   5.846 -0.2847 -0.0520  0.3368
12978SOL    HW141889   5.757   8.996   5.925 -0.0189 -0.4640  0.0151
12978SOL    HW241890   5.732   8.981   5.776  0.9057  0.4231 -0.2367
12979SOL     OW41891   2.505  10.083   9.695 -0.0463 -0.0727  0.0995
12979SOL    HW141892   2.442  10.149   9.666 -0.7502 -0.0548  1.6058
12979SOL    HW241893   2.559  10.128   9.760  0.1793 -0.6765  0.3328
12980SOL     OW41894   2.895   3.618   8.544  0.0446  0.0286  0.4416
12980SOL    HW141895   2.832   3.553   8.575 -1.1102 -0.1322 -2.0257
12980SOL    HW241896   2.974   3.568   8.523 -0.0463 -0.2204  0.6948
12981SOL     OW41897   2.364   4.367  10.504 -0.1048 -0.3649  0.2765
12981SOL    HW141898   2.310   4.440  10.535  0.9024 -0.2506  1.9067
12981SOL    HW241899   2.397   4.396  10.419 -2.7093 -0.5366 -0.8869
12982SOL     OW41900   7.014   3.122   9.285 -0.0680  0.0769 -0.2016
12982SOL    HW141901   7.000   3.205   9.333  2.5926  0.1352  0.6122
12982SOL    HW241902   7.080   3.143   9.220 -1.2213 -0.8523 -1.7249
12983SOL     OW41903   9.282   0.235   4.498  0.0911 -0.5475  0.0253
12983SOL    HW141904   9.289   0.233   4.594  1.0114  0.7778  0.0078
12983SOL    HW241905   9.330   0.157   4.470 -0.2153 -0.9680  0.6416
12984SOL     OW41906   9.148   3.094   8.566  0.3466  0.3665 -0.2313
12984SOL    HW141907   9.204   3.135   8.500  0.1606 -0.0122 -0.6284
12984SOL    HW241908   9.209   3.045   8.621  0.6538  1.6761  0.6490
12985SOL     OW41909   6.191   0.920   1.063  0.2763  0.0359  0.1217
12985SOL    HW141910   6.196   0.845   1.003 -0.8836  0.2907 -0.3319
12985SOL    HW241911   6.200   0.997   1.006 -0.3047  0.2732  0.3460
12986SOL     OW41912   8.164   7.513   1.485  0.0004  0.2694  0.1069
12986SOL    HW141913   8.227   7.581   1.461 -0.7118  0.4365 -1.3826
12986SOL    HW241914   8.157   7.520   1.580 -0.4852  2.6855 -0.0476
12987SOL     OW41915   5.791   2.250   1.001 -0.6110 -0.2139  0.1527
12987SOL    HW141916   5.867   2.295   0.963 -0.6865  1.3912  1.7707
12987SOL    HW241917   5.727   2.249   0.931 -0.0415  0.8559 -0.4171
12988SOL     OW41918   6.997   6.122   5.003  0.1307  0.0629 -0.2371
12988SOL    HW141919   6.982   6.138   5.096 -1.8461  1.3633 -0.7049
12988SOL    HW241920   6.996   6.027   4.994 -0.9875 -0.0613  0.9035
12989SOL     OW41921   9.617   1.012   1.556 -0.1241 -0.3038  0.7263
12989SOL    HW141922   9.571   1.094   1.571  1.2080  0.3472  1.3494
12989SOL    HW241923   9.709   1.036   1.546  0.3709 -1.7495  1.4029
12990SOL     OW41924   7.416   3.572   5.139 -0.5933 -0.1206  0.3427
12990SOL    HW141925   7.465   3.524   5.072 -2.2174 -0.9458 -0.3361
12990SOL    HW241926   7.324   3.563   5.111 -1.0088  3.4546  0.1505
12991SOL     OW41927  10.507   6.050   6.505 -0.5886 -0.1272  0.1223
12991SOL    HW141928  10.523   5.960   6.478 -1.7692 -0.3567  0.1113
12991SOL    HW241929  10.412   6.060   6.501 -0.5017  1.0465  0.3647
12992SOL     OW41930   7.202   5.363   9.737  0.2124 -0.5183  0.2385
12992SOL    HW141931   7.162   5.417   9.669 -0.0898  0.1949  0.9592
12992SOL    HW241932   7.176   5.274   9.715 -0.3816 -0.2334 -0.2475
12993SOL     OW41933   9.459   3.362   5.022 -0.6196  0.4333 -0.2222
12993SOL    HW141934   9.404   3.306   4.968  0.0525  0.9344 -1.4710
12993SOL    HW241935   9.540   3.313   5.032 -0.0162  1.1632 -1.3507
12994SOL     OW41936   6.768   7.407   1.123 -0.4113 -0.0476  0.2309
12994SOL    HW141937   6.832   7.355   1.171 -0.9988 -1.2227 -0.1945
12994SOL    HW241938   6.820   7.462   1.065  0.2694  0.6567  1.4699
12995SOL     OW41939   8.494   4.777  10.280 -0.4144 -0.1185  0.3141
12995SOL    HW141940   8.480   4.754  10.372  0.6471  0.1792  0.5680
12995SOL    HW241941   8.468   4.698  10.232 -2.4015  0.2344  0.7347
12996SOL     OW41942   9.021   9.844   2.861  0.0884 -0.0072  0.3462
12996SOL    HW141943   8.941   9.881   2.899  0.0180 -0.8389  1.0316
12996SOL    HW241944   9.028   9.757   2.899  0.8428 -0.2926 -0.4049
12997SOL     OW41945   0.140   1.758   7.413 -0.0462 -0.1619 -0.6832
12997SOL    HW141946   0.236   1.762   7.410  0.0241 -0.3739  0.5387
12997SOL    HW241947   0.111   1.845   7.386  0.5825  0.5809  0.8685
12998SOL     OW41948   8.403   2.172  10.669 -0.5102 -0.4462  0.4814
12998SOL    HW141949   8.400   2.267  10.664  1.2650 -0.4126 -2.8023
12998SOL    HW241950   8.314   2.143  10.650 -0.6970  0.5646 -0.2333
12999SOL     OW41951   3.370   8.914   9.804 -0.3078  0.5983  0.2873
12999SOL    HW141952   3.408   8.912   9.892  0.0914  1.8062  0.1617
12999SOL    HW241953   3.296   8.973   9.811 -0.4223  0.5050 -0.1357
13000SOL     OW41954   8.815   6.280   9.097 -0.0517 -0.2984  0.0748
13000SOL    HW141955   8.735   6.243   9.134 -0.2176 -0.1048 -0.0834
13000SOL    HW241956   8.786   6.324   9.017  0.0232  0.8439  0.6693
13001SOL     OW41957   5.178   1.394  10.160 -0.2863 -0.4636  0.1499
13001SOL    HW141958   5.083   1.399  10.147 -0.3362  0.3488  0.7209
13001SOL    HW241959   5.200   1.477  10.204  0.6035 -0.8828  0.5079
13002SOL     OW41960   0.046   3.180   3.233  0.6333  0.4142  0.6257
13002SOL    HW141961  -0.043   3.164   3.202  0.6843 -0.2730  0.8196
13002SOL    HW241962   0.047   3.273   3.257 -0.5423  0.0552  2.2574
13003SOL     OW41963   5.268   1.206   3.349 -0.0899  0.3899 -0.5094
13003SOL    HW141964   5.188   1.254   3.368 -0.2408 -0.1283  0.2179
13003SOL    HW241965   5.310   1.195   3.434 -0.0086 -0.6720 -0.6785
13004SOL     OW41966   8.328   7.134   8.333  0.5987  0.2289 -0.1938
13004SOL    HW141967   8.365   7.172   8.253  0.5175 -2.9722 -1.9130
13004SOL    HW241968   8.404   7.109   8.385  0.7186 -0.0083 -0.4786
13005SOL     OW41969   4.747   7.347   5.894 -0.4038  0.8120 -0.1739
13005SOL    HW141970   4.841   7.331   5.881 -0.4763  1.9283 -2.5530
13005SOL    HW241971   4.744   7.420   5.956  0.1853 -0.5791  1.5924
13006SOL     OW41972   0.446   0.967   6.981 -0.2354 -0.1673 -0.4256
13006SOL    HW141973   0.495   0.983   7.062  1.1001 -3.1541 -0.5378
13006SOL    HW241974   0.354   0.978   7.007  0.1881 -0.6069  1.4192
13007SOL     OW41975   1.342   9.100  10.437 -0.4410  0.1438 -0.9935
13007SOL    HW141976   1.389   9.089  10.354  2.7254  0.9982  0.5235
13007SOL    HW241977   1.359   9.019  10.485 -1.4448  0.0447 -0.7994
13008SOL     OW41978   9.180   7.924   9.555 -0.3951 -0.1274  0.3200
13008SOL    HW141979   9.160   7.929   9.461 -0.6713 -0.8641  0.3333
13008SOL    HW241980   9.237   7.848   9.563 -1.0603 -0.5768  0.8613
13009SOL     OW41981  10.332   2.089   2.881 -0.0887 -0.6314  0.2560
13009SOL    HW141982  10.285   2.158   2.928  0.3394  0.2088 -0.5129
13009SOL    HW241983  10.417   2.127   2.861 -0.6168 -0.5250 -2.1502
13010SOL     OW41984   9.984   8.690   8.332  0.5727 -0.5178  0.3255
13010SOL    HW141985   9.988   8.736   8.416  0.1359 -0.7842  0.4948
13010SOL    HW241986  10.050   8.621   8.340 -0.9698 -1.9559  1.3195
13011SOL     OW41987   4.077   5.186   3.351  0.8151 -0.0957 -0.1402
13011SOL    HW141988   4.060   5.098   3.317 -2.1123 -0.0092  0.8764
13011SOL    HW241989   4.100   5.172   3.443  1.2416  0.1751 -0.1993
13012SOL     OW41990  10.498   4.711   3.571 -0.1206  0.3530 -0.3489
13012SOL    HW141991  10.549   4.674   3.643  0.1007  0.7042 -0.3217
13012SOL    HW241992  10.516   4.805   3.575  2.4646  0.0986 -2.8005
13013SOL     OW41993   1.425   1.852   2.040  0.1308 -0.1636 -0.4649
13013SOL    HW141994   1.410   1.803   2.121  1.9421 -1.5449 -0.8842
13013SOL    HW241995   1.440   1.784   1.974  0.6117  0.9564 -1.5451
13014SOL     OW41996   2.826   8.025   5.877  0.0786  0.1903  0.5023
13014SOL    HW141997   2.886   7.957   5.846 -0.5188 -0.1808  0.1496
13014SOL    HW241998   2.821   8.011   5.971  0.3531  0.0651  0.4991
13015SOL     OW41999   6.506   8.705   4.085  0.2285  0.4447  0.1846
13015SOL    HW142000   6.419   8.735   4.109 -0.3854 -0.6471 -0.5633
13015SOL    HW242001   6.543   8.669   4.166 -0.5366 -0.2598  0.2326
13016SOL     OW42002   8.675   4.602  10.536  0.5220 -0.0127  0.0333
13016SOL    HW142003   8.759   4.611  10.582  0.3764  0.5661  0.1924
13016SOL    HW242004   8.661   4.508  10.531  1.1150 -0.1144  0.1296
13017SOL     OW42005   3.978   1.485   7.664  0.1301 -0.7924 -0.4625
13017SOL    HW142006   4.003   1.553   7.727 -1.2083 -1.7425  1.1971
13017SOL    HW242007   4.041   1.493   7.593  1.8821  0.1939  1.1149
13018SOL     OW42008   3.842   3.814   5.123  0.0548 -0.3580 -0.5397
13018SOL    HW142009   3.865   3.894   5.172  0.4760 -0.2466 -0.9083
13018SOL    HW242010   3.870   3.743   5.180 -1.2178 -0.2748  0.2283
13019SOL     OW42011  10.398   8.816   0.951 -1.0372  0.1150  0.3277
13019SOL    HW142012  10.388   8.767   0.870 -0.2970 -0.5735  0.6346
13019SOL    HW242013  10.397   8.750   1.020 -0.3713  0.5529  0.7817
13020SOL     OW42014   7.588   5.338   8.393  0.7246  0.4128 -0.0152
13020SOL    HW142015   7.679   5.310   8.385  0.7428  0.6673 -0.8969
13020SOL    HW242016   7.543   5.293   8.321  0.1832  0.4092  0.3176
13021SOL     OW42017   5.062   3.073   8.214 -0.1871  1.5761 -0.0914
13021SOL    HW142018   5.056   3.049   8.122 -0.1283 -1.2384  0.5261
13021SOL    HW242019   5.112   3.001   8.254 -1.7339  1.7581  2.4118
13022SOL     OW42020   1.448   6.146  10.259 -0.3975 -0.3661 -0.1511
13022SOL    HW142021   1.504   6.131  10.335 -1.0404 -2.0778  0.0162
13022SOL    HW242022   1.450   6.241  10.247  2.1652 -0.2971  0.1136
13023SOL     OW42023   1.475   6.382   9.290  0.2078 -0.4004 -0.2001
13023SOL    HW142024   1.458   6.392   9.196  1.1934  0.3609 -0.3116
13023SOL    HW242025   1.427   6.303   9.314  0.9059 -1.2948 -1.5961
13024SOL     OW42026   1.806  10.631   7.051  0.1082  0.0829  0.0181
13024SOL    HW142027   1.747  10.568   7.093 -1.1822  1.2510  0.0227
13024SOL    HW242028   1.774  10.638   6.961 -1.0046  2.1547  0.5278
13025SOL     OW42029   9.429   2.014   3.311 -0.4668 -0.3295  0.1569
13025SOL    HW142030   9.371   2.067   3.257  0.1321  0.1328 -0.0408
13025SOL    HW242031   9.371   1.968   3.371 -1.2740 -1.6951 -1.5594
13026SOL     OW42032   6.345   4.192   4.737 -0.5387  0.0846 -0.0822
13026SOL    HW142033   6.309   4.151   4.815 -0.1911 -1.0059 -0.4826
13026SOL    HW242034   6.358   4.120   4.675 -0.3224  0.8552 -0.9560
13027SOL     OW42035   1.502   7.839  10.670  0.4741 -0.3032  0.3167
13027SOL    HW142036   1.584   7.840  10.719  0.8828 -0.4452 -0.3528
13027SOL    HW242037   1.461   7.756  10.693  0.3922 -0.1159  0.8550
13028SOL     OW42038   9.125   7.079   9.596  0.2791 -0.1793 -0.0425
13028SOL    HW142039   9.149   7.080   9.503  0.5024  0.5168  0.0142
13028SOL    HW242040   9.207   7.100   9.642  0.4525 -1.6864  0.3890
13029SOL     OW42041   3.236   3.249   3.211 -0.1173 -0.4903 -0.3642
13029SOL    HW142042   3.297   3.223   3.142  0.1474 -1.3636  0.1802
13029SOL    HW242043   3.198   3.331   3.180  2.1616  0.7155 -0.2096
13030SOL     OW42044   7.451   0.426   5.674  0.3955 -0.0439 -0.3247
13030SOL    HW142045   7.470   0.366   5.602  0.7163  0.4612 -0.6667
13030SOL    HW242046   7.370   0.470   5.648  0.2848 -0.1599 -0.1803
13031SOL     OW42047   5.768   3.947   0.916  0.0021 -0.2288 -0.5929
13031SOL    HW142048   5.733   3.938   1.004  0.5456  0.9458 -0.2322
13031SOL    HW242049   5.760   4.040   0.897  0.9844 -0.2736 -1.3146
13032SOL     OW42050   0.580  10.446   1.782  0.5300 -0.0189 -0.2428
13032SOL    HW142051   0.653  10.436   1.721  0.6519  1.4935 -0.3849
13032SOL    HW242052   0.603  10.523   1.834  0.5653 -1.4081  1.9339
13033SOL     OW42053   4.911   3.051   2.170 -0.1531 -0.1022 -0.6481
13033SOL    HW142054   4.836   3.042   2.112 -0.6131  1.4597 -0.3170
13033SOL    HW242055   4.930   3.144   2.172  0.9529 -0.3205  0.3414
13034SOL     OW42056   5.173   6.710   4.042 -0.1254 -0.1976  0.0674
13034SOL    HW142057   5.229   6.678   4.113  0.9158 -0.2284 -0.7290
13034SOL    HW242058   5.163   6.635   3.984  1.7662  0.6289 -1.4629
13035SOL     OW42059   6.497   2.966   0.040 -0.6124 -0.0496  0.7413
13035SOL    HW142060   6.439   3.007  -0.023 -1.1497 -1.2745  0.4226
13035SOL    HW242061   6.456   2.882   0.060  0.1202 -0.1614  1.8827
13036SOL     OW42062   6.823   8.504   9.694 -0.6125 -0.0642 -0.4638
13036SOL    HW142063   6.806   8.444   9.621  0.2011 -0.6478 -0.1915
13036SOL    HW242064   6.892   8.562   9.663  1.6773 -1.9994  0.6812
13037SOL     OW42065   8.959   9.573   8.871 -0.1493  0.4403  0.4248
13037SOL    HW142066   8.882   9.526   8.840 -0.7163  0.0682  2.2593
13037SOL    HW242067   8.936   9.666   8.863 -0.8997  0.3286  1.1812
13038SOL     OW42068   4.644   1.216   2.638  0.1527  0.6789 -0.0265
13038SOL    HW142069   4.595   1.297   2.625  1.2457  1.1167 -1.7223
13038SOL    HW242070   4.652   1.177   2.551 -0.9364 -1.6626  0.8348
13039SOL     OW42071   8.819  10.168   4.503  0.3399 -0.2254  0.3508
13039SOL    HW142072   8.879  10.241   4.487 -1.5835  1.2790 -0.4731
13039SOL    HW242073   8.769  10.195   4.581 -0.5378 -0.5235 -0.0919
13040SOL     OW42074   6.831   7.784   3.557 -1.1471 -0.2920 -0.1549
13040SOL    HW142075   6.853   7.739   3.476  2.2911  0.3515  0.2426
13040SOL    HW242076   6.844   7.718   3.625 -0.2662  0.1309  0.1059
13041SOL     OW42077   8.444   8.914   0.400 -0.1734 -0.4614  0.5063
13041SOL    HW142078   8.371   8.860   0.430 -1.7061  0.2238 -1.7425
13041SOL    HW242079   8.404   8.995   0.370  1.8578  1.1385  1.8228
13042SOL     OW42080   8.199   9.695   1.801 -0.7773 -0.1441 -0.0026
13042SOL    HW142081   8.186   9.744   1.882 -1.2323  1.1138 -0.8165
13042SOL    HW242082   8.207   9.604   1.830 -2.0089  0.1482  1.3632
13043SOL     OW42083   8.695   8.039  10.638  0.2942 -0.7465  0.1540
13043SOL    HW142084   8.619   8.068  10.688 -0.0549 -1.8895  0.3185
13043SOL    HW242085   8.750   7.993  10.702 -0.5241 -2.9057 -0.5949
13044SOL     OW42086   3.637   9.877   5.127 -0.5281  0.0237  0.0738
13044SOL    HW142087   3.664   9.842   5.042  1.7739 -0.5238  0.9578
13044SOL    HW242088   3.695   9.834   5.190 -0.6511  2.0811  1.7030
13045SOL     OW42089   0.277   7.690   3.438  0.1088  0.3325 -0.2623
13045SOL    HW142090   0.263   7.717   3.347  0.0102 -0.1897 -0.4042
13045SOL    HW242091   0.189   7.686   3.475  0.2622  3.5743  0.7687
13046SOL     OW42092   9.272   5.361   8.077 -0.2513 -0.5767 -0.5000
13046SOL    HW142093   9.329   5.410   8.019  0.0228  0.3477  0.5184
13046SOL    HW242094   9.330   5.330   8.147 -1.1450  1.5954  1.3321
13047SOL     OW42095  10.049   5.607   2.235  0.0078 -0.8662 -0.1766
13047SOL    HW142096  10.056   5.605   2.331 -1.1598 -1.3337 -0.0829
13047SOL    HW242097  10.098   5.531   2.206  4.3785  1.6435 -0.3289
13048SOL     OW42098   4.137   3.880   6.777  0.0423 -0.8017  0.3750
13048SOL    HW142099   4.117   3.853   6.688 -0.5714 -1.1265  0.6080
13048SOL    HW242100   4.232   3.874   6.784  0.6171  3.0550 -1.5235
13049SOL     OW42101   6.010   1.211   1.833  0.1318 -0.0245 -0.1708
13049SOL    HW142102   5.926   1.205   1.878  0.9650  0.7203  1.5923
13049SOL    HW242103   6.030   1.122   1.805 -1.7348 -0.0439 -1.6476
13050SOL     OW42104  10.291   3.835   8.841 -0.2396  0.0314  0.4635
13050SOL    HW142105  10.319   3.800   8.757  0.8514  1.4031  0.2282
13050SOL    HW242106  10.262   3.924   8.822 -1.6351 -0.2125  1.2718
13051SOL     OW42107   2.727   6.218   5.470  0.2225  0.2107 -0.3480
13051SOL    HW142108   2.640   6.251   5.491  0.3382  0.0870  0.3434
13051SOL    HW242109   2.733   6.226   5.375 -1.0571 -1.0115 -0.5679
13052SOL     OW42110   2.086   3.810   6.265 -0.0234  0.1207  0.6946
13052SOL    HW142111   2.112   3.809   6.173  0.5582  0.5439  0.8467
13052SOL    HW242112   1.996   3.778   6.265  0.0784 -0.1780  0.0139
13053SOL     OW42113   2.430   5.036   6.344  0.3731  0.6745  0.1553
13053SOL    HW142114   2.455   4.993   6.426 -0.2849 -0.6642 -0.3141
13053SOL    HW242115   2.365   5.101   6.370  0.6548  0.7209  0.7653
13054SOL     OW42116   7.033   3.829   0.821  0.1750 -0.3035  0.4155
13054SOL    HW142117   6.983   3.747   0.823  0.6049 -0.6320 -0.9405
13054SOL    HW242118   7.042   3.848   0.728 -0.4435  1.6320  0.7195
13055SOL     OW42119   1.447   6.794   7.720 -0.2563 -0.3256 -0.6414
13055SOL    HW142120   1.540   6.776   7.739 -0.2313 -0.7773 -1.1810
13055SOL    HW242121   1.443   6.889   7.708  0.0994 -0.2781 -0.4139
13056SOL     OW42122   1.421   0.347   1.255 -0.5804 -0.2253  0.0959
13056SOL    HW142123   1.366   0.272   1.230  0.0014 -0.6165 -0.0280
13056SOL    HW242124   1.456   0.323   1.341  1.3326 -1.0917 -0.8664
13057SOL     OW42125   9.840   4.692   3.636  0.3744  0.0684 -0.9614
13057SOL    HW142126   9.894   4.771   3.633 -0.6293  0.9705  1.8621
13057SOL    HW242127   9.773   4.706   3.570 -0.0541  1.8311 -0.1877
13058SOL     OW42128   3.515   8.939  10.623  0.1325  0.3000  0.1985
13058SOL    HW142129   3.538   8.995  10.697 -0.7507  0.4617  0.3677
13058SOL    HW242130   3.471   8.998  10.562 -0.7780 -0.1793  0.3615
13059SOL     OW42131   1.311   9.339   8.560 -0.0332 -0.5262  0.0951
13059SOL    HW142132   1.238   9.353   8.499  0.4034  1.0154 -0.1041
13059SOL    HW242133   1.383   9.309   8.504 -0.0951 -0.6673  0.0896
13060SOL     OW42134   9.124   0.650   3.890  0.6562  0.0641 -0.2197
13060SOL    HW142135   9.176   0.690   3.959 -0.8430  0.1528  0.9182
13060SOL    HW242136   9.170   0.568   3.870  2.9390  1.5674 -1.5341
13061SOL     OW42137   5.868   9.533   6.600 -0.2595 -0.3958 -0.4612
13061SOL    HW142138   5.884   9.608   6.544  0.2442  1.8141  2.4292
13061SOL    HW242139   5.949   9.481   6.595  0.6391  0.9292 -0.1312
13062SOL     OW42140   1.869   5.404   9.877  0.3519 -0.0681 -0.0012
13062SOL    HW142141   1.822   5.428   9.957 -0.6483  2.9001 -1.3367
13062SOL    HW242142   1.818   5.332   9.840 -0.4017 -0.0406  0.9549
13063SOL     OW42143   5.713   6.085   6.023 -0.3269  0.1316  0.3745
13063SOL    HW142144   5.632   6.088   6.074 -0.8739 -3.0155 -0.1452
13063SOL    HW242145   5.783   6.100   6.088 -1.1974  2.2222  0.9318
13064SOL     OW42146   4.320   5.540   1.986  0.5925 -0.1449 -0.2646
13064SOL    HW142147   4.341   5.526   1.893  0.5975 -2.6621  0.0564
13064SOL    HW242148   4.230   5.574   1.984  0.4508 -0.5306 -1.1764
13065SOL     OW42149   3.898   8.982  10.298  0.7382  0.5711  0.3231
13065SOL    HW142150   3.831   9.051  10.292 -0.1844 -0.3283  0.0642
13065SOL    HW242151   3.899   8.943  10.211  0.4982 -0.4424  0.7693
13066SOL     OW42152   0.066   1.882   8.755 -0.5409  0.0458 -0.2400
13066SOL    HW142153   0.055   1.905   8.847  1.5544  0.4691 -0.0341
13066SOL    HW242154   0.076   1.965   8.709  0.6105 -0.2061 -0.4864
13067SOL     OW42155   6.262   1.503   4.804 -0.0359  0.6333 -0.2397
13067SOL    HW142156   6.308   1.583   4.828  0.6168 -0.0056  0.7554
13067SOL    HW242157   6.183   1.503   4.859  0.6024  0.0021  0.7178
13068SOL     OW42158   0.219   2.504   1.034  0.3831 -0.5845  0.8050
13068SOL    HW142159   0.173   2.479   0.954 -1.2840 -0.8595  1.8072
13068SOL    HW242160   0.197   2.435   1.096  0.5312  0.3320  1.8943
13069SOL     OW42161   9.999   9.657   2.725 -0.5851  0.2355  0.3705
13069SOL    HW142162   9.937   9.702   2.782 -0.0052 -0.0349  1.2440
13069SOL    HW242163   9.959   9.661   2.638 -1.2533  1.0972  0.6993
13070SOL     OW42164   6.898   4.757   2.444  0.1872 -0.3841  0.0117
13070SOL    HW142165   6.982   4.800   2.428 -1.0635  1.5769 -1.8953
13070SOL    HW242166   6.837   4.829   2.458 -1.7618 -1.5705 -1.8243
13071SOL     OW42167   9.320   9.476   5.669  0.3042  0.2498  0.0060
13071SOL    HW142168   9.356   9.395   5.633 -1.1105 -0.4953  0.1834
13071SOL    HW242169   9.233   9.484   5.629  0.3189  1.5492  0.1887
13072SOL     OW42170  10.243   7.875   6.067 -0.4779 -0.4094 -0.3904
13072SOL    HW142171  10.257   7.781   6.061 -2.2349 -0.7131 -0.2895
13072SOL    HW242172  10.202   7.898   5.984  0.3600  0.3603 -0.6015
13073SOL     OW42173   6.280   2.031  10.483 -0.3920  0.3167 -0.3291
13073SOL    HW142174   6.210   1.997  10.426 -1.3003  1.1498  0.2484
13073SOL    HW242175   6.234   2.060  10.562  0.9511 -1.7088  1.2936
13074SOL     OW42176   0.846   3.656   4.160 -0.3313 -0.2663  0.4622
13074SOL    HW142177   0.898   3.736   4.165 -0.8225  0.2422 -1.5878
13074SOL    HW242178   0.863   3.622   4.072 -2.4213 -0.7806  0.2077
13075SOL     OW42179   1.558   0.228  10.535  0.0535 -0.3740 -0.8664
13075SOL    HW142180   1.495   0.294  10.564 -1.3479 -1.4769 -1.3043
13075SOL    HW242181   1.524   0.145  10.570  1.8193 -0.8889 -0.2510
13076SOL     OW42182   0.877   2.798   8.527 -0.3186  0.0364  0.7708
13076SOL    HW142183   0.798   2.823   8.576  0.0667  0.2700  1.2805
13076SOL    HW242184   0.851   2.720   8.479 -1.4130  1.1171 -0.4964
13077SOL     OW42185   9.138   0.801   4.160 -0.0450 -0.1134 -0.0173
13077SOL    HW142186   9.181   0.886   4.167 -0.3047  0.0496 -0.3765
13077SOL    HW242187   9.206   0.738   4.180  0.0969  0.1885  0.4719
13078SOL     OW42188  10.184   3.972   9.470  0.5257 -0.2903 -0.2143
13078SOL    HW142189  10.137   3.897   9.434  2.3168 -0.2126 -3.0178
13078SOL    HW242190  10.234   3.937   9.543 -1.4956 -0.9599  0.9412
13079SOL     OW42191   2.015   4.556   9.147  0.3232  0.2406  0.1915
13079SOL    HW142192   2.046   4.614   9.077 -0.8367  1.1089  0.3733
13079SOL    HW242193   1.965   4.489   9.102  0.5063  0.1647  0.0986
13080SOL     OW42194   5.513   4.348  10.169  0.0605  0.2226  0.0822
13080SOL    HW142195   5.494   4.393  10.086  1.3141  0.1714 -0.2644
13080SOL    HW242196   5.428   4.318  10.200 -0.8774  2.9892  0.4477
13081SOL     OW42197   4.681   9.100   1.559  0.6834  0.7561  0.7236
13081SOL    HW142198   4.724   9.039   1.619 -1.0101  0.9157  2.1631
13081SOL    HW242199   4.751   9.159   1.531  1.7630 -0.0917  1.5429
13082SOL     OW42200   4.899   3.334   2.550 -0.3015  0.1688  0.4937
13082SOL    HW142201   4.959   3.277   2.502 -0.1631 -1.3508  2.3589
13082SOL    HW242202   4.879   3.404   2.489  0.5774 -1.1738 -1.4348
13083SOL     OW42203   8.596   7.380   9.572 -0.0678  0.4205  0.2294
13083SOL    HW142204   8.650   7.399   9.648  1.3587 -0.9309 -0.3751
13083SOL    HW242205   8.653   7.329   9.514 -0.9230  1.7956 -1.9674
13084SOL     OW42206   8.843   4.460   2.147 -0.4833  0.3917  0.4164
13084SOL    HW142207   8.861   4.371   2.115 -2.6541 -0.2582  0.8255
13084SOL    HW242208   8.904   4.472   2.220 -0.1273 -0.7528  0.3250
13085SOL     OW42209   0.609   7.848   3.247 -0.1530 -0.0027  0.5491
13085SOL    HW142210   0.565   7.845   3.162  0.2773  0.3806  0.3046
13085SOL    HW242211   0.605   7.759   3.280 -0.4954 -0.1139  0.2179
13086SOL     OW42212   5.266   5.691   4.606  0.5780  0.1692 -0.4777
13086SOL    HW142213   5.276   5.601   4.575 -0.6146  0.0409 -0.5707
13086SOL    HW242214   5.241   5.682   4.698 -2.1887  0.2115 -1.1105
13087SOL     OW42215   3.042   9.140   2.455 -0.5864 -0.1695  0.1311
13087SOL    HW142216   3.105   9.186   2.511 -1.4540  0.8220  0.3399
13087SOL    HW242217   3.021   9.204   2.386 -0.6135 -0.8544 -0.5080
13088SOL     OW42218   2.737   6.036   5.933 -0.1980 -0.0743 -0.4132
13088SOL    HW142219   2.783   6.118   5.920 -0.2855  0.0432  0.0165
13088SOL    HW242220   2.779   5.995   6.009  1.2575 -1.4292 -1.8828
13089SOL     OW42221   7.475   0.085   2.595 -0.3945  0.4060 -0.0453
13089SOL    HW142222   7.496   0.148   2.526 -1.4869 -0.8182 -1.5739
13089SOL    HW242223   7.432   0.137   2.662 -0.2330  1.4781 -0.7381
13090SOL     OW42224   4.096   0.720   9.901 -0.0986 -0.2763 -0.1423
13090SOL    HW142225   4.126   0.631   9.886  0.0207 -0.0657 -1.2134
13090SOL    HW242226   4.033   0.736   9.831 -1.5267 -0.1474  1.1087
13091SOL     OW42227   2.720   6.180   3.974  0.5421  0.1665 -0.2655
13091SOL    HW142228   2.754   6.185   3.884  1.4254 -1.6518 -0.0814
13091SOL    HW242229   2.758   6.099   4.009  1.8636  1.8131  2.4334
13092SOL     OW42230  10.157   8.818   8.933  0.2481 -0.0290  0.1173
13092SOL    HW142231  10.068   8.854   8.940  0.2344 -0.1792  0.8867
13092SOL    HW242232  10.148   8.728   8.966  0.9703  0.4398  1.6870
13093SOL     OW42233   6.716   7.450   5.519 -0.5975  0.2684  0.0362
13093SOL    HW142234   6.718   7.493   5.605 -2.6853  3.1667 -1.1943
13093SOL    HW242235   6.625   7.457   5.491  0.3118  0.8830 -3.1017
13094SOL     OW42236   2.194   9.035   1.409  0.2552 -0.4429 -0.1322
13094SOL    HW142237   2.133   9.091   1.361  0.9253 -0.5988 -1.2170
13094SOL    HW242238   2.191   8.951   1.362  0.0033 -1.0104  0.8736
13095SOL     OW42239   6.648   2.583   8.168  0.1426  0.2340 -0.5629
13095SOL    HW142240   6.720   2.646   8.172 -0.7188  1.2949 -1.2578
13095SOL    HW242241   6.640   2.561   8.076 -1.1442  0.9987 -0.6459
13096SOL     OW42242   1.766   2.573   4.290 -0.2015 -0.0163 -0.1083
13096SOL    HW142243   1.752   2.529   4.374 -1.3570 -1.8403 -1.1698
13096SOL    HW242244   1.740   2.664   4.305 -0.2016 -0.2641  1.5486
13097SOL     OW42245   6.381   0.205   8.693  0.3805 -0.2130  0.5701
13097SOL    HW142246   6.321   0.273   8.723  0.4597  0.0877  0.0500
13097SOL    HW242247   6.329   0.124   8.699  0.7800 -0.3657  2.6750
13098SOL     OW42248   6.178   2.379   3.791 -0.2058 -0.4968 -0.2836
13098SOL    HW142249   6.246   2.328   3.748  0.4767  0.3869 -0.2728
13098SOL    HW242250   6.180   2.464   3.747 -0.4122 -0.0307  0.5792
13099SOL     OW42251   3.506   4.821   8.893  0.7812  0.0335 -0.3045
13099SOL    HW142252   3.505   4.744   8.949  1.4069 -0.7799 -1.3730
13099SOL    HW242253   3.491   4.787   8.805 -2.2976  1.4949 -0.4580
13100SOL     OW42254  10.285   7.602   6.107 -0.3102  0.2042 -0.9033
13100SOL    HW142255  10.207   7.580   6.157  0.6390  0.0886  0.5926
13100SOL    HW242256  10.322   7.517   6.082  1.0606  0.0870  1.2286
13101SOL     OW42257   6.793  10.228   1.464 -0.4535  0.1718  0.0427
13101SOL    HW142258   6.843  10.280   1.402  0.6245 -0.6536  0.1865
13101SOL    HW242259   6.701  10.251   1.447 -0.1037  0.8208 -1.0468
13102SOL     OW42260   9.313   0.433   0.654  0.7190  0.5942  0.0254
13102SOL    HW142261   9.390   0.378   0.669 -0.5605 -1.0375  0.9534
13102SOL    HW242262   9.323   0.507   0.714  2.6083  1.5994 -1.4402
13103SOL     OW42263   6.025   9.353   2.133 -0.0121  0.0955 -0.6123
13103SOL    HW142264   6.024   9.406   2.054  1.0391  1.0878  0.0158
13103SOL    HW242265   6.064   9.409   2.200 -1.0861 -0.6243  0.6892
13104SOL     OW42266  10.099   4.559   1.795  0.5210 -0.2117 -0.8396
13104SOL    HW142267  10.044   4.601   1.730  0.5378  0.3024 -0.5238
13104SOL    HW242268  10.182   4.543   1.749  0.8711  1.0185 -0.6923
13105SOL     OW42269   3.090   7.233   6.533 -0.0278  0.4772  0.4156
13105SOL    HW142270   3.121   7.152   6.573  1.1855  0.1301 -1.1290
13105SOL    HW242271   3.035   7.273   6.600  0.1936 -1.0985  1.6054
13106SOL     OW42272   0.220   0.630  10.038 -0.5239 -0.0179 -0.1969
13106SOL    HW142273   0.190   0.714  10.004  0.2070  0.3483  0.0398
13106SOL    HW242274   0.288   0.653  10.102 -0.3856 -0.7836 -0.0584
13107SOL     OW42275   0.833   6.211   3.077  0.1046 -0.3445  0.3094
13107SOL    HW142276   0.759   6.245   3.128 -0.2009 -2.7386  1.6042
13107SOL    HW242277   0.902   6.197   3.142  0.3517 -1.7528 -0.2247
13108SOL     OW42278   3.645   4.320   6.675 -0.3452  0.4559 -0.2464
13108SOL    HW142279   3.592   4.377   6.620 -0.3410 -0.0691 -0.8059
13108SOL    HW242280   3.618   4.231   6.650  1.2308  0.1508 -0.9893
13109SOL     OW42281   7.830   7.997   9.273 -0.7648  0.1755  0.3961
13109SOL    HW142282   7.876   8.080   9.255 -1.5057  0.0728 -2.4424
13109SOL    HW242283   7.764   7.991   9.204 -1.4077 -2.3073  1.1348
13110SOL     OW42284   3.863  10.185   3.599  0.4599 -0.0669 -0.0576
13110SOL    HW142285   3.884  10.278   3.611 -0.4111 -0.0329  1.4601
13110SOL    HW242286   3.773  10.185   3.568  0.1901 -0.4088  0.6962
13111SOL     OW42287   5.268   6.407   7.314  0.1197  0.2685 -0.1835
13111SOL    HW142288   5.190   6.459   7.293  0.4724  1.5379  1.4155
13111SOL    HW242289   5.234   6.325   7.349 -0.5194  0.6113  0.0146
13112SOL     OW42290   6.810   5.909   7.832  0.2180 -0.5693  0.3859
13112SOL    HW142291   6.736   5.870   7.879 -0.7733 -0.4305 -1.0011
13112SOL    HW242292   6.868   5.941   7.901 -1.0457 -0.6239  1.5124
13113SOL     OW42293   2.145   2.712   1.585 -0.3326 -0.0622 -0.4127
13113SOL    HW142294   2.062   2.693   1.541  0.4206 -0.8485 -1.5264
13113SOL    HW242295   2.133   2.800   1.621 -2.9165 -1.4353  2.5283
13114SOL     OW42296   4.455   1.351   4.138  0.2911  0.4625 -0.1871
13114SOL    HW142297   4.475   1.261   4.163 -0.2668  0.0586 -1.1226
13114SOL    HW242298   4.475   1.403   4.215  0.6193 -0.4679  0.3660
13115SOL     OW42299   3.280   9.363   9.708  0.0463  0.4703 -0.7392
13115SOL    HW142300   3.356   9.329   9.755 -0.3129  0.8030  0.1014
13115SOL    HW242301   3.231   9.412   9.774 -0.6846  0.6082 -1.3702
13116SOL     OW42302   7.662   6.255   5.760  0.2576  0.3585  0.4312
13116SOL    HW142303   7.682   6.282   5.671  0.6109  0.5694  0.5715
13116SOL    HW242304   7.619   6.170   5.751 -1.6761  1.3390 -0.0721
13117SOL     OW42305   3.844   6.604   9.840  0.1953 -0.7895 -0.0155
13117SOL    HW142306   3.808   6.692   9.840  0.0788 -0.8366  0.0402
13117SOL    HW242307   3.898   6.600   9.920  2.0857 -0.0076 -1.1811
13118SOL     OW42308   7.942   5.206   1.021 -0.1208 -0.3988 -0.3445
13118SOL    HW142309   7.883   5.203   0.946  0.5100 -0.1971 -0.8626
13118SOL    HW242310   7.936   5.119   1.060 -0.1456 -0.6388 -0.8785
13119SOL     OW42311   6.058   3.987   8.060 -0.3076 -0.2711 -0.3582
13119SOL    HW142312   6.144   4.020   8.086 -0.5143  0.1804 -0.2374
13119SOL    HW242313   6.067   3.891   8.063 -0.7113 -0.3183  2.7858
13120SOL     OW42314   5.206   5.390   4.502 -0.7991 -0.8486  0.5010
13120SOL    HW142315   5.297   5.410   4.483 -1.0750 -0.2816 -0.2962
13120SOL    HW242316   5.170   5.358   4.419 -2.0558  1.7768 -0.0769
13121SOL     OW42317   1.638   3.251   7.028 -0.1401  0.4815 -0.4464
13121SOL    HW142318   1.731   3.228   7.032 -0.0861  0.5204 -1.3858
13121SOL    HW242319   1.604   3.204   6.952  0.0848  3.7471 -2.7823
13122SOL     OW42320   4.778   5.416   7.820 -0.3450 -0.4145 -0.1885
13122SOL    HW142321   4.748   5.507   7.821 -2.1843 -0.9729  1.2285
13122SOL    HW242322   4.763   5.386   7.730  1.7288  1.0449 -1.1142
13123SOL     OW42323   4.573  10.112   6.915  0.3965  0.3619  0.2992
13123SOL    HW142324   4.512  10.130   6.986 -0.3832  0.8575 -0.4782
13123SOL    HW242325   4.536  10.158   6.839  0.7391 -0.8530 -0.6358
13124SOL     OW42326   8.501   7.433   5.679 -0.0087  0.0247 -0.3354
13124SOL    HW142327   8.576   7.490   5.668 -1.7811  2.6568  0.3667
13124SOL    HW242328   8.429   7.491   5.702 -1.6712 -2.6429  1.9108
13125SOL     OW42329   1.587   9.638   7.045 -0.6312 -0.9945 -0.7352
13125SOL    HW142330   1.504   9.613   7.003 -0.6307 -1.1767 -0.6281
13125SOL    HW242331   1.653   9.589   6.996 -0.8295 -3.2139  1.0470
13126SOL     OW42332   9.354   7.479   3.982  0.6262  0.2866 -0.2357
13126SOL    HW142333   9.302   7.505   3.906 -0.7423  0.2718  0.6601
13126SOL    HW242334   9.334   7.387   3.996 -3.0981  1.3244  2.9948
13127SOL     OW42335   0.313   9.108   9.187 -0.1281  0.9865  0.2966
13127SOL    HW142336   0.393   9.132   9.234  0.4860  0.2609 -0.3388
13127SOL    HW242337   0.336   9.118   9.094  0.0906 -1.6141 -0.0170
13128SOL     OW42338   8.275   3.813   9.311 -0.0502  0.1208  0.1418
13128SOL    HW142339   8.338   3.881   9.336 -0.0337 -0.3986  1.6048
13128SOL    HW242340   8.203   3.861   9.269  0.4564  0.9166  0.1557
13129SOL     OW42341   9.158   4.891   4.306 -0.0056 -0.7739 -0.4501
13129SOL    HW142342   9.242   4.938   4.300  0.0622 -0.5022  1.8349
13129SOL    HW242343   9.094   4.955   4.275  0.2565  0.3912  1.2378
13130SOL     OW42344   0.233   3.270   1.600  0.3692 -1.0996 -0.3338
13130SOL    HW142345   0.268   3.270   1.689  1.1241 -2.4884 -0.5961
13130SOL    HW242346   0.292   3.326   1.551 -0.3002  0.0252  0.1053
13131SOL     OW42347   1.488   8.593   5.608  0.2775  0.9543  0.1252
13131SOL    HW142348   1.406   8.630   5.574  0.4681 -0.3892 -2.0366
13131SOL    HW242349   1.549   8.603   5.535  1.2262 -0.6249  0.6793
13132SOL     OW42350   5.319   2.700   9.607  0.0406 -0.4180  0.1167
13132SOL    HW142351   5.291   2.782   9.566 -1.8183 -1.1795 -0.2477
13132SOL    HW242352   5.403   2.679   9.565  0.3771  1.1074 -0.0147
13133SOL     OW42353   5.060   7.323   7.424  0.1259  0.4927 -0.5331
13133SOL    HW142354   5.122   7.250   7.423 -0.8214 -0.3599  0.7158
13133SOL    HW242355   5.049   7.345   7.516 -0.8624  1.1167 -0.7813
13134SOL     OW42356   7.699   0.882  10.316  0.0151 -0.5471 -0.4335
13134SOL    HW142357   7.770   0.847  10.262 -0.3245 -1.8331 -0.0789
13134SOL    HW242358   7.620   0.873  10.262 -0.1295 -0.6635 -0.2064
13135SOL     OW42359   4.446   6.208   2.863 -0.0886  0.0778  0.0812
13135SOL    HW142360   4.417   6.299   2.871  2.3766  1.3178 -3.0189
13135SOL    HW242361   4.385   6.170   2.799 -0.7307 -0.3236  0.9066
13136SOL     OW42362   5.444   8.846   0.092  0.4287 -0.7678 -0.2290
13136SOL    HW142363   5.504   8.909   0.131 -0.7886  0.4088 -0.1574
13136SOL    HW242364   5.434   8.876   0.002 -1.5118  0.2497  0.2693
13137SOL     OW42365   4.972   9.547   9.372 -0.2082 -0.0819 -0.0138
13137SOL    HW142366   5.003   9.553   9.282  0.0828  0.2170  0.1026
13137SOL    HW242367   4.882   9.516   9.365 -0.5526  0.9802 -0.4651
13138SOL     OW42368   4.182   0.116   4.776 -0.1236  0.3182 -0.0310
13138SOL    HW142369   4.226   0.197   4.750 -0.1937  0.9577  1.6744
13138SOL    HW242370   4.253   0.056   4.798 -0.0691  0.5711  0.5065
13139SOL     OW42371   7.623   7.286   6.298  0.1820 -0.0211 -0.0461
13139SOL    HW142372   7.706   7.317   6.261  0.1433  0.7136  0.4726
13139SOL    HW242373   7.596   7.355   6.358 -1.8233  0.6851 -1.6536
13140SOL     OW42374   0.610   5.562   6.653  0.6126 -0.3629 -0.4288
13140SOL    HW142375   0.661   5.588   6.577  0.0163  0.6141 -0.5211
13140SOL    HW242376   0.657   5.601   6.727 -0.8531  2.0044 -0.6581
13141SOL     OW42377   9.082   7.641   1.365  0.4721  0.6389 -0.3157
13141SOL    HW142378   9.175   7.619   1.366  0.3193 -0.0272  0.0666
13141SOL    HW242379   9.072   7.700   1.290  1.2745  1.0635 -0.0988
13142SOL     OW42380   5.081   8.607   6.145  0.1675  0.1107  0.2047
13142SOL    HW142381   5.057   8.580   6.057  3.6021 -0.6284 -0.6708
13142SOL    HW242382   5.077   8.527   6.197 -0.2614  0.2089  0.3275
13143SOL     OW42383   0.625   7.310   3.774 -0.0715  0.4019 -0.0984
13143SOL    HW142384   0.688   7.253   3.817 -1.2456  0.7605  2.2742
13143SOL    HW242385   0.649   7.308   3.681  1.4157 -1.9518  0.2744
13144SOL     OW42386   1.689   6.367  10.100 -0.1356  0.1710 -0.6684
13144SOL    HW142387   1.599   6.383  10.129  0.1301  1.6302 -0.5740
13144SOL    HW242388   1.711   6.443  10.046  1.6229  0.7328  0.7220
13145SOL     OW42389   4.940   1.942   8.578 -0.0712 -0.3933  0.1531
13145SOL    HW142390   4.855   1.970   8.613 -0.6922  0.8683 -2.1066
13145SOL    HW242391   4.918   1.892   8.500  1.2680 -0.7974  0.0100
13146SOL     OW42392   9.866   4.497   7.881 -0.0156 -0.4355 -0.2120
13146SOL    HW142393   9.832   4.571   7.930 -1.6513  0.9648 -3.1637
13146SOL    HW242394   9.799   4.429   7.889 -0.8042  0.1821 -1.2587
13147SOL     OW42395   5.570   7.994   8.016 -0.5780 -0.1617  0.0523
13147SOL    HW142396   5.647   8.025   8.063 -0.4962  0.6770 -0.6058
13147SOL    HW242397   5.581   7.899   8.011  0.4988 -0.0305 -0.1901
13148SOL     OW42398   1.037   5.144   4.183  0.2617  0.2510 -0.0653
13148SOL    HW142399   0.994   5.114   4.103  1.4534 -0.0339 -0.6180
13148SOL    HW242400   0.978   5.117   4.253 -0.7306  0.3732 -0.8255
13149SOL     OW42401   6.918   4.759   1.393  0.2271  0.4889  0.1270
13149SOL    HW142402   6.880   4.826   1.337 -0.7436  0.9206  1.2497
13149SOL    HW242403   7.011   4.757   1.369 -0.2216  0.3574 -1.7532
13150SOL     OW42404   3.075   0.685   2.858  0.0675  0.7072  0.8136
13150SOL    HW142405   3.047   0.760   2.806 -1.9247 -0.5586 -0.1189
13150SOL    HW242406   3.159   0.659   2.819 -0.4568  0.9439 -0.5560
13151SOL     OW42407   5.742   0.697   3.260  0.8958 -0.3940 -0.7978
13151SOL    HW142408   5.662   0.744   3.285 -0.8501 -2.7174 -1.6087
13151SOL    HW242409   5.800   0.706   3.335  0.2793  2.1325 -0.5467
13152SOL     OW42410   2.350   8.506   8.040 -0.3648 -0.0665 -0.4922
13152SOL    HW142411   2.434   8.544   8.014  0.2232 -2.1721 -1.8934
13152SOL    HW242412   2.292   8.582   8.053  1.3517  1.3646 -0.8650
13153SOL     OW42413   2.844   3.217   9.556  0.1676 -0.7331  0.1941
13153SOL    HW142414   2.751   3.210   9.577 -0.0086 -2.6196 -1.0062
13153SOL    HW242415   2.858   3.309   9.535 -1.1880 -0.2292  1.3635
13154SOL     OW42416   3.942   6.853   7.504  0.0631 -0.3944  0.5077
13154SOL    HW142417   4.016   6.912   7.518 -1.4819  1.3008  2.0272
13154SOL    HW242418   3.944   6.793   7.578  0.0703 -0.5217  0.4058
13155SOL     OW42419   2.870   1.356   9.158 -0.3515  0.2252  0.0432
13155SOL    HW142420   2.906   1.430   9.207 -0.2073 -0.5280  1.1166
13155SOL    HW242421   2.819   1.307   9.223 -0.4076 -0.6306 -0.6357
13156SOL     OW42422   6.411   2.998   8.445  0.4119  0.1425 -0.5402
13156SOL    HW142423   6.475   3.014   8.375  0.5516  1.7951 -0.0861
13156SOL    HW242424   6.441   2.917   8.487  2.5882  1.1484  0.0228
13157SOL     OW42425   6.236   6.442   5.540  0.0186 -0.1705  0.0598
13157SOL    HW142426   6.320   6.486   5.555  0.3399 -0.3379 -1.1474
13157SOL    HW242427   6.251   6.352   5.568 -0.3189  0.2147  1.5382
13158SOL     OW42428   2.893   9.891   6.696 -0.0829 -0.2726 -0.4370
13158SOL    HW142429   2.969   9.944   6.723 -0.4312 -0.0979  0.2343
13158SOL    HW242430   2.876   9.917   6.606  0.2008  0.2279 -0.3489
13159SOL     OW42431   6.572   2.038   9.379 -0.4572 -0.0087 -0.0411
13159SOL    HW142432   6.617   1.955   9.362  2.0397  1.0863  0.7341
13159SOL    HW242433   6.542   2.066   9.293  2.9793  0.5432 -1.2394
13160SOL     OW42434   8.071   7.983   2.354  0.2292  0.2060 -0.1961
13160SOL    HW142435   8.022   8.064   2.369 -0.1111  0.2045 -1.2473
13160SOL    HW242436   8.163   8.009   2.358  0.1472  0.3903  0.7845
13161SOL     OW42437   2.054   0.268   9.422  0.4267  0.5158 -0.2510
13161SOL    HW142438   2.141   0.261   9.461 -0.7455  1.0166  2.7461
13161SOL    HW242439   2.040   0.362   9.411 -0.4092  0.5920  1.1655
13162SOL     OW42440   3.482   0.627   9.227 -0.2569  0.2678  0.1209
13162SOL    HW142441   3.438   0.566   9.286  1.1273 -0.6640  0.2384
13162SOL    HW242442   3.541   0.677   9.283 -1.5098  1.9077  0.0615
13163SOL     OW42443   7.156   0.320   3.784 -0.1363  0.5953 -0.0828
13163SOL    HW142444   7.190   0.326   3.695  0.1654 -0.9027 -0.1015
13163SOL    HW242445   7.062   0.309   3.773 -0.2812  1.7565 -0.1438
13164SOL     OW42446   4.593   6.255   9.663  0.1398  0.3733 -0.2214
13164SOL    HW142447   4.511   6.305   9.661 -0.0679  0.0892  0.7767
13164SOL    HW242448   4.632   6.271   9.577 -1.3764 -0.1687 -1.0541
13165SOL     OW42449   1.840   8.676   8.100  0.0043 -0.1199  0.2426
13165SOL    HW142450   1.927   8.671   8.062  0.4107  2.4849  0.6366
13165SOL    HW242451   1.854   8.672   8.195 -0.2987  0.2885  0.3085
13166SOL     OW42452   6.304   2.108   2.735  0.0074 -0.1495 -0.2739
13166SOL    HW142453   6.366   2.141   2.800  1.0691  0.4901 -1.5727
13166SOL    HW242454   6.270   2.027   2.773 -1.2987  1.4310  2.1999
13167SOL     OW42455   3.253   3.583   7.651 -0.2940  0.5197 -0.3083
13167SOL    HW142456   3.226   3.557   7.739  0.5356  0.5608 -0.0363
13167SOL    HW242457   3.239   3.505   7.598 -0.1562  0.2820 -0.0015
13168SOL     OW42458   1.430   1.807   6.702  0.0794 -0.7532  0.0687
13168SOL    HW142459   1.514   1.818   6.658  0.8778  0.7048  1.8367
13168SOL    HW242460   1.372   1.870   6.659  1.3092  1.8954  2.0304
13169SOL     OW42461   1.704   1.577   6.902 -0.1338  0.5916  0.2583
13169SOL    HW142462   1.610   1.590   6.898 -0.2219 -0.0532  0.1391
13169SOL    HW242463   1.716   1.510   6.970  0.0546 -0.9675 -1.2398
13170SOL     OW42464   8.955   0.119   5.229 -0.2562  0.0292 -0.5392
13170SOL    HW142465   9.004   0.038   5.217 -0.5833 -0.2314 -0.1286
13170SOL    HW242466   8.956   0.135   5.323 -1.6045 -0.3950 -0.4265
13171SOL     OW42467   1.569   3.732   0.543  0.5581 -0.5305  0.0805
13171SOL    HW142468   1.546   3.727   0.450 -0.0755  1.5183  0.0741
13171SOL    HW242469   1.489   3.707   0.589  1.0826 -2.2559  0.1134
13172SOL     OW42470   9.127   4.537   5.464  0.0225 -0.0328  0.4627
13172SOL    HW142471   9.088   4.618   5.431 -0.1885 -0.6696 -0.8798
13172SOL    HW242472   9.069   4.468   5.434  1.3589 -0.8644 -0.2932
13173SOL     OW42473   8.173   8.329   9.885 -0.2156  0.0556 -0.4627
13173SOL    HW142474   8.078   8.328   9.896 -0.2534  0.6328 -0.7194
13173SOL    HW242475   8.204   8.257   9.941 -0.8037 -0.1665 -0.4140
13174SOL     OW42476   6.255   3.269   7.048 -0.0826  0.1445  0.0320
13174SOL    HW142477   6.342   3.246   7.015  0.9330  2.1427  1.1684
13174SOL    HW242478   6.217   3.323   6.978  0.4235  0.9429  0.3569
13175SOL     OW42479   4.338   5.479   1.335 -0.1322  0.1539  0.0994
13175SOL    HW142480   4.376   5.536   1.402  0.6793 -0.2269 -0.0275
13175SOL    HW242481   4.413   5.446   1.285 -0.7411  0.7617 -1.2749
13176SOL     OW42482   1.995   7.401   2.738  0.4445 -0.6282  0.1818
13176SOL    HW142483   1.916   7.447   2.711  0.6548 -0.3766 -0.0111
13176SOL    HW242484   1.972   7.359   2.821  0.1588 -0.4281  0.2028
13177SOL     OW42485   7.756   6.120   1.274 -0.8344  0.2756  0.0969
13177SOL    HW142486   7.733   6.030   1.295 -0.3087 -0.2428 -1.4440
13177SOL    HW242487   7.674   6.160   1.246 -0.9754  0.1615  0.3362
13178SOL     OW42488   1.819   8.018   5.109 -0.5519  0.2330  0.0488
13178SOL    HW142489   1.814   7.943   5.050  2.0007 -0.6920  0.9016
13178SOL    HW242490   1.776   7.989   5.189  0.5669 -0.4149  0.4318
13179SOL     OW42491   2.934   3.802   3.945 -0.3216  0.3854 -0.0722
13179SOL    HW142492   3.024   3.788   3.974 -0.5199  0.3182  0.5247
13179SOL    HW242493   2.885   3.728   3.982 -0.2959 -0.6195 -1.9694
13180SOL     OW42494   5.870   4.313   9.014  0.0537 -0.0488  0.2828
13180SOL    HW142495   5.965   4.308   9.014  0.0267 -1.3777 -1.5518
13180SOL    HW242496   5.845   4.289   9.103  1.4288  1.6568  1.1931
13181SOL     OW42497  10.304   3.494   7.873  0.4423 -0.6915  0.1206
13181SOL    HW142498  10.248   3.572   7.872 -1.1424 -1.7749  1.1052
13181SOL    HW242499  10.248   3.424   7.905  1.9703 -2.1611 -0.2882
13182SOL     OW42500   8.880   6.503   1.822 -0.1297 -0.0946 -0.0850
13182SOL    HW142501   8.801   6.495   1.769  0.3157  1.9276 -1.1772
13182SOL    HW242502   8.942   6.443   1.783 -0.5596 -0.3624 -0.3634
13183SOL     OW42503   0.522   8.375   8.293  0.2271 -0.0280 -0.7124
13183SOL    HW142504   0.562   8.293   8.264 -0.6127 -0.5801 -0.3246
13183SOL    HW242505   0.435   8.350   8.323  0.3655  0.8239  0.4659
13184SOL     OW42506   7.805   8.312   0.281  0.4313  0.1561 -0.6629
13184SOL    HW142507   7.772   8.290   0.194  0.9221 -1.9127 -0.3839
13184SOL    HW242508   7.899   8.323   0.268  0.5689 -0.5899 -0.3356
13185SOL     OW42509   4.641   1.404   1.412 -0.0676 -0.0097  0.2759
13185SOL    HW142510   4.579   1.335   1.389  0.7804 -0.6785 -0.0537
13185SOL    HW242511   4.666   1.385   1.502 -1.7854  1.3898  1.1063
13186SOL     OW42512   7.360   5.612   7.309 -0.0107  0.0181 -0.2508
13186SOL    HW142513   7.451   5.620   7.280 -0.2758 -1.1791 -1.5126
13186SOL    HW242514   7.310   5.661   7.244 -0.4782 -1.4440 -1.0266
13187SOL     OW42515   4.397   6.856   0.074  0.3908 -0.5004 -0.5012
13187SOL    HW142516   4.345   6.854  -0.006  0.7138 -0.0733 -0.7252
13187SOL    HW242517   4.424   6.948   0.083  0.7735 -0.6415 -0.1750
13188SOL     OW42518   9.830   1.975   1.289  0.0000  0.4528 -0.2888
13188SOL    HW142519   9.753   1.923   1.309 -0.3810  0.8027 -0.8096
13188SOL    HW242520   9.901   1.933   1.337 -0.3104 -0.4975 -0.6422
13189SOL     OW42521   1.093   3.603   1.711  0.1999  0.1206  0.0342
13189SOL    HW142522   1.125   3.579   1.798 -0.2838  2.1242  0.8057
13189SOL    HW242523   1.172   3.612   1.658  0.7882  2.0589  1.1409
13190SOL     OW42524   7.574   2.781   1.813 -0.0581 -0.1361  0.5992
13190SOL    HW142525   7.607   2.777   1.723 -1.8019  0.7468 -0.1164
13190SOL    HW242526   7.621   2.711   1.858 -2.2332 -3.6580 -2.0555
13191SOL     OW42527   2.194   7.772   6.736  0.2448  0.0001 -0.8801
13191SOL    HW142528   2.165   7.824   6.812  0.7097 -1.9503  0.7295
13191SOL    HW242529   2.167   7.823   6.660  0.8020  2.6392  0.5741
13192SOL     OW42530   0.128   2.447   4.325 -0.2926  0.4240  0.1339
13192SOL    HW142531   0.221   2.435   4.340  0.4124  2.2936 -2.1828
13192SOL    HW242532   0.099   2.505   4.396 -0.1009 -1.3225  1.7133
13193SOL     OW42533   8.042   3.482   4.455  0.0723 -0.1078 -0.2085
13193SOL    HW142534   8.043   3.429   4.375 -2.0845  0.9518 -1.0446
13193SOL    HW242535   7.949   3.504   4.467  0.6964  2.2801  0.8582
13194SOL     OW42536   8.350   1.619   6.857 -0.4286 -0.2087 -0.0371
13194SOL    HW142537   8.400   1.700   6.844  1.0347 -0.9626  0.7231
13194SOL    HW242538   8.415   1.550   6.857 -1.5484 -1.2985  0.4312
13195SOL     OW42539   5.798   5.498   1.242 -0.3729 -0.2403 -0.4270
13195SOL    HW142540   5.714   5.515   1.200 -0.8162 -1.3206 -0.0040
13195SOL    HW242541   5.839   5.585   1.250 -0.8504  0.1324 -1.8529
13196SOL     OW42542   8.012   4.281   5.716 -0.0352 -1.2928 -0.7597
13196SOL    HW142543   8.015   4.370   5.750 -1.6437 -1.4763 -0.0392
13196SOL    HW242544   8.080   4.279   5.648 -0.0240  0.5003 -0.8542
13197SOL     OW42545   6.535   6.362   9.283  0.4114  0.0990 -0.0005
13197SOL    HW142546   6.570   6.450   9.298  0.7905 -0.1161  0.3906
13197SOL    HW242547   6.581   6.330   9.206  1.3162 -0.2988  0.6859
13198SOL     OW42548   2.553  10.370   7.157  0.0231  0.4759  0.3003
13198SOL    HW142549   2.530  10.279   7.176 -0.4359  0.3849 -0.6286
13198SOL    HW242550   2.512  10.388   7.072  0.3994  1.4432  0.3091
13199SOL     OW42551   2.389   8.229   7.957  0.5962 -0.1915 -0.3780
13199SOL    HW142552   2.405   8.228   7.863 -1.2968 -2.4122 -0.7718
13199SOL    HW242553   2.428   8.311   7.987  2.3762 -0.0169 -2.8606
13200SOL     OW42554   4.286   9.089  10.483 -0.0984 -0.3411 -0.4977
13200SOL    HW142555   4.286   9.118  10.392  0.3958  1.4087  0.0192
13200SOL    HW242556   4.245   9.002  10.481 -0.7580 -0.0257 -2.2728
13201SOL     OW42557   8.970   7.545   5.242  0.1771 -0.1282 -0.1579
13201SOL    HW142558   9.052   7.501   5.263  2.2162  3.5102  0.3204
13201SOL    HW242559   8.978   7.568   5.149  0.4308  1.5050  0.2365
13202SOL     OW42560   0.119   0.866   9.900 -0.1977  0.1083 -0.4195
13202SOL    HW142561   0.187   0.926   9.868 -0.0192 -0.1119 -0.4579
13202SOL    HW242562   0.040   0.920   9.905  0.0332  0.4290 -0.1443
13203SOL     OW42563   0.591   8.739   9.311  0.5188 -0.3991  0.6650
13203SOL    HW142564   0.551   8.702   9.389  0.9787  1.1387  1.6631
13203SOL    HW242565   0.681   8.758   9.336  0.9215 -0.6558 -0.5065
13204SOL     OW42566   8.886   0.275   4.770  0.0985 -0.2664  0.1161
13204SOL    HW142567   8.937   0.195   4.760  0.1520 -0.3711  1.1717
13204SOL    HW242568   8.940   0.343   4.730  0.3581 -0.6368 -0.1671
13205SOL     OW42569   3.604   3.172  10.658  0.6600 -0.5224  0.5205
13205SOL    HW142570   3.674   3.212  10.606  1.9412 -0.3636  2.2733
13205SOL    HW242571   3.536   3.239  10.663  0.4534 -0.5865 -1.0085
13206SOL     OW42572   8.879   8.303   9.083 -0.1539  0.0726 -0.1051
13206SOL    HW142573   8.796   8.290   9.037  0.0071 -1.7133  0.0309
13206SOL    HW242574   8.937   8.340   9.017 -1.1082  1.5924 -0.1291
13207SOL     OW42575   2.916   3.436  10.553  0.1667 -0.8148 -0.1215
13207SOL    HW142576   2.842   3.376  10.553  0.0280 -0.6483 -0.5006
13207SOL    HW242577   2.884   3.514  10.597  0.2836 -0.9404  0.1884
13208SOL     OW42578   6.110   2.987  10.601  0.3338  0.7688 -0.1398
13208SOL    HW142579   6.052   2.929  10.551  0.5311 -1.0353  1.5944
13208SOL    HW242580   6.050   3.046  10.647 -0.0715 -0.1205  0.4981
13209SOL     OW42581   5.445   0.120   8.790  0.0213 -0.2495  0.2111
13209SOL    HW142582   5.525   0.170   8.806  0.0910  0.1934 -1.3608
13209SOL    HW242583   5.378   0.163   8.842  0.5069  0.2530  0.4223
13210SOL     OW42584   4.154   5.006   1.186 -0.5022  0.4506  0.6280
13210SOL    HW142585   4.131   5.060   1.262 -0.5590  1.0390  0.2009
13210SOL    HW242586   4.070   4.985   1.146 -0.5453 -0.7369  1.3082
13211SOL     OW42587   4.291   0.335   9.580 -0.2355  0.0298 -0.1656
13211SOL    HW142588   4.228   0.273   9.544  0.8984 -1.4349  0.2473
13211SOL    HW242589   4.306   0.398   9.509 -0.2023 -1.1268 -1.2141
13212SOL     OW42590   4.913   3.398  10.442 -0.5403  0.3578  0.5189
13212SOL    HW142591   4.973   3.448  10.387 -1.6122  1.2789  0.1403
13212SOL    HW242592   4.939   3.419  10.532 -1.0404  1.7504  0.3746
13213SOL     OW42593   7.796   4.342   0.749  0.5386 -0.1354  0.1794
13213SOL    HW142594   7.882   4.342   0.707 -0.1957 -2.9560 -1.6400
13213SOL    HW242595   7.750   4.415   0.708  0.7603 -1.1609 -2.1005
13214SOL     OW42596   5.687   2.784   9.501  0.1255  0.1028  0.5482
13214SOL    HW142597   5.709   2.706   9.552 -0.9851 -0.6330 -0.0635
13214SOL    HW242598   5.754   2.788   9.433 -0.7909 -1.3600 -0.4917
13215SOL     OW42599   2.215  10.434   8.583  0.4866  0.4134 -0.7347
13215SOL    HW142600   2.210  10.529   8.592  2.0270  0.4101  0.6904
13215SOL    HW242601   2.185  10.400   8.667  1.1117 -0.3055 -0.7904
13216SOL     OW42602   5.106   2.332   2.337  0.0574  0.7882 -0.3247
13216SOL    HW142603   5.108   2.246   2.297 -1.0015  1.0145 -0.9027
13216SOL    HW242604   5.077   2.391   2.267  0.2398  1.5272  0.2040
13217SOL     OW42605   9.988   6.409   5.948  0.3834 -0.5711 -0.4031
13217SOL    HW142606   9.914   6.368   5.993  1.0000 -4.0484 -2.2429
13217SOL    HW242607  10.065   6.380   5.997  0.7281  1.8453  0.6371
13218SOL     OW42608  10.637   7.522   1.830  0.1274 -0.1928 -0.0284
13218SOL    HW142609  10.704   7.515   1.762  0.4402 -1.3887  0.3728
13218SOL    HW242610  10.564   7.470   1.797 -0.5415  0.9300 -0.3664
13219SOL     OW42611   2.602   9.109   5.709 -0.1855  0.0694 -0.2523
13219SOL    HW142612   2.646   9.194   5.705 -0.2417  0.0930 -0.3613
13219SOL    HW242613   2.654   9.058   5.771 -0.3050  0.2716  0.0144
13220SOL     OW42614   3.824   3.831   7.582 -0.3997  0.5739  0.2437
13220SOL    HW142615   3.807   3.924   7.568 -0.7187  0.3223 -1.2123
13220SOL    HW242616   3.842   3.824   7.676  1.0790  2.3215  0.1482
13221SOL     OW42617  10.389   9.261   3.721 -0.4907 -0.0975 -0.1099
13221SOL    HW142618  10.450   9.274   3.649 -0.7155  0.5910 -0.1796
13221SOL    HW242619  10.377   9.348   3.759 -1.2492 -0.2596  0.0385
13222SOL     OW42620   9.858   4.920   8.544 -0.0399  0.2885 -0.1381
13222SOL    HW142621   9.875   4.972   8.465  1.5638 -0.0235 -0.0250
13222SOL    HW242622   9.917   4.956   8.610  1.0294 -1.5812 -0.0222
13223SOL     OW42623   9.280   7.807   6.669 -0.3504 -0.1863  0.1155
13223SOL    HW142624   9.306   7.773   6.583 -0.9214  0.1381 -0.1844
13223SOL    HW242625   9.356   7.857   6.698  0.2718 -1.2026  0.2907
13224SOL     OW42626   7.147   7.368   4.713 -0.4901 -0.3313 -0.3842
13224SOL    HW142627   7.175   7.440   4.657  0.4501 -0.1733  0.2646
13224SOL    HW242628   7.204   7.295   4.689  0.8379  0.1050  1.2292
13225SOL     OW42629   3.764   2.035   8.247 -0.2882 -0.0723 -0.2456
13225SOL    HW142630   3.787   1.943   8.257  0.3554  0.1645  0.5394
13225SOL    HW242631   3.673   2.035   8.217 -0.0504 -0.9780 -0.9905
13226SOL     OW42632   8.844   9.068   9.260  0.1233  0.0617  0.8622
13226SOL    HW142633   8.805   9.105   9.180 -0.0989 -1.5118  0.1994
13226SOL    HW242634   8.939   9.081   9.248  0.3078 -2.1845 -0.8121
13227SOL     OW42635   3.643   9.137   9.226  0.4025  0.2829  0.2610
13227SOL    HW142636   3.701   9.202   9.186  1.5331 -1.1900 -0.5555
13227SOL    HW242637   3.657   9.148   9.320  0.0576  1.6455  0.1874
13228SOL     OW42638   0.626   9.414   3.309 -0.9805  0.2769  0.3293
13228SOL    HW142639   0.597   9.431   3.220  1.9476  2.4026 -0.3818
13228SOL    HW242640   0.684   9.488   3.330  0.6128 -1.5388  2.9523
13229SOL     OW42641   7.278   8.473   1.124  0.4076  0.9575  0.4620
13229SOL    HW142642   7.228   8.537   1.073 -0.0363  1.1684  1.1343
13229SOL    HW242643   7.313   8.412   1.060 -0.9329  0.6588 -0.0321
13230SOL     OW42644   9.242   6.892   0.009  0.3778 -0.1944 -0.2217
13230SOL    HW142645   9.216   6.980   0.035  1.2762  0.1192 -0.3396
13230SOL    HW242646   9.173   6.835   0.042 -0.2643  0.5661 -0.2422
13231SOL     OW42647   4.786   1.251   4.445 -0.4326  0.1589 -0.5694
13231SOL    HW142648   4.729   1.201   4.502  0.9711 -0.4838  0.3219
13231SOL    HW242649   4.802   1.193   4.370  1.1126 -0.7485  0.4153
13232SOL     OW42650   8.050   7.696   0.171 -0.2065 -0.3706  0.4262
13232SOL    HW142651   8.051   7.770   0.110  3.6273 -0.0845  0.5956
13232SOL    HW242652   7.999   7.727   0.245 -1.6614  0.7299 -0.9511
13233SOL     OW42653   2.193   5.624  10.589  0.1717  0.0096  0.3874
13233SOL    HW142654   2.280   5.632  10.550 -0.1029  0.2373 -0.1763
13233SOL    HW242655   2.210   5.587  10.676  0.8346  0.0804  0.2963
13234SOL     OW42656   8.193   5.821   0.084  0.1275  0.2492 -0.2305
13234SOL    HW142657   8.189   5.727   0.065 -1.4845  0.4949 -1.2847
13234SOL    HW242658   8.280   5.834   0.123  0.8899 -1.4585 -1.2336
13235SOL     OW42659   7.128   7.865   6.082 -0.3192 -0.1095 -0.9712
13235SOL    HW142660   7.177   7.792   6.046  0.6552 -0.5884  1.1694
13235SOL    HW242661   7.189   7.939   6.081 -0.8415  0.3312 -1.8266
13236SOL     OW42662   4.434   0.637   8.329  0.6959 -0.2496  0.1103
13236SOL    HW142663   4.379   0.598   8.396  1.4704 -3.8908 -1.1463
13236SOL    HW242664   4.518   0.653   8.372  0.5603 -0.5922  0.5018
13237SOL     OW42665   8.210  10.566   0.566  0.4426 -0.6622 -0.4718
13237SOL    HW142666   8.206  10.646   0.617 -0.6957 -0.7111 -0.4558
13237SOL    HW242667   8.230  10.594   0.477  0.1026 -0.3566 -0.4530
13238SOL     OW42668   6.829   8.365   2.412 -0.0598  0.0182  0.2745
13238SOL    HW142669   6.759   8.420   2.376  0.1687  0.9274  1.1725
13238SOL    HW242670   6.903   8.378   2.353  0.1324  1.0524  0.7167
13239SOL     OW42671   1.930   7.889   4.017  0.7420 -0.4108  0.0130
13239SOL    HW142672   1.843   7.850   4.023  1.2147 -1.9933 -2.0665
13239SOL    HW242673   1.937   7.946   4.094 -1.4101 -1.6472  1.2100
13240SOL     OW42674   4.753   4.688   6.880  0.2369 -0.2869 -0.0723
13240SOL    HW142675   4.663   4.694   6.913  0.0606 -1.1189 -0.3941
13240SOL    HW242676   4.799   4.634   6.944 -0.5125 -3.3751 -1.9040
13241SOL     OW42677   9.627   0.601  10.110  0.2362 -0.3254 -0.1082
13241SOL    HW142678   9.713   0.581  10.146 -0.6444  1.6961  3.6414
13241SOL    HW242679   9.571   0.528  10.138 -0.1211  0.5159  1.5161
13242SOL     OW42680   1.970   5.013   3.036  0.2134  0.0561  0.2332
13242SOL    HW142681   1.888   5.014   2.987 -0.8612 -0.9641  1.9170
13242SOL    HW242682   2.034   4.978   2.974 -0.5733  0.9737 -1.1491
13243SOL     OW42683   9.165   8.891   3.448  0.2068  0.0655 -0.1415
13243SOL    HW142684   9.074   8.890   3.420  0.7008 -0.2980 -1.8109
13243SOL    HW242685   9.213   8.847   3.378  1.5949 -0.3168  0.9905
13244SOL     OW42686   3.399   7.245   9.460  0.2986 -0.2584 -0.0525
13244SOL    HW142687   3.493   7.259   9.459  0.1424  0.9549 -1.7249
13244SOL    HW242688   3.376   7.227   9.369 -1.0215 -1.1503  0.4181
13245SOL     OW42689   1.376   0.654   2.827 -0.1060 -0.2684  0.6775
13245SOL    HW142690   1.315   0.606   2.771  0.7899  0.3600 -0.9045
13245SOL    HW242691   1.428   0.585   2.870  0.5252 -0.7884 -0.8219
13246SOL     OW42692   9.881   7.043   3.602 -0.1903 -0.0091  0.0880
13246SOL    HW142693   9.840   7.065   3.686 -1.7676 -0.8980 -0.4148
13246SOL    HW242694   9.910   7.127   3.567  0.2616  0.4062  1.4000
13247SOL     OW42695  10.074   5.260   6.476  0.0549  0.1900 -0.4217
13247SOL    HW142696  10.116   5.298   6.399  0.2200 -0.1903 -0.5242
13247SOL    HW242697  10.048   5.335   6.529 -0.0171  0.4546 -0.8256
13248SOL     OW42698   3.262   3.304   8.972 -0.2236  0.1704  0.3125
13248SOL    HW142699   3.352   3.330   8.952  0.3973 -0.8191  1.6801
13248SOL    HW242700   3.267   3.265   9.059 -1.7280 -1.2568 -0.1906
13249SOL     OW42701   9.638   3.045   2.846 -0.1034 -0.1163  0.2574
13249SOL    HW142702   9.614   2.962   2.804 -1.3039  0.6360 -0.5866
13249SOL    HW242703   9.663   3.020   2.935  0.9896 -1.5522 -0.4048
13250SOL     OW42704   6.310   8.148   3.655  0.4114 -0.4900 -0.1984
13250SOL    HW142705   6.316   8.155   3.560  3.1885 -0.3421 -0.0869
13250SOL    HW242706   6.330   8.236   3.687 -1.6391 -0.2444  0.5599
13251SOL     OW42707   9.437   3.713   8.137  0.2865 -0.0418 -0.0771
13251SOL    HW142708   9.387   3.746   8.062  1.2540  0.6204 -0.4438
13251SOL    HW242709   9.410   3.621   8.144 -1.5206  0.4658  0.1951
13252SOL     OW42710   6.218   6.506   7.786 -0.1954 -0.5269 -0.0506
13252SOL    HW142711   6.175   6.514   7.871  2.0264  1.9534  0.9635
13252SOL    HW242712   6.306   6.475   7.807  0.4860  0.4179 -1.3798
13253SOL     OW42713   3.425   4.580  10.599 -0.2915 -0.3235  0.0858
13253SOL    HW142714   3.455   4.571  10.689  0.5710  1.3375 -0.0080
13253SOL    HW242715   3.502   4.562  10.546 -0.5182 -0.1736 -0.2976
13254SOL     OW42716   0.315   3.884   2.421 -0.2736 -0.3462 -0.2146
13254SOL    HW142717   0.396   3.934   2.435 -1.0315  0.7050  0.5914
13254SOL    HW242718   0.247   3.939   2.460 -1.8196  0.2015 -3.3940
13255SOL     OW42719   0.468   8.178  10.057 -0.0446  0.1849 -0.0906
13255SOL    HW142720   0.433   8.221   9.979 -0.2185 -2.3172 -1.4767
13255SOL    HW242721   0.447   8.086  10.046  1.5627 -0.5346  2.0591
13256SOL     OW42722   5.599   8.569   6.189  0.4263 -0.5152  0.1488
13256SOL    HW142723   5.605   8.494   6.249 -1.5469  0.4591  1.6631
13256SOL    HW242724   5.509   8.599   6.197  0.7883  1.1689 -1.5171
13257SOL     OW42725   1.497   6.583   2.083  0.7837  0.2521  0.2510
13257SOL    HW142726   1.472   6.566   1.992  1.8852  1.9613 -0.4229
13257SOL    HW242727   1.592   6.593   2.080  1.4359 -3.3127  2.2551
13258SOL     OW42728   7.343   2.570   5.661  0.3259  0.2469 -0.4985
13258SOL    HW142729   7.435   2.592   5.677  0.6003 -0.6073 -0.8138
13258SOL    HW242730   7.312   2.638   5.602  1.0183  0.0568 -1.0996
13259SOL     OW42731   8.908   8.375   1.769  0.2050 -0.3300  0.0284
13259SOL    HW142732   8.938   8.328   1.692  0.9048  0.2781 -0.0814
13259SOL    HW242733   8.813   8.380   1.760  0.1631 -1.3663 -0.1511
13260SOL     OW42734   0.809   3.779   9.659  0.1621 -0.4116  0.5340
13260SOL    HW142735   0.799   3.706   9.720  2.4489 -1.2602  0.0121
13260SOL    HW242736   0.871   3.747   9.594  1.4250  2.0528  0.4140
13261SOL     OW42737   9.575   2.793  10.106  0.0924 -0.3493 -0.0394
13261SOL    HW142738   9.643   2.792  10.173  0.0449 -1.7023  0.0179
13261SOL    HW242739   9.518   2.719  10.127 -0.6524 -0.0386 -0.8449
13262SOL     OW42740  10.588   3.967  10.009 -0.1476 -0.2755 -0.3077
13262SOL    HW142741  10.617   3.937   9.923 -1.2321  0.6576 -1.0307
13262SOL    HW242742  10.517   4.029   9.990 -1.8109 -1.5548  1.3139
13263SOL     OW42743   1.165   2.962  10.370  0.0567  0.1234  0.7620
13263SOL    HW142744   1.244   2.985  10.419  0.4934 -1.7936  1.0399
13263SOL    HW242745   1.095   2.964  10.435 -0.0044  1.0228  0.6850
13264SOL     OW42746   1.277   6.346   5.207 -0.3123  0.1979  0.3455
13264SOL    HW142747   1.247   6.260   5.176 -1.2890  0.0720  1.5964
13264SOL    HW242748   1.256   6.406   5.135 -2.4501 -0.1089  0.6473
13265SOL     OW42749  10.533   7.766   3.104 -0.3165 -0.2699  0.3197
13265SOL    HW142750  10.483   7.843   3.076  2.7336  2.3078  1.2721
13265SOL    HW242751  10.505   7.750   3.194 -0.8863 -0.1937  0.1557
13266SOL     OW42752   3.087   9.102   8.384  0.1425  0.2829  0.7134
13266SOL    HW142753   3.145   9.152   8.443  0.1125 -1.5386  2.3870
13266SOL    HW242754   2.999   9.116   8.419  0.2584 -1.9360  2.0725
13267SOL     OW42755   8.769   4.126  10.436  0.5234  0.0893  0.0005
13267SOL    HW142756   8.803   4.096  10.352  1.9164 -0.9599  0.9015
13267SOL    HW242757   8.716   4.053  10.469  1.1884 -0.1035  0.6801
13268SOL     OW42758   8.269   6.724   7.432 -0.2880 -0.3755  0.6241
13268SOL    HW142759   8.337   6.765   7.487 -1.4945  0.6649  1.4262
13268SOL    HW242760   8.274   6.771   7.349 -1.7681  1.6628  1.5916
13269SOL     OW42761   2.420   5.515   1.567 -1.2587  0.2428 -0.2778
13269SOL    HW142762   2.334   5.546   1.540 -0.5317  1.0512 -1.8043
13269SOL    HW242763   2.482   5.578   1.530  0.1522 -1.7378 -1.5229
13270SOL     OW42764   5.970   2.393   0.374 -0.1445 -0.2920 -0.5302
13270SOL    HW142765   5.893   2.450   0.382  0.0840  0.0545 -0.7375
13270SOL    HW242766   6.041   2.444   0.411 -0.1084 -0.8306  0.1599
13271SOL     OW42767   1.752   6.107   1.494 -0.5382 -0.4505  0.4218
13271SOL    HW142768   1.835   6.147   1.519  0.5743 -2.4296  0.1241
13271SOL    HW242769   1.699   6.109   1.573 -0.3482  1.1087  0.5364
13272SOL     OW42770   2.108   4.469   2.309 -0.1082 -0.4267 -0.1542
13272SOL    HW142771   2.131   4.500   2.222 -2.2859 -3.0488 -1.8421
13272SOL    HW242772   2.190   4.473   2.359  1.8075 -0.9892 -3.0293
13273SOL     OW42773   8.698   1.853   1.645 -0.2097  0.6761  0.0554
13273SOL    HW142774   8.680   1.831   1.736 -1.7260 -0.3610 -0.4521
13273SOL    HW242775   8.719   1.947   1.646 -0.0219  0.6382  1.4715
13274SOL     OW42776   4.321   4.020   2.376  0.4004 -0.1679  0.3341
13274SOL    HW142777   4.348   3.938   2.418 -0.2434 -0.7055 -0.2714
13274SOL    HW242778   4.403   4.057   2.342  0.4769 -1.5770 -1.1219
13275SOL     OW42779   8.291   7.530   6.353 -0.0377  0.3430 -0.3479
13275SOL    HW142780   8.359   7.593   6.331  0.1301 -0.3625 -2.0024
13275SOL    HW242781   8.298   7.519   6.447  0.1138  2.5578 -0.0492
13276SOL     OW42782   0.699   2.202   4.494  0.1652 -0.2683 -0.1037
13276SOL    HW142783   0.770   2.247   4.540 -0.0751  0.0122 -0.0022
13276SOL    HW242784   0.711   2.109   4.515 -2.4521  0.0832  4.2632
13277SOL     OW42785   5.936   5.159   1.412  0.0191  0.3862 -0.1905
13277SOL    HW142786   5.899   5.083   1.458  1.3271  0.7662  1.6014
13277SOL    HW242787   5.892   5.159   1.327 -1.1253 -1.4809  0.3338
13278SOL     OW42788   9.505   6.865   1.124 -0.2633 -0.2425  0.2216
13278SOL    HW142789   9.552   6.798   1.174 -1.1610 -0.8464  0.2872
13278SOL    HW242790   9.516   6.840   1.033  1.5372  0.9682  0.0645
13279SOL     OW42791   6.385   6.034   0.526  0.1284 -0.6011  0.3600
13279SOL    HW142792   6.411   5.943   0.512  0.1290 -0.2831 -2.1683
13279SOL    HW242793   6.348   6.061   0.442 -0.2275  1.6324  1.1807
13280SOL     OW42794   5.625   9.532   5.823 -0.0297 -0.2559 -0.3972
13280SOL    HW142795   5.646   9.511   5.732  3.6122  0.0356  0.2019
13280SOL    HW242796   5.672   9.615   5.840 -2.2589  0.7825  1.2366
13281SOL     OW42797   3.310   9.801   3.160  0.0109  0.0678  0.2130
13281SOL    HW142798   3.234   9.757   3.198 -0.5769  2.1434  1.6060
13281SOL    HW242799   3.280   9.829   3.073  0.2944 -1.8683 -0.5667
13282SOL     OW42800   5.518   0.876   3.321  0.2719  0.5885  0.3265
13282SOL    HW142801   5.481   0.908   3.239 -0.7756  0.4566  0.7296
13282SOL    HW242802   5.532   0.955   3.374 -0.2512  0.5762  0.4919
13283SOL     OW42803   9.919   3.799   6.030 -0.1830  0.3687 -0.3514
13283SOL    HW142804   9.942   3.829   6.118  0.6964 -0.9601 -0.1074
13283SOL    HW242805  10.002   3.780   5.988 -0.6578 -0.3679 -0.9841
13284SOL     OW42806   3.016   6.638   2.571 -0.3741  0.3515 -0.1364
13284SOL    HW142807   2.961   6.704   2.529  0.3797  0.1737 -1.4602
13284SOL    HW242808   3.077   6.689   2.625  0.6627  0.8325 -1.6936
13285SOL     OW42809   2.605   0.550   0.510  0.1983 -0.2643  0.0212
13285SOL    HW142810   2.610   0.464   0.469  0.7075 -0.9875  1.5019
13285SOL    HW242811   2.613   0.532   0.604  3.4541  1.5813  0.2476
13286SOL     OW42812   7.865   3.357   0.813 -1.0468  0.1078  0.3411
13286SOL    HW142813   7.949   3.368   0.858 -1.0703 -1.4264  0.8150
13286SOL    HW242814   7.888   3.340   0.722 -0.6476 -2.6069  0.8509
13287SOL     OW42815   4.394   7.272   2.126  0.1701  0.2177  0.2965
13287SOL    HW142816   4.336   7.347   2.140  0.2016  0.4180 -0.5959
13287SOL    HW242817   4.460   7.304   2.064 -0.1426 -0.7148 -0.5412
13288SOL     OW42818   8.752   3.326   9.244 -0.3776 -0.0126 -0.8325
13288SOL    HW142819   8.670   3.360   9.208 -0.3956  0.2992 -0.4978
13288SOL    HW242820   8.730   3.237   9.274 -0.6343  0.1266 -0.6035
13289SOL     OW42821   3.976   3.368   0.550 -0.1655  0.1018  0.1389
13289SOL    HW142822   3.936   3.299   0.603  0.7558  1.3428  2.6214
13289SOL    HW242823   3.908   3.435   0.541  0.6726  1.4793  2.9594
13290SOL     OW42824   6.317   7.845   9.425  0.0959  0.4360 -0.3230
13290SOL    HW142825   6.283   7.821   9.339 -1.3505  0.3950  0.2363
13290SOL    HW242826   6.330   7.940   9.420 -1.6491  0.7168 -0.0592
13291SOL     OW42827   0.998   9.188   8.042  0.0684 -0.1453 -0.4289
13291SOL    HW142828   1.076   9.151   8.001  0.7300  0.0330  0.6284
13291SOL    HW242829   0.944   9.112   8.063 -0.1308 -0.2594 -1.3120
13292SOL     OW42830   0.216   4.513   1.456  0.1778 -0.2347  0.8753
13292SOL    HW142831   0.221   4.419   1.472 -1.0923 -0.2429  1.3806
13292SOL    HW242832   0.198   4.551   1.542 -0.4533  0.3524  0.4960
13293SOL     OW42833   2.855   8.787   5.618  0.1218  0.3647  0.4098
13293SOL    HW142834   2.830   8.705   5.575  0.1426 -0.0556  1.1818
13293SOL    HW242835   2.824   8.777   5.708  3.0952 -0.2309  1.4714
13294SOL     OW42836   2.124   4.238   9.625  0.0283 -0.1191 -0.2493
13294SOL    HW142837   2.064   4.223   9.697 -0.3000  1.5854 -0.1437
13294SOL    HW242838   2.069   4.270   9.553  0.7168  1.0335 -0.2935
13295SOL     OW42839   7.142   8.671   8.971  0.3017 -0.0789 -0.3845
13295SOL    HW142840   7.051   8.639   8.972  0.0085  0.7366  0.5003
13295SOL    HW242841   7.195   8.592   8.971 -0.3993 -0.5757 -1.6125
13296SOL     OW42842   3.157   1.654   0.863 -0.6319 -0.8452 -0.3560
13296SOL    HW142843   3.092   1.628   0.928 -1.1434 -0.6502 -0.7806
13296SOL    HW242844   3.106   1.673   0.784 -0.2887  1.4286 -0.0916
13297SOL     OW42845   0.458   1.211   0.484 -0.3617  0.0945 -0.1917
13297SOL    HW142846   0.462   1.145   0.553  1.9100 -0.1789 -0.5280
13297SOL    HW242847   0.483   1.293   0.528  0.0063  0.1244 -0.4522
13298SOL     OW42848   4.962   7.921   7.627 -0.5152  0.0673 -0.3516
13298SOL    HW142849   5.020   7.860   7.672 -2.0227 -1.1808  0.0256
13298SOL    HW242850   4.977   7.905   7.534  0.6816  0.7347 -0.2912
13299SOL     OW42851   5.692   2.935   2.077  0.2584  0.0864 -0.9293
13299SOL    HW142852   5.656   3.012   2.033  0.1757 -0.1554 -1.2882
13299SOL    HW242853   5.744   2.971   2.149 -0.1038  0.4627 -0.8507
13300SOL     OW42854   6.927   4.707   9.017  0.0306  0.1400  0.7093
13300SOL    HW142855   6.861   4.670   8.958  0.4432  0.3702  0.0925
13300SOL    HW242856   6.924   4.651   9.094  0.5765 -1.1333 -0.1539
13301SOL     OW42857   6.002   1.494   6.041  0.4671 -0.2689 -0.4847
13301SOL    HW142858   6.044   1.568   5.998 -1.3694  1.8314  1.0886
13301SOL    HW242859   5.935   1.464   5.979 -0.5442  1.1775 -0.1632
13302SOL     OW42860  10.274   8.269   7.554  0.4525  0.1526 -0.7391
13302SOL    HW142861  10.288   8.175   7.549 -1.9461 -0.5477  2.2669
13302SOL    HW242862  10.204   8.286   7.491 -1.0017 -0.6888  0.5620
13303SOL     OW42863   6.063   9.641   3.067  0.0718 -0.2596  0.9208
13303SOL    HW142864   6.137   9.672   3.117 -0.4188  0.3342  1.2854
13303SOL    HW242865   5.995   9.706   3.080 -0.1977 -0.2833 -0.2034
13304SOL     OW42866   5.613   7.802  10.003 -0.2460 -0.0445 -0.0089
13304SOL    HW142867   5.646   7.854   9.930 -1.3787 -0.9142 -1.1783
13304SOL    HW242868   5.684   7.742  10.023  0.2721  0.5484 -0.0435
13305SOL     OW42869   6.237   7.292   7.164  0.0443  0.4617  0.5478
13305SOL    HW142870   6.172   7.222   7.155  1.1717 -0.3620 -3.0635
13305SOL    HW242871   6.301   7.258   7.226 -1.3116 -0.0284  1.7356
13306SOL     OW42872   6.842   0.082   0.054  0.3391 -0.2652 -0.1949
13306SOL    HW142873   6.906   0.029   0.102 -0.5826 -1.3786 -0.1456
13306SOL    HW242874   6.791   0.018   0.004 -1.5415  0.4411  0.7247
13307SOL     OW42875   1.060   5.526   6.894  0.0888 -0.2424  0.3622
13307SOL    HW142876   1.119   5.517   6.819  1.5726  0.7214  1.3500
13307SOL    HW242877   1.117   5.514   6.970 -1.1258  0.0622  1.3476
13308SOL     OW42878   9.596  10.133   1.939 -0.1778 -0.2342 -0.6905
13308SOL    HW142879   9.512  10.176   1.957 -0.7087 -1.4446 -0.1672
13308SOL    HW242880   9.573  10.057   1.887  0.3189 -1.7055  1.1219
13309SOL     OW42881   5.877   0.329  10.589 -0.2170  0.2586 -0.3823
13309SOL    HW142882   5.870   0.283  10.673 -0.6255 -1.2009 -1.1833
13309SOL    HW242883   5.905   0.262  10.527  1.2592  1.5817 -1.2124
13310SOL     OW42884   3.625   4.789   3.249  0.0435  0.3507  0.0641
13310SOL    HW142885   3.584   4.816   3.331  0.5633 -1.1691  0.8575
13310SOL    HW242886   3.629   4.694   3.254  0.0886  0.2253 -1.7370
13311SOL     OW42887   4.507   1.878   1.546 -0.5232  0.2870  0.3372
13311SOL    HW142888   4.570   1.808   1.527  0.1027  0.7780  0.5344
13311SOL    HW242889   4.539   1.952   1.493 -0.5197  0.7572  0.9917
13312SOL     OW42890   6.407   4.358   4.116 -0.6768  0.3409 -0.0335
13312SOL    HW142891   6.330   4.325   4.071  0.4088 -1.9962 -0.3234
13312SOL    HW242892   6.403   4.318   4.203  0.6099 -0.4631 -0.3284
13313SOL     OW42893   4.689   4.048   0.423  0.1905 -0.0760 -0.0554
13313SOL    HW142894   4.689   4.031   0.329 -0.8143 -1.5928  0.1765
13313SOL    HW242895   4.709   3.963   0.463 -0.0864  0.3824  1.1137
13314SOL     OW42896   3.158   0.980   3.109 -0.1242  0.3349 -0.2295
13314SOL    HW142897   3.215   0.908   3.136  0.0735  1.2890  2.0724
13314SOL    HW242898   3.218   1.049   3.079 -0.1119  0.7606  0.7351
13315SOL     OW42899   7.792  10.054   1.782 -0.3361  0.1552 -0.0544
13315SOL    HW142900   7.708  10.009   1.772 -1.6840  2.4684  0.3657
13315SOL    HW242901   7.777  10.142   1.749  1.7829  0.8159  0.5799
13316SOL     OW42902   8.215  10.622   9.328 -0.6591  0.5727 -0.4530
13316SOL    HW142903   8.130  10.660   9.308 -1.3401  0.0129  1.2436
13316SOL    HW242904   8.195  10.544   9.380  0.8807  0.2692 -0.2704
13317SOL     OW42905   7.652   6.121   2.315  0.2603  0.2700 -0.4953
13317SOL    HW142906   7.743   6.137   2.340 -0.2215  0.6396  1.2110
13317SOL    HW242907   7.655   6.048   2.254  1.6393 -0.2959  0.2189
13318SOL     OW42908   6.983   9.924  10.299  0.2440 -0.3001 -0.7332
13318SOL    HW142909   6.947   9.942  10.386  2.5796  1.2473  0.0150
13318SOL    HW242910   7.019  10.008  10.270  1.2206 -1.2218 -2.3468
13319SOL     OW42911   5.028   9.947   1.489  0.2910  0.4967 -0.3597
13319SOL    HW142912   5.032   9.930   1.583 -0.3173  0.2364 -0.3713
13319SOL    HW242913   5.020   9.860   1.449  0.9923  0.5731 -0.6860
13320SOL     OW42914   0.571   0.736   0.202  0.3275 -0.3918 -0.2164
13320SOL    HW142915   0.536   0.774   0.121 -2.1200 -0.6244  0.6737
13320SOL    HW242916   0.611   0.654   0.174  0.6050  0.1081 -1.3500
13321SOL     OW42917   9.207   1.571   9.525 -0.2708  0.1483  0.5472
13321SOL    HW142918   9.291   1.614   9.510 -0.4715  0.3372 -0.0524
13321SOL    HW242919   9.203   1.501   9.460 -0.9912  0.7448 -0.0651
13322SOL     OW42920   9.521   5.529   9.127 -0.0506 -0.2613  0.1927
13322SOL    HW142921   9.435   5.551   9.092 -0.7175 -1.1087  1.2126
13322SOL    HW242922   9.506   5.450   9.180  1.0793  0.3344  1.4900
13323SOL     OW42923   4.216   3.615   2.651  0.4078  0.2189 -0.0089
13323SOL    HW142924   4.155   3.668   2.702 -2.0747 -1.7452 -0.7241
13323SOL    HW242925   4.209   3.527   2.689  0.9705 -0.5834 -1.6570
13324SOL     OW42926   1.474   3.913   7.308 -0.0662 -0.4742  0.1126
13324SOL    HW142927   1.401   3.976   7.314  0.3933  0.0306  0.5975
13324SOL    HW242928   1.525   3.943   7.233 -0.4521 -0.9403 -0.3437
13325SOL     OW42929   3.742   8.566   7.792  0.1251  0.5103  0.5340
13325SOL    HW142930   3.723   8.509   7.717  0.3627  1.6241 -0.3972
13325SOL    HW242931   3.659   8.571   7.840  0.4931 -1.8934  1.5742
13326SOL     OW42932   4.579   9.744   5.284  0.0627 -0.3132 -0.1147
13326SOL    HW142933   4.566   9.694   5.365 -0.1286 -1.1961 -0.6808
13326SOL    HW242934   4.626   9.822   5.313  0.8415 -1.0561  0.7282
13327SOL     OW42935   2.724   8.703   1.211 -0.4734 -0.0106 -0.1908
13327SOL    HW142936   2.748   8.640   1.279  0.9923  2.0398  1.3064
13327SOL    HW242937   2.796   8.699   1.148 -0.1439  0.4979  0.1524
13328SOL     OW42938  10.446   3.346   1.348 -0.3473 -0.4854 -0.0328
13328SOL    HW142939  10.388   3.417   1.374  0.8002  1.0048 -1.3598
13328SOL    HW242940  10.533   3.373   1.377  0.0415 -1.6303 -0.0520
13329SOL     OW42941   0.491   9.391   7.040 -0.3387  0.3956  0.1657
13329SOL    HW142942   0.509   9.440   6.960  0.9833 -0.1968  0.0789
13329SOL    HW242943   0.556   9.424   7.103 -1.7420  1.3018  1.2173
13330SOL     OW42944   6.810   5.945   6.935 -0.2342  0.1861  0.3703
13330SOL    HW142945   6.790   5.982   6.849 -2.5012 -0.0115  0.7519
13330SOL    HW242946   6.904   5.924   6.931 -0.0872  1.0086 -1.7127
13331SOL     OW42947   5.947   8.514   0.207 -0.0185 -0.2945  0.2637
13331SOL    HW142948   6.034   8.487   0.175 -0.9800 -1.8367 -1.2452
13331SOL    HW242949   5.916   8.576   0.142  0.2767  0.9665  1.2835
13332SOL     OW42950   2.874  10.607   2.622  0.2874 -0.8668  0.1945
13332SOL    HW142951   2.827  10.539   2.669  0.3676 -1.6708 -0.8531
13332SOL    HW242952   2.898  10.567   2.538 -1.1969  0.9518 -1.2172
13333SOL     OW42953   2.005   1.989   6.114  0.3212  0.3285  0.1922
13333SOL    HW142954   1.986   2.083   6.103  1.6930  0.5114 -0.9190
13333SOL    HW242955   1.923   1.945   6.092 -0.3773  1.2588  0.8304
13334SOL     OW42956   9.922   2.965   9.575  0.0031  0.3965  0.0405
13334SOL    HW142957   9.954   2.890   9.625  1.2149 -0.1660 -1.5025
13334SOL    HW242958   9.921   3.037   9.638 -1.0808 -0.8418  1.5307
13335SOL     OW42959   4.074   3.206   1.341  0.3056 -0.3278  0.0135
13335SOL    HW142960   3.981   3.215   1.362  0.3450  0.3150 -0.0673
13335SOL    HW242961   4.081   3.229   1.249  0.8051  1.5888  0.4758
13336SOL     OW42962   4.211   1.172   2.280  0.2367  0.1748 -0.2825
13336SOL    HW142963   4.115   1.181   2.285  0.0427 -1.2427 -0.9726
13336SOL    HW242964   4.239   1.171   2.372 -0.5675 -0.7412 -0.0241
13337SOL     OW42965   5.286   7.906   7.725  0.1498  0.0548  0.4701
13337SOL    HW142966   5.247   7.863   7.801  0.6817 -1.6473 -0.1721
13337SOL    HW242967   5.366   7.857   7.708  0.3797  0.8276 -0.7909
13338SOL     OW42968   3.683   1.559  10.620 -0.1920 -0.3928 -0.0578
13338SOL    HW142969   3.621   1.621  10.658  0.7754  0.4520  0.1796
13338SOL    HW242970   3.677   1.573  10.526  2.9662  3.1392  0.0358
13339SOL     OW42971   8.517   5.438   3.926 -0.1563  0.4707 -0.2133
13339SOL    HW142972   8.431   5.444   3.886 -0.6098 -0.6478  0.5624
13339SOL    HW242973   8.538   5.527   3.953 -0.0023  1.2108 -2.5276
13340SOL     OW42974  10.631   6.546   0.912  0.1501 -0.0539  0.0116
13340SOL    HW142975  10.692   6.489   0.960  0.3717  0.5885  0.5072
13340SOL    HW242976  10.636   6.515   0.821  1.2184 -0.0156  0.0437
13341SOL     OW42977   3.463   7.010   5.167 -0.3901  0.1201  0.1000
13341SOL    HW142978   3.415   6.928   5.155  2.0466 -1.4848  0.5991
13341SOL    HW242979   3.529   7.010   5.098 -0.0626  1.4700  0.3756
13342SOL     OW42980   8.098   9.720   0.427 -0.3136  0.1498 -0.8125
13342SOL    HW142981   8.143   9.720   0.511 -0.4148 -0.0684 -0.7581
13342SOL    HW242982   8.166   9.702   0.363 -0.2522  0.2286 -0.7698
13343SOL     OW42983   0.571   0.856  10.339  0.0252 -0.1662  0.0842
13343SOL    HW142984   0.607   0.918  10.276  0.0727  0.3070  0.5749
13343SOL    HW242985   0.604   0.771  10.310  3.5274  0.4368  1.7868
13344SOL     OW42986   1.783   9.485   7.304  0.4956  0.5204  0.1851
13344SOL    HW142987   1.715   9.445   7.358  0.9884 -0.0822  0.3639
13344SOL    HW242988   1.864   9.442   7.331  0.7773  0.3519 -0.8846
13345SOL     OW42989   1.084   7.601   6.234 -0.0598 -0.1025  0.2515
13345SOL    HW142990   1.162   7.573   6.282  2.0801 -1.8541 -3.7897
13345SOL    HW242991   1.050   7.522   6.194 -2.1541  1.1339 -0.5939
13346SOL     OW42992   1.760   1.759   1.065 -0.3293 -0.5014 -0.9683
13346SOL    HW142993   1.670   1.776   1.037 -1.1440 -1.9954  0.5634
13346SOL    HW242994   1.804   1.725   0.986 -1.2986 -0.4662 -1.5342
13347SOL     OW42995   3.999   4.007   3.811  0.2748 -0.0143  0.9342
13347SOL    HW142996   4.063   3.979   3.877 -0.8234 -2.3461  1.1006
13347SOL    HW242997   3.915   4.005   3.857 -0.4753 -1.3909 -0.4237
13348SOL     OW42998   6.827   9.424   1.202  0.2146  0.0337 -0.2816
13348SOL    HW142999   6.773   9.350   1.228 -0.8301  0.7540 -0.3380
13348SOL    HW243000   6.811   9.491   1.268 -1.3579  1.3575 -1.8916
13349SOL     OW43001   0.828   7.885   2.013  0.3500 -0.2984  0.7668
13349SOL    HW143002   0.799   7.937   2.087 -0.2663  1.1683 -0.4585
13349SOL    HW243003   0.838   7.797   2.048 -0.4608  0.2452  2.4544
13350SOL     OW43004   1.596   8.493  10.034 -0.2213  0.2766 -0.4318
13350SOL    HW143005   1.665   8.515   9.971 -2.0723  1.2617 -2.2530
13350SOL    HW243006   1.599   8.398  10.042  2.0220  0.3527  0.4369
13351SOL     OW43007   7.909   8.978  10.283  0.7671  0.5952  0.0822
13351SOL    HW143008   7.818   8.965  10.255  1.1162 -0.7847 -0.5193
13351SOL    HW243009   7.905   8.979  10.378  0.2475 -0.7468  0.0988
13352SOL     OW43010   5.069   7.472  10.315  0.4184  0.4164  0.3516
13352SOL    HW143011   5.019   7.391  10.323  0.1428  0.5401 -0.0740
13352SOL    HW243012   5.151   7.446  10.275  0.3144  0.3528  0.1792
13353SOL     OW43013   9.728  10.510   2.983  0.0960 -0.1315  0.5902
13353SOL    HW143014   9.650  10.509   3.038 -0.0507 -0.8748  0.3816
13353SOL    HW243015   9.706  10.568   2.910 -0.3736 -0.5729  0.3757
13354SOL     OW43016   3.680   1.579  10.034 -0.7660  0.0549 -0.2901
13354SOL    HW143017   3.596   1.603  10.073  0.3871 -0.1631  2.5581
13354SOL    HW243018   3.743   1.639  10.073  0.7005 -1.0468 -0.8613
13355SOL     OW43019   3.179   2.093   4.139  0.1307 -0.2087 -0.2547
13355SOL    HW143020   3.134   2.076   4.056 -0.2440 -0.1346 -0.0718
13355SOL    HW243021   3.271   2.075   4.121  0.1306  0.3355 -0.8340
13356SOL     OW43022   8.048   0.029   1.735 -0.3494 -0.0699  0.2915
13356SOL    HW143023   8.030  -0.008   1.649 -0.5370 -1.2935  0.8298
13356SOL    HW243024   7.979   0.094   1.749 -0.4522 -0.0357 -0.3780
13357SOL     OW43025  10.004   2.600   8.134 -0.2663 -0.3736 -0.5294
13357SOL    HW143026  10.036   2.598   8.044  0.3023 -1.9352 -0.3223
13357SOL    HW243027   9.920   2.647   8.129  0.1518  0.2913 -1.7140
13358SOL     OW43028   2.333   2.834   5.626  0.2754  0.4142  0.1126
13358SOL    HW143029   2.387   2.890   5.682 -1.0794  1.0879  0.8008
13358SOL    HW243030   2.250   2.882   5.617 -0.7062 -1.1826  0.2124
13359SOL     OW43031   0.715   6.111   6.041  0.1361  0.1614 -0.2730
13359SOL    HW143032   0.713   6.112   5.945 -0.0873 -0.6085 -0.2876
13359SOL    HW243033   0.662   6.035   6.065 -0.4094  0.7687  0.4911
13360SOL     OW43034   7.086   8.059   7.367  0.4454  0.8103  0.4548
13360SOL    HW143035   7.182   8.061   7.366  0.4291  1.9715  0.5143
13360SOL    HW243036   7.060   8.122   7.301 -0.3062 -1.1778 -1.2651
13361SOL     OW43037   6.668   9.130   8.569  0.6020 -0.4424 -0.0441
13361SOL    HW143038   6.664   9.110   8.475  0.8294  2.4729 -0.7622
13361SOL    HW243039   6.588   9.180   8.586  1.5840  0.8953  0.8087
13362SOL     OW43040   6.360   4.780   9.801 -0.2786  0.0805 -0.5932
13362SOL    HW143041   6.308   4.797   9.880  0.2667  0.2668 -0.2719
13362SOL    HW243042   6.334   4.849   9.740  1.0886  1.4516  0.3007
13363SOL     OW43043   1.990   8.584   4.222 -0.0818  0.0640 -0.0665
13363SOL    HW143044   2.019   8.495   4.202 -2.2817 -0.2674 -2.2741
13363SOL    HW243045   2.063   8.640   4.196  0.4858 -0.9612 -0.7328
13364SOL     OW43046   3.532   0.410   2.035  0.4776  0.2341  0.3023
13364SOL    HW143047   3.463   0.344   2.027  1.7178 -1.1134  0.3471
13364SOL    HW243048   3.581   0.403   1.953 -0.3493  2.2951 -0.4280
13365SOL     OW43049   1.838   8.489   1.464  0.8194  0.5138 -0.1148
13365SOL    HW143050   1.806   8.493   1.374  1.0352 -2.3922 -0.4339
13365SOL    HW243051   1.931   8.467   1.456  0.9987  0.8742  0.8194
13366SOL     OW43052   7.419   2.749   3.076  0.4151  0.7043 -0.5041
13366SOL    HW143053   7.478   2.675   3.083 -0.3838 -0.0052 -1.0790
13366SOL    HW243054   7.471   2.824   3.103  1.1872 -0.0858  0.2441
13367SOL     OW43055   6.665   1.629   0.798  0.2267 -0.1998 -0.2969
13367SOL    HW143056   6.594   1.693   0.798 -0.7670 -1.2484  0.7368
13367SOL    HW243057   6.626   1.549   0.835  2.6532  0.0460  3.3520
13368SOL     OW43058   1.249   4.933   3.454 -0.2818 -0.5136 -0.1075
13368SOL    HW143059   1.221   4.956   3.543  0.9473 -0.4145  0.2698
13368SOL    HW243060   1.212   4.845   3.440 -2.1463  0.2621 -0.2734
13369SOL     OW43061   9.513   0.811   0.220  0.2356  0.4977  0.7471
13369SOL    HW143062   9.437   0.830   0.274 -0.5741 -0.9614  0.1880
13369SOL    HW243063   9.547   0.728   0.255 -1.2686 -1.3806 -1.8536
13370SOL     OW43064   8.220   8.364  10.657  0.4174  0.3486 -0.3763
13370SOL    HW143065   8.274   8.436  10.624 -0.0655  0.4137 -1.0524
13370SOL    HW243066   8.219   8.377  10.752  1.3284  0.5236 -0.3753
13371SOL     OW43067   2.802   1.949   1.308  0.1845  0.2842  0.2761
13371SOL    HW143068   2.717   1.992   1.318 -1.0271 -1.4664 -1.5978
13371SOL    HW243069   2.809   1.931   1.214  1.5134 -1.7208  0.6782
13372SOL     OW43070   2.941   2.447   9.418 -0.3197 -0.0051 -0.1205
13372SOL    HW143071   2.937   2.355   9.445  0.0583 -0.2275 -0.7927
13372SOL    HW243072   2.888   2.451   9.339  0.8592  0.0335 -0.9378
13373SOL     OW43073   3.691  10.005   7.697  0.0693 -0.4917 -0.0541
13373SOL    HW143074   3.764  10.058   7.728  0.9620 -0.9873 -1.2350
13373SOL    HW243075   3.709   9.917   7.731  0.0779 -0.6348 -0.4246
13374SOL     OW43076   4.843   4.479   0.228 -0.2019  0.0492  0.3112
13374SOL    HW143077   4.855   4.515   0.316 -0.2464  1.1744 -0.1266
13374SOL    HW243078   4.915   4.417   0.217 -1.9738 -2.6193  2.3379
13375SOL     OW43079   4.602  10.243  10.327 -0.5642  0.1007  0.1137
13375SOL    HW143080   4.516  10.274  10.298 -0.6136 -0.3204 -0.2055
13375SOL    HW243081   4.663  10.274  10.260 -0.5773 -0.2644 -0.0672
13376SOL     OW43082   6.623   3.054   7.473  0.1636 -0.8312 -0.0044
13376SOL    HW143083   6.664   3.037   7.558 -1.8117  0.6667  1.3226
13376SOL    HW243084   6.533   3.023   7.483 -0.7022  1.2450 -0.8162
13377SOL     OW43085   1.166  10.644  10.463 -0.6861 -0.6340  0.2961
13377SOL    HW143086   1.225  10.698  10.410 -2.4775  1.0867 -0.0730
13377SOL    HW243087   1.175  10.556  10.427  1.6623 -0.4539  0.3107
13378SOL     OW43088   7.457   1.647   8.354  0.0101  0.0207 -0.3745
13378SOL    HW143089   7.451   1.636   8.449 -2.1825  0.6147 -0.3916
13378SOL    HW243090   7.550   1.663   8.337  0.3213  0.7305  1.7720
13379SOL     OW43091   3.746   8.364   3.147 -0.0429 -0.3393  0.3736
13379SOL    HW143092   3.653   8.373   3.124  0.1269 -1.3526 -0.8662
13379SOL    HW243093   3.746   8.310   3.226 -0.5224  0.1145  0.6908
13380SOL     OW43094   2.810  10.168   8.841 -0.1874  0.0062  0.3056
13380SOL    HW143095   2.716  10.178   8.857 -0.4046 -0.7982 -0.4164
13380SOL    HW243096   2.848  10.157   8.928 -0.6703  0.9796  0.6595
13381SOL     OW43097   3.695   9.120   5.282  0.3829 -0.2748 -0.3664
13381SOL    HW143098   3.696   9.212   5.254 -0.2128  0.1861  1.0709
13381SOL    HW243099   3.652   9.074   5.210  0.4722  0.5964 -1.0001
13382SOL     OW43100   3.860   7.715   4.347  0.6155 -0.1515 -0.1926
13382SOL    HW143101   3.838   7.780   4.279  0.1942 -0.5631 -0.4541
13382SOL    HW243102   3.955   7.707   4.343  0.4354 -2.9288 -3.3580
13383SOL     OW43103   3.128   4.706   3.772  0.0930  0.1133 -0.5990
13383SOL    HW143104   3.222   4.690   3.773  0.1277  0.3338 -0.0689
13383SOL    HW243105   3.117   4.790   3.728  0.1644  0.2089 -0.4347
13384SOL     OW43106   6.021   0.450   2.098 -0.5084  0.3530 -0.4200
13384SOL    HW143107   6.001   0.445   2.005  1.1371 -0.9961 -0.7629
13384SOL    HW243108   6.063   0.535   2.109  1.9049 -0.5928 -1.5554
13385SOL     OW43109   0.161   8.151   3.560 -0.3466  0.1947  0.0710
13385SOL    HW143110   0.152   8.189   3.473 -1.0755 -0.4261 -0.1318
13385SOL    HW243111   0.231   8.086   3.550 -1.4696 -0.9653 -0.4435
13386SOL     OW43112  10.478   5.205   9.889 -0.1693  0.0654  0.1013
13386SOL    HW143113  10.541   5.177   9.956  2.0337 -1.6418 -2.4481
13386SOL    HW243114  10.396   5.162   9.913  0.3172  0.1212  2.0406
13387SOL     OW43115   7.500   0.428   0.064  0.2262 -0.0823  0.3822
13387SOL    HW143116   7.452   0.494   0.113  0.0972 -0.2696  0.5119
13387SOL    HW243117   7.433   0.385   0.010  0.4130  0.3084 -0.1629
13388SOL     OW43118   1.139   0.160   8.364 -0.1892  0.0552 -0.1680
13388SOL    HW143119   1.224   0.183   8.327 -0.1326 -0.8775 -0.6615
13388SOL    HW243120   1.156   0.081   8.416 -0.8445 -0.4670 -0.7282
13389SOL     OW43121   1.669   5.239   6.452 -0.4106 -0.2681 -0.2469
13389SOL    HW143122   1.682   5.209   6.542  0.0194  0.6603  0.0170
13389SOL    HW243123   1.583   5.204   6.427  0.0931 -1.7457 -0.0035
13390SOL     OW43124   9.418   2.559   3.352  0.1467  0.7101  0.2814
13390SOL    HW143125   9.453   2.560   3.441 -0.4558  2.2005  0.5235
13390SOL    HW243126   9.323   2.563   3.363 -0.0959 -1.8402 -0.4030
13391SOL     OW43127   8.430   5.521   2.699  0.2255  0.1087  0.1607
13391SOL    HW143128   8.450   5.428   2.706  1.3854  0.2923 -0.3717
13391SOL    HW243129   8.500   5.564   2.749  0.0371  0.7062 -0.0779
13392SOL     OW43130   9.300   8.845   7.501  0.4127 -0.2654  0.6253
13392SOL    HW143131   9.388   8.842   7.539  0.3569  1.1454  0.9269
13392SOL    HW243132   9.263   8.926   7.535 -1.0676 -0.9057  0.6022
13393SOL     OW43133   6.163   0.365   8.684 -0.2189 -0.1926 -0.1014
13393SOL    HW143134   6.081   0.327   8.654 -0.6918 -0.4342  1.4089
13393SOL    HW243135   6.170   0.447   8.635 -1.1931 -0.3276 -0.4934
13394SOL     OW43136   2.866   8.018   4.489  0.2498 -0.9313 -0.1551
13394SOL    HW143137   2.830   8.082   4.427 -1.8527 -1.6717  0.2171
13394SOL    HW243138   2.942   8.061   4.526  1.4583 -0.3362 -3.0254
13395SOL     OW43139   5.709  10.469   5.893  0.1402  0.4227 -0.4475
13395SOL    HW143140   5.716  10.482   5.988  0.1980  0.0797 -0.4038
13395SOL    HW243141   5.677  10.379   5.884  2.3921 -0.4202 -0.8008
13396SOL     OW43142   2.615   0.869   0.125  0.3748 -0.2006  0.2446
13396SOL    HW143143   2.621   0.948   0.178 -2.8217 -0.6247  1.4429
13396SOL    HW243144   2.602   0.901   0.036 -2.2606  0.7820  0.8862
13397SOL     OW43145   8.553   7.526   1.067 -0.1420 -0.4433  0.2970
13397SOL    HW143146   8.632   7.572   1.092  1.4915 -2.8089 -0.1838
13397SOL    HW243147   8.516   7.494   1.149  0.2617 -0.6175  0.4127
13398SOL     OW43148   8.787   0.999   3.163 -0.5421  0.0750  0.6038
13398SOL    HW143149   8.730   1.059   3.115 -1.8703 -2.7178 -1.6275
13398SOL    HW243150   8.863   1.052   3.187 -1.5817  2.6056 -1.2298
13399SOL     OW43151   9.779   8.748   1.953  0.3150 -0.5496  0.3717
13399SOL    HW143152   9.870   8.726   1.932  0.9944  1.8340  0.5087
13399SOL    HW243153   9.781   8.775   2.044 -0.0689  1.4681 -0.1590
13400SOL     OW43154  10.154   5.020   5.566 -0.3546  0.0256  0.2639
13400SOL    HW143155  10.227   5.054   5.515 -1.4157 -1.3734 -2.3365
13400SOL    HW243156  10.179   4.931   5.589 -0.7479 -0.0535  0.4059
13401SOL     OW43157   6.266   8.109  10.125 -0.0365 -0.3484 -0.0795
13401SOL    HW143158   6.336   8.167  10.096  2.2193 -2.0571  1.6089
13401SOL    HW243159   6.196   8.169  10.152  1.2940  1.4925 -0.4656
13402SOL     OW43160   5.848   4.761   5.388  0.0843 -0.6220 -0.2113
13402SOL    HW143161   5.856   4.685   5.446 -1.4760 -0.8918 -0.3070
13402SOL    HW243162   5.833   4.723   5.301 -0.9754 -0.2354 -0.2178
13403SOL     OW43163   5.495   2.441   4.512  0.1879  0.2000  0.6700
13403SOL    HW143164   5.500   2.346   4.523  2.2263  0.0701 -0.7337
13403SOL    HW243165   5.412   2.455   4.466 -0.4300 -0.8186  1.4264
13404SOL     OW43166   3.931   7.603   6.850  0.4968  0.0393  0.7262
13404SOL    HW143167   3.984   7.524   6.841  0.8886  0.4904 -1.6001
13404SOL    HW243168   3.846   7.579   6.813  0.5913  0.6638  0.0918
13405SOL     OW43169   4.758   2.112   7.317 -0.7275  0.0344  0.1092
13405SOL    HW143170   4.719   2.025   7.313 -1.0403  0.1180  1.0512
13405SOL    HW243171   4.835   2.100   7.373  0.2956 -0.0073 -1.2545
13406SOL     OW43172   1.128   2.733   6.320  0.1390 -0.3825  0.0540
13406SOL    HW143173   1.084   2.668   6.375 -0.7607  0.5688  0.4697
13406SOL    HW243174   1.131   2.693   6.233  2.3290 -2.2807  0.8912
13407SOL     OW43175   4.403   3.826   6.681  0.0048 -0.1554 -0.9034
13407SOL    HW143176   4.426   3.871   6.599  2.6577 -0.3495 -0.3530
13407SOL    HW243177   4.423   3.734   6.664  1.7461 -0.0435  0.2584
13408SOL     OW43178   3.422   7.571   8.910  0.5053  0.3308  0.2406
13408SOL    HW143179   3.389   7.484   8.888  1.2052  0.4812 -1.6122
13408SOL    HW243180   3.355   7.609   8.967 -1.2524 -0.3615 -1.2513
13409SOL     OW43181  10.320  10.685   3.861 -0.1024 -0.2002  0.2691
13409SOL    HW143182  10.395  10.715   3.911  0.1952 -2.5223  1.3134
13409SOL    HW243183  10.249  10.678   3.925 -0.1684 -1.6038  0.0756
13410SOL     OW43184   3.649   0.195   0.341  0.0099  0.2422 -0.0325
13410SOL    HW143185   3.686   0.155   0.420  2.2222  0.7417 -0.7328
13410SOL    HW243186   3.564   0.153   0.331  0.1804 -0.7164  1.9331
13411SOL     OW43187   7.603   2.441   6.329  0.5294  0.3870  0.2600
13411SOL    HW143188   7.641   2.529   6.324  0.4830  0.5982  2.6830
13411SOL    HW243189   7.514   2.453   6.293  0.7272  1.1744 -0.0088
13412SOL     OW43190   2.783   4.240   0.845 -0.1387  0.3484 -0.5707
13412SOL    HW143191   2.769   4.152   0.811 -0.5162 -1.5814  3.8689
13412SOL    HW243192   2.708   4.290   0.815 -1.2577 -1.5625 -1.1163
13413SOL     OW43193   6.883   1.574   0.657  0.2637 -0.5011  0.2373
13413SOL    HW143194   6.801   1.575   0.707  0.2207 -0.2090  0.1617
13413SOL    HW243195   6.945   1.623   0.711 -0.4971  2.2000 -1.1825
13414SOL     OW43196   3.480   5.410   1.275  0.0311  0.1091  0.5266
13414SOL    HW143197   3.460   5.323   1.240  0.2367 -0.2638  1.3282
13414SOL    HW243198   3.410   5.466   1.240  1.5428  0.3182 -2.5526
13415SOL     OW43199   1.273   4.724  10.082 -0.2633 -0.0107 -0.3293
13415SOL    HW143200   1.269   4.734  10.177  2.2079 -0.6814 -0.0769
13415SOL    HW243201   1.185   4.745  10.051 -1.0971  0.2998  2.0890
13416SOL     OW43202   5.027   9.352   4.084  0.5422 -0.0227 -0.0319
13416SOL    HW143203   4.985   9.274   4.050 -0.0275  0.5987 -0.8107
13416SOL    HW243204   5.056   9.329   4.172  0.0326 -0.9750 -0.1111
13417SOL     OW43205  10.325   1.212   0.545  0.2995  0.8070 -0.1644
13417SOL    HW143206  10.408   1.176   0.574 -0.0603 -0.1568 -0.3178
13417SOL    HW243207  10.306   1.168   0.462 -0.6306  0.6043  0.1434
13418SOL     OW43208   0.378   7.775   2.164 -0.1068  0.7184  0.0219
13418SOL    HW143209   0.375   7.764   2.259  0.2022  0.7348  0.0344
13418SOL    HW243210   0.422   7.696   2.132 -0.8092  0.3871 -0.1702
13419SOL     OW43211   7.674   2.411   8.592  0.3939  0.1953 -0.2763
13419SOL    HW143212   7.628   2.340   8.548  0.3739 -0.4883  0.8261
13419SOL    HW243213   7.766   2.388   8.585  0.4214  0.3290 -0.3638
13420SOL     OW43214   7.083   2.054   2.758 -0.7555 -0.0177 -0.5194
13420SOL    HW143215   7.118   2.129   2.805 -1.5490  0.5990 -0.8822
13420SOL    HW243216   7.065   2.087   2.670  0.9867 -1.2122 -1.4000
13421SOL     OW43217   9.780   8.493   9.590 -0.3078  0.5140  0.0500
13421SOL    HW143218   9.737   8.442   9.659 -1.1260  0.1121 -0.7410
13421SOL    HW243219   9.858   8.442   9.569  0.1636  0.8413  0.9410
13422SOL     OW43220   0.006   5.998   7.197  0.7614  0.0606 -0.3012
13422SOL    HW143221  -0.068   6.001   7.258  0.9704  0.0739 -0.0457
13422SOL    HW243222  -0.021   5.935   7.130  1.4395 -1.7615  1.0362
13423SOL     OW43223   8.958   2.343   9.574  0.5483 -0.0241  0.3353
13423SOL    HW143224   8.951   2.303   9.487 -0.3337 -0.5601  0.6360
13423SOL    HW243225   8.906   2.423   9.566 -0.0586 -0.3875  0.5320
13424SOL     OW43226   9.115   3.201   8.093  0.3036 -0.4193 -0.4605
13424SOL    HW143227   9.132   3.200   8.187 -1.8067 -0.7913 -0.0362
13424SOL    HW243228   9.169   3.129   8.058  1.3210 -0.0872  0.3979
13425SOL     OW43229   5.423   9.315   9.482  0.0878 -0.1073 -0.0586
13425SOL    HW143230   5.451   9.299   9.392  0.8175  1.0756 -0.0638
13425SOL    HW243231   5.348   9.374   9.474  1.1079  1.2611  0.1328
13426SOL     OW43232   0.757   5.625   4.885 -0.2439 -0.3585 -0.8296
13426SOL    HW143233   0.845   5.625   4.847 -0.1120  0.2152 -0.5453
13426SOL    HW243234   0.705   5.571   4.826 -0.6811  2.5092 -3.3235
13427SOL     OW43235   6.040   9.219   3.302  0.1461  0.0278  0.1101
13427SOL    HW143236   6.047   9.282   3.374 -1.6792  0.0370  0.3376
13427SOL    HW243237   6.127   9.217   3.264  0.2078  3.0401 -0.1755
13428SOL     OW43238   5.913   9.184   7.034 -0.6872 -0.2184 -0.5078
13428SOL    HW143239   5.865   9.102   7.039  1.6139 -1.6707 -0.8742
13428SOL    HW243240   5.872   9.231   6.962 -1.7993 -1.1794 -0.5383
13429SOL     OW43241  10.374   4.336   4.657 -0.0375  0.0488  0.1986
13429SOL    HW143242  10.336   4.289   4.583 -0.6656 -1.2261  1.2872
13429SOL    HW243243  10.466   4.310   4.657  0.0747  0.4106 -0.3752
13430SOL     OW43244   1.093   7.982   8.658  0.0422  0.1228 -0.0358
13430SOL    HW143245   1.120   8.071   8.634  0.0052  0.7288  2.0236
13430SOL    HW243246   1.088   7.983   8.753 -1.0581 -1.7905 -0.0251
13431SOL     OW43247   6.503   6.877   6.900  0.1312 -0.7807  0.2759
13431SOL    HW143248   6.438   6.807   6.894 -0.0013 -0.5445 -1.3527
13431SOL    HW243249   6.479   6.925   6.980 -0.7081 -1.6633  0.5712
13432SOL     OW43250   6.450   3.563   4.589  0.0148 -0.4079 -0.0654
13432SOL    HW143251   6.436   3.528   4.501 -0.4411 -2.7314  0.8597
13432SOL    HW243252   6.435   3.488   4.647 -0.1234  1.1573  2.0269
13433SOL     OW43253   3.196   0.047   6.453 -0.3128 -0.7169 -0.5939
13433SOL    HW143254   3.222   0.138   6.438 -0.4306 -0.5345  0.2747
13433SOL    HW243255   3.262  -0.005   6.407  0.3020 -0.2137 -0.2857
13434SOL     OW43256   1.545   6.918   0.449  0.1317  0.1282 -0.4704
13434SOL    HW143257   1.496   6.838   0.468  0.2682 -0.0864 -1.0137
13434SOL    HW243258   1.487   6.989   0.478  0.6431 -0.2003  1.4626
13435SOL     OW43259   4.477   4.741  10.570  0.7119 -0.2567 -0.6547
13435SOL    HW143260   4.496   4.834  10.563  0.3317  0.4836  4.5577
13435SOL    HW243261   4.563   4.699  10.561  1.5611  1.0297  0.9977
13436SOL     OW43262   7.122  10.358   4.114 -0.4199  0.3573 -0.1268
13436SOL    HW143263   7.171  10.315   4.044 -0.6315  0.8520 -0.5798
13436SOL    HW243264   7.168  10.332   4.194 -0.4339 -0.5571 -0.4080
13437SOL     OW43265   9.815   3.667   3.171  0.0832 -0.8507 -0.0829
13437SOL    HW143266   9.743   3.615   3.137 -1.0884  0.9830 -0.5557
13437SOL    HW243267   9.801   3.755   3.135  0.1785  0.6063  3.0700
13438SOL     OW43268   1.706   2.710   2.148 -0.3013 -0.0746 -0.2073
13438SOL    HW143269   1.686   2.722   2.055  0.8801  1.2389 -0.3240
13438SOL    HW243270   1.787   2.660   2.149  0.6272  1.3690  0.0381
13439SOL     OW43271  10.485   9.719  10.089 -0.4556 -0.0271  0.0984
13439SOL    HW143272  10.462   9.649  10.149  0.0577  1.7035  2.4558
13439SOL    HW243273  10.401   9.758  10.064 -0.6261  1.6492  2.8749
13440SOL     OW43274   8.190  10.523   9.779 -0.1406  0.0335 -0.2897
13440SOL    HW143275   8.219  10.569   9.858  0.4217 -0.7079 -0.0441
13440SOL    HW243276   8.259  10.458   9.763 -0.4286 -0.0596 -1.1860
13441SOL     OW43277   8.303   2.952   1.813 -0.3015 -0.5004 -0.3389
13441SOL    HW143278   8.207   2.945   1.818 -0.3326 -0.5974 -0.9349
13441SOL    HW243279   8.334   2.912   1.893 -0.7924  0.3695  0.3028
13442SOL     OW43280   2.118   9.054   8.172  0.6298 -0.1451 -0.0844
13442SOL    HW143281   2.074   8.971   8.189  0.1858  0.4055  1.6486
13442SOL    HW243282   2.211   9.031   8.168  0.5065 -0.7410  0.3052
13443SOL     OW43283   5.531   2.456   9.585  0.3576 -0.7003  0.3542
13443SOL    HW143284   5.625   2.461   9.597  0.2283  0.0523  1.0668
13443SOL    HW243285   5.494   2.473   9.671 -0.5013  1.9283 -0.4570
13444SOL     OW43286   9.355  10.539   5.746 -0.3058 -0.1921  0.0335
13444SOL    HW143287   9.403  10.611   5.787 -0.3330  0.4064 -0.9504
13444SOL    HW243288   9.264  10.554   5.772 -0.5908  1.1813 -1.5817
13445SOL     OW43289   6.279   2.336   1.064 -0.1205  0.1279 -0.0705
13445SOL    HW143290   6.296   2.242   1.062  0.3887  0.2083  0.3924
13445SOL    HW243291   6.364   2.376   1.048 -0.5854  0.5112 -1.7207
13446SOL     OW43292   3.477   6.092   1.944  0.3809  0.0232  0.2413
13446SOL    HW143293   3.505   6.001   1.938  0.1494  0.0101 -0.9367
13446SOL    HW243294   3.396   6.089   1.995  0.9482 -0.2886  1.1415
13447SOL     OW43295   0.723   8.268   7.444 -0.4965 -0.2658  0.3516
13447SOL    HW143296   0.714   8.215   7.364  0.6354 -0.7090  0.5044
13447SOL    HW243297   0.807   8.313   7.434 -0.3684 -0.2797  1.2656
13448SOL     OW43298   9.485   3.908   6.696 -0.5026 -0.5801  1.0722
13448SOL    HW143299   9.557   3.873   6.645 -1.4692  1.0558 -1.6372
13448SOL    HW243300   9.407   3.863   6.663 -1.3642  1.6817 -0.2641
13449SOL     OW43301   8.751   2.076   6.961  0.2588 -0.2750 -0.7931
13449SOL    HW143302   8.828   2.104   6.911 -0.5329  3.4230 -0.2107
13449SOL    HW243303   8.770   2.103   7.051 -0.3889 -2.3724  0.0308
13450SOL     OW43304   8.304   9.358   2.716 -0.4154  0.2340 -0.7801
13450SOL    HW143305   8.319   9.397   2.630  3.9981 -0.8815 -0.7236
13450SOL    HW243306   8.304   9.433   2.776 -1.2235  0.8105 -1.4685
13451SOL     OW43307   6.279   3.944   3.617  0.9149  0.3536  0.0244
13451SOL    HW143308   6.342   3.878   3.588  1.4108  1.4379 -1.4562
13451SOL    HW243309   6.234   3.903   3.691  3.5866 -0.3517  1.3913
13452SOL     OW43310   6.700   2.370   3.245 -0.0850  0.0235  0.0724
13452SOL    HW143311   6.707   2.464   3.227  0.7669 -0.1137 -0.3485
13452SOL    HW243312   6.784   2.347   3.283  1.0724 -1.2448 -2.9585
13453SOL     OW43313   2.883   2.863   8.807 -0.1950  0.1448  0.3110
13453SOL    HW143314   2.810   2.876   8.868 -0.9780 -1.7282 -0.1589
13453SOL    HW243315   2.844   2.819   8.732  1.3781 -0.7507 -0.0267
13454SOL     OW43316   4.771   9.462   6.092  0.3866  0.0743 -0.2256
13454SOL    HW143317   4.709   9.389   6.094  0.8300 -0.3014  0.7584
13454SOL    HW243318   4.754   9.506   6.009  0.0501 -1.0939 -0.7992
13455SOL     OW43319   3.815   2.054   6.308  0.1552  0.0628  0.1148
13455SOL    HW143320   3.760   1.985   6.346  1.1832 -0.0278  1.5277
13455SOL    HW243321   3.889   2.007   6.268 -1.1852  0.1112 -2.6386
13456SOL     OW43322   8.527   4.890   2.030 -0.3523 -0.2030 -0.9277
13456SOL    HW143323   8.593   4.832   2.068  1.7700  2.0125 -1.0115
13456SOL    HW243324   8.447   4.837   2.029  1.0595 -2.5562  0.4376
13457SOL     OW43325   7.280   4.147   6.047 -0.3423  0.5564 -0.3685
13457SOL    HW143326   7.193   4.187   6.047 -0.7279 -0.1846  1.0406
13457SOL    HW243327   7.273   4.074   6.109  2.1743  2.5839  2.6851
13458SOL     OW43328   4.004   3.538   4.363 -0.2173 -0.3329  0.6547
13458SOL    HW143329   4.037   3.471   4.303 -1.2167  0.0794 -0.4172
13458SOL    HW243330   4.025   3.621   4.320 -0.0237  0.0161  1.4015
13459SOL     OW43331   1.658   5.891   3.114 -0.6296  0.1533 -0.0798
13459SOL    HW143332   1.696   5.815   3.071  1.6397  1.1008  0.1236
13459SOL    HW243333   1.730   5.931   3.162 -2.1790  1.3949  1.3541
13460SOL     OW43334   7.649   3.410   7.057  0.4187  0.0844 -0.0647
13460SOL    HW143335   7.700   3.367   7.126  2.0651  0.1463 -1.1854
13460SOL    HW243336   7.635   3.499   7.089 -1.1491 -0.5920  1.3155
13461SOL     OW43337   8.827   9.734   0.920  0.1113 -1.1034  0.3136
13461SOL    HW143338   8.802   9.699   1.005  1.5131 -1.1150  0.7292
13461SOL    HW243339   8.919   9.759   0.929 -0.1798  0.4878 -0.6875
13462SOL     OW43340   5.508   5.486   8.330  0.0217  0.2026 -0.0205
13462SOL    HW143341   5.595   5.458   8.356  0.3926  1.6854  0.4398
13462SOL    HW243342   5.463   5.505   8.412 -1.0850 -1.4382 -0.2008
13463SOL     OW43343   4.159   6.325  10.610  0.1167  0.6069  0.3259
13463SOL    HW143344   4.127   6.273  10.684 -0.1029  0.9304  0.4655
13463SOL    HW243345   4.244   6.287  10.589  0.1573  0.4734  0.7101
13464SOL     OW43346   6.671   6.706   3.833 -0.0521 -0.0420  0.4349
13464SOL    HW143347   6.720   6.625   3.845  1.4540  1.1176  2.9371
13464SOL    HW243348   6.608   6.707   3.905 -0.9122  0.4771 -0.2951
13465SOL     OW43349   3.101   2.654   2.874  0.1427 -0.3342  0.0317
13465SOL    HW143350   3.090   2.700   2.957  0.3650 -1.9477  1.0102
13465SOL    HW243351   3.133   2.567   2.899 -0.1562 -0.9968 -1.7187
13466SOL     OW43352   0.471   4.909  10.506  0.4796  0.3628 -0.1090
13466SOL    HW143353   0.554   4.874  10.538 -0.4679 -1.5863  0.3827
13466SOL    HW243354   0.474   5.002  10.528  2.1708  0.1658  0.6570
13467SOL     OW43355   4.284   2.248   1.464  0.6268 -0.1295 -0.6931
13467SOL    HW143356   4.352   2.275   1.526 -0.8598 -3.2273  2.6156
13467SOL    HW243357   4.228   2.325   1.456  1.8895  0.9545  0.3489
13468SOL     OW43358   0.275   3.289   6.034  0.4022 -0.1297 -0.8299
13468SOL    HW143359   0.255   3.304   5.941 -1.2271  0.6614 -0.3873
13468SOL    HW243360   0.232   3.207   6.055 -0.3598  0.3584 -0.4596
13469SOL     OW43361   2.576  10.186  10.359 -0.3746  0.1256  0.0401
13469SOL    HW143362   2.638  10.168  10.288 -0.0289 -1.3208  0.6610
13469SOL    HW243363   2.616  10.258  10.408  0.5620 -0.4036  0.0914
13470SOL     OW43364   2.060   3.358   9.784 -0.5923 -0.0808  0.0838
13470SOL    HW143365   2.055   3.362   9.688  1.7683 -1.6322 -0.1995
13470SOL    HW243366   2.109   3.437   9.808 -0.4492 -0.1215 -0.0732
13471SOL     OW43367   4.916   2.722   9.028 -0.8423  0.2053 -0.0407
13471SOL    HW143368   4.917   2.721   8.932 -0.5612  0.0302 -0.0367
13471SOL    HW243369   4.998   2.681   9.053 -0.8645  0.3510  0.2767
13472SOL     OW43370   4.033   0.766   9.012  0.2083  0.3718  0.3363
13472SOL    HW143371   3.940   0.775   8.988  0.1186 -1.5946 -0.2385
13472SOL    HW243372   4.065   0.695   8.957  1.7631  0.1883  1.4159
13473SOL     OW43373   5.796   8.998   9.031 -0.7843 -0.2555  0.3531
13473SOL    HW143374   5.777   8.952   8.949 -1.6381  1.2945 -0.3757
13473SOL    HW243375   5.881   9.040   9.016 -0.9089 -0.0280  0.2725
13474SOL     OW43376   6.490   2.541   5.594 -0.4951  0.4123 -0.4249
13474SOL    HW143377   6.411   2.555   5.646 -0.0788 -0.8920  0.6096
13474SOL    HW243378   6.498   2.446   5.586  0.5929  0.5346 -1.1115
13475SOL     OW43379   1.496   3.989   2.269  0.2541  0.3847  0.0642
13475SOL    HW143380   1.437   3.956   2.337 -1.0455  3.2989  0.4944
13475SOL    HW243381   1.580   4.001   2.315  0.0605  0.0712  0.5125
13476SOL     OW43382   8.805   1.799   0.169  0.3991 -0.0944  0.1259
13476SOL    HW143383   8.811   1.785   0.075  0.4289 -2.2555  0.3886
13476SOL    HW243384   8.722   1.846   0.181  1.1020  1.5287 -1.0489
13477SOL     OW43385   6.704   7.641  10.622  0.0794 -0.1731 -0.2546
13477SOL    HW143386   6.619   7.647  10.578  0.2156 -1.1611 -0.6798
13477SOL    HW243387   6.762   7.602  10.556  1.2534  1.8431 -0.4944
13478SOL     OW43388   1.132   6.726   1.584 -0.0517 -0.3077  0.0286
13478SOL    HW143389   1.041   6.739   1.556 -0.0855 -0.9173 -0.1675
13478SOL    HW243390   1.125   6.670   1.662 -0.0000  1.8469  1.6734
13479SOL     OW43391   4.489   4.878   3.521  0.2269  0.1193 -0.5675
13479SOL    HW143392   4.468   4.969   3.501 -0.2582  0.1741  0.1446
13479SOL    HW243393   4.562   4.883   3.583  0.4271  0.0094 -0.7917
13480SOL     OW43394   6.929   8.485   9.936  0.2666 -0.0746 -0.3668
13480SOL    HW143395   6.892   8.504   9.850 -0.1239  1.1256  0.0445
13480SOL    HW243396   7.007   8.432   9.918 -1.1670 -1.9825 -1.2982
13481SOL     OW43397   5.399   6.155   9.735 -0.1987  0.7011  0.2493
13481SOL    HW143398   5.353   6.188   9.657 -1.6196 -0.9403  0.3574
13481SOL    HW243399   5.492   6.160   9.710 -0.5724 -3.6697 -3.3847
13482SOL     OW43400   5.415   3.335   0.533  0.3461 -0.6983  0.5450
13482SOL    HW143401   5.402   3.326   0.438 -0.2785 -0.4614  0.5991
13482SOL    HW243402   5.410   3.246   0.567 -1.2924 -0.6414  0.5600
13483SOL     OW43403   7.105   5.126   4.104  0.2596  0.4218 -0.1914
13483SOL    HW143404   7.109   5.147   4.010 -1.0815 -0.6240 -0.5254
13483SOL    HW243405   7.196   5.122   4.132  0.6588  2.9512 -0.9178
13484SOL     OW43406   4.227   3.749   2.251 -0.5881 -0.2427  0.1023
13484SOL    HW143407   4.274   3.788   2.325 -1.5874  1.2308  0.0062
13484SOL    HW243408   4.291   3.692   2.209  0.8279  1.0007  0.5014
13485SOL     OW43409   1.821   8.472  10.359  0.2322  0.6241  0.7698
13485SOL    HW143410   1.760   8.422  10.413 -1.7018 -2.0113 -3.3682
13485SOL    HW243411   1.776   8.555  10.342 -2.1370 -0.9921 -1.6260
13486SOL     OW43412   9.064   9.735   5.616 -0.3717 -0.6359  0.3026
13486SOL    HW143413   9.030   9.761   5.530  3.0223  0.8895 -0.7159
13486SOL    HW243414   9.086   9.642   5.606 -1.2379 -0.8233  0.0042
13487SOL     OW43415   5.803   2.292   5.252 -0.2851  0.5835 -0.5326
13487SOL    HW143416   5.761   2.379   5.255 -1.2273  0.2860 -2.8636
13487SOL    HW243417   5.889   2.308   5.213  0.5298  0.7334  1.2162
13488SOL     OW43418   5.050   8.333   7.961  0.5824  0.0090 -0.2689
13488SOL    HW143419   5.073   8.263   7.901  0.3490 -0.1937 -0.1208
13488SOL    HW243420   5.102   8.316   8.040 -2.3680 -2.3451  1.3855
13489SOL     OW43421   4.671   2.496   5.194 -0.6135 -0.0843 -0.1007
13489SOL    HW143422   4.743   2.536   5.145 -0.6345 -0.3297 -0.3296
13489SOL    HW243423   4.593   2.542   5.163 -0.7813 -1.0760 -1.2084
13490SOL     OW43424   8.354   3.538   5.351 -0.1625  0.0286 -0.2935
13490SOL    HW143425   8.353   3.633   5.364  1.1032  0.0877 -0.4085
13490SOL    HW243426   8.365   3.527   5.256 -0.5091 -0.2296 -0.3036
13491SOL     OW43427   2.725   3.842   4.968 -0.2407  0.3019  0.5118
13491SOL    HW143428   2.770   3.881   4.893 -0.4141  1.0724  0.7992
13491SOL    HW243429   2.732   3.907   5.038 -1.2587  0.1751  0.7579
13492SOL     OW43430   4.149   0.506   5.079 -0.0051  0.0221  0.0231
13492SOL    HW143431   4.088   0.432   5.084  0.8346 -0.7280 -0.5149
13492SOL    HW243432   4.198   0.501   5.162 -0.2695  0.2586  0.1931
13493SOL     OW43433   2.269   1.903   3.634 -0.3822 -0.5375 -0.5451
13493SOL    HW143434   2.303   1.992   3.646 -1.3469 -0.4531  2.2414
13493SOL    HW243435   2.175   1.915   3.617 -0.2402 -1.0087 -1.7935
13494SOL     OW43436   8.658   8.975   4.491 -0.6140 -0.3838  0.2865
13494SOL    HW143437   8.684   9.043   4.429  2.3960  1.2819  3.1086
13494SOL    HW243438   8.690   8.894   4.452 -0.6386  0.3036 -1.2436
13495SOL     OW43439   4.845   8.304   5.608  0.4334  0.6168 -0.6136
13495SOL    HW143440   4.902   8.270   5.677  1.8026  0.6916 -1.6542
13495SOL    HW243441   4.903   8.357   5.553 -1.2590  3.2572 -0.0337
13496SOL     OW43442   0.806  10.203   3.554 -0.1183 -0.2501 -0.2468
13496SOL    HW143443   0.896  10.236   3.557  0.4896 -1.5199 -2.1875
13496SOL    HW243444   0.779  10.196   3.645  3.0377 -3.0782  0.6632
13497SOL     OW43445   2.871   9.090   4.930 -0.4062 -0.0571  0.2710
13497SOL    HW143446   2.828   9.106   5.014 -1.3186 -2.2647  0.3035
13497SOL    HW243447   2.841   9.003   4.904  1.3790 -0.2440 -1.4256
13498SOL     OW43448   1.738   8.102   6.540 -0.1230 -0.9931  0.3493
13498SOL    HW143449   1.712   8.045   6.468  1.6923  0.8287 -1.8741
13498SOL    HW243450   1.745   8.189   6.501  2.8238 -0.2559  2.2130
13499SOL     OW43451   3.114   9.411   3.858 -0.2691 -0.0245  0.2133
13499SOL    HW143452   3.039   9.468   3.874 -0.8749 -0.3745 -1.2184
13499SOL    HW243453   3.077   9.334   3.816  0.7862 -0.6199  0.3362
13500SOL     OW43454   1.402   4.092   1.829  0.1343 -0.5023  0.1208
13500SOL    HW143455   1.383   4.184   1.848 -0.9135 -0.8917  1.1009
13500SOL    HW243456   1.345   4.071   1.755  0.1829 -0.4193  0.0605
13501SOL     OW43457   7.949   9.679   6.336  0.2765  0.1147  0.2781
13501SOL    HW143458   7.989   9.748   6.389 -1.0416  0.7840  0.4443
13501SOL    HW243459   8.007   9.603   6.348  1.6592  1.1289  0.2227
13502SOL     OW43460   3.918   4.020   5.938  1.0931 -0.0705  0.0878
13502SOL    HW143461   4.000   4.060   5.966  2.3406 -1.9644 -0.6663
13502SOL    HW243462   3.908   3.943   5.994 -0.3795  0.3094  0.4096
13503SOL     OW43463   7.870   3.134   8.953 -0.0844 -0.7350  0.2830
13503SOL    HW143464   7.939   3.153   8.890  1.4418  1.5992  2.4920
13503SOL    HW243465   7.902   3.058   9.001  0.0216 -0.8315  0.0649
13504SOL     OW43466   6.277   9.927  10.337 -0.6673 -0.0274  0.4553
13504SOL    HW143467   6.287  10.005  10.282  0.8711  0.5541  1.4766
13504SOL    HW243468   6.184   9.907  10.335 -1.0633  1.7358  0.0307
13505SOL     OW43469   1.495   7.142   3.926  0.4028 -0.1265 -0.0403
13505SOL    HW143470   1.446   7.224   3.915  1.0389  0.1861 -0.6068
13505SOL    HW243471   1.493   7.101   3.840 -1.3943 -1.5855  0.6148
13506SOL     OW43472   2.891   7.116   9.914  0.0431  0.7091 -0.0365
13506SOL    HW143473   2.957   7.123   9.845 -0.5436  1.1230 -0.5651
13506SOL    HW243474   2.808   7.105   9.867 -0.4044  1.3384  0.5912
13507SOL     OW43475   5.821   6.152   9.042  0.4034  0.1135  0.0874
13507SOL    HW143476   5.892   6.185   8.988  0.9455  0.6340  1.0879
13507SOL    HW243477   5.857   6.075   9.086 -0.1566 -0.5348 -0.5665
13508SOL     OW43478   1.577   4.426   2.113 -0.1191 -0.2160 -0.3060
13508SOL    HW143479   1.554   4.338   2.082  0.4599 -1.2090  1.8455
13508SOL    HW243480   1.672   4.423   2.125  0.1475  1.2607 -1.6587
13509SOL     OW43481   4.990   6.543   3.813 -0.1063 -0.4232 -0.0037
13509SOL    HW143482   4.983   6.467   3.754  1.3248 -0.0880 -0.6328
13509SOL    HW243483   4.901   6.579   3.815 -0.6374 -1.6439 -0.3250
13510SOL     OW43484   6.640   6.868   3.228  0.7796 -0.7425  0.1299
13510SOL    HW143485   6.658   6.814   3.151 -1.1520 -1.1934 -0.0416
13510SOL    HW243486   6.723   6.869   3.276  1.7125 -1.3364 -1.4036
13511SOL     OW43487   0.885   1.706   1.100  0.4719  0.2240 -0.8095
13511SOL    HW143488   0.850   1.658   1.026  0.7150 -0.9099 -0.2180
13511SOL    HW243489   0.831   1.785   1.106 -3.1920 -2.1321  1.0330
13512SOL     OW43490   0.099   1.608   1.911  0.6091  0.1328 -0.0608
13512SOL    HW143491   0.062   1.556   1.839 -0.2923  0.5214  0.1015
13512SOL    HW243492   0.039   1.682   1.919  0.8308  0.2143  0.9379
13513SOL     OW43493   8.397   3.661   3.706  0.0382 -0.2938  0.4171
13513SOL    HW143494   8.400   3.723   3.778 -0.1821 -1.1268  1.1654
13513SOL    HW243495   8.436   3.708   3.632 -3.9154  2.3254 -0.3276
13514SOL     OW43496   7.878   6.049  10.145  0.0238 -0.6850  0.0300
13514SOL    HW143497   7.882   5.965  10.099 -1.0777 -0.5087 -0.4128
13514SOL    HW243498   7.947   6.042  10.212 -0.7331 -2.3717  0.7028
13515SOL     OW43499   3.873   3.810   6.223 -0.3249 -0.4356  0.0785
13515SOL    HW143500   3.851   3.758   6.147  0.2510  0.1937 -0.5351
13515SOL    HW243501   3.809   3.785   6.289 -0.8027 -1.0191 -0.5971
13516SOL     OW43502   5.144   5.576   7.359  0.4008  0.2309  0.1480
13516SOL    HW143503   5.191   5.654   7.329  0.3062 -0.1738 -1.0940
13516SOL    HW243504   5.199   5.503   7.333  0.6124 -0.1338  1.5316
13517SOL     OW43505   4.534   4.360   6.840 -0.0924  0.1516 -0.7466
13517SOL    HW143506   4.575   4.446   6.841 -0.2064  0.2019 -0.3355
13517SOL    HW243507   4.450   4.374   6.797  0.1402  0.1294 -1.2131
13518SOL     OW43508   8.669   5.379   4.823  0.8663  0.2166  0.5386
13518SOL    HW143509   8.740   5.380   4.888 -0.0157  1.2026  1.5197
13518SOL    HW243510   8.629   5.293   4.834  1.7056 -0.2380  0.1790
13519SOL     OW43511   0.170   7.491   0.369  0.4616 -0.7609 -0.1952
13519SOL    HW143512   0.178   7.437   0.290 -1.5329 -1.9101  0.3393
13519SOL    HW243513   0.095   7.548   0.352  0.5600 -0.4027  0.5283
13520SOL     OW43514   5.197   7.853   2.392  0.1422 -0.4752  0.1925
13520SOL    HW143515   5.255   7.905   2.448 -2.3397  1.6972  0.9604
13520SOL    HW243516   5.167   7.782   2.449 -0.2092  0.1057  0.7460
13521SOL     OW43517   0.014   5.599   0.174  0.5044 -0.2349 -0.2911
13521SOL    HW143518   0.038   5.690   0.192 -0.5307 -0.1308  0.6925
13521SOL    HW243519   0.097   5.552   0.177  1.0869  0.6986 -1.0483
13522SOL     OW43520   6.534   2.130   1.119 -0.5251 -0.7468 -0.1983
13522SOL    HW143521   6.602   2.170   1.173 -0.1455 -1.7523  0.0937
13522SOL    HW243522   6.464   2.109   1.180  0.0723 -2.2589  0.0121
13523SOL     OW43523   3.968   7.144   8.281 -0.1766 -0.4374  0.2996
13523SOL    HW143524   3.907   7.196   8.334 -0.2286  0.7259 -0.8636
13523SOL    HW243525   3.985   7.066   8.334 -0.4252  0.5636  1.9138
13524SOL     OW43526   7.180   5.402   7.417  0.0419 -0.1516  0.1528
13524SOL    HW143527   7.183   5.445   7.502 -1.4677 -0.0373  0.1639
13524SOL    HW243528   7.258   5.434   7.371  1.8287 -1.5064  2.0700
13525SOL     OW43529   8.045   5.934   9.466  0.2210 -0.3662 -0.2110
13525SOL    HW143530   7.990   5.952   9.390 -0.4100  0.4276  0.4046
13525SOL    HW243531   8.135   5.940   9.433  0.0686  2.7719 -0.3977
13526SOL     OW43532   6.024   4.159   8.670 -0.4854 -0.3095 -0.1471
13526SOL    HW143533   6.064   4.234   8.714 -1.9366  0.5834 -0.2779
13526SOL    HW243534   5.970   4.198   8.601 -1.5535 -1.4557  0.0055
13527SOL     OW43535   4.292   8.023   8.411  0.6015 -0.0431  0.8994
13527SOL    HW143536   4.224   7.990   8.470  0.2696  0.6471  0.9111
13527SOL    HW243537   4.327   7.945   8.369 -1.2265 -0.2921 -0.2505
13528SOL     OW43538   0.744   0.490   8.589 -0.5448 -0.0055  0.4102
13528SOL    HW143539   0.656   0.489   8.628 -0.8784  1.1984 -0.2581
13528SOL    HW243540   0.762   0.399   8.568 -1.1882 -0.4149  1.5299
13529SOL     OW43541   6.269   3.483  10.212  0.1957 -0.8549  0.2583
13529SOL    HW143542   6.206   3.526  10.154  2.3457  0.4521 -1.2617
13529SOL    HW243543   6.289   3.548  10.279 -0.5393 -1.5125  1.1388
13530SOL     OW43544   7.456   4.903   8.172  0.0279  0.0342  0.1282
13530SOL    HW143545   7.483   4.821   8.132  1.4029  0.9884 -0.9843
13530SOL    HW243546   7.385   4.878   8.232 -0.6449 -1.7326 -1.3147
13531SOL     OW43547   2.906   1.302   2.604  0.2887  0.2601  0.5244
13531SOL    HW143548   2.936   1.227   2.655  1.2556  0.2484 -0.0389
13531SOL    HW243549   2.811   1.293   2.602  0.4401 -1.6782 -0.6035
13532SOL     OW43550   1.147   3.681   8.594  0.3345 -0.2260 -0.1543
13532SOL    HW143551   1.208   3.680   8.668 -0.9392 -1.1107  0.9262
13532SOL    HW243552   1.168   3.602   8.544  0.6460 -0.0661 -0.2792
13533SOL     OW43553   5.196   6.015   5.946 -0.5838  0.3748 -0.0486
13533SOL    HW143554   5.229   5.926   5.957 -1.6484 -0.0576 -0.2470
13533SOL    HW243555   5.270   6.064   5.911 -0.5181 -0.8624 -1.7377
13534SOL     OW43556   7.289   2.204  10.318 -0.1429 -0.1830 -0.0103
13534SOL    HW143557   7.241   2.281  10.347 -0.7046 -0.5657  0.0849
13534SOL    HW243558   7.235   2.129  10.345 -1.1925 -0.5544 -2.8014
13535SOL     OW43559   6.440   0.576   5.393  0.3842  0.3735  0.3701
13535SOL    HW143560   6.371   0.569   5.327  0.1749  2.9869  0.1896
13535SOL    HW243561   6.402   0.538   5.472 -1.7914  2.6856  0.5641
13536SOL     OW43562   1.732  10.539   1.265  0.5866  0.2015 -0.2396
13536SOL    HW143563   1.705  10.511   1.353 -1.2244  0.7221 -0.5981
13536SOL    HW243564   1.827  10.546   1.271  0.3732  2.4110  2.3844
13537SOL     OW43565   5.089   8.297   4.427 -0.2954  0.3905 -0.2363
13537SOL    HW143566   5.049   8.217   4.393 -0.7819  0.2669  0.6075
13537SOL    HW243567   5.151   8.267   4.492 -2.2285  0.7520  1.9017
13538SOL     OW43568   4.100   2.082   6.070  0.0486  0.0408  0.3052
13538SOL    HW143569   4.143   2.001   6.098  1.1714  0.7225  0.6194
13538SOL    HW243570   4.096   2.136   6.148  0.0552  0.6103 -0.0827
13539SOL     OW43571   9.759   4.210   4.392 -0.0273 -0.0089 -0.1429
13539SOL    HW143572   9.693   4.216   4.322 -0.2372 -1.5892 -0.1132
13539SOL    HW243573   9.782   4.301   4.410 -0.3690  0.4675 -1.8880
13540SOL     OW43574   3.464   1.650   5.267  0.2095  0.2100 -0.2204
13540SOL    HW143575   3.469   1.710   5.192  1.5231  0.2012 -0.1540
13540SOL    HW243576   3.423   1.702   5.336 -0.6424  0.3422 -0.8139
13541SOL     OW43577   4.042   0.123   8.325  0.3990 -0.5556  0.1930
13541SOL    HW143578   4.097   0.105   8.249 -0.6914 -2.7102 -0.1731
13541SOL    HW243579   4.081   0.069   8.395 -0.9376 -1.7685  0.0396
13542SOL     OW43580   4.364   8.758   7.276 -0.1085  0.1758  0.2953
13542SOL    HW143581   4.407   8.674   7.294 -1.2539 -0.7991 -1.2174
13542SOL    HW243582   4.431   8.824   7.293  0.6633 -1.0020  2.0314
13543SOL     OW43583   0.740   9.638   8.187 -0.0099  0.6580  0.6604
13543SOL    HW143584   0.776   9.553   8.160  0.8485  0.4931  2.1508
13543SOL    HW243585   0.807   9.702   8.160  0.3651  0.5998  1.4012
13544SOL     OW43586   9.706   9.853   8.044 -0.5815 -0.0879 -0.6352
13544SOL    HW143587   9.799   9.850   8.024 -0.6812 -1.4124 -1.0124
13544SOL    HW243588   9.679   9.942   8.021  0.6004  0.3332 -0.4270
13545SOL     OW43589   4.694   3.336   4.423  0.4169 -0.1234  0.1841
13545SOL    HW143590   4.768   3.306   4.475  0.7883 -0.6042 -0.5968
13545SOL    HW243591   4.651   3.402   4.477  1.3604  0.0910  0.6798
13546SOL     OW43592   0.855   1.891   0.122 -0.2222  0.2927 -0.0254
13546SOL    HW143593   0.893   1.951   0.057  0.8849 -1.2108 -0.8382
13546SOL    HW243594   0.779   1.854   0.078 -0.6750  0.7945  0.3274
13547SOL     OW43595   0.056   2.498   0.804 -0.0369  0.4108  0.4832
13547SOL    HW143596  -0.013   2.439   0.835  1.6930 -0.6729  2.5566
13547SOL    HW243597   0.036   2.512   0.712 -2.1872 -1.0537  0.6591
13548SOL     OW43598   4.549   8.265   3.926  0.1108 -0.4894  0.8211
13548SOL    HW143599   4.597   8.196   3.972 -0.1387  0.2085  2.1889
13548SOL    HW243600   4.470   8.279   3.980 -0.8231 -0.4866 -0.5022
13549SOL     OW43601  10.154   2.660   7.603  0.3011  0.1754  0.2927
13549SOL    HW143602  10.247   2.659   7.577 -0.1941 -0.3657 -1.6165
13549SOL    HW243603  10.113   2.595   7.546 -1.0882 -0.3995  1.8783
13550SOL     OW43604  10.084   1.570   9.711  0.4069 -0.0224  0.7591
13550SOL    HW143605  10.165   1.552   9.663  0.3222  2.3369 -0.3900
13550SOL    HW243606  10.072   1.493   9.768  2.6576 -1.0709 -0.0815
13551SOL     OW43607   2.059   6.772   6.807 -0.2695 -0.2541  0.4346
13551SOL    HW143608   2.042   6.707   6.739  1.7546 -0.7601  0.3497
13551SOL    HW243609   1.988   6.761   6.870 -0.7511 -1.5401 -0.3109
13552SOL     OW43610   6.447   7.346   7.383  0.6208 -0.0195  0.3296
13552SOL    HW143611   6.501   7.272   7.358  0.3487 -0.7618  1.8691
13552SOL    HW243612   6.402   7.318   7.463 -0.4696  1.3270  0.2301
13553SOL     OW43613  10.504   1.279   9.549  0.5197  0.2528 -0.1365
13553SOL    HW143614  10.556   1.351   9.584  2.3439 -0.0405 -2.0307
13553SOL    HW243615  10.546   1.200   9.585 -0.1533  0.0590  0.2474
13554SOL     OW43616  10.691   4.981   0.325 -0.1886 -0.2853  0.2218
13554SOL    HW143617  10.748   5.004   0.399 -1.4945  0.2221  1.1175
13554SOL    HW243618  10.640   4.906   0.357  0.6934 -1.4128 -0.9500
13555SOL     OW43619   6.653   4.899   4.233  0.2353 -0.1894  0.4355
13555SOL    HW143620   6.686   4.817   4.197 -1.3847 -0.0863 -1.4158
13555SOL    HW243621   6.583   4.873   4.293 -0.7956 -0.1655 -0.7293
13556SOL     OW43622   6.377   2.286  10.403  0.1282  0.1951  0.0967
13556SOL    HW143623   6.301   2.231  10.423  0.4894 -0.8420 -1.2228
13556SOL    HW243624   6.385   2.344  10.478 -1.8476  0.2037  0.3559
13557SOL     OW43625   0.493   9.445   0.652 -0.4945  0.0751 -0.4848
13557SOL    HW143626   0.578   9.487   0.638 -0.8710  0.7119 -0.8934
13557SOL    HW243627   0.511   9.352   0.645  0.2444  0.1926 -0.1767
13558SOL     OW43628   1.153   1.278   5.791 -0.4571 -0.0974  0.0485
13558SOL    HW143629   1.088   1.336   5.828 -0.5694 -0.7259  0.8547
13558SOL    HW243630   1.237   1.321   5.809 -0.5072 -0.3910  1.0597
13559SOL     OW43631   0.999  10.601   9.223 -0.1012 -0.1992 -0.4698
13559SOL    HW143632   1.082  10.590   9.177  1.2244  2.5146  0.9922
13559SOL    HW243633   1.016  10.568   9.311  0.8515  3.6323  1.0019
13560SOL     OW43634   4.179   6.510   4.948  0.5289  0.0586  0.9502
13560SOL    HW143635   4.222   6.575   4.892  0.7610 -0.7248  0.2126
13560SOL    HW243636   4.246   6.482   5.009  1.4128 -1.8753 -0.8081
13561SOL     OW43637  10.586   8.291   4.591  0.3555 -0.0206 -0.0203
13561SOL    HW143638  10.598   8.383   4.567 -0.7351  0.3034  0.5698
13561SOL    HW243639  10.491   8.280   4.593  0.4173 -0.5540  2.0848
13562SOL     OW43640   1.242   6.785   5.776 -0.0504 -0.1171 -0.3561
13562SOL    HW143641   1.192   6.855   5.735 -0.3838  0.0167  0.2530
13562SOL    HW243642   1.194   6.767   5.857 -0.0260 -1.1255 -0.5598
13563SOL     OW43643   6.767   5.188   1.646  0.3820 -0.2627  0.1605
13563SOL    HW143644   6.840   5.228   1.694 -1.4397  0.9131  2.1570
13563SOL    HW243645   6.782   5.094   1.653  1.6178 -0.0433  0.6528
13564SOL     OW43646   8.672   1.299   7.124 -0.2808 -0.0631  0.2577
13564SOL    HW143647   8.604   1.304   7.191  0.7613 -2.0372  1.5537
13564SOL    HW243648   8.648   1.222   7.072  0.7270 -0.5253  0.4675
13565SOL     OW43649   7.361   3.552   1.954 -0.2236  0.0838  0.1345
13565SOL    HW143650   7.329   3.463   1.943 -0.2282  0.2289 -1.1962
13565SOL    HW243651   7.397   3.554   2.042 -4.0964 -0.0067  1.8907
13566SOL     OW43652   7.089   5.469   5.937 -0.0470 -0.1194  0.3549
13566SOL    HW143653   7.065   5.388   5.891 -1.5348  0.3899  0.1726
13566SOL    HW243654   7.022   5.477   6.005 -1.3989  2.2113 -1.1494
13567SOL     OW43655   6.822   3.049   6.972  0.4556  0.2133  0.3474
13567SOL    HW143656   6.727   3.039   6.975  0.3826  0.0000 -1.3354
13567SOL    HW243657   6.839   3.130   7.021 -0.5890  0.2580  0.6604
13568SOL     OW43658   9.795   1.583   2.509 -0.1202 -0.1792  0.4359
13568SOL    HW143659   9.775   1.551   2.421  1.3715  1.1239 -0.4435
13568SOL    HW243660   9.711   1.615   2.542 -0.1994  2.9131 -2.1463
13569SOL     OW43661   0.181   9.608   3.026 -0.3193 -0.0079 -0.2571
13569SOL    HW143662   0.089   9.585   3.040 -0.5848  0.4124 -1.2685
13569SOL    HW243663   0.193   9.688   3.077  0.0774 -1.2115  1.6347
13570SOL     OW43664   2.523   5.733   6.261 -0.4919  0.5176  0.3171
13570SOL    HW143665   2.462   5.744   6.188 -0.1648 -0.3930 -0.1133
13570SOL    HW243666   2.538   5.821   6.294 -2.0743  0.7659  0.4579
13571SOL     OW43667   1.515   7.859   7.874 -0.1147 -0.1727 -0.2740
13571SOL    HW143668   1.477   7.924   7.815 -2.5798 -1.0655  0.2234
13571SOL    HW243669   1.464   7.865   7.954  2.6106  0.4058  1.5460
13572SOL     OW43670   2.905   0.287   4.095 -0.7106 -0.5087 -0.1253
13572SOL    HW143671   2.928   0.205   4.051  0.3267 -0.7879  0.9106
13572SOL    HW243672   2.963   0.352   4.056 -1.1033 -0.3670 -0.4946
13573SOL     OW43673   2.062   0.408   0.771  0.3639 -0.0899  0.3152
13573SOL    HW143674   2.045   0.319   0.742  0.2906  0.0972 -0.2248
13573SOL    HW243675   2.157   0.418   0.765  0.7347 -1.0899  3.2011
13574SOL     OW43676   6.349   9.324   5.308  0.2684 -0.2152 -0.0782
13574SOL    HW143677   6.334   9.257   5.374 -0.1553 -1.5991 -1.5196
13574SOL    HW243678   6.400   9.280   5.240  1.3781  1.3871 -0.3352
13575SOL     OW43679   1.060   6.907   8.765 -0.2726 -0.2847  0.2733
13575SOL    HW143680   1.084   6.815   8.755 -0.4549 -0.5299  1.8412
13575SOL    HW243681   0.976   6.915   8.720 -0.5903 -1.0634  0.6971
13576SOL     OW43682   7.328  10.518   3.635 -0.2582 -0.3227 -0.2011
13576SOL    HW143683   7.282  10.571   3.570  0.1665 -2.0201 -2.0017
13576SOL    HW243684   7.421  10.530   3.615 -0.0414  0.2076  1.0258
13577SOL     OW43685   9.035   3.955   3.111  0.1793 -0.4387  0.3547
13577SOL    HW143686   9.072   4.012   3.178 -1.1373  0.5934  0.2408
13577SOL    HW243687   9.088   3.875   3.116 -0.4472 -0.7812  3.2740
13578SOL     OW43688   0.608   9.770   7.343  0.1989 -0.5703  0.0306
13578SOL    HW143689   0.582   9.809   7.426  1.2401 -0.3883  0.2953
13578SOL    HW243690   0.526   9.749   7.299 -0.3901 -1.6197  1.5499
13579SOL     OW43691   0.815   1.719   8.629  0.0029 -0.1703  0.4729
13579SOL    HW143692   0.799   1.792   8.569  2.5378  1.5065  1.6562
13579SOL    HW243693   0.731   1.707   8.675 -1.5116 -0.4454 -2.1957
13580SOL     OW43694   4.627   0.340   7.380  1.0971  1.0474  0.8725
13580SOL    HW143695   4.664   0.269   7.433  1.5909  1.2378  0.7807
13580SOL    HW243696   4.553   0.300   7.334  2.2728  0.2006 -0.3417
13581SOL     OW43697   2.451   5.469   7.772 -0.6578  0.4515  0.0016
13581SOL    HW143698   2.511   5.451   7.845  2.4525  1.0709 -2.1963
13581SOL    HW243699   2.431   5.383   7.736 -1.1550  0.2344  0.7633
13582SOL     OW43700   0.733   5.663   6.417  0.5611 -0.0163 -0.8377
13582SOL    HW143701   0.802   5.683   6.353  0.3989 -2.1915 -1.7707
13582SOL    HW243702   0.697   5.749   6.441  2.7047  1.0785 -1.2924
13583SOL     OW43703   3.604  10.519   2.702 -0.1510  0.4689 -0.3964
13583SOL    HW143704   3.680  10.538   2.757  0.5460  0.8053 -1.4511
13583SOL    HW243705   3.545  10.594   2.716 -0.3598  0.1503  0.5106
13584SOL     OW43706   4.301   0.537   1.099 -0.0949 -0.1162 -0.2509
13584SOL    HW143707   4.207   0.555   1.110  0.1108  1.2504 -0.5169
13584SOL    HW243708   4.309   0.509   1.008 -0.2237 -0.0105 -0.2959
13585SOL     OW43709  10.286   1.769   1.675 -0.1340  0.0628 -0.4743
13585SOL    HW143710  10.279   1.819   1.756  1.5873 -0.5392  0.0840
13585SOL    HW243711  10.267   1.679   1.702  0.0526 -0.0791 -0.8164
13586SOL     OW43712   7.139   7.842   5.387 -0.2008 -0.2899 -0.7590
13586SOL    HW143713   7.188   7.848   5.305 -3.0180  2.4935 -2.4686
13586SOL    HW243714   7.129   7.933   5.416 -1.7087 -0.9782  1.0940
13587SOL     OW43715   8.353   0.904   7.027 -0.1255  0.3644 -0.5226
13587SOL    HW143716   8.374   0.874   7.116 -3.8571 -1.1835 -0.0044
13587SOL    HW243717   8.291   0.976   7.040 -0.3689  0.4176 -1.8843
13588SOL     OW43718   6.876   4.946   9.944  0.0822  0.0610 -0.1279
13588SOL    HW143719   6.864   4.956  10.038  1.2952 -1.2428  0.1964
13588SOL    HW243720   6.880   5.036   9.911 -1.0512  0.5274  0.9489
13589SOL     OW43721   1.236  10.256   0.061 -0.1438  0.1441 -0.2929
13589SOL    HW143722   1.293  10.194   0.107  0.7317  1.4141  0.3956
13589SOL    HW243723   1.284  10.277  -0.020 -1.3777 -1.5811 -1.5599
13590SOL     OW43724   4.942   4.274   4.327 -0.3378  0.1642 -0.5010
13590SOL    HW143725   4.869   4.329   4.355  0.6286  0.8326  0.8204
13590SOL    HW243726   5.016   4.334   4.322  0.7547 -0.9832  1.0020
13591SOL     OW43727   2.588   0.097   2.075 -0.0717  0.0258 -0.1079
13591SOL    HW143728   2.563   0.095   2.167 -0.9845  1.5130 -0.2930
13591SOL    HW243729   2.644   0.175   2.066 -0.8848  0.5324 -1.0011
13592SOL     OW43730   3.934   6.854   5.063  1.1714 -0.5224 -0.1130
13592SOL    HW143731   3.907   6.763   5.052 -0.8477 -0.0180  0.3886
13592SOL    HW243732   4.007   6.865   5.001  1.3159 -2.3989 -0.3229
13593SOL     OW43733   3.497   9.066   3.311 -0.2935  0.0546  0.8027
13593SOL    HW143734   3.444   9.036   3.385 -0.5061 -2.5493 -0.2940
13593SOL    HW243735   3.441   9.054   3.234  1.0767 -0.6855 -0.1349
13594SOL     OW43736   3.287   8.381   5.177 -0.0938  0.4373  0.2383
13594SOL    HW143737   3.214   8.325   5.153  0.8668 -1.6144  1.8117
13594SOL    HW243738   3.310   8.426   5.096 -2.0282 -0.1091 -0.6670
13595SOL     OW43739   8.897   9.244   6.165 -0.1322 -0.0752 -0.1775
13595SOL    HW143740   8.849   9.202   6.236 -0.9589  0.4470 -0.4201
13595SOL    HW243741   8.895   9.337   6.186  1.3747 -0.0916  0.1658
13596SOL     OW43742   9.758   2.207   0.611 -0.2399  0.1468  0.3379
13596SOL    HW143743   9.806   2.124   0.608  0.3716  0.5182 -1.0677
13596SOL    HW243744   9.803   2.263   0.548 -3.3209  0.0242 -2.2762
13597SOL     OW43745   3.150   4.389   9.914 -0.6038  0.2351  0.1723
13597SOL    HW143746   3.186   4.318   9.966 -1.0488 -0.3696 -0.3339
13597SOL    HW243747   3.165   4.363   9.823 -1.1582  0.5795 -0.0251
13598SOL     OW43748   3.811   3.262   8.463  0.6358  0.1503 -0.0278
13598SOL    HW143749   3.903   3.239   8.475  0.4807  0.1378  1.2883
13598SOL    HW243750   3.799   3.266   8.369  1.9015 -0.1949 -0.2149
13599SOL     OW43751   7.830   7.732   8.355  0.0862 -0.3010  0.6181
13599SOL    HW143752   7.916   7.756   8.318 -0.5885  0.7563 -0.3393
13599SOL    HW243753   7.820   7.639   8.336  1.2603 -0.5821  1.2578
13600SOL     OW43754   7.226   2.046   0.962  0.3207 -0.2700 -0.1554
13600SOL    HW143755   7.289   2.018   1.028 -0.1199 -0.0892  0.3491
13600SOL    HW243756   7.254   2.002   0.881  0.9534 -0.3682  0.1123
13601SOL     OW43757   2.277   6.221   0.666 -0.3649  0.2081  0.2705
13601SOL    HW143758   2.369   6.243   0.682 -0.0269  0.4847 -1.7795
13601SOL    HW243759   2.260   6.145   0.722  1.2023 -0.0401  0.4513
13602SOL     OW43760   2.069   9.675   4.766 -0.0148 -0.5080 -0.2581
13602SOL    HW143761   2.100   9.690   4.676  0.8477 -0.1355  0.0914
13602SOL    HW243762   1.999   9.739   4.778 -0.0454 -0.4697 -0.6204
13603SOL     OW43763   5.438   9.520   0.617  0.2183 -0.1066  0.5183
13603SOL    HW143764   5.427   9.535   0.710  0.9977  0.3384  0.5405
13603SOL    HW243765   5.376   9.449   0.597 -0.5032  0.3064  1.2108
13604SOL     OW43766   3.755   6.357   2.206 -0.1290  0.0686  0.4381
13604SOL    HW143767   3.661   6.337   2.205 -0.2349  0.5450  0.4966
13604SOL    HW243768   3.792   6.298   2.141 -0.3984 -0.4528  0.7451
13605SOL     OW43769   7.357   3.519   4.684  0.2857  0.3658 -0.1659
13605SOL    HW143770   7.425   3.490   4.623  0.4604 -0.3494  0.3610
13605SOL    HW243771   7.374   3.612   4.696 -1.8567  1.4657 -3.9340
13606SOL     OW43772   4.846   6.751   5.222  0.1100  0.1583  0.5348
13606SOL    HW143773   4.938   6.767   5.242  0.2644  0.5878 -0.4515
13606SOL    HW243774   4.845   6.664   5.182  0.1514  0.3144  0.1871
13607SOL     OW43775   7.686   8.748   7.293  0.0477  0.7549  0.2560
13607SOL    HW143776   7.730   8.832   7.309  0.2037  0.8510 -0.6235
13607SOL    HW243777   7.741   8.683   7.338  1.5710  0.7697 -1.4560
13608SOL     OW43778   1.932   9.529   7.068 -0.0385 -0.0632  0.0632
13608SOL    HW143779   1.873   9.507   7.140  0.2115 -3.2223 -0.5507
13608SOL    HW243780   2.015   9.550   7.112 -0.1809 -0.9209  0.7872
13609SOL     OW43781   9.182  10.582   6.959 -0.4877  0.5500 -0.1881
13609SOL    HW143782   9.164  10.631   7.040 -1.3058  0.0128 -0.0255
13609SOL    HW243783   9.135  10.629   6.891 -0.4800  0.5374 -0.2024
13610SOL     OW43784   8.052   6.994   7.046 -0.1357  0.5039  0.4388
13610SOL    HW143785   8.072   7.002   7.140  0.8143  1.5210  0.1677
13610SOL    HW243786   8.121   7.044   7.003  1.1644 -2.2906 -0.9855
13611SOL     OW43787   4.739   6.873   2.970 -0.1053  0.2592  0.0349
13611SOL    HW143788   4.756   6.881   3.064 -1.6602  0.1943  0.3490
13611SOL    HW243789   4.757   6.782   2.950  3.8157  0.9931 -0.5627
13612SOL     OW43790  10.441   7.599   4.730 -0.2385  0.2030  0.0735
13612SOL    HW143791  10.464   7.649   4.651 -1.7149  2.1013  0.7732
13612SOL    HW243792  10.523   7.593   4.779  0.6196 -0.6846 -1.3810
13613SOL     OW43793   3.145   3.634   7.985  0.1498  0.4151  0.2028
13613SOL    HW143794   3.140   3.669   8.073 -0.0631  0.6667  0.0910
13613SOL    HW243795   3.057   3.600   7.967 -0.2378  1.7157 -0.4676
13614SOL     OW43796   2.185   2.129   4.849  0.5954  0.3285  0.1455
13614SOL    HW143797   2.193   2.156   4.757 -0.8357  0.7272  0.1166
13614SOL    HW243798   2.264   2.164   4.890  0.8148  0.9463 -0.7551
13615SOL     OW43799   9.507   0.571   3.413 -0.1559  0.0433  0.2529
13615SOL    HW143800   9.597   0.586   3.384 -0.6088  1.6632 -0.3844
13615SOL    HW243801   9.470   0.514   3.345  0.5711 -1.2820  0.9137
13616SOL     OW43802   6.154   0.915  10.565 -0.0600  0.3854  0.2733
13616SOL    HW143803   6.060   0.904  10.579 -0.1136 -1.2082 -1.0058
13616SOL    HW243804   6.171   0.871  10.481  1.6674  1.5095 -0.0212
13617SOL     OW43805   3.401   7.355   0.089 -0.3780 -0.8125  0.4209
13617SOL    HW143806   3.467   7.423   0.076 -0.8064 -0.3027  0.8691
13617SOL    HW243807   3.408   7.300   0.011 -0.2528 -0.0608 -0.1167
13618SOL     OW43808   0.807   9.985   5.160 -0.3659  0.0354  0.1829
13618SOL    HW143809   0.877   9.940   5.208  1.4185  0.2342 -2.0261
13618SOL    HW243810   0.799  10.070   5.202 -0.7155 -0.7264  1.7147
13619SOL     OW43811   7.870   5.097  10.309  0.3342  0.3129  0.9016
13619SOL    HW143812   7.823   5.106  10.392 -1.2369  2.2007 -0.1248
13619SOL    HW243813   7.801   5.086  10.244  1.5155 -0.4629 -0.2551
13620SOL     OW43814   0.303   4.485   9.332 -0.5828 -0.4939  0.8544
13620SOL    HW143815   0.317   4.579   9.324 -1.7121 -0.2604  1.3509
13620SOL    HW243816   0.354   4.460   9.410 -0.6171 -0.2084  0.9714
13621SOL     OW43817   4.805   7.595   2.821  0.3712  0.3504  0.1293
13621SOL    HW143818   4.845   7.637   2.745 -0.2939 -1.7183 -1.4849
13621SOL    HW243819   4.878   7.551   2.866  0.7169  1.3137  0.5273
13622SOL     OW43820   7.088   6.560   6.540 -0.2223  0.1722  0.4423
13622SOL    HW143821   7.176   6.561   6.578 -0.6876  0.4358  1.5400
13622SOL    HW243822   7.095   6.500   6.466  1.0591  0.7242  0.0817
13623SOL     OW43823   5.309   2.440   3.047  0.1549 -0.0648  0.2928
13623SOL    HW143824   5.255   2.482   2.981  0.1346 -0.1719  0.2411
13623SOL    HW243825   5.399   2.456   3.018  0.1950  1.2062  1.0443
13624SOL     OW43826   7.459   7.587   2.609 -0.3503 -0.4244  0.8528
13624SOL    HW143827   7.429   7.524   2.675 -1.1686 -0.4628  0.4599
13624SOL    HW243828   7.389   7.653   2.606 -0.5676 -0.6961 -0.3331
13625SOL     OW43829   7.320   5.547   0.571  0.5942  0.6454 -0.3384
13625SOL    HW143830   7.297   5.514   0.484  1.8155 -0.0287 -0.4402
13625SOL    HW243831   7.318   5.470   0.627 -0.1889  1.0789  0.2350
13626SOL     OW43832   4.603   7.905   6.333 -0.1524  0.2770  0.2195
13626SOL    HW143833   4.570   7.994   6.331 -1.6524 -0.2591 -2.1668
13626SOL    HW243834   4.544   7.859   6.394  0.6295  0.8422  1.4573
13627SOL     OW43835   6.530   3.759   4.377 -0.3533  0.5203 -0.1966
13627SOL    HW143836   6.449   3.720   4.344 -0.2072 -0.5491  0.6811
13627SOL    HW243837   6.563   3.697   4.442  2.2918 -0.1217 -1.9842
13628SOL     OW43838  10.229   4.498   2.434  0.8774 -0.2043  0.8117
13628SOL    HW143839  10.158   4.437   2.454  0.3473 -0.3928 -1.4359
13628SOL    HW243840  10.304   4.442   2.413 -0.0859 -0.3365 -3.0682
13629SOL     OW43841   5.213   4.161   0.850  0.0941  0.1708 -0.2691
13629SOL    HW143842   5.193   4.253   0.870 -1.3320 -0.1154 -0.2873
13629SOL    HW243843   5.247   4.163   0.761 -1.4898  0.5398 -0.9112
13630SOL     OW43844  10.387   9.525   9.605 -0.7638  0.0998  0.2580
13630SOL    HW143845  10.374   9.449   9.661  0.4134  0.8792  1.6467
13630SOL    HW243846  10.335   9.595   9.646  1.9872  1.3460  1.9053
13631SOL     OW43847   7.725  10.389   1.934 -0.0634  0.3974 -0.3200
13631SOL    HW143848   7.780  10.466   1.950  1.0722 -0.6118  0.9244
13631SOL    HW243849   7.756  10.355   1.850  0.3388  0.5811 -0.2485
13632SOL     OW43850   9.584   9.995   2.205  1.0443 -0.1495 -0.0411
13632SOL    HW143851   9.585  10.018   2.112  1.5255  1.0529  0.2378
13632SOL    HW243852   9.492   9.990   2.228  0.8900  1.7904 -0.0919
13633SOL     OW43853   3.245   3.449  10.242  0.3438 -0.3490  0.7275
13633SOL    HW143854   3.168   3.395  10.261  1.0707 -1.3365  0.9425
13633SOL    HW243855   3.261   3.436  10.149  0.0113  0.1940  0.5876
13634SOL     OW43856   5.856   7.319   0.949 -0.8341  0.2438  0.4647
13634SOL    HW143857   5.926   7.253   0.949 -1.1622 -0.1083  0.7707
13634SOL    HW243858   5.794   7.287   1.015 -1.0730  0.7771  0.4961
13635SOL     OW43859   3.297   4.895   7.942 -0.1992 -0.5259 -0.0582
13635SOL    HW143860   3.348   4.945   7.879 -1.1591  0.6504  0.0458
13635SOL    HW243861   3.210   4.889   7.903 -0.3794 -1.1844  0.4256
13636SOL     OW43862   4.001   2.744   2.304 -0.0279 -0.1545 -0.3582
13636SOL    HW143863   4.009   2.839   2.316  0.9007  0.0238 -2.0648
13636SOL    HW243864   4.043   2.727   2.220 -2.4540 -1.7426 -1.3669
13637SOL     OW43865   7.795   4.157   1.902 -0.6536 -0.4521 -0.1303
13637SOL    HW143866   7.780   4.063   1.891 -0.6904 -0.7164  1.8488
13637SOL    HW243867   7.715   4.197   1.868 -0.9570 -1.1704 -0.3021
13638SOL     OW43868  10.084   4.269   9.642  0.5857 -0.6277 -0.3355
13638SOL    HW143869   9.995   4.284   9.612  0.7076  1.0346  0.0672
13638SOL    HW243870  10.124   4.216   9.572 -0.9689 -2.2964 -0.0363
13639SOL     OW43871  10.149   8.821   1.507  0.5704 -0.1657 -0.1186
13639SOL    HW143872  10.135   8.795   1.598  0.5647 -0.4962 -0.2128
13639SOL    HW243873  10.229   8.775   1.482  0.6168 -0.0105 -0.2564
13640SOL     OW43874  10.312   7.733   9.621 -0.0867 -0.0237 -0.1202
13640SOL    HW143875  10.291   7.826   9.633 -2.0325 -0.4879  0.4244
13640SOL    HW243876  10.228   7.688   9.630  0.7807 -1.8323 -0.6006
13641SOL     OW43877   3.649   3.612   5.821  0.4356  0.1191 -0.2454
13641SOL    HW143878   3.580   3.673   5.793 -1.5434 -0.9607  1.9395
13641SOL    HW243879   3.712   3.613   5.749 -0.1614  3.6799 -0.9102
13642SOL     OW43880   4.876  10.663   3.766  0.5147  0.4483 -0.0184
13642SOL    HW143881   4.943  10.732   3.767  1.1785 -0.0315  3.9552
13642SOL    HW243882   4.924  10.582   3.777 -0.4904 -0.4040 -1.5582
13643SOL     OW43883  10.329   2.777   9.852 -0.1103  0.0245 -0.1888
13643SOL    HW143884  10.401   2.829   9.888  0.5597  0.1458 -1.6501
13643SOL    HW243885  10.297   2.828   9.778 -0.5091 -0.8714 -0.6501
13644SOL     OW43886   0.450   9.695   9.710  0.3975  1.2459 -0.6329
13644SOL    HW143887   0.425   9.630   9.645  0.1700  0.5489  0.1351
13644SOL    HW243888   0.533   9.731   9.679  0.6620  0.3953 -0.9215
13645SOL     OW43889   2.682   9.131   8.559 -0.0657  0.3518 -0.1745
13645SOL    HW143890   2.668   9.195   8.628 -1.2596 -0.5535  0.4600
13645SOL    HW243891   2.768   9.094   8.578 -0.4068  0.0735  0.8802
13646SOL     OW43892   4.840   7.719   1.394 -0.2627  0.1530  0.1164
13646SOL    HW143893   4.858   7.805   1.356  0.6301 -0.2031 -0.2958
13646SOL    HW243894   4.877   7.723   1.482  0.6701 -0.1243 -0.2504
13647SOL     OW43895   1.483   8.312   4.860 -0.1453 -0.9691 -0.0959
13647SOL    HW143896   1.539   8.354   4.795  0.6844 -1.5923  0.2069
13647SOL    HW243897   1.461   8.227   4.823  1.2493 -1.7953  0.8903
13648SOL     OW43898   5.509   0.951   0.283  0.1487  0.1686  0.0764
13648SOL    HW143899   5.575   0.969   0.216  0.6995 -1.4587  0.1292
13648SOL    HW243900   5.426   0.979   0.245  0.5437 -0.1313 -1.0313
13649SOL     OW43901  10.333   4.622   3.356 -0.2899  0.0996  0.1862
13649SOL    HW143902  10.367   4.687   3.418 -0.3754 -1.5578  2.0693
13649SOL    HW243903  10.365   4.538   3.389 -1.5729 -1.0006 -1.2011
13650SOL     OW43904   9.920   2.147   6.018 -0.0021 -0.2550  0.3134
13650SOL    HW143905  10.005   2.171   5.982  0.4906  0.6769  2.0109
13650SOL    HW243906   9.857   2.203   5.972  0.6306  1.0420  0.9781
13651SOL     OW43907   1.244   8.740   1.531 -1.0525  0.1487  0.0883
13651SOL    HW143908   1.162   8.741   1.581 -0.7155  0.4722  0.6433
13651SOL    HW243909   1.296   8.811   1.568  1.1374 -2.4831  2.6195
13652SOL     OW43910   9.799  10.476   7.804 -0.5044 -0.4347 -0.1553
13652SOL    HW143911   9.775  10.457   7.713 -0.4169 -0.2711 -0.2131
13652SOL    HW243912   9.716  10.495   7.847 -0.7661 -2.2775  0.2301
13653SOL     OW43913   0.378   4.169   8.631  0.1785  0.1179  0.0983
13653SOL    HW143914   0.414   4.109   8.697  0.8087 -0.8076 -1.0569
13653SOL    HW243915   0.438   4.244   8.632 -0.1882  0.4224  1.0175
13654SOL     OW43916   6.096   4.490   2.846  0.7905 -0.3298 -0.6294
13654SOL    HW143917   6.177   4.469   2.893  0.0977 -0.5626  0.5079
13654SOL    HW243918   6.073   4.577   2.877 -1.6506 -1.8764  2.4946
13655SOL     OW43919   2.363   3.018   6.036 -0.4243 -0.1873 -0.4511
13655SOL    HW143920   2.341   3.110   6.050 -1.3889 -0.3169 -1.0691
13655SOL    HW243921   2.290   2.982   5.987  0.0694 -1.2278 -0.4652
13656SOL     OW43922   8.543   5.951   1.016  0.1976  0.1704  0.5956
13656SOL    HW143923   8.562   6.041   0.989 -1.0953  1.0512  2.4083
13656SOL    HW243924   8.493   5.914   0.944  0.6206  0.9303 -0.1117
13657SOL     OW43925   3.831   9.304   7.078 -0.1033  0.1097 -0.0299
13657SOL    HW143926   3.766   9.237   7.099  1.2614 -0.6854  1.9958
13657SOL    HW243927   3.880   9.268   7.004  0.2773 -0.9246  0.7003
13658SOL     OW43928   9.731  10.477   5.689 -0.2196 -0.1475 -0.0515
13658SOL    HW143929   9.667  10.431   5.744 -0.3346 -1.4186 -1.1922
13658SOL    HW243930   9.743  10.562   5.732 -4.6060  1.2812 -1.0180
13659SOL     OW43931   0.482   4.829   3.648  0.3782  0.0228 -0.2602
13659SOL    HW143932   0.577   4.816   3.643  0.2286 -1.3873  0.2334
13659SOL    HW243933   0.445   4.744   3.625 -0.7901  0.7316 -1.0474
13660SOL     OW43934   9.904   2.596   7.795 -0.1390  0.2656  0.1551
13660SOL    HW143935   9.894   2.688   7.772 -0.2488  0.0842 -0.5490
13660SOL    HW243936   9.877   2.548   7.716  1.0305 -0.3515  0.1069
13661SOL     OW43937   3.250   0.859   0.945  0.3687 -0.2917  0.2231
13661SOL    HW143938   3.318   0.915   0.985  0.2575 -1.4899  2.2375
13661SOL    HW243939   3.263   0.869   0.851  1.3822  1.8536  0.5257
13662SOL     OW43940   7.903   7.580   3.260  0.5813 -0.4883  0.0814
13662SOL    HW143941   7.969   7.603   3.325  0.5919 -1.4593  0.4187
13662SOL    HW243942   7.920   7.488   3.239  0.0914 -0.4048 -0.7184
13663SOL     OW43943   8.165   5.139   8.548  0.0426  0.2356  0.5764
13663SOL    HW143944   8.200   5.057   8.514 -0.7000  0.1235  0.0521
13663SOL    HW243945   8.165   5.128   8.643 -0.4469 -0.5431  0.4926
13664SOL     OW43946   2.705   7.887   3.414  0.1955 -0.1737 -0.3709
13664SOL    HW143947   2.626   7.901   3.361  0.1982 -0.7210 -0.5261
13664SOL    HW243948   2.772   7.942   3.373  0.1023 -0.3183 -0.7204
13665SOL     OW43949   4.212   4.054   9.601 -0.0141 -0.2015  0.2323
13665SOL    HW143950   4.211   4.007   9.685  0.8546  1.7858  1.4314
13665SOL    HW243951   4.121   4.083   9.589 -0.0088  0.1169  0.8840
13666SOL     OW43952   0.068   9.843   6.491  0.5779 -0.6818 -0.1284
13666SOL    HW143953  -0.009   9.850   6.434  0.0278 -2.5144  0.3287
13666SOL    HW243954   0.032   9.825   6.578  1.4784  0.4114  0.4888
13667SOL     OW43955   2.937   8.544  10.506 -0.2329 -0.1650  0.3701
13667SOL    HW143956   2.981   8.594  10.437  0.2240  0.2898  0.9805
13667SOL    HW243957   2.989   8.561  10.585 -1.7463  0.7431  1.2167
13668SOL     OW43958   4.089  10.450   2.949  0.1629 -0.2811  0.7381
13668SOL    HW143959   4.129  10.368   2.975  1.2442  0.0954  0.3460
13668SOL    HW243960   4.154  10.491   2.891 -1.2107 -0.0991 -0.7474
13669SOL     OW43961  10.503   3.375   7.331  0.1821 -0.0952  0.0211
13669SOL    HW143962  10.563   3.331   7.270 -0.9590 -1.0205 -0.4709
13669SOL    HW243963  10.446   3.305   7.363 -0.1342  0.6288  1.0871
13670SOL     OW43964   0.522   5.850   0.995  0.2947  0.5646  0.5697
13670SOL    HW143965   0.564   5.816   0.916 -0.6540  2.0382 -0.6292
13670SOL    HW243966   0.433   5.872   0.968 -2.5117 -5.0447  3.6737
13671SOL     OW43967   5.580   4.605   8.436  0.0744 -0.1422  0.0655
13671SOL    HW143968   5.525   4.535   8.474  0.3874 -0.3866  0.0715
13671SOL    HW243969   5.518   4.661   8.390 -0.2466 -0.1342  0.5027
13672SOL     OW43970   9.837   4.236   1.928 -0.1395  0.0617 -0.0328
13672SOL    HW143971   9.847   4.323   1.965  2.5619 -0.8397  1.6359
13672SOL    HW243972   9.746   4.212   1.946  0.0475  1.1242  2.8217
13673SOL     OW43973   3.125   9.287   9.503  0.0704  0.6316  0.4558
13673SOL    HW143974   3.075   9.215   9.544 -0.4602 -0.0586 -1.3245
13673SOL    HW243975   3.183   9.318   9.573 -1.1179 -0.1782  1.8690
13674SOL     OW43976  10.659   9.489   5.824  0.2894  0.8087  0.3840
13674SOL    HW143977  10.700   9.424   5.881  0.9009 -0.8174 -1.7790
13674SOL    HW243978  10.721   9.562   5.823  1.9804 -0.5518 -0.8097
13675SOL     OW43979   5.538   8.186   6.452  0.9255  0.2290  0.5434
13675SOL    HW143980   5.613   8.128   6.437  0.4886 -0.1501 -0.2484
13675SOL    HW243981   5.464   8.141   6.411  0.0440  0.1182  2.1879
13676SOL     OW43982   7.352   8.604   3.835 -0.6726 -0.0662 -0.2864
13676SOL    HW143983   7.277   8.562   3.793 -0.1954 -0.9342 -0.2783
13676SOL    HW243984   7.323   8.620   3.925 -1.6406  1.6474 -0.8361
13677SOL     OW43985  10.694   6.100  10.652 -0.4798  0.0623  0.2481
13677SOL    HW143986  10.724   6.095  10.561 -0.6867 -0.7274  0.2094
13677SOL    HW243987  10.766   6.143  10.699 -0.1226 -0.0556 -0.1860
13678SOL     OW43988   2.117   6.160   9.185 -0.0484 -0.1394 -0.3955
13678SOL    HW143989   2.135   6.254   9.185 -1.2442  0.1575  1.7856
13678SOL    HW243990   2.169   6.125   9.258 -1.8915 -0.6064  0.7708
13679SOL     OW43991   1.125   4.408   4.936 -0.4608  0.0724 -0.0676
13679SOL    HW143992   1.111   4.431   4.844 -0.8463 -0.5390 -0.1718
13679SOL    HW243993   1.191   4.470   4.967  1.5901 -1.2985 -1.4539
13680SOL     OW43994   5.703   9.486   3.438  0.2409  0.5121  0.1734
13680SOL    HW143995   5.738   9.399   3.419 -0.2541  0.4902 -0.7216
13680SOL    HW243996   5.688   9.525   3.352 -1.1428  0.8238  0.5228
13681SOL     OW43997   4.915   8.542   1.972  0.1450 -0.5006 -0.1339
13681SOL    HW143998   4.969   8.465   1.954  0.0224 -0.7357  0.4622
13681SOL    HW243999   4.889   8.575   1.886 -0.5326 -1.6470 -0.3838
13682SOL     OW44000   2.676  10.127   1.678  0.4934 -0.0593 -0.0621
13682SOL    HW144001   2.674  10.185   1.754 -2.0926  0.5444 -0.5060
13682SOL    HW244002   2.707  10.043   1.713  1.2821  0.7172  1.2127
13683SOL     OW44003   4.195   0.302  10.020  0.4660 -0.1554 -0.6248
13683SOL    HW144004   4.234   0.361  10.084 -2.9464  0.4552  1.1354
13683SOL    HW244005   4.168   0.359   9.948  0.3221 -0.1438 -0.5613
13684SOL     OW44006   1.822   6.997   5.207 -0.5252 -0.3811  0.2198
13684SOL    HW144007   1.882   7.071   5.217 -0.9949 -0.1527  1.5609
13684SOL    HW244008   1.877   6.920   5.221 -0.1089 -0.3033 -0.8241
13685SOL     OW44009   9.855   4.324   2.259  0.3625 -0.0845 -0.1715
13685SOL    HW144010   9.910   4.394   2.292  1.2178  0.0733 -1.8298
13685SOL    HW244011   9.916   4.255   2.233  0.0154  0.6717 -3.4263
13686SOL     OW44012   6.051   9.507   0.169 -0.4946 -0.0354 -0.1163
13686SOL    HW144013   6.064   9.423   0.213  5.4047 -0.3431 -1.7343
13686SOL    HW244014   6.042   9.485   0.077 -2.6372  1.0815 -0.2317
13687SOL     OW44015   7.125   9.345   7.233  0.0111 -0.0943  0.7030
13687SOL    HW144016   7.167   9.264   7.205 -0.6198  0.3281 -1.6485
13687SOL    HW244017   7.058   9.318   7.295 -1.0850 -1.5454 -1.0354
13688SOL     OW44018   6.061   3.000   2.975 -0.0703 -0.2190  0.0493
13688SOL    HW144019   6.082   3.085   2.936 -0.0401 -0.6424 -0.8802
13688SOL    HW244020   6.125   2.940   2.938 -0.3974 -0.7397  0.3185
13689SOL     OW44021   6.596   4.842   5.609 -0.1356 -0.3232  0.0886
13689SOL    HW144022   6.579   4.909   5.674  1.4037 -1.5422  1.8571
13689SOL    HW244023   6.519   4.786   5.611 -0.1280 -0.3122  0.8232
13690SOL     OW44024   2.561   6.741   8.256  0.0587 -0.2088 -0.1276
13690SOL    HW144025   2.491   6.781   8.205  0.5162 -0.6710 -1.1691
13690SOL    HW244026   2.611   6.690   8.191  3.4229  2.7689 -0.2275
13691SOL     OW44027   0.204   8.629   1.993 -0.2990 -0.1865 -0.0113
13691SOL    HW144028   0.155   8.711   1.984  1.0921  0.7138  0.2840
13691SOL    HW244029   0.281   8.653   2.044  0.1213 -1.7044  0.1148
13692SOL     OW44030   0.527   6.732   3.438 -0.4181  0.1137  0.8467
13692SOL    HW144031   0.575   6.653   3.414 -0.6123 -0.5002  2.3905
13692SOL    HW244032   0.525   6.731   3.533  0.3626  2.4704  0.9371
13693SOL     OW44033   3.203   8.202   2.690  0.5898  0.4654 -0.0625
13693SOL    HW144034   3.180   8.231   2.778  1.8524  0.5965  0.2479
13693SOL    HW244035   3.299   8.197   2.691  0.5459 -2.8350 -0.3430
13694SOL     OW44036   5.899   0.908   5.387  0.6672 -0.1272  0.0041
13694SOL    HW144037   5.960   0.980   5.403  0.2445 -0.2555  2.6668
13694SOL    HW244038   5.821   0.950   5.353  0.6985  0.6209  0.8056
13695SOL     OW44039   2.927   4.392   6.205 -0.0096 -0.2030  0.1422
13695SOL    HW144040   2.894   4.482   6.208 -2.5346 -1.0619  1.8656
13695SOL    HW244041   2.850   4.339   6.183  0.7864 -2.1642  1.6882
13696SOL     OW44042   7.146   1.891   3.437  0.1981 -0.3656 -0.1455
13696SOL    HW144043   7.062   1.898   3.391  0.5908  2.6837 -0.6330
13696SOL    HW244044   7.212   1.907   3.368  0.9468  1.1221  0.8593
13697SOL     OW44045   6.783   0.892   5.285  0.0615 -0.4457  0.2892
13697SOL    HW144046   6.868   0.895   5.240 -0.2847  0.1013 -0.3405
13697SOL    HW244047   6.762   0.798   5.289  1.1608 -0.6683  1.3565
13698SOL     OW44048   2.992   7.456   4.960 -0.2751 -0.2730 -0.1536
13698SOL    HW144049   2.961   7.435   5.048  0.5066 -2.0098 -0.2576
13698SOL    HW244050   3.031   7.543   4.968 -0.0141 -0.5012  1.2587
13699SOL     OW44051   9.385   7.605   7.191  0.3340 -0.1816  0.2218
13699SOL    HW144052   9.403   7.608   7.285  0.6190  0.0741  0.1629
13699SOL    HW244053   9.344   7.690   7.173 -0.1122 -0.4056  0.1936
13700SOL     OW44054   8.498   5.275   6.174 -0.1931  0.5104  0.0713
13700SOL    HW144055   8.425   5.236   6.221  0.1980  0.1608  0.3957
13700SOL    HW244056   8.471   5.273   6.082  0.1602 -1.3198 -0.0332
13701SOL     OW44057   6.502   1.723   5.690 -0.5767 -0.5301 -0.1825
13701SOL    HW144058   6.425   1.779   5.697  0.4040  0.6343  2.0722
13701SOL    HW244059   6.566   1.777   5.644 -0.2785 -0.5721  0.1882
13702SOL     OW44060  10.649   7.813   0.875 -0.0435  0.1038 -0.1104
13702SOL    HW144061  10.740   7.789   0.891 -0.0994 -1.0889 -1.3738
13702SOL    HW244062  10.655   7.896   0.827  0.3642  0.2652  0.2128
13703SOL     OW44063   7.278   3.066   0.679 -0.3904 -0.3052 -0.3394
13703SOL    HW144064   7.276   3.013   0.758 -2.1312  0.5769  0.2748
13703SOL    HW244065   7.359   3.117   0.685  0.0816 -1.1141  0.2579
13704SOL     OW44066   8.880   3.097  10.690  0.2369  0.2332  0.0476
13704SOL    HW144067   8.953   3.159  10.689 -0.9039  1.6273 -1.4291
13704SOL    HW244068   8.835   3.115  10.773  0.2194  1.0200 -0.1288
13705SOL     OW44069   5.415   0.813   1.645  0.1294  0.3181 -0.3730
13705SOL    HW144070   5.349   0.745   1.659 -0.2425  0.8976  0.7785
13705SOL    HW244071   5.474   0.776   1.579 -0.0689 -1.1141  0.2162
13706SOL     OW44072   3.198   7.566   3.936 -0.2796 -0.4005  0.6511
13706SOL    HW144073   3.250   7.538   4.012 -0.9251 -0.1955  1.1792
13706SOL    HW244074   3.120   7.607   3.974 -1.4680 -1.8706 -0.1124
13707SOL     OW44075   5.930   4.539   5.525 -0.3766 -0.2771 -0.0504
13707SOL    HW144076   5.987   4.526   5.601 -0.6829 -0.6795  0.1112
13707SOL    HW244077   5.878   4.459   5.519 -1.4739  0.3899  0.2593
13708SOL     OW44078   7.172   0.038   2.608 -0.7016  0.1147  0.2650
13708SOL    HW144079   7.139  -0.033   2.664 -0.8312 -0.3466 -0.3824
13708SOL    HW244080   7.139   0.118   2.650 -0.6766 -0.2102  0.9238
13709SOL     OW44081   5.172   5.081   4.547  0.2645 -0.0015  0.3223
13709SOL    HW144082   5.138   5.139   4.478 -1.8321 -0.6480  0.7362
13709SOL    HW244083   5.169   5.134   4.626  2.3071  0.6128  0.0505
13710SOL     OW44084   6.037   7.544  10.260 -0.3884 -0.5289 -0.2573
13710SOL    HW144085   5.971   7.601  10.301  0.5156  1.2575 -1.1632
13710SOL    HW244086   6.002   7.456  10.271 -2.0268  0.2060  0.9191
13711SOL     OW44087   1.217   0.823   0.008 -0.0031 -0.1228  0.4998
13711SOL    HW144088   1.199   0.824  -0.086 -1.6113 -1.9799  0.7268
13711SOL    HW244089   1.206   0.731   0.034  2.6204 -0.0924  2.1442
13712SOL     OW44090   8.415   5.875   4.552 -0.1458  0.0639  0.1559
13712SOL    HW144091   8.375   5.943   4.607  1.0479  0.9120  0.0107
13712SOL    HW244092   8.498   5.855   4.596 -0.2139 -0.8737 -0.1331
13713SOL     OW44093   7.341   5.803   0.355 -0.0988  0.1000 -0.5360
13713SOL    HW144094   7.353   5.792   0.449  1.7782 -0.9524 -0.8577
13713SOL    HW244095   7.427   5.787   0.317 -1.0305 -0.6046 -2.5283
13714SOL     OW44096   3.321   5.694   6.837  0.3517 -0.4782  0.3302
13714SOL    HW144097   3.375   5.718   6.762 -1.0262 -2.2280 -1.3334
13714SOL    HW244098   3.377   5.638   6.891  1.5945  1.3919  1.0811
13715SOL     OW44099   4.511   7.106   9.743 -0.3235  0.0196  0.1873
13715SOL    HW144100   4.475   7.048   9.676 -0.1532 -0.0596  0.1664
13715SOL    HW244101   4.571   7.163   9.696 -0.0014 -0.2109  0.3186
13716SOL     OW44102   6.512   0.356   7.653  0.0496 -0.5728 -0.3768
13716SOL    HW144103   6.552   0.441   7.636  2.7393 -1.8056 -0.6636
13716SOL    HW244104   6.480   0.327   7.567  0.1557 -0.3298 -0.4995
13717SOL     OW44105   5.664   4.285   4.464 -0.7630 -0.0452 -0.3887
13717SOL    HW144106   5.715   4.204   4.461  1.0586  1.0555 -0.4223
13717SOL    HW244107   5.580   4.258   4.502 -0.5015 -2.0692 -1.0903
13718SOL     OW44108   5.408   4.357   7.720  0.2663 -0.3599  0.4311
13718SOL    HW144109   5.384   4.268   7.693  1.2069 -0.8422  1.1286
13718SOL    HW244110   5.342   4.380   7.786  0.0372 -0.5492  0.2700
13719SOL     OW44111   6.889   7.115  10.613  0.1366  0.0662 -0.1716
13719SOL    HW144112   6.849   7.036  10.576 -0.5753  0.8364 -1.1174
13719SOL    HW244113   6.818   7.178  10.616  0.7376  0.7249  0.4136
13720SOL     OW44114  10.105   1.261   2.817 -0.5227 -0.5110 -0.4768
13720SOL    HW144115  10.031   1.288   2.871 -1.3568 -0.1048 -1.7676
13720SOL    HW244116  10.160   1.339   2.811  1.3573 -1.4338  2.4421
13721SOL     OW44117   0.097   9.220   8.584 -0.1451  0.0388 -0.1328
13721SOL    HW144118   0.141   9.215   8.668  0.6629  0.8851 -0.4897
13721SOL    HW244119   0.009   9.251   8.605 -0.1229 -0.2781  0.4480
13722SOL     OW44120   4.969   4.167   9.862  0.2754 -0.1835 -0.6059
13722SOL    HW144121   4.923   4.086   9.842 -1.9733  1.4702 -2.6436
13722SOL    HW244122   4.909   4.237   9.836  1.9581  2.1989  1.3737
13723SOL     OW44123   3.445  10.481   3.957 -0.3554 -0.0188  0.1743
13723SOL    HW144124   3.436  10.437   4.042  1.4902 -1.4059 -0.2806
13723SOL    HW244125   3.421  10.415   3.893  0.1379  0.4039 -0.4568
13724SOL     OW44126   9.321  10.275   0.489 -0.1726  0.2905 -0.4167
13724SOL    HW144127   9.356  10.361   0.470  0.3196 -0.0263 -0.9517
13724SOL    HW244128   9.369  10.246   0.567 -1.4466  1.1430  0.7381
13725SOL     OW44129  10.220   3.384   7.607  0.7754  0.4545  0.0946
13725SOL    HW144130  10.156   3.317   7.582 -0.6811  1.8641 -0.1616
13725SOL    HW244131  10.256   3.354   7.690  0.3978 -0.7940 -0.1782
13726SOL     OW44132   8.645   4.795   8.118 -0.1188 -0.3852 -0.4006
13726SOL    HW144133   8.575   4.782   8.182  0.4485 -1.2488  0.0648
13726SOL    HW244134   8.698   4.715   8.124  2.1001  1.0792  0.7322
13727SOL     OW44135   1.332   5.347  10.161 -0.6076 -0.7775 -0.7931
13727SOL    HW144136   1.243   5.345  10.197 -0.2889 -1.1131 -0.0011
13727SOL    HW244137   1.374   5.422  10.205 -0.5986 -0.4010 -1.4271
13728SOL     OW44138   3.777  10.538   6.159 -0.0831  0.3602  0.3368
13728SOL    HW144139   3.709  10.554   6.094 -0.6677  2.7747  1.4457
13728SOL    HW244140   3.814  10.624   6.177  3.2872 -0.8480 -0.1745
13729SOL     OW44141   5.132   4.457   1.908  0.0704 -0.1447 -0.2462
13729SOL    HW144142   5.194   4.393   1.942 -0.7903 -0.5124  0.6917
13729SOL    HW244143   5.107   4.422   1.822 -0.5053 -1.1707  0.3151
13730SOL     OW44144   5.606   7.674   0.113 -0.4379  0.5230  0.7767
13730SOL    HW144145   5.553   7.629   0.180 -1.2852 -1.1286 -0.9019
13730SOL    HW244146   5.550   7.743   0.080 -0.6358  0.3175  0.6790
13731SOL     OW44147   5.487  10.499   9.080  0.3226  0.2538  0.1696
13731SOL    HW144148   5.486  10.447   9.160  0.6287  1.1756  0.7934
13731SOL    HW244149   5.534  10.445   9.016  1.1356 -0.0104  0.9650
13732SOL     OW44150   9.285   9.661   6.048 -0.7846 -0.3430  0.0313
13732SOL    HW144151   9.219   9.700   5.991  2.3008  0.0627 -3.6853
13732SOL    HW244152   9.288   9.569   6.021  0.1873 -0.3291  0.0331
13733SOL     OW44153   5.329   6.731   3.654  0.1990  0.3732  0.2595
13733SOL    HW144154   5.308   6.717   3.562  0.2497 -0.3356  0.3477
13733SOL    HW244155   5.401   6.671   3.672  1.3560  1.7362  0.3330
13734SOL     OW44156   2.274  10.192  10.680  0.1001  0.2110  0.1209
13734SOL    HW144157   2.330  10.144  10.618  0.8154  0.8329  0.2749
13734SOL    HW244158   2.315  10.278  10.689  2.2220 -0.9378  4.2187
13735SOL     OW44159   1.161   1.220   8.819  0.2055  0.7121 -0.8386
13735SOL    HW144160   1.133   1.163   8.747 -3.4934 -0.6994  1.4679
13735SOL    HW244161   1.098   1.292   8.819 -0.1403  0.4484  1.2227
13736SOL     OW44162   7.867   6.963   3.610  0.1154 -0.4474  0.1237
13736SOL    HW144163   7.887   6.870   3.599  0.5853 -0.2492 -0.7913
13736SOL    HW244164   7.948   7.001   3.645  1.3098  0.2452 -3.0088
13737SOL     OW44165   0.705   3.923   4.503 -0.3778 -0.5409 -0.1491
13737SOL    HW144166   0.708   3.926   4.599 -0.2818  0.0091 -0.1661
13737SOL    HW244167   0.615   3.896   4.484  0.0080 -2.0682  0.1096
13738SOL     OW44168   3.146   0.034   8.055  0.3502 -0.1764 -0.1896
13738SOL    HW144169   3.097   0.092   7.996 -0.1521  0.0470  0.4401
13738SOL    HW244170   3.229   0.020   8.010  0.7931  1.6484 -0.0074
13739SOL     OW44171   5.291   0.021   9.373  0.5718 -0.0235  0.1743
13739SOL    HW144172   5.284   0.078   9.450  2.0931 -1.6441  1.5881
13739SOL    HW244173   5.209  -0.028   9.373  0.7153 -0.2957  1.0458
13740SOL     OW44174   9.787   7.014   5.029  0.1921 -0.1892 -0.6802
13740SOL    HW144175   9.876   7.049   5.029  0.3924 -0.5882  1.2751
13740SOL    HW244176   9.793   6.933   5.079 -1.2386 -0.3350 -0.7050
13741SOL     OW44177   8.520  10.016   4.623  0.4059 -0.1857  0.5681
13741SOL    HW144178   8.443   9.975   4.585  0.7722 -0.7548  0.4332
13741SOL    HW244179   8.502  10.110   4.618  0.9709 -0.1488 -2.1672
13742SOL     OW44180   4.486   7.772   0.828 -0.0992  0.2352 -0.6567
13742SOL    HW144181   4.427   7.809   0.763  2.4916  3.5351 -1.4170
13742SOL    HW244182   4.570   7.764   0.783  0.4471 -3.2159  0.6673
13743SOL     OW44183   0.061   4.317   2.101 -0.2083  0.1391 -0.3907
13743SOL    HW144184   0.097   4.347   2.017 -0.3551 -0.7021 -0.7667
13743SOL    HW244185   0.055   4.222   2.091  0.3304 -0.0317  0.7938
13744SOL     OW44186   3.919   6.880   2.219  0.1163 -0.0411  0.5615
13744SOL    HW144187   3.867   6.804   2.244  0.0840  0.2887  1.5486
13744SOL    HW244188   4.000   6.871   2.269  0.2327  0.4170  0.4661
13745SOL     OW44189   3.052   3.077   9.442 -0.0520 -0.1555  0.1930
13745SOL    HW144190   3.103   3.010   9.488  0.3903  0.4978  0.6806
13745SOL    HW244191   2.980   3.097   9.502  0.7031  0.9269  0.7724
13746SOL     OW44192   7.096   2.845   4.163 -0.7370 -0.2850 -0.2354
13746SOL    HW144193   7.036   2.857   4.090 -0.3054 -0.2577 -0.5894
13746SOL    HW244194   7.054   2.890   4.237 -1.5703 -1.0284 -0.2496
13747SOL     OW44195   8.714   4.482   6.373 -0.2561  0.1877  0.3940
13747SOL    HW144196   8.636   4.496   6.428  0.8964  0.6154  1.9855
13747SOL    HW244197   8.705   4.391   6.342 -0.5291 -0.3859  2.0325
13748SOL     OW44198   4.243   6.734   2.606 -0.0880 -0.8091 -0.8527
13748SOL    HW144199   4.224   6.644   2.579 -1.5289 -0.9527  0.4864
13748SOL    HW244200   4.313   6.725   2.671  0.6633 -0.8260 -1.6526
13749SOL     OW44201   5.797  10.530   8.434 -0.4507  0.4595 -0.4572
13749SOL    HW144202   5.888  10.553   8.455 -0.4833  1.5935 -1.4844
13749SOL    HW244203   5.770  10.474   8.507  1.1274 -0.0664 -0.2272
13750SOL     OW44204   5.031   7.067   3.912  0.0697 -0.1143  0.2132
13750SOL    HW144205   5.101   7.011   3.880  1.0368  0.9490  0.4076
13750SOL    HW244206   5.054   7.155   3.881 -0.3966  0.4933  1.5246
13751SOL     OW44207   7.683   4.824   2.031  0.2960  0.6841 -0.1764
13751SOL    HW144208   7.599   4.849   2.069  1.0225 -0.1425  2.1081
13751SOL    HW244209   7.720   4.906   2.000 -0.5618  1.3178  0.4220
13752SOL     OW44210  10.286   3.759   2.638  0.7411  0.7521  0.2041
13752SOL    HW144211  10.222   3.716   2.695  1.6469 -0.8391  0.0812
13752SOL    HW244212  10.241   3.773   2.555  0.8234 -1.3344 -0.2396
13753SOL     OW44213   1.515   8.492   5.070 -0.1729  0.7903 -0.5203
13753SOL    HW144214   1.590   8.447   5.110  0.1870  1.5708 -0.2870
13753SOL    HW244215   1.497   8.442   4.991  0.8495  0.8020 -0.7800
13754SOL     OW44216   3.687   6.995   6.789 -0.2405 -0.0944 -0.0054
13754SOL    HW144217   3.746   7.055   6.836 -1.0335  1.6356 -1.1185
13754SOL    HW244218   3.714   7.002   6.698 -0.3026 -1.5525 -0.1644
13755SOL     OW44219   6.330   6.474   2.133  0.2120 -0.5261 -0.2093
13755SOL    HW144220   6.412   6.486   2.181  0.8804 -2.1967 -0.8578
13755SOL    HW244221   6.284   6.405   2.181  0.3917 -1.4323 -1.2880
13756SOL     OW44222   4.887   0.634   7.657 -0.7857  0.1829  0.6465
13756SOL    HW144223   4.857   0.619   7.567  0.0051 -0.1340  0.4191
13756SOL    HW244224   4.807   0.637   7.710 -1.1912 -0.9753  0.1222
13757SOL     OW44225   8.615   6.808   4.435 -0.4287 -0.0766  0.0130
13757SOL    HW144226   8.704   6.843   4.436 -0.2887 -0.4350  0.1777
13757SOL    HW244227   8.600   6.785   4.343 -1.0520  1.7380 -0.3890
13758SOL     OW44228   9.759   4.391   0.258  0.1080  0.6558 -0.2526
13758SOL    HW144229   9.670   4.415   0.283  0.0044  0.3509 -0.3229
13758SOL    HW244230   9.815   4.432   0.324 -0.2469 -1.5828  1.5466
13759SOL     OW44231   9.723   1.237   7.381  0.4973  0.1839  0.2748
13759SOL    HW144232   9.676   1.197   7.454  2.0406 -0.0651  1.1691
13759SOL    HW244233   9.814   1.211   7.394  0.8096  0.0765 -1.7910
13760SOL     OW44234   0.743   2.194   3.293  0.1321  0.4833 -0.4265
13760SOL    HW144235   0.803   2.263   3.266  0.8684  0.0346  0.0406
13760SOL    HW244236   0.747   2.194   3.389 -1.0309  0.8083 -0.3562
13761SOL     OW44237   9.888   7.778   9.024 -0.1641 -0.0692  0.4480
13761SOL    HW144238   9.869   7.722   8.948 -1.0678 -0.8881  1.2499
13761SOL    HW244239   9.953   7.841   8.992 -2.3273  1.2110 -1.7270
13762SOL     OW44240   4.147   6.387   3.765  0.0473  0.1901 -0.0029
13762SOL    HW144241   4.194   6.470   3.757 -0.3511  0.4548  0.3593
13762SOL    HW244242   4.056   6.408   3.743 -0.1272 -0.0644  0.4569
13763SOL     OW44243   8.005   2.156   1.182  0.3009 -0.0462 -0.4484
13763SOL    HW144244   7.935   2.147   1.248 -0.0030 -1.0570 -0.8872
13763SOL    HW244245   8.046   2.240   1.202  0.8109 -0.7340  1.6123
13764SOL     OW44246   8.335   2.568   8.521  0.6165  0.0868  0.2382
13764SOL    HW144247   8.269   2.578   8.452  0.0553  1.3465  0.9231
13764SOL    HW244248   8.411   2.530   8.477 -0.3847 -0.9545 -0.6683
13765SOL     OW44249   1.503   8.985   2.998  0.2432 -0.4287 -0.1543
13765SOL    HW144250   1.499   9.078   2.975 -1.7262 -0.5931 -0.5895
13765SOL    HW244251   1.566   8.948   2.936  0.4345  0.4607 -0.5092
13766SOL     OW44252   8.423   3.453   3.145 -0.0968  0.0680  0.8222
13766SOL    HW144253   8.423   3.547   3.131 -0.3048  0.0476  0.6722
13766SOL    HW244254   8.496   3.421   3.092  0.3968  0.2170  1.4058
13767SOL     OW44255   6.935   0.139   5.421  0.7186  0.2574 -0.2741
13767SOL    HW144256   6.988   0.210   5.458  0.6485 -0.8496  2.1339
13767SOL    HW244257   6.894   0.178   5.343  1.1307  2.6839  0.6235
13768SOL     OW44258   9.611   9.685   9.137  0.0869 -0.3315 -0.1644
13768SOL    HW144259   9.556   9.761   9.120  0.6573  0.1636  0.1711
13768SOL    HW244260   9.662   9.673   9.057 -0.1888 -0.5266 -0.3132
13769SOL     OW44261   5.489   1.425   0.537  0.0344  0.6893 -0.1800
13769SOL    HW144262   5.525   1.504   0.498 -0.6808  1.0848 -0.0671
13769SOL    HW244263   5.565   1.370   0.556  0.6040  1.6641  0.4527
13770SOL     OW44264  10.514   6.906   7.509  0.2609  0.1598 -0.2384
13770SOL    HW144265  10.574   6.837   7.478  0.6832  1.1943 -1.8605
13770SOL    HW244266  10.509   6.892   7.604  0.4677 -1.9721 -0.4782
13771SOL     OW44267   1.316   3.295   6.914  0.8457  0.0198  0.0744
13771SOL    HW144268   1.301   3.250   6.831 -4.1034  1.5786 -0.2126
13771SOL    HW244269   1.375   3.237   6.962 -0.1039 -3.5123 -2.5891
13772SOL     OW44270   4.915   8.414   8.783 -0.2857 -0.5633  0.0139
13772SOL    HW144271   4.945   8.324   8.768  1.3089 -0.0343 -0.1425
13772SOL    HW244272   4.989   8.456   8.827  0.5494  1.6808 -3.2100
13773SOL     OW44273   1.729   4.084  10.294 -0.3391  0.0896  0.0021
13773SOL    HW144274   1.721   4.177  10.313 -1.1780  0.2686 -1.1347
13773SOL    HW244275   1.641   4.049  10.309 -0.6106 -0.0755 -1.7309
13774SOL     OW44276   8.197   8.619   2.092  0.3256  0.0724  0.1084
13774SOL    HW144277   8.240   8.615   2.006  0.5328  2.3561  0.0429
13774SOL    HW244278   8.249   8.682   2.141 -2.1999  2.0630  0.4386
13775SOL     OW44279   5.341   4.584   1.632  0.4806 -0.6424  0.4412
13775SOL    HW144280   5.402   4.588   1.706  0.0968 -0.9894  0.7850
13775SOL    HW244281   5.284   4.510   1.653 -0.6968  0.2905  0.6142
13776SOL     OW44282   3.968   3.541   8.239 -0.3454 -0.1741  0.4747
13776SOL    HW144283   3.960   3.446   8.231 -0.5514 -0.0885 -0.4155
13776SOL    HW244284   3.988   3.556   8.332 -0.0616 -1.0964  0.5668
13777SOL     OW44285   8.523   1.397   4.329 -0.2249  0.2651 -0.2551
13777SOL    HW144286   8.470   1.427   4.255 -1.2075 -0.3901  0.1623
13777SOL    HW244287   8.469   1.414   4.406 -0.4484 -1.6505  0.0672
13778SOL     OW44288   9.736   9.465  10.331 -0.7344 -0.3953  0.1720
13778SOL    HW144289   9.810   9.451  10.273  0.1733 -2.2602  1.6883
13778SOL    HW244290   9.734   9.559  10.345  0.7526 -0.2160 -0.6315
13779SOL     OW44291   1.009   4.023   9.391 -0.4042 -0.1104  0.2270
13779SOL    HW144292   1.094   4.066   9.384 -1.4679  1.8744 -1.8762
13779SOL    HW244293   0.989   4.025   9.485  1.4573  0.1511  0.6561
13780SOL     OW44294   6.127   0.277   2.818 -0.5002 -0.4039  0.4470
13780SOL    HW144295   6.167   0.210   2.764  0.4895 -1.3983  2.3277
13780SOL    HW244296   6.039   0.244   2.837 -1.0079  0.1529 -0.8552
13781SOL     OW44297   7.118   3.304   3.918 -0.8253 -0.4265  0.0178
13781SOL    HW144298   7.200   3.352   3.913 -0.4342 -1.0726  0.0772
13781SOL    HW244299   7.143   3.218   3.954 -1.1121 -1.5826 -2.3381
13782SOL     OW44300   3.789   3.069   8.738  0.2827 -0.3965  0.2306
13782SOL    HW144301   3.848   3.020   8.682 -0.2505 -0.1791 -0.5321
13782SOL    HW244302   3.770   3.010   8.811  1.8226 -0.2917  0.7586
13783SOL     OW44303   3.035   1.655   9.413  0.2741 -0.5771 -0.0399
13783SOL    HW144304   3.070   1.644   9.502  0.3472  0.8615  0.1339
13783SOL    HW244305   2.949   1.614   9.416 -0.7427  1.4924  1.4092
13784SOL     OW44306   5.246   3.355   6.584 -0.0634 -0.8182  0.1037
13784SOL    HW144307   5.216   3.276   6.630 -0.6603 -0.4197  0.4128
13784SOL    HW244308   5.322   3.326   6.534 -1.9253 -2.2805 -2.0773
13785SOL     OW44309   6.622   5.781   5.195  0.1618 -0.2241  0.3743
13785SOL    HW144310   6.532   5.810   5.181  0.1292 -0.2477  0.5347
13785SOL    HW244311   6.650   5.827   5.275  0.7316  0.8066 -0.3954
13786SOL     OW44312   8.093   1.027   5.436  0.6507  0.2885  0.4635
13786SOL    HW144313   8.034   1.075   5.377 -0.0614 -0.8636  0.1932
13786SOL    HW244314   8.037   0.962   5.477  1.2918  0.6346  1.9281
13787SOL     OW44315   9.775   7.824   3.447  0.0202  0.4427 -0.2541
13787SOL    HW144316   9.867   7.841   3.466 -0.1621  2.7075 -1.0183
13787SOL    HW244317   9.733   7.819   3.533  0.7453  0.0630  0.0862
13788SOL     OW44318   8.964   6.255   8.158  0.1250  0.1534 -0.5319
13788SOL    HW144319   8.967   6.278   8.251  0.0931 -0.8258 -0.2783
13788SOL    HW244320   9.050   6.282   8.125  0.3898 -0.0893 -0.0659
13789SOL     OW44321   5.164   9.300   7.699 -0.0241 -0.1432 -0.1732
13789SOL    HW144322   5.120   9.253   7.770 -0.5873 -0.3811 -0.6732
13789SOL    HW244323   5.217   9.233   7.656  1.2055  0.2357  0.7047
13790SOL     OW44324   3.547   7.279   5.901  0.3631 -0.0245 -0.2093
13790SOL    HW144325   3.629   7.238   5.928 -0.5271 -2.2270 -0.6490
13790SOL    HW244326   3.499   7.293   5.983  0.3851 -0.5494 -0.1029
13791SOL     OW44327   1.679   3.682   3.181 -0.2692 -0.2475 -0.1755
13791SOL    HW144328   1.756   3.723   3.142 -0.5227 -0.1065 -0.5355
13791SOL    HW244329   1.641   3.630   3.110 -1.3694  0.8917 -0.4442
13792SOL     OW44330   2.852   1.288   6.820 -0.8947  0.2212 -0.6153
13792SOL    HW144331   2.946   1.301   6.815 -1.1575  2.0685 -1.5712
13792SOL    HW244332   2.828   1.248   6.736 -1.0136 -0.0169 -0.4726
13793SOL     OW44333   1.404   7.120   0.553  0.6191 -0.3448  0.1000
13793SOL    HW144334   1.320   7.097   0.592 -0.2604 -0.6581 -1.8396
13793SOL    HW244335   1.387   7.204   0.508  1.8392  0.4845  1.1339
13794SOL     OW44336   2.038   0.761   1.211  0.1434 -0.3474  0.3623
13794SOL    HW144337   2.034   0.855   1.230 -0.0202 -0.4088  0.6346
13794SOL    HW244338   1.966   0.746   1.151 -0.4612 -0.4809  1.1092
13795SOL     OW44339   1.434   5.651   7.935 -0.3254  0.4321 -0.2338
13795SOL    HW144340   1.382   5.691   7.865  2.2152  1.4265 -1.7274
13795SOL    HW244341   1.516   5.626   7.892  1.0179  0.2647  2.2285
13796SOL     OW44342   1.746   0.463   4.189 -0.9430 -0.4742  0.1914
13796SOL    HW144343   1.814   0.471   4.257 -0.4736 -1.2175 -0.1738
13796SOL    HW244344   1.782   0.510   4.114 -1.5869  0.5959  0.5269
13797SOL     OW44345   8.374   6.429   8.331  0.4115 -0.0787  0.1630
13797SOL    HW144346   8.292   6.384   8.350  0.0798  0.4607  0.0509
13797SOL    HW244347   8.347   6.519   8.311  1.1489  0.5110  1.6469
13798SOL     OW44348   1.505   4.301   3.050 -0.3109 -0.5853 -0.3584
13798SOL    HW144349   1.545   4.380   3.087 -0.2787 -0.6452 -0.2653
13798SOL    HW244350   1.460   4.260   3.124 -0.6367 -0.4608 -0.4895
13799SOL     OW44351   8.660   2.310  10.095 -0.5128  0.0075 -0.2332
13799SOL    HW144352   8.705   2.294  10.178  0.3793 -0.8823 -0.8655
13799SOL    HW244353   8.646   2.223  10.058  0.6611  0.4433 -1.8043
13800SOL     OW44354   3.236   1.649   3.417  0.0649 -0.2787 -0.0930
13800SOL    HW144355   3.322   1.690   3.414 -0.6254  1.1793 -0.9880
13800SOL    HW244356   3.180   1.714   3.459 -0.7076 -0.9962  0.0049
13801SOL     OW44357   9.765   1.887   4.935  0.1940  0.0607  0.3212
13801SOL    HW144358   9.775   1.924   4.847  2.4318 -0.1242  0.4310
13801SOL    HW244359   9.714   1.953   4.983  1.5839  1.6591 -0.2874
13802SOL     OW44360  10.440   0.728   6.179 -0.4234 -0.1068  0.0870
13802SOL    HW144361  10.531   0.704   6.162 -1.2807 -2.2258 -2.2211
13802SOL    HW244362  10.400   0.731   6.092 -2.3026  2.1312  0.9290
13803SOL     OW44363   0.443   8.961   6.508  0.3802 -0.2250  0.3007
13803SOL    HW144364   0.518   8.943   6.452 -0.7406 -0.3819 -1.2071
13803SOL    HW244365   0.442   8.890   6.572  0.9261 -0.7798 -0.3045
13804SOL     OW44366   0.756   0.941   6.460  0.2058 -0.4303  0.4856
13804SOL    HW144367   0.703   0.879   6.510 -0.6804  0.0938  0.2144
13804SOL    HW244368   0.782   1.008   6.524 -0.3887 -0.1037  0.3907
13805SOL     OW44369   1.215   7.185   9.353  0.2288  0.0350 -0.2744
13805SOL    HW144370   1.217   7.091   9.369 -0.4962 -0.1085 -0.9819
13805SOL    HW244371   1.149   7.197   9.284  1.0874  0.9395 -0.9695
13806SOL     OW44372   8.547   8.220   2.563 -0.0630  0.4904  0.1853
13806SOL    HW144373   8.510   8.303   2.594 -1.1057  0.6250 -1.3186
13806SOL    HW244374   8.519   8.156   2.628 -3.0529  0.5911 -0.8478
13807SOL     OW44375   0.017   1.882   5.350 -0.2112 -1.1762  0.2335
13807SOL    HW144376   0.054   1.812   5.404 -1.6059 -0.4274  2.2585
13807SOL    HW244377  -0.050   1.922   5.405 -0.4042  0.8781 -1.3784
13808SOL     OW44378   4.685   1.118   8.942  0.0760  0.0908  0.1973
13808SOL    HW144379   4.638   1.114   9.026  1.6315 -0.1124  1.1093
13808SOL    HW244380   4.641   1.187   8.893 -1.8032 -0.7836  0.5716
13809SOL     OW44381   1.564   0.086   6.636 -0.2908  0.0885  0.4543
13809SOL    HW144382   1.526   0.022   6.577  0.0547  1.0267 -0.8200
13809SOL    HW244383   1.544   0.171   6.597 -0.1399  0.7462  1.7391
13810SOL     OW44384   2.948   6.087   8.621 -0.2097  0.0530  0.1784
13810SOL    HW144385   2.969   6.040   8.702  0.1116 -0.0190  0.0572
13810SOL    HW244386   2.853   6.096   8.622 -0.0979  1.3275  1.2641
13811SOL     OW44387   8.867   5.863   7.059 -0.3364 -0.0203 -0.4569
13811SOL    HW144388   8.958   5.834   7.068  0.2671  0.8020 -3.1046
13811SOL    HW244389   8.871   5.935   6.995 -2.6479  1.2187  0.6784
13812SOL     OW44390   8.533   0.935   1.525  0.4841  0.1695  0.0396
13812SOL    HW144391   8.446   0.964   1.553  0.5191 -0.2916  0.6416
13812SOL    HW244392   8.524   0.840   1.514  0.7120  0.2212 -0.6438
13813SOL     OW44393   2.694   5.099   7.332 -0.3234  0.0522  0.0198
13813SOL    HW144394   2.789   5.086   7.321 -0.3654 -1.3554  1.0649
13813SOL    HW244395   2.672   5.166   7.267  0.5244 -2.9708 -3.7162
13814SOL     OW44396   8.460   9.750  10.549  0.6324 -0.2144 -0.1872
13814SOL    HW144397   8.465   9.684  10.618  1.3034  0.3705  0.3363
13814SOL    HW244398   8.373   9.789  10.559  0.7284 -0.1256  0.3488
13815SOL     OW44399   0.217   3.668   9.445  0.2850 -0.5275 -0.6232
13815SOL    HW144400   0.286   3.733   9.442 -0.1761 -0.0310 -0.5882
13815SOL    HW244401   0.161   3.689   9.370  0.2942 -1.0633 -0.7859
13816SOL     OW44402   2.687   5.727   4.380 -0.0184  0.1309 -0.0964
13816SOL    HW144403   2.779   5.735   4.405 -0.1203 -0.2198  0.4033
13816SOL    HW244404   2.642   5.793   4.432 -0.4059 -1.4145  1.6406
13817SOL     OW44405   0.692   7.088   5.332  0.0616  0.2306 -0.1276
13817SOL    HW144406   0.659   7.030   5.401  0.1971  1.1355  0.7323
13817SOL    HW244407   0.618   7.146   5.313  0.4782  0.9187  0.3119
13818SOL     OW44408   2.193   9.615   5.303  0.8244  0.7642  0.3342
13818SOL    HW144409   2.225   9.526   5.288 -1.4227 -0.2321  1.0049
13818SOL    HW244410   2.270   9.670   5.290  2.1697 -1.2000 -0.6984
13819SOL     OW44411   3.279   9.910   2.899  0.4437 -0.8158 -0.5177
13819SOL    HW144412   3.331   9.987   2.879  0.3008 -0.6650 -0.3053
13819SOL    HW244413   3.211   9.908   2.832 -0.9893  0.5611  0.8167
13820SOL     OW44414   6.139   0.279   0.912  0.0655  0.2197  0.1388
13820SOL    HW144415   6.183   0.335   0.976  0.4859  1.5550 -1.2557
13820SOL    HW244416   6.115   0.338   0.841 -1.3107 -1.0366 -0.4878
13821SOL     OW44417   0.147   6.462   8.480 -0.2662  0.1691 -0.5601
13821SOL    HW144418   0.242   6.462   8.473 -0.2027  1.3387  0.1004
13821SOL    HW244419   0.130   6.467   8.574 -0.9862 -0.1346 -0.6651
13822SOL     OW44420   3.387   2.362   5.858 -0.1102 -0.7647 -0.0147
13822SOL    HW144421   3.373   2.407   5.775 -0.3984  1.0867  0.9958
13822SOL    HW244422   3.300   2.360   5.900  0.3589  0.0053  1.0390
13823SOL     OW44423   0.571   7.369   5.903  0.7223 -0.5066  0.6283
13823SOL    HW144424   0.529   7.451   5.877  0.9784 -0.7739 -0.7350
13823SOL    HW244425   0.506   7.324   5.956 -0.1774 -0.2826 -0.2576
13824SOL     OW44426   3.989   3.871   1.942 -0.8326 -0.7762 -0.1635
13824SOL    HW144427   3.933   3.911   1.875  0.5087 -0.3407 -1.0728
13824SOL    HW244428   3.973   3.922   2.021  1.4881  2.3408 -1.4908
13825SOL     OW44429   3.534   7.946   8.587  0.6548 -0.0389 -0.4959
13825SOL    HW144430   3.486   7.887   8.645  1.3856  0.6670  0.9009
13825SOL    HW244431   3.565   7.890   8.516 -0.0387 -1.0058 -0.0605
13826SOL     OW44432   4.432   2.334   5.369  0.4184 -0.1579 -0.1802
13826SOL    HW144433   4.449   2.397   5.300 -0.0799  0.3843  0.1800
13826SOL    HW244434   4.407   2.254   5.323 -1.7662  0.7187 -0.6512
13827SOL     OW44435   5.515   7.439  10.456 -0.2651  0.8615  0.1276
13827SOL    HW144436   5.429   7.403  10.479  0.7890 -0.1573  2.7535
13827SOL    HW244437   5.527   7.513  10.515  1.3558 -0.0774  1.0271
13828SOL     OW44438   4.697   7.387   2.224  0.5947 -0.2666 -0.1482
13828SOL    HW144439   4.666   7.438   2.300 -0.8915 -1.6978  0.2575
13828SOL    HW244440   4.625   7.391   2.162  0.9758 -0.8513 -0.6321
13829SOL     OW44441   7.970   6.321   3.091  0.4611  0.2620 -0.3144
13829SOL    HW144442   7.937   6.369   3.167  1.3064  1.8806 -0.9173
13829SOL    HW244443   7.995   6.390   3.029  2.5904 -0.9481 -0.8746
13830SOL     OW44444   0.908   3.457   6.546  0.4331  0.6589 -0.2980
13830SOL    HW144445   0.851   3.467   6.470 -0.5394 -0.7959  0.1907
13830SOL    HW244446   0.907   3.543   6.587  0.7732  1.3993 -1.7746
13831SOL     OW44447   0.105   8.880   1.936 -0.1081  0.0138  0.5331
13831SOL    HW144448   0.152   8.909   1.858  0.0773 -1.4962  0.0494
13831SOL    HW244449   0.116   8.952   1.998  3.1470 -0.3327  0.5540
13832SOL     OW44450   3.984   1.354   6.243 -0.3450 -0.6038  0.2060
13832SOL    HW144451   4.061   1.303   6.215 -0.0882 -0.5527  0.8001
13832SOL    HW244452   3.985   1.431   6.186  0.4216 -0.2858  0.6290
13833SOL     OW44453   8.203   1.225   0.228 -0.1067 -0.2428 -0.3146
13833SOL    HW144454   8.192   1.318   0.207  2.2486  0.9457  2.9144
13833SOL    HW244455   8.115   1.197   0.255 -1.4006  0.2419 -3.5871
13834SOL     OW44456   6.339   4.608   4.821  0.0010 -0.6665 -0.2187
13834SOL    HW144457   6.374   4.686   4.863  0.4245 -1.2881  0.6091
13834SOL    HW244458   6.246   4.610   4.841 -0.4139  0.7114 -1.9817
13835SOL     OW44459   9.608   9.002   5.095 -0.1193 -0.4734 -0.5353
13835SOL    HW144460   9.639   9.091   5.111 -0.3621 -0.6524  1.2091
13835SOL    HW244461   9.682   8.957   5.054  0.8350 -0.0433  0.6370
13836SOL     OW44462   4.774   2.061   1.580  0.1424 -0.0686 -0.1582
13836SOL    HW144463   4.821   2.014   1.649  1.3569  0.5182 -0.5465
13836SOL    HW244464   4.685   2.069   1.613  0.1694 -1.6724  0.3871
13837SOL     OW44465   7.111  10.268   0.966 -0.8552 -0.8872  0.3558
13837SOL    HW144466   7.159  10.222   0.898  1.0914  0.4504  0.7601
13837SOL    HW244467   7.122  10.214   1.044  0.5056 -0.3347  0.5717
13838SOL     OW44468   1.319  10.436   2.928 -0.5629 -0.3169  0.1211
13838SOL    HW144469   1.328  10.341   2.931  0.1558 -0.2462  0.4782
13838SOL    HW244470   1.352  10.460   2.841 -0.0268 -0.3346  0.3118
13839SOL     OW44471   2.154   2.651   9.988  0.2913 -0.1510 -0.4111
13839SOL    HW144472   2.066   2.640  10.024  0.6458  0.0183  0.5353
13839SOL    HW244473   2.203   2.575  10.019  0.9375  0.6283  0.5337
13840SOL     OW44474   3.875   1.027   6.024 -0.0208  0.5126  0.2703
13840SOL    HW144475   3.913   1.096   5.970 -0.2765  0.0776 -0.4849
13840SOL    HW244476   3.918   0.947   5.995  0.4800  0.3757  1.3339
13841SOL     OW44477   5.560   7.448   1.107 -0.4067 -0.2230  0.0351
13841SOL    HW144478   5.615   7.510   1.156 -2.2691 -1.9204  4.8820
13841SOL    HW244479   5.622   7.391   1.062  1.4703  1.9185 -0.2802
13842SOL     OW44480   0.949   0.371   2.488 -0.1121 -0.3438  0.5496
13842SOL    HW144481   0.961   0.277   2.496 -0.8162 -0.4758  0.0822
13842SOL    HW244482   0.870   0.382   2.435  0.0146  0.5078  0.5132
13843SOL     OW44483  10.572   1.203   1.462  0.0337  0.1941 -0.0284
13843SOL    HW144484  10.598   1.112   1.454 -0.9303 -0.2579  1.5652
13843SOL    HW244485  10.546   1.229   1.374 -0.3471 -1.2807 -0.3650
13844SOL     OW44486   3.479   2.696   8.776 -1.0369  0.4352  0.4201
13844SOL    HW144487   3.559   2.700   8.828 -0.8578  1.5211  0.0918
13844SOL    HW244488   3.445   2.608   8.791 -0.6478  0.5026  1.8484
13845SOL     OW44489   2.909   0.838   9.741  0.4149  0.2325 -0.1640
13845SOL    HW144490   2.967   0.762   9.736  0.3143  0.2237 -1.4768
13845SOL    HW244491   2.829   0.804   9.779 -0.5483 -0.9663 -2.9697
13846SOL     OW44492   4.352   3.374  10.620  0.6186 -0.0010  0.3544
13846SOL    HW144493   4.382   3.371  10.711 -0.6265  0.7075  0.8040
13846SOL    HW244494   4.268   3.327  10.621  0.2003  0.7120 -0.2593
13847SOL     OW44495   9.303   1.362   8.705  0.3445  0.6313 -0.5181
13847SOL    HW144496   9.269   1.442   8.743 -1.1495  0.0246 -0.4902
13847SOL    HW244497   9.244   1.342   8.632 -0.9959 -1.8278  1.0907
13848SOL     OW44498   3.196   1.660   2.158  0.0922 -0.7087  0.4847
13848SOL    HW144499   3.167   1.613   2.080 -0.9551 -0.3515  0.6353
13848SOL    HW244500   3.237   1.594   2.213  4.1744 -0.3966 -1.8390
13849SOL     OW44501   4.901   4.360   9.313 -0.2149  0.3798  0.3749
13849SOL    HW144502   4.970   4.317   9.262 -1.0630  0.5544 -0.9705
13849SOL    HW244503   4.842   4.397   9.247 -4.0358 -3.4169  1.2068
13850SOL     OW44504  10.466   9.002   3.753 -0.2002 -0.3108 -0.0314
13850SOL    HW144505  10.384   8.953   3.743  0.2123 -0.7282 -1.7039
13850SOL    HW244506  10.438   9.092   3.769 -0.9699 -0.7397  1.1647
13851SOL     OW44507  10.077   7.033   7.415 -0.6621  0.0053 -0.5689
13851SOL    HW144508  10.010   6.996   7.473 -0.0707  0.3611  0.3636
13851SOL    HW244509  10.084   6.970   7.343 -1.3695 -0.4712 -0.2348
13852SOL     OW44510   8.483   9.677   1.794 -0.3791 -0.1833  0.2586
13852SOL    HW144511   8.411   9.740   1.803  0.0156  0.2134  0.6913
13852SOL    HW244512   8.441   9.598   1.760 -0.5109  1.0660 -2.8148
13853SOL     OW44513   2.892   9.682   6.888  0.4444  0.3714 -0.1196
13853SOL    HW144514   2.819   9.624   6.866  1.9487 -0.7600 -2.6303
13853SOL    HW244515   2.896   9.745   6.816  0.0162  2.5026  1.6204
13854SOL     OW44516   4.854   7.227   9.800 -0.4082 -0.6049 -0.1492
13854SOL    HW144517   4.796   7.236   9.875 -1.0059 -1.1495 -0.5320
13854SOL    HW244518   4.828   7.145   9.759  0.2968 -0.6054 -0.6225
13855SOL     OW44519   4.317   9.413  10.505  0.2680 -0.3835 -0.3024
13855SOL    HW144520   4.328   9.505  10.483  1.9930 -0.0393  1.6728
13855SOL    HW244521   4.349   9.366  10.427 -3.9479  0.4552 -2.8836
13856SOL     OW44522   5.503   5.759   7.113  0.2013 -0.5040  0.0644
13856SOL    HW144523   5.495   5.735   7.020  2.4746  0.3648 -0.4139
13856SOL    HW244524   5.586   5.721   7.140  1.8284  2.9609  0.4453
13857SOL     OW44525   6.261   3.793   4.915 -0.6806 -0.3767  0.0876
13857SOL    HW144526   6.210   3.714   4.901 -0.9445 -0.1679 -0.1599
13857SOL    HW244527   6.273   3.798   5.009 -1.6727 -0.0973  0.2145
13858SOL     OW44528   6.128   5.113   8.363  0.5413 -0.5637  0.4332
13858SOL    HW144529   6.168   5.056   8.429  0.2772 -1.1423  0.0989
13858SOL    HW244530   6.046   5.141   8.403  0.1497 -1.3068  0.1587
13859SOL     OW44531   0.012   7.947   7.867 -0.6831 -0.9853  0.1599
13859SOL    HW144532   0.044   7.938   7.777 -1.3549 -1.6947 -0.0174
13859SOL    HW244533  -0.083   7.959   7.857 -0.5522  0.7994  0.6836
13860SOL     OW44534   3.926   2.921   6.876 -0.3659 -0.3248  0.3694
13860SOL    HW144535   3.906   2.859   6.805 -3.2843  1.2454 -0.3312
13860SOL    HW244536   3.868   2.995   6.861  2.7068  2.5514  1.3681
13861SOL     OW44537   5.551  10.452   5.165 -0.1500  0.5113  0.2961
13861SOL    HW144538   5.468  10.445   5.213 -0.4071  0.9367 -0.0818
13861SOL    HW244539   5.527  10.438   5.073 -0.3972  4.0918 -0.2997
13862SOL     OW44540   7.190   3.708   1.271  0.2635  0.3394  0.2788
13862SOL    HW144541   7.223   3.703   1.360 -0.6972 -1.8743  0.5801
13862SOL    HW244542   7.230   3.633   1.226  0.5940  1.3146 -1.1176
13863SOL     OW44543   1.439   0.265   0.359 -0.0064 -0.1945 -0.1069
13863SOL    HW144544   1.468   0.185   0.315  1.2242  0.4651 -0.5481
13863SOL    HW244545   1.472   0.256   0.449 -0.2237 -0.3693 -0.0454
13864SOL     OW44546  10.274   8.660   7.393  0.0319  0.7251  0.0556
13864SOL    HW144547  10.332   8.598   7.439 -0.6565 -0.8482 -1.1030
13864SOL    HW244548  10.333   8.712   7.339  0.5966  0.9374  0.8477
13865SOL     OW44549  10.266   7.206   2.231  0.5011 -0.0283  0.1208
13865SOL    HW144550  10.286   7.297   2.211 -1.2600  0.4275  0.2533
13865SOL    HW244551  10.244   7.167   2.147 -0.9700  0.3106  0.3036
13866SOL     OW44552   8.261   0.119   3.235  0.9904  0.1580 -0.2258
13866SOL    HW144553   8.249   0.199   3.287  0.8345  1.2476 -1.8344
13866SOL    HW244554   8.173   0.099   3.203  0.9322 -1.0204  0.6168
13867SOL     OW44555   0.504   9.473   2.137  0.2199 -0.5791  0.4021
13867SOL    HW144556   0.527   9.541   2.074 -0.5002 -0.5734  0.1331
13867SOL    HW244557   0.495   9.394   2.085 -1.2098 -0.4084  0.3377
13868SOL     OW44558   7.092   7.656   4.396 -0.0579 -0.0696  0.1055
13868SOL    HW144559   7.018   7.693   4.347 -0.7234  0.9674  1.8135
13868SOL    HW244560   7.108   7.718   4.466  1.9842 -0.6665  0.2339
13869SOL     OW44561   3.736   7.473   2.576 -0.0171  0.0636  0.2295
13869SOL    HW144562   3.783   7.409   2.523 -1.6130 -2.1787  1.3712
13869SOL    HW244563   3.787   7.479   2.657  0.5388  0.8653 -0.1626
13870SOL     OW44564   2.200   3.095   7.074 -0.6059 -0.1117  0.7855
13870SOL    HW144565   2.173   3.018   7.125 -2.1777  0.2910  0.6178
13870SOL    HW244566   2.296   3.091   7.073 -0.5535 -3.8183 -1.8021
13871SOL     OW44567   0.992   6.776   2.806  0.4750 -0.3445  0.3682
13871SOL    HW144568   1.079   6.800   2.773  1.0788 -0.7073  1.6508
13871SOL    HW244569   0.999   6.683   2.827 -0.4472 -0.5453 -0.1780
13872SOL     OW44570   0.254   3.027   3.307 -0.6643  0.3135  0.3353
13872SOL    HW144571   0.256   3.028   3.403 -1.2439 -0.6460  0.3716
13872SOL    HW244572   0.171   3.071   3.285 -0.5865  0.4307  0.2740
13873SOL     OW44573   5.871   8.278   4.937 -0.2331  0.0175 -0.8497
13873SOL    HW144574   5.781   8.247   4.944  0.2414 -2.0232 -3.0306
13873SOL    HW244575   5.925   8.203   4.960  1.0489  1.6560  2.1705
13874SOL     OW44576   9.060   7.595   6.331 -0.0545  0.2320 -0.7153
13874SOL    HW144577   8.972   7.594   6.368  0.7472 -0.2354  1.2816
13874SOL    HW244578   9.067   7.513   6.282 -0.5023 -0.0513 -0.3097
13875SOL     OW44579   8.365   7.001   5.647 -0.4469  0.4301  0.2305
13875SOL    HW144580   8.292   6.944   5.671 -1.1828  0.2524 -2.1971
13875SOL    HW244581   8.336   7.089   5.670 -0.2398  0.0984  1.8665
13876SOL     OW44582   6.988   5.843   5.071 -0.9952  0.5033  0.4950
13876SOL    HW144583   6.965   5.807   5.156 -1.8829  0.1803  0.1316
13876SOL    HW244584   7.047   5.778   5.032 -1.1541  0.3135  0.5730
13877SOL     OW44585   2.039   9.585   3.399 -0.2228 -0.3849  0.6363
13877SOL    HW144586   2.115   9.535   3.370 -0.2957  0.1314 -0.4946
13877SOL    HW244587   2.010   9.541   3.479  0.8940 -0.9443  0.7499
13878SOL     OW44588   3.102   0.114   0.587 -0.0000  0.2178 -0.2232
13878SOL    HW144589   3.145   0.042   0.541 -0.8801 -0.7418  0.4129
13878SOL    HW244590   3.154   0.126   0.666 -0.5137 -0.5056  0.2312
13879SOL     OW44591   9.536   0.695   5.635  0.0123  0.0831  0.2362
13879SOL    HW144592   9.620   0.740   5.629  0.7546 -1.2016  0.5795
13879SOL    HW244593   9.512   0.678   5.544  1.5706 -2.0450  0.1424
13880SOL     OW44594   5.720   9.741   5.558 -0.1235 -0.3857 -0.3158
13880SOL    HW144595   5.766   9.707   5.482  0.0467 -0.3609 -0.2238
13880SOL    HW244596   5.773   9.815   5.587 -0.0198 -0.5934  0.0197
13881SOL     OW44597   7.670   1.306  10.071  0.1752  0.7388  0.1749
13881SOL    HW144598   7.592   1.351  10.038 -0.0820  0.7872  0.8317
13881SOL    HW244599   7.635   1.240  10.132  0.4262 -1.3876 -1.8391
13882SOL     OW44600   9.458   9.893   5.475  0.3150  0.2696 -0.1626
13882SOL    HW144601   9.421   9.832   5.411  1.6700  0.2652 -0.9815
13882SOL    HW244602   9.424   9.862   5.559 -0.1496 -0.7659 -0.7031
13883SOL     OW44603   8.909   2.329   0.857  0.1906  0.2687  0.2954
13883SOL    HW144604   8.818   2.330   0.827 -0.5468 -1.1214  2.2499
13883SOL    HW244605   8.918   2.410   0.907  0.1473  0.5820 -0.1978
13884SOL     OW44606   2.717   3.971   0.666 -0.2179  0.6969  0.4245
13884SOL    HW144607   2.640   3.935   0.710 -0.2316  0.9630  0.6274
13884SOL    HW244608   2.682   4.038   0.608 -0.0892  1.3055  1.0296
13885SOL     OW44609   5.788   5.893   4.102  0.0583 -0.3612 -0.5590
13885SOL    HW144610   5.872   5.929   4.074  0.8963 -1.8444 -0.0473
13885SOL    HW244611   5.745   5.865   4.021 -0.3180  1.1189 -0.8984
13886SOL     OW44612   2.051   6.652   0.150 -0.2052  0.0537  0.0180
13886SOL    HW144613   2.063   6.724   0.211  1.0057 -0.1417  0.0313
13886SOL    HW244614   2.139   6.622   0.130 -0.5895 -0.1976 -1.4596
13887SOL     OW44615   9.417   6.275   5.330 -0.3206 -0.4720  0.4169
13887SOL    HW144616   9.401   6.307   5.241  1.6937 -3.3243 -1.1058
13887SOL    HW244617   9.342   6.220   5.350 -0.9443  0.4476  0.6662
13888SOL     OW44618   3.060   9.723   0.500 -0.1031  0.1688  0.0976
13888SOL    HW144619   3.140   9.687   0.463  0.0330  0.2518  0.3071
13888SOL    HW244620   3.034   9.792   0.439 -0.2499 -0.1393 -0.1935
13889SOL     OW44621   7.958   5.343   7.718  0.1573 -0.0944 -0.0407
13889SOL    HW144622   8.029   5.331   7.656 -0.5015 -0.3290 -0.7705
13889SOL    HW244623   7.911   5.420   7.687 -0.1056 -0.1390  0.2336
13890SOL     OW44624  10.560   0.368  10.060  0.2438 -0.1185  0.1641
13890SOL    HW144625  10.520   0.292  10.018  0.9503 -1.2638  1.4585
13890SOL    HW244626  10.490   0.407  10.111  0.1906 -0.7753  0.6192
13891SOL     OW44627   0.904   9.463   4.056  0.2603 -0.3696  0.1077
13891SOL    HW144628   0.907   9.419   3.971 -1.0406  0.4455 -0.3909
13891SOL    HW244629   0.992   9.498   4.068 -0.1373  1.5400 -2.0422
13892SOL     OW44630   9.045   0.272   8.380 -0.0364  0.3816  0.1582
13892SOL    HW144631   8.997   0.190   8.393  0.3402  0.0297 -0.6299
13892SOL    HW244632   9.128   0.246   8.340 -0.2520  1.2023 -0.8732
13893SOL     OW44633   9.120   6.200   2.397  0.5350 -0.4815 -0.1720
13893SOL    HW144634   9.077   6.156   2.324  1.1388 -0.6083 -0.4497
13893SOL    HW244635   9.181   6.262   2.357  0.4971 -0.1791  0.2219
13894SOL     OW44636   9.359   2.281   3.563  0.8283 -0.4776  0.1114
13894SOL    HW144637   9.408   2.206   3.596  0.9528  0.0215  1.1073
13894SOL    HW244638   9.275   2.245   3.535  0.5654 -0.8745  1.3642
13895SOL     OW44639   5.331   9.072   7.617 -0.0719 -0.0556  0.3153
13895SOL    HW144640   5.293   9.057   7.531 -1.4926 -0.9126  1.0561
13895SOL    HW244641   5.404   9.011   7.623  1.0325  1.0880 -0.8390
13896SOL     OW44642   7.978   0.059   9.242  0.1411  0.2491  0.4672
13896SOL    HW144643   7.994   0.141   9.196 -0.5697 -1.3712 -3.0207
13896SOL    HW244644   7.885   0.041   9.227  0.2129 -1.0488  1.4260
13897SOL     OW44645   6.571   7.005   6.648  0.0428 -0.0370  0.1670
13897SOL    HW144646   6.616   6.928   6.611  1.5907  0.5491  0.7464
13897SOL    HW244647   6.531   6.972   6.729 -3.0187 -1.2273 -1.6281
13898SOL     OW44648   3.844   7.030   1.411  0.2645  0.1503 -0.2219
13898SOL    HW144649   3.919   7.068   1.365 -0.0924 -1.4470 -2.2512
13898SOL    HW244650   3.881   6.956   1.459  0.5776  1.6187  1.9299
13899SOL     OW44651   0.642   5.267   3.825  0.3355  0.1225  0.0616
13899SOL    HW144652   0.678   5.356   3.815  0.0791  0.2506  0.2688
13899SOL    HW244653   0.613   5.264   3.916  2.1633 -0.8426  0.6689
13900SOL     OW44654   9.814   5.513   9.023  0.3880  0.1077 -0.1679
13900SOL    HW144655   9.728   5.515   9.066  0.2507  0.4873 -0.4595
13900SOL    HW244656   9.820   5.597   8.978  0.5878 -0.2344 -0.7895
13901SOL     OW44657  10.515  10.577   9.299 -0.1592  0.0489  0.4421
13901SOL    HW144658  10.561  10.502   9.338  1.9518  1.1925  0.3023
13901SOL    HW244659  10.548  10.580   9.209  0.4022  1.5822  0.6739
13902SOL     OW44660   8.237   1.438   4.205 -0.2563  0.0200  0.3751
13902SOL    HW144661   8.221   1.435   4.299 -1.2138  0.1381  0.2173
13902SOL    HW244662   8.189   1.363   4.170 -1.6016  1.1498 -0.2620
13903SOL     OW44663   4.112   6.327   5.770 -0.0473  0.0491 -0.0504
13903SOL    HW144664   4.180   6.336   5.704  0.4331  0.5541  0.4979
13903SOL    HW244665   4.039   6.286   5.724  0.4931 -0.1648 -0.7364
13904SOL     OW44666   1.035   3.304   1.851  0.0101 -0.2991  0.2557
13904SOL    HW144667   1.122   3.336   1.873 -0.2310 -0.7156  2.0019
13904SOL    HW244668   1.050   3.221   1.805  0.5444  0.5718 -1.2143
13905SOL     OW44669   4.872   3.870   7.630  0.1006  0.0112 -0.0022
13905SOL    HW144670   4.842   3.839   7.544 -0.7892  2.0752 -0.4938
13905SOL    HW244671   4.792   3.892   7.677  0.6057 -0.6544  1.2065
13906SOL     OW44672   3.956  10.642   0.919 -0.2042  0.2384  0.8398
13906SOL    HW144673   3.930  10.727   0.884  1.0360  0.5334  0.6209
13906SOL    HW244674   3.888  10.622   0.985 -0.4764  1.4098  0.9340
13907SOL     OW44675  10.374   2.380   4.892 -0.0590 -0.4349 -0.2161
13907SOL    HW144676  10.345   2.313   4.829 -0.5564 -0.0998 -0.3453
13907SOL    HW244677  10.466   2.395   4.870 -0.0803 -0.7151 -0.5089
13908SOL     OW44678   2.634   1.830   7.860 -0.2244  0.1175 -0.4219
13908SOL    HW144679   2.713   1.882   7.875 -0.6570  0.4421  0.8783
13908SOL    HW244680   2.666   1.741   7.843  0.4185 -0.0372  1.3845
13909SOL     OW44681   3.574   8.022   5.722  0.0016  0.5074  0.2351
13909SOL    HW144682   3.535   8.069   5.648  2.3291  0.1685 -1.3139
13909SOL    HW244683   3.578   7.931   5.693 -1.5503 -0.1638  1.9382
13910SOL     OW44684   0.175   3.552   2.094  0.1103  0.6286  0.0182
13910SOL    HW144685   0.109   3.493   2.131 -0.6392  1.3065 -0.2226
13910SOL    HW244686   0.235   3.569   2.167  0.8761 -1.1526 -0.1428
13911SOL     OW44687   1.008   4.737   9.348  0.2358  0.0663 -0.5324
13911SOL    HW144688   0.958   4.722   9.269 -0.0982 -0.2923 -0.2574
13911SOL    HW244689   0.980   4.823   9.379  0.3318  0.1848 -0.7730
13912SOL     OW44690   3.809   0.679   6.768 -0.4677 -0.1643  0.6774
13912SOL    HW144691   3.835   0.670   6.860  0.7910 -1.4961  0.2343
13912SOL    HW244692   3.879   0.731   6.728 -1.0726  0.5124  0.4939
13913SOL     OW44693   7.146   1.495   5.925  0.6153 -0.5041 -0.4748
13913SOL    HW144694   7.104   1.474   5.842  0.7220 -0.8355 -0.4459
13913SOL    HW244695   7.217   1.556   5.902  1.4188 -1.5319 -0.7842
13914SOL     OW44696   9.493   5.054   8.700 -0.1448  0.4041  0.1396
13914SOL    HW144697   9.551   5.113   8.653  1.2716 -0.8494  0.2236
13914SOL    HW244698   9.547   5.017   8.770 -0.6450 -1.7051 -0.4969
13915SOL     OW44699   0.954   9.019   6.350 -0.6193  0.3529 -0.4373
13915SOL    HW144700   0.974   8.939   6.302  3.6742  0.2151  1.1667
13915SOL    HW244701   0.965   9.089   6.286  1.4653 -0.0579 -0.5997
13916SOL     OW44702   7.759   9.877   9.364 -0.7794  0.0675  0.0550
13916SOL    HW144703   7.788   9.805   9.308  1.8039  0.7801  0.3664
13916SOL    HW244704   7.729   9.944   9.304  0.5949  0.2556 -0.4575
13917SOL     OW44705  10.260   1.164   6.088  0.2204  0.0027 -0.0552
13917SOL    HW144706  10.317   1.217   6.143  1.1036  0.0776 -0.9997
13917SOL    HW244707  10.317   1.094   6.055 -0.8394 -1.3586  0.9038
13918SOL     OW44708   5.074   0.065   5.808  0.4719 -0.2538 -0.1603
13918SOL    HW144709   5.095  -0.007   5.867 -0.0300  0.1598  0.5355
13918SOL    HW244710   5.157   0.109   5.793  0.6822 -0.6401 -0.1353
13919SOL     OW44711   5.730   6.752  10.181  0.1572 -0.0098 -0.0478
13919SOL    HW144712   5.758   6.805  10.107  4.0749 -0.8548  0.6214
13919SOL    HW244713   5.676   6.683  10.142  1.9876 -0.3446 -2.1559
13920SOL     OW44714  10.366   0.408   8.349 -0.2183 -0.5264 -0.1426
13920SOL    HW144715  10.435   0.436   8.408 -0.0838 -2.8409  0.9054
13920SOL    HW244716  10.411   0.360   8.280 -0.5421  0.5995 -1.1730
13921SOL     OW44717   2.715   7.151   2.454 -0.0143 -0.1968 -0.0106
13921SOL    HW144718   2.797   7.112   2.423 -0.7760 -1.0361 -1.0219
13921SOL    HW244719   2.743   7.233   2.496  1.3182 -0.3193 -0.5812
13922SOL     OW44720   9.689   0.239   1.766  0.6807  0.5439  0.1541
13922SOL    HW144721   9.668   0.269   1.855  1.9774  1.3485  0.2221
13922SOL    HW244722   9.653   0.151   1.762 -1.1558  1.2044  0.7822
13923SOL     OW44723   3.769   7.343  10.687  1.1135 -0.2361  0.0611
13923SOL    HW144724   3.702   7.407  10.713  0.3599 -1.3398  0.9558
13923SOL    HW244725   3.785   7.362  10.595 -0.9284 -0.3330 -0.3748
13924SOL     OW44726   1.684   9.412   8.884  0.5543  0.1056  0.1319
13924SOL    HW144727   1.771   9.442   8.858 -0.4195  0.8578 -2.5789
13924SOL    HW244728   1.670   9.333   8.832  0.2206 -0.9785  1.7967
13925SOL     OW44729   1.051   1.308   5.296  0.4360 -0.8322  0.0601
13925SOL    HW144730   0.957   1.290   5.302  0.5700 -1.4283  0.4571
13925SOL    HW244731   1.069   1.364   5.372  0.2833 -0.1383 -0.3990
13926SOL     OW44732   9.588   0.415   4.782  0.1887  0.1138 -0.8852
13926SOL    HW144733   9.672   0.370   4.788  0.5966  1.0236  1.3262
13926SOL    HW244734   9.526   0.355   4.823  0.3308  0.6094  0.0892
13927SOL     OW44735   2.778   9.047   3.062 -0.2335 -0.5173  0.1481
13927SOL    HW144736   2.741   9.089   3.139 -0.6858 -0.2371 -0.2174
13927SOL    HW244737   2.719   9.072   2.990  1.5723  1.3796 -0.7797
13928SOL     OW44738   4.029   8.108   2.028 -0.7288 -0.3685  0.3855
13928SOL    HW144739   4.081   8.188   2.034 -1.4392  0.2100 -0.7341
13928SOL    HW244740   3.938   8.137   2.034 -1.0245 -0.9826 -0.7152
13929SOL     OW44741   9.958   1.029   0.858 -0.5293 -1.1158  0.5881
13929SOL    HW144742   9.903   0.952   0.850 -4.7521  1.6157  0.4385
13929SOL    HW244743   9.977   1.055   0.768  1.0853 -1.9500  0.6369
13930SOL     OW44744   2.287   2.497   8.303 -0.0724  0.2255  0.2289
13930SOL    HW144745   2.363   2.481   8.246  0.6256 -0.3072  1.2613
13930SOL    HW244746   2.221   2.536   8.246  0.2394 -1.1902 -1.1549
13931SOL     OW44747   7.443   5.249   7.011 -0.9735  0.0910  0.2244
13931SOL    HW144748   7.348   5.252   7.019 -0.9744 -1.0846  0.8249
13931SOL    HW244749   7.471   5.181   7.072  0.3090  0.7511  0.4196
13932SOL     OW44750   5.378   7.084   6.401  0.6155 -0.2047  0.0568
13932SOL    HW144751   5.318   7.041   6.340 -1.4874  1.1591  1.0477
13932SOL    HW244752   5.423   7.012   6.445 -0.7982 -1.3183 -0.2464
13933SOL     OW44753   5.546   1.398   4.303 -0.1425  0.0599 -0.4414
13933SOL    HW144754   5.512   1.431   4.219  0.9601  2.0082 -0.1897
13933SOL    HW244755   5.641   1.408   4.295 -0.0660  1.1386  1.3587
13934SOL     OW44756   9.498  10.254   5.027 -0.4222  0.7151  0.4811
13934SOL    HW144757   9.481  10.162   5.045  1.0422  0.3383  0.1144
13934SOL    HW244758   9.593  10.258   5.014 -0.8007  1.5669 -3.3378
13935SOL     OW44759   1.378   1.352   1.741 -0.1177 -0.6905  0.0484
13935SOL    HW144760   1.287   1.361   1.715  0.5188 -1.6689 -2.8606
13935SOL    HW244761   1.401   1.261   1.719  2.5806  0.5704 -3.2214
13936SOL     OW44762   8.013   6.839   8.943 -0.0060 -0.1563 -0.5671
13936SOL    HW144763   8.051   6.847   9.031  0.2211  1.8303 -0.7916
13936SOL    HW244764   7.920   6.857   8.955  0.0681  0.3731 -0.7508
13937SOL     OW44765   7.631   9.248   2.112 -0.4552 -0.0345  0.3606
13937SOL    HW144766   7.710   9.300   2.127  0.6867 -1.6096  0.0155
13937SOL    HW244767   7.652   9.161   2.145 -1.3257 -1.0132 -1.4857
13938SOL     OW44768   2.937   9.618   6.220 -0.3744  0.3604 -0.5597
13938SOL    HW144769   2.880   9.630   6.144 -1.1502 -0.0174 -0.0464
13938SOL    HW244770   2.878   9.595   6.292  0.5794 -2.5897 -0.5634
13939SOL     OW44771   7.252   6.564   2.926  0.0465 -0.3987  0.6383
13939SOL    HW144772   7.295   6.539   2.844  0.5568 -1.2307  1.1397
13939SOL    HW244773   7.313   6.536   2.995  0.3496  1.6888  1.2782
13940SOL     OW44774   5.014   8.028   1.092 -0.3657 -0.6113 -0.1727
13940SOL    HW144775   4.958   8.104   1.071 -0.4428 -0.9788 -1.3732
13940SOL    HW244776   5.089   8.038   1.034  0.0186 -1.0155  0.2579
13941SOL     OW44777   3.016   5.135   9.626 -0.3837 -0.2663  0.8098
13941SOL    HW144778   2.988   5.123   9.717 -1.4707 -2.9509  0.2199
13941SOL    HW244779   2.937   5.122   9.574 -0.2353  3.2087 -0.5656
13942SOL     OW44780   2.582   7.404   1.860 -0.0120  0.1121  0.0750
13942SOL    HW144781   2.557   7.313   1.876 -0.2971  0.2605  0.4791
13942SOL    HW244782   2.672   7.399   1.827  0.4560 -0.2211  1.3711
13943SOL     OW44783  10.531   3.670   3.654 -0.2785 -0.3290  0.3006
13943SOL    HW144784  10.612   3.699   3.612  0.3024 -2.2319  0.0106
13943SOL    HW244785  10.462   3.692   3.591  0.3586 -1.2682 -0.7678
13944SOL     OW44786   7.203   3.327   0.806  0.1318 -0.1615 -0.1539
13944SOL    HW144787   7.108   3.326   0.821  0.2621 -0.4849  0.7103
13944SOL    HW244788   7.230   3.236   0.819 -0.1072 -1.2218 -5.1391
13945SOL     OW44789   3.780   3.183   7.065 -0.3715 -0.0869  0.1217
13945SOL    HW144790   3.733   3.103   7.088 -1.5577  0.6334  0.2637
13945SOL    HW244791   3.749   3.205   6.977  0.7392 -0.3318 -0.3583
13946SOL     OW44792   7.883   4.908   5.050  0.4425 -0.7515 -0.1809
13946SOL    HW144793   7.820   4.980   5.052 -0.3072 -1.3538  2.4864
13946SOL    HW244794   7.967   4.949   5.075  0.0300 -0.7241  1.2820
13947SOL     OW44795   5.020   1.490   5.704  0.1629 -0.2603 -0.0235
13947SOL    HW144796   4.962   1.559   5.672  0.1078 -1.3327 -2.4832
13947SOL    HW244797   4.984   1.465   5.789 -1.8245  0.4446 -0.5961
13948SOL     OW44798   4.226   0.070   4.320  0.2175  0.1129  1.0672
13948SOL    HW144799   4.195   0.072   4.230  3.0994 -1.6557 -0.0995
13948SOL    HW244800   4.299   0.133   4.322  1.9438 -1.7993  1.3398
13949SOL     OW44801   0.528   4.902   1.409 -0.7441 -0.0000 -0.1945
13949SOL    HW144802   0.509   4.921   1.501 -0.6034 -3.1384  0.5882
13949SOL    HW244803   0.443   4.881   1.371 -0.4842 -1.8817  0.1368
13950SOL     OW44804   3.851   6.332   0.672  0.1166  0.1611 -0.1456
13950SOL    HW144805   3.940   6.364   0.658 -0.4451  1.5581 -0.7488
13950SOL    HW244806   3.838   6.336   0.766  0.4075  0.8155 -0.1250
13951SOL     OW44807   9.816   5.025   7.145 -0.3522 -0.2815 -0.1282
13951SOL    HW144808   9.859   5.048   7.228 -0.2168 -0.6650 -0.0898
13951SOL    HW244809   9.779   4.938   7.161 -0.1810 -0.4269 -0.5305
13952SOL     OW44810   8.851  10.595   6.960  0.4679  0.1009  0.0301
13952SOL    HW144811   8.923  10.609   7.021  0.9805 -0.0774 -0.5206
13952SOL    HW244812   8.868  10.656   6.888 -1.3488  1.9537  1.0631
13953SOL     OW44813   8.759   5.431   1.522 -0.7484 -0.0290 -0.2176
13953SOL    HW144814   8.698   5.460   1.454  1.2907  0.3637 -1.9729
13953SOL    HW244815   8.764   5.336   1.511  0.3902  0.1517 -1.3600
13954SOL     OW44816   9.178   3.003   5.455 -0.5236 -0.6227 -0.3284
13954SOL    HW144817   9.151   3.003   5.363 -1.1205  2.0297 -0.2373
13954SOL    HW244818   9.100   3.027   5.504  0.0723 -0.8114  0.7680
13955SOL     OW44819   9.854   6.364   0.052 -0.2950 -0.2130  0.2675
13955SOL    HW144820   9.791   6.400   0.114 -0.6896 -0.4957  0.0293
13955SOL    HW244821   9.929   6.424   0.057 -1.3455  1.2839 -0.9093
13956SOL     OW44822   8.752   5.864   9.367 -0.4262 -0.0262  0.2966
13956SOL    HW144823   8.690   5.921   9.320  0.4467  1.1849  0.5614
13956SOL    HW244824   8.827   5.920   9.385 -0.5687 -0.5440  2.8598
13957SOL     OW44825   6.791   2.582   3.032  0.2681 -0.4488  0.0844
13957SOL    HW144826   6.815   2.490   3.020 -0.9216 -0.6754 -0.6581
13957SOL    HW244827   6.837   2.629   2.963 -0.1497 -0.6662 -0.3440
13958SOL     OW44828   5.647   0.288   3.681  0.4350 -0.0821  0.2709
13958SOL    HW144829   5.590   0.340   3.737 -0.4996  0.2803 -0.9702
13958SOL    HW244830   5.595   0.271   3.602  1.5879 -0.8427 -0.3615
13959SOL     OW44831   2.095   8.003   6.850  0.3704  0.0782 -0.1664
13959SOL    HW144832   2.064   8.050   6.928  0.5197  1.6179 -1.0052
13959SOL    HW244833   2.015   7.971   6.809  0.3644 -2.4559  1.5774
13960SOL     OW44834   4.688   4.019   4.701  0.0499  0.1936  0.1005
13960SOL    HW144835   4.672   4.091   4.763  0.9025 -1.2302  2.0933
13960SOL    HW244836   4.635   3.947   4.734  0.0111 -0.4340 -1.2630
13961SOL     OW44837   6.098   2.923   1.887 -0.3969 -0.1343 -0.0295
13961SOL    HW144838   6.041   2.846   1.878 -1.6383  0.7965 -0.4906
13961SOL    HW244839   6.186   2.887   1.885 -0.9320 -1.5228 -0.5634
13962SOL     OW44840   7.602   1.773   9.906  0.6841 -0.2494  0.2390
13962SOL    HW144841   7.686   1.727   9.908  0.7540 -0.1210  1.5214
13962SOL    HW244842   7.542   1.714   9.950  0.2050 -0.1416 -0.2661
13963SOL     OW44843   6.411   4.753   1.090  0.0729 -0.1530  0.0667
13963SOL    HW144844   6.360   4.679   1.123  0.3736 -0.4854 -0.2150
13963SOL    HW244845   6.499   4.719   1.081  0.2698  0.3154  0.1815
13964SOL     OW44846   3.940   3.254   3.318 -0.4922 -0.7427  0.0549
13964SOL    HW144847   3.859   3.277   3.274  0.1112 -1.6688 -1.6260
13964SOL    HW244848   4.009   3.298   3.269  0.1957 -1.7393  0.0800
13965SOL     OW44849   0.857   2.854   4.916 -0.3320 -0.2032 -0.9884
13965SOL    HW144850   0.871   2.913   4.991  1.5886 -2.2726  0.4298
13965SOL    HW244851   0.914   2.889   4.848  0.2072  0.0355 -0.4303
13966SOL     OW44852   4.716   5.143   9.111  0.4589 -0.0799  0.6578
13966SOL    HW144853   4.794   5.195   9.089  0.0827  0.2902  0.1525
13966SOL    HW244854   4.654   5.163   9.040 -0.4167  0.3173  1.5130
13967SOL     OW44855   0.270   4.986   1.024  0.4534  0.1539 -0.2893
13967SOL    HW144856   0.276   4.905   1.074 -0.9398 -0.6319 -1.3114
13967SOL    HW244857   0.334   5.045   1.064  1.1945 -1.3065  0.7363
13968SOL     OW44858   3.759   6.636   2.289  0.2287 -0.2065 -0.7341
13968SOL    HW144859   3.672   6.648   2.327 -0.2019  2.4042 -2.3067
13968SOL    HW244860   3.761   6.545   2.262 -1.9742 -0.3603 -0.5388
13969SOL     OW44861   3.324   3.744   5.138 -0.5137  0.1435 -0.1644
13969SOL    HW144862   3.419   3.742   5.135 -0.4804  1.4995 -3.0509
13969SOL    HW244863   3.304   3.818   5.196  0.1620 -0.1275  0.4299
13970SOL     OW44864   2.669   3.823   9.408  0.2809  0.0272  0.1188
13970SOL    HW144865   2.614   3.901   9.412  1.2053  0.6644  2.0588
13970SOL    HW244866   2.619   3.760   9.357 -1.8258  0.8953  0.9988
13971SOL     OW44867   8.128   8.033   7.223  0.5373  0.3452 -0.1452
13971SOL    HW144868   8.193   8.007   7.158 -0.9090 -3.3669 -0.3576
13971SOL    HW244869   8.092   7.951   7.256 -2.2911  2.1440  1.7961
13972SOL     OW44870   0.278   3.853   1.713  0.5012 -0.4307  0.9592
13972SOL    HW144871   0.329   3.797   1.654  0.3438 -0.2772  0.6745
13972SOL    HW244872   0.240   3.792   1.776 -0.0566 -0.7079  0.3696
13973SOL     OW44873   1.197   2.141   2.851  0.0534 -0.9244  0.0649
13973SOL    HW144874   1.142   2.135   2.929  0.9026  1.2952  0.8962
13973SOL    HW244875   1.155   2.207   2.797  0.3577 -1.2880 -0.6238
13974SOL     OW44876   8.234   4.977   9.021  0.0145  0.4800 -0.0772
13974SOL    HW144877   8.189   4.995   8.939 -2.3791 -1.9204  0.5639
13974SOL    HW244878   8.163   4.958   9.083  1.8467 -0.9931  1.6879
13975SOL     OW44879   3.885   2.366   4.169 -0.7571 -0.4312 -0.0720
13975SOL    HW144880   3.872   2.407   4.083 -1.0614  0.4133  0.3665
13975SOL    HW244881   3.959   2.306   4.155  1.7527  2.3948 -0.0895
13976SOL     OW44882   2.761   3.586   2.128 -0.5134  0.3601 -0.3944
13976SOL    HW144883   2.714   3.549   2.202  0.7325  0.1314  0.3045
13976SOL    HW244884   2.721   3.545   2.051 -1.2615 -0.0274  0.1914
13977SOL     OW44885   1.418   9.671   9.677 -0.4351 -0.4914 -0.3357
13977SOL    HW144886   1.463   9.747   9.639  0.4989 -1.3907 -1.1002
13977SOL    HW244887   1.441   9.673   9.769  1.8542 -1.3494 -0.8392
13978SOL     OW44888   3.577   6.107   2.226 -0.1052  0.3303 -0.6013
13978SOL    HW144889   3.508   6.172   2.218  1.4380  2.0117 -0.8080
13978SOL    HW244890   3.590   6.097   2.320  0.9520  1.8495 -0.5390
13979SOL     OW44891   1.078   3.231   8.016 -0.0131 -0.4166  0.0948
13979SOL    HW144892   1.155   3.183   8.046 -0.5439 -0.7906  0.9023
13979SOL    HW244893   1.082   3.227   7.921 -0.4410 -2.7546  0.1062
13980SOL     OW44894   5.199   0.986   6.814 -0.2321  0.1147  0.1373
13980SOL    HW144895   5.279   0.978   6.867  0.7389  2.0599 -0.9476
13980SOL    HW244896   5.212   0.924   6.742  0.0941  0.0820  0.2216
13981SOL     OW44897   5.419   7.865   0.807  0.0662 -0.4202 -0.4080
13981SOL    HW144898   5.447   7.778   0.835 -3.7468 -2.0489 -0.9169
13981SOL    HW244899   5.430   7.864   0.712  0.2987 -0.2235 -0.3831
13982SOL     OW44900   8.615   7.119   2.990  0.0321 -0.3837  0.2186
13982SOL    HW144901   8.676   7.111   2.917  1.8209  1.1108  1.4544
13982SOL    HW244902   8.645   7.196   3.038 -1.0729 -1.2975  2.5333
13983SOL     OW44903   3.454   3.531   6.336 -0.2335  0.5562  0.0880
13983SOL    HW144904   3.527   3.559   6.282  0.6258 -1.9345 -0.1710
13983SOL    HW244905   3.377   3.547   6.282  0.0988  2.8411  0.2060
13984SOL     OW44906   3.253  10.659   5.038 -0.1031  0.1119 -0.1905
13984SOL    HW144907   3.313  10.591   5.010  0.8323  0.7908  0.1128
13984SOL    HW244908   3.187  10.613   5.090  0.1634 -0.6418 -0.5093
13985SOL     OW44909   3.786   3.330   8.801  0.0284 -0.1801  0.0707
13985SOL    HW144910   3.782   3.240   8.768 -1.2871  0.2869 -1.1407
13985SOL    HW244911   3.880   3.347   8.812  0.3845 -1.1832 -1.1518
13986SOL     OW44912   6.917   6.035   2.256 -0.3345 -0.4074  0.2803
13986SOL    HW144913   6.888   6.111   2.205  0.7509 -0.1557  0.0223
13986SOL    HW244914   6.840   5.979   2.259 -1.4046  1.0463  1.1687
13987SOL     OW44915   2.201   9.824   4.562 -0.2539 -0.1355 -0.3280
13987SOL    HW144916   2.286   9.805   4.601  0.7009  1.9786 -1.2231
13987SOL    HW244917   2.219   9.891   4.496 -2.5162 -0.1610 -1.0569
13988SOL     OW44918   0.872   4.422   0.000  0.0431  0.0311  0.3068
13988SOL    HW144919   0.875   4.495  -0.062  1.6371 -0.2658 -0.0153
13988SOL    HW244920   0.961   4.387  -0.001 -0.2883 -0.9110  1.6620
13989SOL     OW44921   0.186   3.883   7.654  0.1244  0.2416  0.3007
13989SOL    HW144922   0.196   3.977   7.640  1.2205  0.2630  1.1084
13989SOL    HW244923   0.133   3.853   7.580  0.9140  1.2655 -0.7139
13990SOL     OW44924   6.454   8.265  10.013  0.5850 -0.1702 -0.2249
13990SOL    HW144925   6.499   8.196   9.964  0.9620 -0.4013  0.4404
13990SOL    HW244926   6.498   8.346   9.987 -1.3463  0.1686 -2.8086
13991SOL     OW44927   1.886   7.997   7.650 -0.1717  0.0179 -0.4171
13991SOL    HW144928   1.941   7.920   7.667 -0.8812 -0.3201  0.4340
13991SOL    HW244929   1.922   8.035   7.571 -0.6842 -2.0326 -1.7217
13992SOL     OW44930   2.155   0.855   3.500 -0.0116 -0.1665 -0.5159
13992SOL    HW144931   2.096   0.916   3.456  0.0986 -0.5849 -1.2604
13992SOL    HW244932   2.194   0.907   3.571  0.9478  1.0043 -1.8238
13993SOL     OW44933   3.065   4.896   1.373  0.3415 -0.3212  0.3461
13993SOL    HW144934   3.010   4.817   1.371 -0.4200  0.2104 -1.0463
13993SOL    HW244935   3.068   4.921   1.465 -1.7451 -0.3835  0.4753
13994SOL     OW44936   4.169  10.155   7.769 -0.1860 -0.0850  0.1694
13994SOL    HW144937   4.082  10.175   7.736 -0.2175  0.0937  0.3554
13994SOL    HW244938   4.224  10.150   7.691 -0.1707  0.7775  0.1152
13995SOL     OW44939   6.258   3.201   9.400  0.4442  0.3437  0.2541
13995SOL    HW144940   6.323   3.268   9.377 -0.6680  1.4828  0.3192
13995SOL    HW244941   6.265   3.193   9.495  1.7855 -0.9471  0.0857
13996SOL     OW44942   5.554   2.305   4.113 -0.1582 -0.1454 -0.0478
13996SOL    HW144943   5.559   2.238   4.045 -1.2642  0.2930 -0.5976
13996SOL    HW244944   5.563   2.257   4.195  1.0482 -0.7023 -0.4864
13997SOL     OW44945   1.042  10.027   6.959  1.2106 -0.3152  0.1352
13997SOL    HW144946   0.957  10.018   6.916  1.2634  1.2404 -0.3355
13997SOL    HW244947   1.025  10.086   7.033  1.8253 -0.2243  0.2069
13998SOL     OW44948  10.443   1.531   0.411 -0.7467  0.3259  0.0227
13998SOL    HW144949  10.443   1.525   0.507 -1.0706 -2.3361 -0.0841
13998SOL    HW244950  10.527   1.572   0.390 -0.0148 -0.3756  1.4016
13999SOL     OW44951  10.126   4.198   6.316 -0.3116 -0.1809  0.5168
13999SOL    HW144952  10.030   4.195   6.316 -0.4430  1.3484 -1.4742
13999SOL    HW244953  10.147   4.290   6.337  0.5450  0.2449 -1.8459
14000SOL     OW44954   1.824   9.841   0.686  0.3834 -0.2176 -0.2749
14000SOL    HW144955   1.788   9.760   0.722 -3.5450  1.7285  0.7259
14000SOL    HW244956   1.823   9.902   0.759  1.6444  1.2373 -1.4069
14001SOL     OW44957   1.775   7.622   7.000 -0.0698 -0.2104  0.3122
14001SOL    HW144958   1.756   7.638   6.907 -1.4456 -1.1282  0.4128
14001SOL    HW244959   1.751   7.530   7.014  0.1376 -0.0889  1.5868
14002SOL     OW44960   6.523   8.118   1.698  0.0763  0.0461  0.1634
14002SOL    HW144961   6.613   8.091   1.678 -0.5232 -1.5024 -0.5295
14002SOL    HW244962   6.468   8.046   1.668 -1.5070  1.4122 -0.3969
14003SOL     OW44963   4.383   8.832   2.403  0.3855  0.3291 -0.1561
14003SOL    HW144964   4.380   8.754   2.348  0.5238  1.1531 -1.3664
14003SOL    HW244965   4.423   8.801   2.485 -0.6126 -1.0983 -0.1617
14004SOL     OW44966   2.477   7.675   7.569 -0.4645  0.1705 -0.4929
14004SOL    HW144967   2.399   7.621   7.560 -1.0390  0.7702  0.7293
14004SOL    HW244968   2.501   7.669   7.661  0.6518  0.3955 -0.7470
14005SOL     OW44969   2.072   2.472   2.785 -0.3596  0.1540 -0.1270
14005SOL    HW144970   2.107   2.559   2.802  0.3755  0.1063 -1.3419
14005SOL    HW244971   2.138   2.412   2.819  1.0299  0.0590 -2.7631
14006SOL     OW44972   9.553   7.590   0.609  0.4457  0.2145 -0.5901
14006SOL    HW144973   9.587   7.508   0.644  0.4965  0.3158 -0.3985
14006SOL    HW244974   9.458   7.581   0.615  0.4111 -0.3456 -1.7666
14007SOL     OW44975   4.719   4.052   2.682  0.0077 -0.3179 -0.5761
14007SOL    HW144976   4.660   3.987   2.719  0.6679 -0.9484 -0.5952
14007SOL    HW244977   4.669   4.134   2.683 -0.7791 -0.7898 -0.4028
14008SOL     OW44978   7.483   2.018   8.717 -0.1026 -0.1738 -0.4856
14008SOL    HW144979   7.566   1.972   8.704  0.7025  0.7077  1.0962
14008SOL    HW244980   7.510   2.109   8.735 -1.2137 -0.2606  2.0906
14009SOL     OW44981   3.528   8.360   0.355  0.3364  0.3939  0.1203
14009SOL    HW144982   3.433   8.373   0.350  0.4889  2.2682  0.9710
14009SOL    HW244983   3.554   8.406   0.435  1.8682 -0.8351  0.3835
14010SOL     OW44984   0.484   0.280   5.168 -0.6912  0.5650  0.0512
14010SOL    HW144985   0.501   0.329   5.248  1.2545  0.4619 -0.2531
14010SOL    HW244986   0.510   0.191   5.188 -1.2552  0.2980 -0.3674
14011SOL     OW44987   2.060   2.422   7.517 -0.2684  0.0170 -0.6054
14011SOL    HW144988   2.055   2.341   7.568 -1.1776 -0.7346 -1.8112
14011SOL    HW244989   2.119   2.400   7.445  1.0876  1.0920  0.1456
14012SOL     OW44990   2.283  10.235   2.958 -0.3717  0.3450  0.3698
14012SOL    HW144991   2.312  10.324   2.980  1.2446  0.2902 -1.2233
14012SOL    HW244992   2.247  10.243   2.870  2.0664 -0.9010 -0.8559
14013SOL     OW44993   2.610   0.842   9.862 -0.9885  0.6281 -0.5562
14013SOL    HW144994   2.598   0.931   9.828 -1.2844  0.3437 -1.2173
14013SOL    HW244995   2.599   0.785   9.785 -1.8054 -0.0475  0.0478
14014SOL     OW44996   1.193   1.287   3.744  0.0870  0.4616  0.1903
14014SOL    HW144997   1.121   1.308   3.803  0.6477 -0.6683  1.3061
14014SOL    HW244998   1.269   1.273   3.801  0.3066 -2.1733 -0.5926
14015SOL     OW44999   2.942   3.030   3.149 -0.3526 -0.2222 -0.2524
14015SOL    HW145000   2.857   2.996   3.122  0.0531 -1.6459  0.2202
14015SOL    HW245001   2.957   3.104   3.090 -1.2396 -0.8835 -1.3478
14016SOL     OW45002   7.987   2.989   7.251  0.1510 -0.0834 -0.3342
14016SOL    HW145003   7.948   3.039   7.323 -0.0567  0.2105 -0.6462
14016SOL    HW245004   7.936   2.908   7.247  0.1717 -0.1045 -0.1407
14017SOL     OW45005   2.065   0.347   8.799  0.3926  0.2011  0.2264
14017SOL    HW145006   2.084   0.259   8.832  0.4472 -0.6603 -1.9567
14017SOL    HW245007   1.970   0.356   8.809  0.1221 -0.8354 -1.1075
14018SOL     OW45008   1.384   4.006   6.399  0.1920 -0.3391  0.0902
14018SOL    HW145009   1.325   3.931   6.403  0.1792 -0.3454 -0.1997
14018SOL    HW245010   1.335   4.077   6.442 -0.2325 -0.2093 -0.5837
14019SOL     OW45011   0.585   9.021   0.177 -0.4479  0.0624 -0.0320
14019SOL    HW145012   0.537   9.061   0.250 -1.2626  0.4543 -0.7576
14019SOL    HW245013   0.652   9.086   0.154  0.5837 -0.5596  1.0966
14020SOL     OW45014   5.135   1.706   2.974 -0.4468 -0.1608  0.1359
14020SOL    HW145015   5.056   1.718   3.026  0.6107 -0.1742  1.8248
14020SOL    HW245016   5.103   1.689   2.885 -2.3293 -0.4255  0.8176
14021SOL     OW45017   7.960   8.378   1.024  0.0958  0.6357 -0.5006
14021SOL    HW145018   7.908   8.338   0.954 -0.5312 -0.1426  0.3970
14021SOL    HW245019   7.915   8.354   1.105  1.0101  1.2307  0.2074
14022SOL     OW45020   7.682   0.542   5.524 -0.6786 -0.5217  0.8738
14022SOL    HW145021   7.587   0.540   5.517 -0.5635 -2.0223 -1.0742
14022SOL    HW245022   7.708   0.451   5.533  0.6019 -0.1679  1.0263
14023SOL     OW45023   2.877   6.594   6.042 -0.0613  0.7424  0.0126
14023SOL    HW145024   2.801   6.607   6.098 -0.1986  0.4464 -0.1034
14023SOL    HW245025   2.841   6.575   5.956  0.1166 -0.6217  0.2161
14024SOL     OW45026  10.076   4.848   5.301  0.5378  0.0422 -0.4952
14024SOL    HW145027   9.988   4.847   5.340  1.4611  2.1990  1.8942
14024SOL    HW245028  10.095   4.940   5.287  2.5520 -0.3699 -0.7295
14025SOL     OW45029   2.383   1.758   7.881  0.0875 -0.7134 -0.6073
14025SOL    HW145030   2.473   1.790   7.874  0.3319 -0.7561  1.6496
14025SOL    HW245031   2.390   1.663   7.875  0.6600 -0.9738  2.3953
14026SOL     OW45032   8.405   7.883   1.712 -0.1472  0.4872  0.0237
14026SOL    HW145033   8.422   7.976   1.724 -1.2257  0.5925  0.8386
14026SOL    HW245034   8.312   7.872   1.731  0.0564 -0.8287  0.4174
14027SOL     OW45035   4.038   1.844   1.619 -0.1382  0.4853 -0.1887
14027SOL    HW145036   4.036   1.748   1.618  0.4032  0.4743 -1.2974
14027SOL    HW245037   4.129   1.866   1.598 -0.6957  1.2438 -1.9020
14028SOL     OW45038   9.849   6.839   7.423  0.0920  0.7437 -0.0543
14028SOL    HW145039   9.867   6.759   7.473 -1.8438  0.7659  0.7769
14028SOL    HW245040   9.885   6.822   7.336 -0.1427 -0.9744  0.1461
14029SOL     OW45041   3.277   3.663   2.037 -0.3071  0.2368  0.1721
14029SOL    HW145042   3.282   3.755   2.066 -1.4840 -0.0945  1.5548
14029SOL    HW245043   3.185   3.640   2.049 -0.2285 -0.8325 -1.1530
14030SOL     OW45044   4.944   8.972  10.086 -0.0025  0.2532  0.0912
14030SOL    HW145045   4.983   9.044  10.135 -0.2591  0.8791 -0.6055
14030SOL    HW245046   5.019   8.927  10.046  0.0498  2.1560 -2.2183
14031SOL     OW45047   6.679   3.007   2.179  0.8456 -0.0934  0.3588
14031SOL    HW145048   6.671   3.072   2.108  1.0829  1.0217  1.3291
14031SOL    HW245049   6.615   2.940   2.156  0.5782  0.4775 -0.6702
14032SOL     OW45050   7.914   2.819   3.208  0.3803  0.0904 -0.4458
14032SOL    HW145051   7.960   2.750   3.256 -1.3920 -0.1929  0.9474
14032SOL    HW245052   7.844   2.773   3.162 -1.5849  1.0007  1.4567
14033SOL     OW45053   4.702   7.367   5.249 -0.1117  0.7644 -0.0206
14033SOL    HW145054   4.687   7.289   5.196  0.9917 -0.3059  1.1962
14033SOL    HW245055   4.774   7.344   5.306 -0.9953  2.0224  1.6799
14034SOL     OW45056   0.597   8.829   6.694  0.3380 -0.0911 -0.0387
14034SOL    HW145057   0.673   8.772   6.678  1.9883  1.3038  2.2127
14034SOL    HW245058   0.635   8.911   6.724 -2.0274  1.7184 -1.6125
14035SOL     OW45059   0.620   8.744   9.635  0.3006 -0.1612  0.2729
14035SOL    HW145060   0.625   8.776   9.726  1.3957 -1.3864  0.6771
14035SOL    HW245061   0.629   8.649   9.643 -1.3392 -0.4736 -1.0109
14036SOL     OW45062   0.292   6.879   8.315 -0.6293 -0.1536  0.0390
14036SOL    HW145063   0.353   6.946   8.347  0.7480 -1.9939  1.4906
14036SOL    HW245064   0.220   6.879   8.379 -0.9285  0.3044 -0.2886
14037SOL     OW45065   6.354   8.014   0.376  0.2471  0.2258  0.0914
14037SOL    HW145066   6.353   8.046   0.285  1.4983 -0.4155 -0.1709
14037SOL    HW245067   6.427   7.952   0.379 -0.7563 -0.9512  1.1530
14038SOL     OW45068   9.522   7.204   4.539 -0.2218  0.2315 -0.7074
14038SOL    HW145069   9.544   7.295   4.519  0.5172 -0.1401 -1.6864
14038SOL    HW245070   9.529   7.159   4.454  1.9512 -1.2169  0.1705
14039SOL     OW45071   3.747   3.864   5.604  0.1090  0.0348  0.0278
14039SOL    HW145072   3.771   3.842   5.514  0.4881 -1.4840  0.4629
14039SOL    HW245073   3.763   3.783   5.653 -2.2640  0.0880  1.0453
14040SOL     OW45074   6.631   9.462   4.228  0.3133  0.5932 -0.1978
14040SOL    HW145075   6.665   9.531   4.286  1.4400  2.7965 -3.1705
14040SOL    HW245076   6.550   9.499   4.193  1.2286  0.8115 -2.2754
14041SOL     OW45077   7.364  10.158   1.668 -0.1402 -0.7687  0.6302
14041SOL    HW145078   7.271  10.181   1.662 -0.2740 -1.4820 -0.1956
14041SOL    HW245079   7.406  10.237   1.703 -1.0914 -0.5303  1.2559
14042SOL     OW45080   8.144   7.141   8.811 -0.6595 -0.0029  0.0944
14042SOL    HW145081   8.151   7.074   8.879  2.0400 -0.9423 -0.9668
14042SOL    HW245082   8.051   7.164   8.809 -1.5327 -2.9812  1.2045
14043SOL     OW45083   4.893   3.174   4.148  0.2515 -0.1701  0.0368
14043SOL    HW145084   4.910   3.263   4.178  0.1611 -0.6270  1.5096
14043SOL    HW245085   4.934   3.170   4.061  1.2339  0.9530  0.4216
14044SOL     OW45086   0.638   5.005   0.677  0.4154  0.2184 -0.1688
14044SOL    HW145087   0.701   5.055   0.626 -0.3962  0.5093 -0.9041
14044SOL    HW245088   0.562   5.062   0.684 -0.2948 -0.6630 -0.4888
14045SOL     OW45089   3.700   3.273   5.609  0.1208  0.0297  0.2949
14045SOL    HW145090   3.775   3.238   5.658 -0.5595  1.3958  2.4409
14045SOL    HW245091   3.716   3.367   5.604 -0.5404  0.0964 -0.9092
14046SOL     OW45092   1.532   8.834   5.710  0.1618 -0.0970  0.1183
14046SOL    HW145093   1.532   8.749   5.668  2.3360 -0.1338  0.0465
14046SOL    HW245094   1.544   8.815   5.803  1.1739  0.1002  0.0455
14047SOL     OW45095   3.046   5.798   7.820 -0.3212 -0.1625  0.0703
14047SOL    HW145096   3.106   5.862   7.858 -0.0600  0.1244 -0.8211
14047SOL    HW245097   2.959   5.827   7.850 -0.1919  0.5145 -0.1889
14048SOL     OW45098   1.055   6.871   1.255  0.5367 -0.1585 -0.2101
14048SOL    HW145099   0.998   6.924   1.199  0.4876  0.0710  0.0544
14048SOL    HW245100   0.994   6.822   1.310  0.5949  0.0415  0.0312
14049SOL     OW45101   9.887   9.786   4.732 -0.0659  0.0651  0.3559
14049SOL    HW145102   9.937   9.783   4.813 -1.0889 -1.5177  0.9717
14049SOL    HW245103   9.796   9.773   4.759 -0.4666 -0.1067 -1.0085
14050SOL     OW45104   4.797   8.078   5.270  0.1646  0.4002  0.1354
14050SOL    HW145105   4.883   8.079   5.230 -0.1217 -0.2689 -0.5036
14050SOL    HW245106   4.780   8.170   5.292  0.6210  0.6740 -0.6251
14051SOL     OW45107   4.215   2.930   8.035 -0.2837  0.0379 -0.1637
14051SOL    HW145108   4.161   2.879   8.095  0.6458  1.1366  1.6576
14051SOL    HW245109   4.278   2.975   8.090  0.6224  1.1066 -1.9646
14052SOL     OW45110   2.853   0.480  10.656 -0.2757 -0.1147 -0.5298
14052SOL    HW145111   2.770   0.466  10.612 -0.7679 -3.9098  1.1710
14052SOL    HW245112   2.900   0.541  10.600 -3.0105 -0.1589 -3.1399
14053SOL     OW45113   4.754   5.714   3.043  0.4355  0.2855  0.3259
14053SOL    HW145114   4.803   5.797   3.038  0.3632  0.2927 -0.2616
14053SOL    HW245115   4.672   5.738   3.087  0.4863  0.4887  0.3131
14054SOL     OW45116   4.529   4.286   6.098 -0.2378  0.5906 -0.2316
14054SOL    HW145117   4.443   4.256   6.129  0.5274  0.0231  1.4907
14054SOL    HW245118   4.523   4.381   6.100 -0.5321  0.5697  0.8906
14055SOL     OW45119   4.653   3.260   4.063  0.1211  0.2728  0.3836
14055SOL    HW145120   4.684   3.340   4.020  2.1414 -1.2284 -1.1938
14055SOL    HW245121   4.732   3.221   4.101 -0.9034 -0.7071  1.5775
14056SOL     OW45122   6.596   2.202   6.202  0.3485 -0.0495 -0.2086
14056SOL    HW145123   6.579   2.236   6.114  0.9297  0.8705  0.0237
14056SOL    HW245124   6.514   2.214   6.249  0.2556  0.1336 -0.4167
14057SOL     OW45125   1.036   4.688   2.525  0.4824 -0.1572 -0.2899
14057SOL    HW145126   1.116   4.647   2.558  0.4027  0.4181  0.6747
14057SOL    HW245127   0.967   4.625   2.546  0.2298  0.7802  2.0305
14058SOL     OW45128   7.816   9.721   8.513  0.0995 -0.1506  0.2384
14058SOL    HW145129   7.861   9.779   8.575 -0.5973 -0.0248  0.6396
14058SOL    HW245130   7.829   9.633   8.547  0.4178 -0.1587  0.1033
14059SOL     OW45131   5.275   8.636   8.895  0.5195  0.5122  0.3995
14059SOL    HW145132   5.185   8.616   8.920  0.1939  0.3489 -0.8732
14059SOL    HW245133   5.329   8.587   8.959 -0.2559  1.6620  1.9970
14060SOL     OW45134   3.975   2.648   5.807 -0.4276 -0.2428  0.0677
14060SOL    HW145135   3.924   2.613   5.735 -1.1606 -0.0158  0.4634
14060SOL    HW245136   3.911   2.692   5.863  0.2163  0.1498  0.5176
14061SOL     OW45137  10.494   0.524   5.706  0.5712  0.6698 -0.0165
14061SOL    HW145138  10.518   0.521   5.613 -0.2506 -0.2365 -0.2147
14061SOL    HW245139  10.568   0.484   5.751  0.6260  0.3852 -0.3537
14062SOL     OW45140   5.726   4.254   3.794 -0.6289  0.2041 -0.0109
14062SOL    HW145141   5.796   4.320   3.796  1.7138 -2.1481  0.6197
14062SOL    HW245142   5.709   4.234   3.886 -0.9084 -0.4727 -0.2036
14063SOL     OW45143   0.543   3.372  10.603  0.2289 -0.4628  0.2113
14063SOL    HW145144   0.469   3.375  10.543  0.1338 -0.8209  0.3031
14063SOL    HW245145   0.505   3.342  10.686  0.3906 -0.1534  0.3996
14064SOL     OW45146   2.190   9.516   3.724 -1.0222  0.2272 -0.4934
14064SOL    HW145147   2.167   9.444   3.784 -0.3322 -0.7876 -1.4057
14064SOL    HW245148   2.267   9.484   3.677 -0.7022  1.5799 -0.9316
14065SOL     OW45149   2.544   7.498   6.370 -0.3281 -0.7755 -0.4883
14065SOL    HW145150   2.598   7.570   6.403  0.0066 -1.4413  0.4604
14065SOL    HW245151   2.565   7.493   6.277 -0.7151  0.6497 -0.6800
14066SOL     OW45152   3.882   4.497   5.865 -0.3860 -0.5247  0.1568
14066SOL    HW145153   3.950   4.555   5.900  0.0564 -1.4543  0.8649
14066SOL    HW245154   3.864   4.435   5.935 -1.8469 -0.4227 -0.0863
14067SOL     OW45155   5.808   1.289   0.873  0.5144 -0.5973 -0.1383
14067SOL    HW145156   5.757   1.348   0.929 -0.2694 -0.5462 -0.8780
14067SOL    HW245157   5.794   1.202   0.911  2.5318 -0.2426  1.5941
14068SOL     OW45158   3.585   8.682   7.506 -0.6123  0.0858 -0.1442
14068SOL    HW145159   3.549   8.605   7.460 -1.6776  1.1675 -1.2014
14068SOL    HW245160   3.674   8.656   7.528 -0.8770 -1.3975 -0.6354
14069SOL     OW45161   0.908   7.331   6.951  0.0511 -0.2601 -0.1474
14069SOL    HW145162   0.893   7.418   6.987  0.9609 -0.2007  0.1172
14069SOL    HW245163   0.995   7.336   6.912  0.0878 -1.0284 -0.1791
14070SOL     OW45164   6.805   2.045   3.378 -0.4459  0.1550 -0.0343
14070SOL    HW145165   6.856   2.125   3.384 -2.7065  1.6463  0.6030
14070SOL    HW245166   6.870   1.975   3.367  1.6295  1.9656  0.1613
14071SOL     OW45167  10.099  10.198   1.436  0.0004 -1.0606 -0.0654
14071SOL    HW145168  10.114  10.154   1.352  0.2998 -1.0403 -0.0210
14071SOL    HW245169  10.169  10.167   1.492 -0.6767 -1.7214  0.4331
14072SOL     OW45170   3.722   3.507   3.380 -0.1585 -0.1652 -0.6947
14072SOL    HW145171   3.744   3.564   3.453  0.3465 -0.6292 -0.4747
14072SOL    HW245172   3.629   3.487   3.393  0.5063 -2.5122  1.4939
14073SOL     OW45173   7.081   3.982   5.506 -0.2208  0.0363  0.0020
14073SOL    HW145174   6.987   3.986   5.491 -0.2691 -2.2599 -0.7354
14073SOL    HW245175   7.120   4.019   5.427 -0.4954  0.4558  0.0616
14074SOL     OW45176   3.828   4.703   9.176  0.0229  0.2389  0.4966
14074SOL    HW145177   3.849   4.681   9.086 -0.8088  0.2373  0.2953
14074SOL    HW245178   3.733   4.709   9.178  0.0786  1.2204  1.1441
14075SOL     OW45179   9.091   3.535   1.271 -0.3525 -0.0821 -0.4002
14075SOL    HW145180   9.163   3.579   1.226 -0.3948 -0.5625 -0.9467
14075SOL    HW245181   9.106   3.442   1.255 -1.6329 -0.1476 -1.3612
14076SOL     OW45182   5.480   4.710   5.212  0.0678 -0.1917  0.6957
14076SOL    HW145183   5.533   4.649   5.160  0.3800  0.8075 -0.1875
14076SOL    HW245184   5.424   4.753   5.148  0.3066  0.9057  1.2013
14077SOL     OW45185   6.270   2.736   5.107 -0.0619 -0.7065  0.8842
14077SOL    HW145186   6.183   2.774   5.098 -0.6245 -1.9478  0.8460
14077SOL    HW245187   6.329   2.811   5.116 -1.4261  0.1157  3.8467
14078SOL     OW45188   1.398   3.328   4.083  0.6165  0.7407  0.1988
14078SOL    HW145189   1.485   3.323   4.121  1.1968 -1.2046 -1.2548
14078SOL    HW245190   1.413   3.330   3.988 -0.9140  0.0833 -0.0908
14079SOL     OW45191   6.302   9.753   1.019 -0.2178 -0.5822  0.2736
14079SOL    HW145192   6.244   9.826   1.003  0.9018  0.2988  0.0951
14079SOL    HW245193   6.348   9.739   0.936  0.4288 -0.7056  0.6377
14080SOL     OW45194   0.374   1.255   2.245  0.8997 -0.0519 -0.3785
14080SOL    HW145195   0.306   1.313   2.211  0.6512  0.2971  0.6778
14080SOL    HW245196   0.389   1.192   2.175 -0.2907  0.0564 -0.7488
14081SOL     OW45197   2.499  10.148   5.666  0.4250 -0.4120  0.2695
14081SOL    HW145198   2.464  10.117   5.583 -1.6687  0.3722  0.7906
14081SOL    HW245199   2.499  10.244   5.659 -1.5741 -0.2351  1.7812
14082SOL     OW45200   2.352   4.235   5.446  0.2520 -0.2657 -0.1401
14082SOL    HW145201   2.404   4.313   5.465 -0.9405  0.5070  0.0752
14082SOL    HW245202   2.295   4.225   5.523 -0.6600 -0.4467 -0.8153
14083SOL     OW45203   8.354   2.091   0.255 -0.6160 -0.6724  0.4540
14083SOL    HW145204   8.361   2.126   0.166 -1.8018  1.1878  1.0213
14083SOL    HW245205   8.444   2.086   0.286 -0.3311  1.4862  0.1230
14084SOL     OW45206   4.151   7.918   9.170  0.5489 -0.3766 -0.3623
14084SOL    HW145207   4.167   7.863   9.247 -2.7002  1.1293  1.5584
14084SOL    HW245208   4.124   7.857   9.102  0.1626 -1.4585  0.7335
14085SOL     OW45209   9.240   5.283   8.950 -0.2711  0.5705  0.6246
14085SOL    HW145210   9.302   5.307   8.882 -1.4052  1.2094 -0.2298
14085SOL    HW245211   9.267   5.196   8.978 -0.6297 -0.3574 -1.6971
14086SOL     OW45212   7.614   7.742   7.395  0.2708  0.7850  0.3671
14086SOL    HW145213   7.660   7.769   7.475  0.7890 -0.7196  0.6149
14086SOL    HW245214   7.575   7.657   7.418  0.5061  0.2832 -1.0077
14087SOL     OW45215   3.588   5.312   9.984  0.3386 -0.0707 -0.1897
14087SOL    HW145216   3.505   5.356  10.002  0.8581  0.1032  2.0144
14087SOL    HW245217   3.572   5.220  10.004  1.0868  0.2148  1.9179
14088SOL     OW45218   3.130   0.893   9.009 -0.5690 -0.0046  0.3171
14088SOL    HW145219   3.210   0.893   8.956 -1.5290 -0.4537 -1.1690
14088SOL    HW245220   3.092   0.979   8.996  0.0489  0.5221  1.6954
14089SOL     OW45221   3.585   5.434   9.727  0.4557  0.5782  0.0251
14089SOL    HW145222   3.663   5.430   9.672  1.5001  1.7794  1.3256
14089SOL    HW245223   3.608   5.385   9.805 -1.3783 -1.9896 -0.9262
14090SOL     OW45224   6.713   0.028   8.677  0.1377 -0.0635  0.0703
14090SOL    HW145225   6.641  -0.034   8.689  0.6705 -0.6962  0.0949
14090SOL    HW245226   6.688   0.105   8.729 -0.5635 -0.2309 -0.0121
14091SOL     OW45227   0.223   3.430   0.829  0.1479  0.7983  0.6861
14091SOL    HW145228   0.156   3.423   0.897  0.7732  1.6725  1.4142
14091SOL    HW245229   0.181   3.479   0.759 -0.4636 -0.0039  0.4868
14092SOL     OW45230  10.226   5.237   0.013  0.0689  0.1244  0.0800
14092SOL    HW145231  10.292   5.243   0.081  1.6158 -0.3448 -1.3149
14092SOL    HW245232  10.245   5.311  -0.046 -1.5209  0.8056  0.3462
14093SOL     OW45233   0.811   4.721  10.397 -0.3352 -0.3618  0.4484
14093SOL    HW145234   0.781   4.688  10.482  0.6004 -1.3137  0.4388
14093SOL    HW245235   0.907   4.714  10.402 -0.2263  0.4485 -0.3415
14094SOL     OW45236   6.076   9.409   1.854 -0.4997 -0.2271 -0.2563
14094SOL    HW145237   6.010   9.340   1.866  0.0343 -0.4826  1.6457
14094SOL    HW245238   6.045   9.481   1.908  0.1269  0.1400 -0.3807
14095SOL     OW45239   1.396  10.073   9.627  0.2841  0.0182  0.0825
14095SOL    HW145240   1.442  10.155   9.608 -1.3416  0.3253 -3.1034
14095SOL    HW245241   1.455  10.005   9.594  0.6291  0.0272  0.6568
14096SOL     OW45242   3.929  10.450   5.251 -0.6283  0.4379  0.4436
14096SOL    HW145243   3.910  10.544   5.253 -1.1814  0.4036 -1.6058
14096SOL    HW245244   3.866  10.414   5.188  2.2762 -0.6168 -2.0771
14097SOL     OW45245   8.717   2.893  10.146  0.0687  0.4305  0.7750
14097SOL    HW145246   8.715   2.944  10.065  1.0233  1.2436  1.2353
14097SOL    HW245247   8.761   2.950  10.209  0.3965 -0.6421  1.5495
14098SOL     OW45248   6.306   2.788   5.959 -0.3461  0.1168 -0.3082
14098SOL    HW145249   6.363   2.712   5.972 -0.4991 -0.3153 -1.9385
14098SOL    HW245250   6.344   2.856   6.014  2.3437  0.1274 -1.9801
14099SOL     OW45251   5.204   8.331   9.470  0.1152 -0.2198 -0.4892
14099SOL    HW145252   5.119   8.310   9.508  0.9529 -0.2292  1.5249
14099SOL    HW245253   5.184   8.368   9.384 -1.9238 -0.0713  0.0017
14100SOL     OW45254   4.953   2.539  10.650 -0.2203  0.0806 -0.1132
14100SOL    HW145255   4.985   2.602  10.585 -0.1209  0.0612 -0.0838
14100SOL    HW245256   4.865   2.517  10.621 -0.2814  0.2874 -0.0854
14101SOL     OW45257   0.536   6.641   1.270 -0.7426 -0.1192 -1.0146
14101SOL    HW145258   0.585   6.675   1.195 -0.9535 -0.9804 -1.5610
14101SOL    HW245259   0.553   6.703   1.340 -1.5356  1.4147 -2.1036
14102SOL     OW45260   7.507   3.308  10.019 -0.5409  0.9323  0.4893
14102SOL    HW145261   7.565   3.322  10.094 -0.3312 -1.7412  0.9356
14102SOL    HW245262   7.424   3.282  10.059  0.2045 -2.8668 -0.0271
14103SOL     OW45263   8.559   1.870   9.265  0.1124  0.1466 -0.0440
14103SOL    HW145264   8.553   1.777   9.241  0.6518 -0.0362  0.4723
14103SOL    HW245265   8.483   1.885   9.320 -1.3743  0.6804 -2.1257
14104SOL     OW45266   5.414   8.134   9.847  0.4071  0.2314 -0.9277
14104SOL    HW145267   5.486   8.099   9.794  1.2404 -0.7641  0.7748
14104SOL    HW245268   5.366   8.191   9.787  2.2284  0.4089 -2.3144
14105SOL     OW45269   9.954  10.223   0.797 -0.7038 -0.5388 -0.3056
14105SOL    HW145270  10.044  10.193   0.808 -0.9864 -0.9712  0.9900
14105SOL    HW245271   9.940  10.222   0.702  0.0287 -2.4133 -0.4487
14106SOL     OW45272   6.665   6.542  10.098  0.2505  0.6526  0.0120
14106SOL    HW145273   6.636   6.451  10.109 -0.0224  0.6630 -0.6026
14106SOL    HW245274   6.614   6.591  10.162 -0.2796  0.5052 -0.2896
14107SOL     OW45275   5.099   3.921  10.450  0.0459 -0.0194  0.1014
14107SOL    HW145276   5.086   3.978  10.374 -0.4858  0.2842  0.4120
14107SOL    HW245277   5.011   3.894  10.475  0.0068  1.5629  1.8850
14108SOL     OW45278   4.939   8.194   9.634  0.1967  0.1818 -0.1636
14108SOL    HW145279   4.956   8.135   9.708  0.8679 -0.1882 -0.5969
14108SOL    HW245280   4.896   8.270   9.673 -0.1467 -0.3368  0.4921
14109SOL     OW45281  10.123   1.807   3.651  0.3034  0.6715 -0.2939
14109SOL    HW145282  10.170   1.775   3.574 -0.4233 -0.1831 -0.3902
14109SOL    HW245283  10.153   1.751   3.722 -1.2723 -0.5422 -0.5382
14110SOL     OW45284   3.429  10.417   6.761 -0.1093  0.2963  0.1005
14110SOL    HW145285   3.510  10.385   6.722  0.5516  1.4850  0.4694
14110SOL    HW245286   3.398  10.485   6.702 -1.2596 -0.6628 -0.4354
14111SOL     OW45287   0.241   3.827   6.179  0.1311  0.0823  0.5208
14111SOL    HW145288   0.164   3.786   6.140  0.2943 -1.0255  1.3220
14111SOL    HW245289   0.206   3.884   6.248 -0.0457  0.7034 -0.0711
14112SOL     OW45290   4.716   6.730   0.401  0.5663  0.5319 -0.3356
14112SOL    HW145291   4.677   6.704   0.318  0.1429  1.2050 -0.3584
14112SOL    HW245292   4.755   6.816   0.384 -0.0641  0.9579  0.3112
14113SOL     OW45293   8.138   2.268   2.887  0.0256  0.6004  0.1040
14113SOL    HW145294   8.161   2.207   2.957 -0.5650  1.2408  0.8858
14113SOL    HW245295   8.219   2.316   2.870  0.8291 -1.1324 -1.3429
14114SOL     OW45296   4.839   5.380   6.817  0.0279  0.4085  0.0874
14114SOL    HW145297   4.859   5.335   6.735  1.1591 -0.1033  0.6149
14114SOL    HW245298   4.831   5.310   6.882 -1.3818  0.7685  0.3300
14115SOL     OW45299   4.100   0.548   2.284  0.2877  0.2505  0.2394
14115SOL    HW145300   4.067   0.492   2.354 -2.3291  0.4356 -0.7144
14115SOL    HW245301   4.055   0.517   2.206  2.1178  0.9082 -1.1576
14116SOL     OW45302   8.509   2.183   8.306 -0.0392 -0.0058  0.0814
14116SOL    HW145303   8.541   2.215   8.390  3.0191 -1.2978 -0.4851
14116SOL    HW245304   8.486   2.091   8.323  1.9262 -0.6872 -0.7386
14117SOL     OW45305   1.232  10.424  10.320  0.2660 -0.1773  0.4170
14117SOL    HW145306   1.268  10.475  10.247 -0.1942  0.8704  0.9012
14117SOL    HW245307   1.165  10.369  10.281  0.0432  0.3559  0.0455
14118SOL     OW45308   0.287   6.071  10.417 -0.1741 -0.3447  0.6919
14118SOL    HW145309   0.309   6.163  10.431 -1.2355 -0.2704  2.2395
14118SOL    HW245310   0.300   6.031  10.503  1.6777 -1.9848 -0.2841
14119SOL     OW45311   1.355   6.233   4.513 -0.4701 -0.2427  0.2027
14119SOL    HW145312   1.382   6.231   4.421  0.3666  1.6456  0.3456
14119SOL    HW245313   1.437   6.240   4.562 -0.9503  2.9119  0.8135
14120SOL     OW45314   0.191   0.690   5.515 -0.0668 -0.3316  0.4808
14120SOL    HW145315   0.158   0.609   5.553  1.3279 -0.6289  1.1524
14120SOL    HW245316   0.286   0.687   5.533  0.0572  1.2794  0.2182
14121SOL     OW45317   4.100   5.293   5.863 -0.9053  0.5073  0.3609
14121SOL    HW145318   4.110   5.382   5.896 -0.3797  0.2957  0.7938
14121SOL    HW245319   4.182   5.250   5.886 -1.2256 -0.1383  0.3096
14122SOL     OW45320   5.160   0.628   6.115  0.9506 -0.3807 -0.1619
14122SOL    HW145321   5.097   0.561   6.091  0.9748 -0.3729 -0.2493
14122SOL    HW245322   5.232   0.616   6.053  1.8699 -1.5632  1.0744
14123SOL     OW45323   1.248   5.767   1.053 -0.6569 -0.0414  0.2119
14123SOL    HW145324   1.299   5.694   1.019 -0.1098  0.9818 -1.3150
14123SOL    HW245325   1.256   5.761   1.148  1.0307 -0.8112  0.0509
14124SOL     OW45326  10.290   3.203   7.357 -0.1814  0.6208 -0.3217
14124SOL    HW145327  10.231   3.185   7.430 -1.5247 -1.0011 -1.6948
14124SOL    HW245328  10.311   3.116   7.322  2.5496  1.1895 -0.3052
14125SOL     OW45329   9.821   9.602   4.521 -0.2070  0.3889  0.2909
14125SOL    HW145330   9.793   9.666   4.455  0.4206  0.7387  0.3584
14125SOL    HW245331   9.832   9.654   4.601 -2.7683 -0.2985  1.2094
14126SOL     OW45332   0.547   4.603   9.066 -0.2018 -0.5338 -0.3978
14126SOL    HW145333   0.468   4.631   9.020 -0.3771  0.6125  0.5602
14126SOL    HW245334   0.520   4.527   9.117 -0.2683 -1.1532 -1.3354
14127SOL     OW45335   4.044   3.950   3.541 -0.5626 -0.2385 -0.0645
14127SOL    HW145336   4.072   4.035   3.507  0.9393 -1.2984 -1.6354
14127SOL    HW245337   4.013   3.969   3.630  0.1038  1.8647 -0.2236
14128SOL     OW45338   3.610   6.027   3.994  0.1436  0.4459 -0.5324
14128SOL    HW145339   3.592   6.004   4.085 -1.7067  1.9987 -0.4341
14128SOL    HW245340   3.619   5.943   3.949 -1.1589 -0.3914  0.6914
14129SOL     OW45341   2.192   4.449   4.848 -0.0324 -0.0880  0.2177
14129SOL    HW145342   2.281   4.445   4.883 -0.2147 -2.0452  0.5754
14129SOL    HW245343   2.197   4.406   4.763 -0.0573  2.6391 -1.2709
14130SOL     OW45344   8.296  10.401   6.584  0.1119  0.5713 -0.8812
14130SOL    HW145345   8.326  10.311   6.570 -0.3549  0.3866 -0.7219
14130SOL    HW245346   8.262  10.428   6.499  0.0313  0.5125 -0.8678
14131SOL     OW45347   6.287   1.230   1.577  0.2749 -0.3563  0.8283
14131SOL    HW145348   6.340   1.241   1.498  0.4476 -1.6565  0.7472
14131SOL    HW245349   6.201   1.204   1.544  0.0523  0.1102  1.0318
14132SOL     OW45350   1.009   6.383   1.541  0.5100  0.1652  0.1756
14132SOL    HW145351   0.917   6.357   1.551 -0.1231  2.3895  0.9206
14132SOL    HW245352   1.005   6.461   1.485  2.0134 -0.0984 -0.3143
14133SOL     OW45353   5.532   0.513   1.832 -0.5830 -0.0861 -0.1443
14133SOL    HW145354   5.469   0.581   1.856 -0.3644 -0.3878  1.3783
14133SOL    HW245355   5.497   0.433   1.871  0.9126 -0.1886  1.1009
14134SOL     OW45356   2.480   8.733   6.831 -0.3539 -0.5199 -0.4632
14134SOL    HW145357   2.523   8.664   6.882 -2.5556  0.4075  3.0200
14134SOL    HW245358   2.527   8.813   6.855  0.2986 -0.3429 -2.1594
14135SOL     OW45359   1.314   2.507   9.045 -0.0410  0.2373  0.0371
14135SOL    HW145360   1.291   2.595   9.016 -0.3429  0.0183 -0.3932
14135SOL    HW245361   1.240   2.453   9.018  0.8327 -0.4235 -1.1117
14136SOL     OW45362   5.959   2.224   9.915 -0.4410  0.2510  0.1043
14136SOL    HW145363   6.020   2.200   9.845  0.1851  0.4070  0.5886
14136SOL    HW245364   5.996   2.303   9.953 -0.2338 -0.3835  1.2601
14137SOL     OW45365   6.550   7.857   2.174 -0.3238 -0.1317  0.1023
14137SOL    HW145366   6.533   7.763   2.165  0.4746 -0.4893  1.8846
14137SOL    HW245367   6.605   7.864   2.252 -1.8586  1.9780  1.0826
14138SOL     OW45368   0.381   0.963  10.085 -0.0812 -0.2418 -0.8168
14138SOL    HW145369   0.347   1.032  10.142 -0.1748 -1.4808  0.6860
14138SOL    HW245370   0.348   0.882  10.123  2.9561 -1.3893 -0.3947
14139SOL     OW45371   4.417   5.121   2.236 -0.0187 -0.2871  0.3141
14139SOL    HW145372   4.453   5.106   2.324 -0.1803  0.1254  0.4522
14139SOL    HW245373   4.491   5.153   2.185 -0.3882  1.6128  0.8737
14140SOL     OW45374   4.863  10.262   7.450 -0.0699  0.2826 -0.5613
14140SOL    HW145375   4.813  10.345   7.449 -0.0767  0.3039  0.2936
14140SOL    HW245376   4.891  10.253   7.541 -0.9146 -1.1612 -0.4126
14141SOL     OW45377  10.604   8.530   6.885 -0.5747  0.6226  1.2829
14141SOL    HW145378  10.586   8.436   6.874 -1.2888  0.9530 -0.8375
14141SOL    HW245379  10.682   8.545   6.831 -0.7537  1.3282  1.2187
14142SOL     OW45380   8.756   7.530   9.201 -0.1342  0.4978  0.0888
14142SOL    HW145381   8.674   7.484   9.219  0.3383 -0.1015  0.7658
14142SOL    HW245382   8.742   7.572   9.116 -1.0340  0.1548  0.0614
14143SOL     OW45383   9.663   9.131   0.038 -0.2489  0.2262  0.3676
14143SOL    HW145384   9.604   9.064   0.003  0.4248 -0.0160 -0.3566
14143SOL    HW245385   9.751   9.097   0.018  0.1128  2.3738 -2.1261
14144SOL     OW45386   9.042   4.845   9.898  0.3354  0.3494  0.3413
14144SOL    HW145387   8.971   4.823   9.838  0.8970  1.1497 -0.6475
14144SOL    HW245388   8.998   4.865   9.981 -0.6447  1.2363 -0.3632
14145SOL     OW45389   2.738   3.464   4.411  1.0275 -0.1749  0.0947
14145SOL    HW145390   2.754   3.467   4.317  0.6290 -1.5936 -0.0418
14145SOL    HW245391   2.803   3.402   4.445  1.5901  0.8131  0.8587
14146SOL     OW45392   1.365   1.777   7.298  0.5145 -0.0804 -0.5944
14146SOL    HW145393   1.399   1.827   7.372  0.0787  0.3804 -0.7015
14146SOL    HW245394   1.440   1.764   7.240  0.7267  0.0537 -0.3484
14147SOL     OW45395   2.953   2.664   1.164 -0.7277 -0.5002 -0.8944
14147SOL    HW145396   2.954   2.683   1.071 -0.1923 -3.8878 -1.7199
14147SOL    HW245397   3.044   2.676   1.192 -0.8118  0.1272 -0.8666
14148SOL     OW45398   0.135   1.379   0.882 -0.1189  0.3320  0.4407
14148SOL    HW145399   0.210   1.401   0.937 -0.3233 -0.5958  1.1199
14148SOL    HW245400   0.137   1.284   0.875 -2.0612  0.1241  1.7311
14149SOL     OW45401  10.005   5.546   2.931  0.1543  0.3166  0.5512
14149SOL    HW145402  10.080   5.504   2.889  0.4525 -1.5952  2.7312
14149SOL    HW245403   9.938   5.478   2.932  0.1190  0.2900  2.8746
14150SOL     OW45404   3.278   7.000   2.912 -0.7044  0.2777  0.0153
14150SOL    HW145405   3.209   7.014   2.978 -1.0898  1.3620 -0.5885
14150SOL    HW245406   3.352   6.965   2.962 -1.0682  0.8555  0.9886
14151SOL     OW45407   8.810   8.412   7.240 -0.7229 -0.3133  0.4302
14151SOL    HW145408   8.812   8.443   7.330  1.1059 -0.7197  0.5616
14151SOL    HW245409   8.780   8.321   7.246  2.3855 -1.3973  1.0355
14152SOL     OW45410   2.681   5.030   1.582  0.1111  0.0453 -0.0572
14152SOL    HW145411   2.625   5.107   1.584 -0.9253 -0.6966  0.9992
14152SOL    HW245412   2.678   5.000   1.491 -0.1883  0.7295 -0.2766
14153SOL     OW45413   8.068   9.475   0.635  0.2211  0.1122  0.4876
14153SOL    HW145414   8.103   9.395   0.597 -1.4475  0.6575 -2.6132
14153SOL    HW245415   8.144   9.533   0.644  0.9904 -0.7500 -0.2937
14154SOL     OW45416   5.426   2.944   1.225 -0.5449 -0.1356  0.1496
14154SOL    HW145417   5.430   2.926   1.318 -0.3676  1.9045  0.5958
14154SOL    HW245418   5.433   3.040   1.219  0.9531 -0.3070 -2.0361
14155SOL     OW45419   5.906   1.257   9.691 -0.0876 -0.3141  0.0536
14155SOL    HW145420   5.823   1.305   9.687 -0.9631 -1.4664  2.1171
14155SOL    HW245421   5.893   1.194   9.762  1.6740 -2.2689 -1.2178
14156SOL     OW45422   8.220   7.192   9.092  0.5416  1.0598  0.5149
14156SOL    HW145423   8.298   7.209   9.039  1.9008 -1.0422  1.7069
14156SOL    HW245424   8.206   7.273   9.139  4.0237  0.6268  2.6629
14157SOL     OW45425   4.784   2.720   8.041  0.0633 -0.3274  0.0424
14157SOL    HW145426   4.740   2.757   8.117 -0.7260  1.3100 -1.1542
14157SOL    HW245427   4.766   2.782   7.970  1.9476 -1.0594 -1.1592
14158SOL     OW45428   5.787   4.131   7.692  0.0599  0.1406  0.0071
14158SOL    HW145429   5.747   4.197   7.748 -0.5339 -1.2280  1.2565
14158SOL    HW245430   5.753   4.150   7.604  0.0707  1.5954  0.2954
14159SOL     OW45431   6.060   8.692   5.868  0.0455 -0.0147 -0.2863
14159SOL    HW145432   6.040   8.618   5.811 -0.8058 -0.4697  0.5873
14159SOL    HW245433   6.085   8.652   5.951 -1.2032  0.6783  0.4502
14160SOL     OW45434   1.094   9.379   3.390 -0.0519 -0.0711 -0.4708
14160SOL    HW145435   1.121   9.377   3.298  1.0050 -1.8058 -0.1796
14160SOL    HW245436   1.171   9.414   3.436  0.7063 -2.2549  0.0517
14161SOL     OW45437   1.745   6.005   7.750  0.0413 -0.0992  0.6065
14161SOL    HW145438   1.831   6.041   7.727 -0.3215 -0.9180 -2.4473
14161SOL    HW245439   1.720   6.052   7.829  3.8582 -0.7584  2.4272
14162SOL     OW45440   7.307   8.935   9.265  0.1487  0.0629  0.3515
14162SOL    HW145441   7.241   8.886   9.314 -0.4783 -0.9231 -1.3893
14162SOL    HW245442   7.297   8.905   9.174 -0.0673  3.1768 -0.8008
14163SOL     OW45443   0.780   9.817   4.235  0.0024 -0.9732  0.3724
14163SOL    HW145444   0.759   9.760   4.309  0.0965 -1.1064  0.2970
14163SOL    HW245445   0.710   9.801   4.172 -1.6598  1.1721  1.5326
14164SOL     OW45446   9.227   4.777   1.023  0.1201  0.4318 -0.4643
14164SOL    HW145447   9.204   4.702   0.968  0.5567 -0.1201  0.0930
14164SOL    HW245448   9.322   4.774   1.029  0.2001  1.4402 -0.9959
14165SOL     OW45449   9.518   2.751   6.783 -0.3182  0.1468  0.0032
14165SOL    HW145450   9.545   2.689   6.715 -1.7966  0.6672 -1.1092
14165SOL    HW245451   9.485   2.827   6.734  0.7957  1.5632  1.3267
14166SOL     OW45452   2.626   8.145   0.152  0.5233 -0.0344  0.0122
14166SOL    HW145453   2.650   8.194   0.074  0.2420  1.2085  0.6791
14166SOL    HW245454   2.664   8.058   0.138 -1.1715 -0.4875 -2.3497
14167SOL     OW45455   2.214   9.773   9.288 -0.5978  0.3050  0.1036
14167SOL    HW145456   2.124   9.741   9.276 -0.8425  0.7911  0.6001
14167SOL    HW245457   2.266   9.723   9.225 -1.0180 -0.8836  0.6743
14168SOL     OW45458   3.230   0.477   7.794 -0.5315 -0.1699  0.9654
14168SOL    HW145459   3.194   0.543   7.735 -1.5976 -0.1958  1.5693
14168SOL    HW245460   3.162   0.463   7.859 -1.4465 -3.6978 -0.5262
14169SOL     OW45461   9.134   1.043  10.320 -0.4395 -0.1442  0.0218
14169SOL    HW145462   9.113   1.115  10.260  0.4913 -1.1124 -1.5372
14169SOL    HW245463   9.225   1.059  10.345 -0.5765 -0.1844  0.5579
14170SOL     OW45464   1.856   2.567   3.769 -0.1764 -0.2487  0.0158
14170SOL    HW145465   1.882   2.594   3.681 -0.9430  0.3837 -0.0256
14170SOL    HW245466   1.938   2.552   3.814  0.2304 -0.4693 -0.7737
14171SOL     OW45467   0.332   3.857   5.414  0.2887 -0.3113  0.6937
14171SOL    HW145468   0.310   3.783   5.358 -0.6823  0.5711 -0.1093
14171SOL    HW245469   0.285   3.931   5.377  1.4067  0.7717  1.3612
14172SOL     OW45470   4.334   0.154   1.492 -0.6164  0.6524 -0.2583
14172SOL    HW145471   4.348   0.099   1.415  0.9695  0.9694 -0.2206
14172SOL    HW245472   4.334   0.243   1.458 -0.5314  0.7619  0.0275
14173SOL     OW45473   8.115   3.927   0.143 -0.2769  0.1477  0.7551
14173SOL    HW145474   8.049   3.904   0.077  0.9036  0.8624 -0.7563
14173SOL    HW245475   8.134   3.844   0.188 -3.7814  0.3026  2.8609
14174SOL     OW45476   5.364   7.310   1.316 -0.3933  0.2857  0.1502
14174SOL    HW145477   5.448   7.293   1.357 -0.9702 -0.6991  0.9780
14174SOL    HW245478   5.381   7.381   1.254  1.0937 -0.0974  0.0862
14175SOL     OW45479   2.996   3.347   8.934 -0.1212  0.3245 -0.1533
14175SOL    HW145480   3.090   3.332   8.947 -0.4244 -1.2045  0.5407
14175SOL    HW245481   2.967   3.270   8.885 -0.8923  1.1321 -0.9880
14176SOL     OW45482   8.484   4.025   1.304 -0.0497  0.5161 -0.5248
14176SOL    HW145483   8.461   3.992   1.217  0.6170 -2.2233  0.2272
14176SOL    HW245484   8.580   4.020   1.307 -0.1246 -1.9662  1.1455
14177SOL     OW45485   1.467   6.630  10.375 -0.1591  0.1203 -1.1347
14177SOL    HW145486   1.541   6.691  10.384  0.1094 -0.1386 -1.5266
14177SOL    HW245487   1.447   6.603  10.465  1.8230 -1.6733 -1.1394
14178SOL     OW45488   5.404   6.663   2.240 -0.3113 -0.2578 -0.2107
14178SOL    HW145489   5.387   6.710   2.322  0.7144 -0.5695  0.2003
14178SOL    HW245490   5.430   6.732   2.179  0.0369 -0.1502  0.0545
14179SOL     OW45491   4.063   3.408   4.884  0.3317 -0.0477  0.4991
14179SOL    HW145492   4.005   3.336   4.909  2.5860 -1.2331  2.6235
14179SOL    HW245493   4.127   3.368   4.825  1.1667  0.3841  1.1022
14180SOL     OW45494   9.226   2.269   8.413 -0.0128  0.2290  0.1646
14180SOL    HW145495   9.308   2.261   8.462  0.5710  0.4313 -0.7552
14180SOL    HW245496   9.205   2.179   8.387  1.1700  0.3925 -1.5522
14181SOL     OW45497   5.009   8.807   0.876  0.1943  0.6792  0.4660
14181SOL    HW145498   4.944   8.750   0.835  2.2369 -1.5681  0.1718
14181SOL    HW245499   4.966   8.841   0.955 -1.0219 -1.4812  0.7831
14182SOL     OW45500   4.971  10.088   8.891 -0.4046  0.4130  0.6123
14182SOL    HW145501   4.911  10.022   8.924  1.5130 -0.7986  1.8770
14182SOL    HW245502   4.977  10.153   8.962 -0.3485  0.6060  0.4324
14183SOL     OW45503  10.443   1.256   4.413  0.1635 -0.1478 -0.0316
14183SOL    HW145504  10.378   1.215   4.470  1.1836 -1.2031  0.4144
14183SOL    HW245505  10.419   1.227   4.325 -1.7025  1.8726 -0.2624
14184SOL     OW45506   3.781   0.703   8.372  0.2456 -0.3532 -0.1908
14184SOL    HW145507   3.702   0.697   8.318  0.1951 -0.2620 -0.1273
14184SOL    HW245508   3.786   0.619   8.417 -0.1854 -0.1146  0.3153
14185SOL     OW45509   2.564   2.609   4.802  0.3610  0.5915 -0.0707
14185SOL    HW145510   2.603   2.526   4.774 -1.1200 -0.1644  0.0400
14185SOL    HW245511   2.629   2.647   4.862  1.5559  0.0749 -0.9926
14186SOL     OW45512   9.627   5.950  10.219  0.3885 -0.4029  0.0885
14186SOL    HW145513   9.682   5.875  10.197  1.7006  0.6993 -0.5183
14186SOL    HW245514   9.595   5.930  10.307 -1.7125 -3.0186 -1.1221
14187SOL     OW45515   0.630   1.190  10.345  0.0329 -0.1511  0.3821
14187SOL    HW145516   0.713   1.142  10.334  0.3290  0.7051 -1.5407
14187SOL    HW245517   0.605   1.174  10.436  0.3899 -3.5017  0.0322
14188SOL     OW45518  10.088   7.131  10.580 -0.1325 -0.3184 -0.3498
14188SOL    HW145519  10.006   7.128  10.629 -0.4355  0.7721 -0.7506
14188SOL    HW245520  10.130   7.212  10.609  0.9235 -0.9869  0.0250
14189SOL     OW45521   4.473   9.833   8.230  0.3827  0.2607 -0.0622
14189SOL    HW145522   4.497   9.784   8.151 -2.3190  0.7408 -1.2662
14189SOL    HW245523   4.528   9.912   8.226  1.3358 -0.4053 -0.6535
14190SOL     OW45524   9.949   0.841   0.127 -0.1940 -0.5700 -0.1310
14190SOL    HW145525  10.024   0.864   0.074 -1.0559  2.8978 -0.0972
14190SOL    HW245526   9.970   0.874   0.215 -0.9613 -1.3583  0.3732
14191SOL     OW45527   7.620  10.455  10.461 -0.3432  0.1217 -0.1843
14191SOL    HW145528   7.631  10.550  10.456  0.2874  0.0204 -0.7277
14191SOL    HW245529   7.577  10.441  10.546  0.8260  0.7825  0.5428
14192SOL     OW45530   4.300   9.491   6.299 -0.0045  0.0595 -0.1763
14192SOL    HW145531   4.334   9.428   6.363 -0.4515  0.6736  0.6749
14192SOL    HW245532   4.224   9.447   6.261  0.3729 -0.3816 -0.4333
14193SOL     OW45533   3.761   2.155   0.969 -0.2093  0.5314  0.1078
14193SOL    HW145534   3.707   2.086   0.929  2.1117 -1.3931  0.0632
14193SOL    HW245535   3.739   2.152   1.062 -1.3504  0.9625 -0.1229
14194SOL     OW45536   0.635   5.667   2.597 -0.1150  0.4411  0.0238
14194SOL    HW145537   0.692   5.710   2.660 -0.8536  1.6675 -0.1140
14194SOL    HW245538   0.690   5.657   2.519  0.4952 -0.1716  0.5231
14195SOL     OW45539   2.067   0.378   0.060 -0.1691 -0.2015 -0.6083
14195SOL    HW145540   2.024   0.379   0.145  0.1768  1.0543 -0.4305
14195SOL    HW245541   2.021   0.445   0.009  0.7396  0.2745 -0.8245
14196SOL     OW45542   0.319   7.961   5.335 -0.0443 -0.4956 -0.1552
14196SOL    HW145543   0.259   8.033   5.352  1.0944  0.2787  0.7114
14196SOL    HW245544   0.331   7.962   5.240 -1.5475 -0.8196 -0.3798
14197SOL     OW45545   5.164   9.319   9.218 -0.8478  0.8639 -0.4595
14197SOL    HW145546   5.161   9.239   9.166 -0.3546 -0.4874  1.4711
14197SOL    HW245547   5.087   9.314   9.275  0.3317  0.6026  1.2001
14198SOL     OW45548   5.017   9.030   5.550  0.0312  0.1161  0.5880
14198SOL    HW145549   5.018   8.975   5.628  0.1245  0.3985  0.7851
14198SOL    HW245550   5.105   9.020   5.512 -0.7055 -1.8401 -0.7591
14199SOL     OW45551   6.487   1.780   4.814  0.5196  0.0916 -0.5656
14199SOL    HW145552   6.506   1.873   4.823  1.5397 -0.0849 -0.7787
14199SOL    HW245553   6.567   1.742   4.779  1.9483 -1.6078  3.7824
14200SOL     OW45554   6.342   7.762   8.578  0.1862 -0.3762  0.0137
14200SOL    HW145555   6.379   7.804   8.656  0.0710  3.4027 -1.7102
14200SOL    HW245556   6.397   7.795   8.506 -2.0832 -0.4410 -1.8687
14201SOL     OW45557  10.338   9.886   1.086 -0.6145 -0.0886 -0.0151
14201SOL    HW145558  10.312   9.848   1.170 -1.9072  1.1515  0.1746
14201SOL    HW245559  10.433   9.897   1.093 -0.5732 -0.8595  0.9030
14202SOL     OW45560   1.303   2.151   4.424 -0.0494 -0.3653  0.7747
14202SOL    HW145561   1.337   2.235   4.396  0.9041 -0.1419  2.4433
14202SOL    HW245562   1.209   2.164   4.431 -0.0429  0.2071 -0.0716
14203SOL     OW45563   4.890   8.936   9.285 -0.2612  0.1781  0.8479
14203SOL    HW145564   4.816   8.876   9.298  0.0016 -0.2811  0.3156
14203SOL    HW245565   4.917   8.920   9.194  1.8997 -1.3017  1.6690
14204SOL     OW45566   4.524  10.361   9.897 -0.6999 -0.2891 -0.2136
14204SOL    HW145567   4.568  10.288   9.854  0.4138  0.9456 -1.2788
14204SOL    HW245568   4.545  10.351   9.990 -0.8440 -1.4879 -0.2987
14205SOL     OW45569   1.987   4.446   2.742  0.5453 -0.8094  0.4523
14205SOL    HW145570   2.009   4.400   2.661  1.3172  3.3257 -1.9638
14205SOL    HW245571   1.893   4.463   2.736  0.9265  1.2209 -0.7268
14206SOL     OW45572   5.038   6.705   9.456 -0.5130 -0.0809  0.3916
14206SOL    HW145573   5.125   6.744   9.467 -0.3113 -0.2096 -0.6038
14206SOL    HW245574   5.036   6.633   9.518  0.1693 -0.1908  0.3006
14207SOL     OW45575   9.724   2.955   4.854  0.0334 -0.6329  0.0778
14207SOL    HW145576   9.663   2.932   4.783 -0.1316  0.5515 -0.1902
14207SOL    HW245577   9.808   2.920   4.826  0.6026  2.1212 -2.0900
14208SOL     OW45578   1.373   6.077   9.257  0.3811 -0.6098 -0.9759
14208SOL    HW145579   1.338   6.025   9.329  0.5785 -1.5189 -1.5207
14208SOL    HW245580   1.296   6.111   9.211  0.2512 -0.5072 -0.6812
14209SOL     OW45581   1.852   4.617   6.005  0.0851  0.0123 -0.3686
14209SOL    HW145582   1.819   4.560   5.936 -0.5405  1.3257 -1.2105
14209SOL    HW245583   1.788   4.608   6.076  0.9970 -1.7258  0.3057
14210SOL     OW45584   1.775   9.977   3.227 -0.0987  0.5100  0.1831
14210SOL    HW145585   1.796  10.061   3.186  1.5817 -0.1657 -0.4268
14210SOL    HW245586   1.825   9.913   3.176  0.9275 -0.5310  2.3990
14211SOL     OW45587   1.640   0.687   5.448 -0.2510 -0.1337 -0.0379
14211SOL    HW145588   1.587   0.671   5.527  0.7685 -0.7200  0.5384
14211SOL    HW245589   1.726   0.652   5.469  1.1272  2.9431 -0.0323
14212SOL     OW45590   2.192   4.195   2.601  0.0076  1.1224 -0.0430
14212SOL    HW145591   2.276   4.197   2.647 -0.6007  1.2300  1.1071
14212SOL    HW245592   2.199   4.120   2.542  1.0635  1.3953 -0.2801
14213SOL     OW45593   3.449   9.235   5.079 -0.1067  0.1257 -0.7623
14213SOL    HW145594   3.385   9.275   5.020 -2.3317 -1.2094  0.5840
14213SOL    HW245595   3.432   9.276   5.164  0.9239 -0.1958 -0.3829
14214SOL     OW45596   9.085   0.457   9.473 -0.4397  0.3217 -0.1639
14214SOL    HW145597   9.139   0.467   9.551  2.5672  2.5311 -2.2635
14214SOL    HW245598   9.104   0.368   9.442 -0.0197  0.1827  0.4749
14215SOL     OW45599   0.087   1.693   9.592  0.1552  0.7019 -0.4591
14215SOL    HW145600   0.108   1.721   9.503  2.5996  1.2486  0.2252
14215SOL    HW245601   0.108   1.768   9.647 -1.5637  0.4621  0.5955
14216SOL     OW45602   0.138   9.017   4.505 -0.4397  0.2109 -0.1319
14216SOL    HW145603   0.170   9.079   4.440  0.9627  0.2115  0.5204
14216SOL    HW245604   0.193   8.940   4.493 -1.1200 -0.3219  0.1149
14217SOL     OW45605   9.926   6.553   7.431  0.4796  0.3318 -0.2988
14217SOL    HW145606  10.015   6.526   7.452  0.6290  0.4797 -0.7176
14217SOL    HW245607   9.902   6.499   7.355  0.6471  1.1003 -0.9151
14218SOL     OW45608   6.380   4.219   5.225 -0.0747  0.5404 -0.3997
14218SOL    HW145609   6.346   4.144   5.273  0.3665  1.1841  0.9926
14218SOL    HW245610   6.302   4.262   5.190 -0.4575  0.2733  0.1046
14219SOL     OW45611   3.103   8.556   2.332 -0.3031 -0.2003  0.1434
14219SOL    HW145612   3.047   8.619   2.377 -0.3416  0.2267 -0.4887
14219SOL    HW245613   3.102   8.478   2.388 -0.0964  0.4206  1.0273
14220SOL     OW45614   9.436   8.693   7.951  0.4838 -0.3738 -0.3284
14220SOL    HW145615   9.507   8.660   7.895  1.3522  0.4923  0.2296
14220SOL    HW245616   9.388   8.754   7.895  1.1027  0.1830 -0.2548
14221SOL     OW45617   0.207   2.731   3.275  0.7752  0.3722  0.2177
14221SOL    HW145618   0.243   2.820   3.275 -0.1264  0.7979 -1.7167
14221SOL    HW245619   0.278   2.675   3.245  0.7991  0.7332 -0.4139
14222SOL     OW45620   6.738   4.736   7.191  0.2057 -0.2309  0.5038
14222SOL    HW145621   6.746   4.767   7.101  0.5493 -0.4407  0.4627
14222SOL    HW245622   6.645   4.714   7.200 -0.3557  2.0459  0.9357
14223SOL     OW45623   5.892   8.513   1.901 -0.3105 -0.3818  0.1856
14223SOL    HW145624   5.888   8.433   1.952  0.5903 -0.7903 -0.3454
14223SOL    HW245625   5.834   8.574   1.946 -0.3502 -1.0607  1.0772
14224SOL     OW45626   8.062   8.161   5.908  0.5361  0.5014 -0.2400
14224SOL    HW145627   8.148   8.198   5.884  0.4273  0.1314 -1.2074
14224SOL    HW245628   8.024   8.227   5.967  2.0450  0.0526  1.3340
14225SOL     OW45629   1.870   3.837   8.146  0.8892  0.2237 -0.0126
14225SOL    HW145630   1.869   3.932   8.135 -0.2766  0.1167 -0.9765
14225SOL    HW245631   1.830   3.822   8.231 -0.2913  0.5355 -0.4999
14226SOL     OW45632   6.467   1.912   1.961 -0.0818 -0.5182  0.7474
14226SOL    HW145633   6.460   1.973   2.034  0.2972  0.0674  0.2993
14226SOL    HW245634   6.403   1.942   1.897 -1.1165 -1.6106  1.2319
14227SOL     OW45635   3.097   2.384   6.674 -0.4870  0.0980  0.4590
14227SOL    HW145636   3.012   2.347   6.652  0.0428 -0.9468  0.0998
14227SOL    HW245637   3.098   2.386   6.770 -1.2698  1.0093  0.4637
14228SOL     OW45638  10.460   0.008   1.201  0.8366 -0.1911 -0.2200
14228SOL    HW145639  10.439   0.028   1.110  0.6994  1.5017  0.1517
14228SOL    HW245640  10.551   0.039   1.211  0.8333 -0.3285  0.2251
14229SOL     OW45641   3.137   0.209   8.401 -0.0045  0.5391 -0.6206
14229SOL    HW145642   3.110   0.272   8.335  1.0205  0.7160 -0.8795
14229SOL    HW245643   3.182   0.140   8.353 -0.6348 -0.1320 -0.2782
14230SOL     OW45644   1.108   5.491   6.469 -0.2973  0.0031  0.2312
14230SOL    HW145645   1.099   5.586   6.474  0.1784  0.0146  1.0080
14230SOL    HW245646   1.137   5.465   6.556  1.5920 -0.6341 -0.5472
14231SOL     OW45647   8.760   4.622   3.201  0.3497 -0.2620 -0.3640
14231SOL    HW145648   8.676   4.577   3.206 -0.6505  1.5142 -0.1416
14231SOL    HW245649   8.785   4.636   3.292  1.1255 -1.1450 -0.4239
14232SOL     OW45650   0.950   1.643   1.859  0.2129  0.1061  0.5090
14232SOL    HW145651   0.898   1.722   1.844 -0.9952 -1.1055 -2.5763
14232SOL    HW245652   0.885   1.573   1.871  1.1901 -0.8122  0.6456
14233SOL     OW45653   0.432   8.757   5.978 -0.3247  1.0440 -0.2489
14233SOL    HW145654   0.360   8.777   5.919 -1.8454  1.7428  1.7231
14233SOL    HW245655   0.450   8.840   6.023  1.9385  0.9651 -0.8818
14234SOL     OW45656   7.804   4.630   6.103  0.2480 -0.2610 -0.3124
14234SOL    HW145657   7.762   4.547   6.124 -1.4321  0.5540 -0.3420
14234SOL    HW245658   7.758   4.695   6.155  2.8462  0.4837  1.2735
14235SOL     OW45659   0.459   0.504   9.152  0.5827  0.2545  0.2805
14235SOL    HW145660   0.549   0.485   9.178  0.6073  0.9172  0.6969
14235SOL    HW245661   0.406   0.470   9.224  0.6674  2.3794  1.4225
14236SOL     OW45662   8.106   6.180   1.535  0.4579  0.0603 -0.0738
14236SOL    HW145663   8.193   6.185   1.576  1.0364  1.0049 -1.3442
14236SOL    HW245664   8.077   6.270   1.529  1.1501  0.2159 -3.1645
14237SOL     OW45665   2.686   5.353   2.493 -0.1824  0.0428  0.1012
14237SOL    HW145666   2.706   5.268   2.530  1.6609 -0.3651 -1.6489
14237SOL    HW245667   2.596   5.371   2.521 -0.5852 -2.4049  0.6017
14238SOL     OW45668   2.866  10.532   3.215  0.0766  0.1549  0.1112
14238SOL    HW145669   2.893  10.612   3.169 -0.4972  0.6120  0.5541
14238SOL    HW245670   2.825  10.563   3.295 -0.4777 -0.5777  0.1194
14239SOL     OW45671   8.956   8.795   8.344 -0.3625 -0.0177  0.4718
14239SOL    HW145672   8.868   8.786   8.307 -0.2780  0.3650  0.1669
14239SOL    HW245673   9.014   8.759   8.277 -0.2141  0.6230  0.2453
14240SOL     OW45674   5.736   0.482   2.871  0.2247 -0.0090  0.2951
14240SOL    HW145675   5.769   0.509   2.785 -3.2604  1.7161 -0.6718
14240SOL    HW245676   5.796   0.522   2.933  1.5585  0.6093 -1.3012
14241SOL     OW45677   2.629   6.738   3.034  0.0721 -0.1902  0.2880
14241SOL    HW145678   2.667   6.655   3.004  0.0858 -0.4123  0.9017
14241SOL    HW245679   2.589   6.776   2.955  1.4507 -0.0071 -0.3491
14242SOL     OW45680  10.086   6.054   0.127  0.2722 -0.1547  0.0700
14242SOL    HW145681  10.123   6.129   0.175 -0.4576 -0.0796  0.5345
14242SOL    HW245682  10.152   6.033   0.062  1.9254 -1.1201  1.9544
14243SOL     OW45683   1.926   3.351   1.586 -0.4143 -0.6170  0.2459
14243SOL    HW145684   1.956   3.290   1.653 -0.4758 -0.1494  0.7045
14243SOL    HW245685   1.839   3.321   1.563  0.5845 -2.3690 -1.5483
14244SOL     OW45686   3.006   2.015   5.298 -0.2430 -0.7592  0.5864
14244SOL    HW145687   3.083   2.065   5.323 -0.2342 -1.4386  2.0201
14244SOL    HW245688   2.932   2.071   5.323 -0.2228 -0.7463  0.6176
14245SOL     OW45689   0.996   7.725   4.665 -0.1596 -0.3673  0.0248
14245SOL    HW145690   0.978   7.734   4.758  2.2034  1.1389  0.4372
14245SOL    HW245691   0.963   7.639   4.642 -2.3606 -0.0873  1.8304
14246SOL     OW45692   7.662   1.826   6.015 -0.5604 -0.7064 -0.1451
14246SOL    HW145693   7.727   1.757   6.004  0.3745  0.1213  0.1030
14246SOL    HW245694   7.583   1.780   6.042 -0.0748 -1.7227 -0.4079
14247SOL     OW45695   2.334   9.233   4.979  0.4838  0.1808  0.1377
14247SOL    HW145696   2.333   9.141   4.953 -0.6013 -0.0689  0.9762
14247SOL    HW245697   2.263   9.273   4.930 -0.5873  0.0318  1.5005
14248SOL     OW45698  10.383   6.647   4.730  0.1562 -0.3057 -0.6490
14248SOL    HW145699  10.326   6.620   4.802  3.3914 -1.3654  1.7812
14248SOL    HW245700  10.371   6.742   4.725 -0.2315 -0.2060  1.2948
14249SOL     OW45701   5.184   1.842   8.671 -0.1681  0.2748 -0.0733
14249SOL    HW145702   5.099   1.859   8.631 -0.3188 -1.5913 -0.6357
14249SOL    HW245703   5.182   1.750   8.696  1.3347  0.4360  0.8134
14250SOL     OW45704   0.910   5.963   1.830 -0.0050  0.3534  0.5924
14250SOL    HW145705   0.932   5.896   1.894 -0.1488 -0.8398 -0.5566
14250SOL    HW245706   0.991   5.979   1.782 -0.6596 -1.3929 -1.2421
14251SOL     OW45707   9.515   0.762   1.068 -0.2887  0.5797  0.5116
14251SOL    HW145708   9.590   0.709   1.039 -0.1160  0.7035  0.7347
14251SOL    HW245709   9.491   0.724   1.153 -0.9068  0.1012  0.1370
14252SOL     OW45710   4.527   5.831   1.839  0.2801 -0.5585  0.2163
14252SOL    HW145711   4.576   5.815   1.758 -0.2696 -1.4325  0.0399
14252SOL    HW245712   4.594   5.833   1.908  0.7348  0.0449 -0.2367
14253SOL     OW45713   1.056   8.221   9.457  0.4210  0.0157 -0.1392
14253SOL    HW145714   1.068   8.137   9.501 -0.7747  0.2741  0.7415
14253SOL    HW245715   1.144   8.247   9.431  0.6774 -2.1114 -1.6450
14254SOL     OW45716   2.500   2.483  10.635 -0.0911  0.3494  0.5157
14254SOL    HW145717   2.578   2.508  10.586 -1.7922  0.6367 -2.2972
14254SOL    HW245718   2.502   2.387  10.637 -1.2799  0.1418 -2.6897
14255SOL     OW45719   8.805   2.563   9.426 -0.3717  0.1192 -1.3271
14255SOL    HW145720   8.741   2.596   9.490 -1.0834 -1.7324 -1.0065
14255SOL    HW245721   8.751   2.524   9.357  0.3943 -1.0004 -1.3153
14256SOL     OW45722   4.214   3.263   4.675 -0.7987 -0.0338 -0.3307
14256SOL    HW145723   4.128   3.283   4.637 -1.5664 -0.3679  1.1516
14256SOL    HW245724   4.203   3.177   4.716  1.1782 -1.5943 -2.7892
14257SOL     OW45725  10.617   8.996   0.862 -0.3863 -0.1413  0.4329
14257SOL    HW145726  10.533   8.952   0.872 -0.3483 -0.0264  1.3150
14257SOL    HW245727  10.681   8.934   0.898 -0.2188  0.2112  0.7520
14258SOL     OW45728   3.285   7.426   5.641  0.2994  0.1707  0.8200
14258SOL    HW145729   3.345   7.352   5.626 -1.1659 -0.9650  0.3587
14258SOL    HW245730   3.248   7.408   5.727 -2.2119 -1.2739 -0.4491
14259SOL     OW45731   2.911   0.881   5.182  0.5137 -0.6271  0.2168
14259SOL    HW145732   2.822   0.888   5.148  0.6736 -0.4177 -0.1774
14259SOL    HW245733   2.964   0.859   5.105  0.8589 -0.3237  0.3637
14260SOL     OW45734   3.681   5.423   5.330  0.0355 -0.4351 -0.8397
14260SOL    HW145735   3.661   5.329   5.338 -0.2618 -0.3377 -0.4324
14260SOL    HW245736   3.604   5.460   5.287  0.2369 -0.4097 -1.1788
14261SOL     OW45737  10.694   6.197   6.653  1.2326 -0.1550  0.3018
14261SOL    HW145738  10.627   6.159   6.595 -0.3939  2.0721  0.6008
14261SOL    HW245739  10.698   6.136   6.727 -0.7698 -0.1729  0.4560
14262SOL     OW45740   2.219   8.204   2.156  0.2703 -0.4992  0.6023
14262SOL    HW145741   2.125   8.210   2.170  0.3018 -0.1175  0.6685
14262SOL    HW245742   2.231   8.222   2.063  0.3059 -0.2016  0.6629
14263SOL     OW45743   4.081   0.636   6.181 -0.1757 -0.1339  0.5606
14263SOL    HW145744   4.041   0.715   6.218 -1.7205 -0.7083  0.2051
14263SOL    HW245745   4.021   0.566   6.205  0.3787 -0.9663 -0.4266
14264SOL     OW45746   8.458   5.226   2.304  0.2983 -0.0840  0.1975
14264SOL    HW145747   8.378   5.223   2.251 -0.6036  0.7557  1.4779
14264SOL    HW245748   8.467   5.317   2.331  2.1345  0.0081 -0.5247
14265SOL     OW45749   1.000   0.005   4.505 -0.2039  0.4281  0.2976
14265SOL    HW145750   0.990   0.084   4.558  0.1635 -0.3234  1.5086
14265SOL    HW245751   1.033   0.037   4.421 -0.0929  1.5655  0.7568
14266SOL     OW45752   0.444   1.427   4.000 -0.1305 -0.0355  0.0652
14266SOL    HW145753   0.467   1.407   3.910  0.0183 -1.4658  0.3910
14266SOL    HW245754   0.369   1.371   4.018 -0.0993  0.1658  0.8615
14267SOL     OW45755   2.844   9.959   5.840  0.0002 -0.2276 -0.6132
14267SOL    HW145756   2.888  10.004   5.912 -0.3122 -1.7641  0.5887
14267SOL    HW245757   2.753   9.953   5.867 -0.2199 -0.4227 -1.3575
14268SOL     OW45758   7.638   9.170   9.733 -0.1876 -0.1222 -0.0388
14268SOL    HW145759   7.556   9.120   9.732  0.4442 -1.2060  0.9514
14268SOL    HW245760   7.691   9.129   9.801  1.6765 -0.2108 -1.4586
14269SOL     OW45761   1.458   4.750   8.701 -0.2381 -0.2018  0.4921
14269SOL    HW145762   1.458   4.839   8.736 -0.0639  0.0154 -0.0384
14269SOL    HW245763   1.372   4.715   8.722 -0.9739  0.7196 -0.8307
14270SOL     OW45764   9.451   2.247   8.176 -0.3232 -0.4954  0.1806
14270SOL    HW145765   9.517   2.213   8.235  0.2473  0.6453  0.2317
14270SOL    HW245766   9.447   2.184   8.104  1.8405  0.0683 -0.5252
14271SOL     OW45767   5.317   9.782   1.257 -0.1139  0.0694  0.2077
14271SOL    HW145768   5.253   9.852   1.245  0.5409  0.8482  1.1257
14271SOL    HW245769   5.355   9.798   1.343  1.8964  0.1029 -0.6355
14272SOL     OW45770   6.639   3.729   7.379  0.1055 -0.0027 -0.2663
14272SOL    HW145771   6.570   3.789   7.408 -1.5673 -1.8961 -0.0854
14272SOL    HW245772   6.714   3.785   7.360 -0.9064  1.9796  1.2403
14273SOL     OW45773   3.121   2.971   8.995  0.3699  0.0659 -0.0109
14273SOL    HW145774   3.145   3.041   8.935  0.8069 -0.4962 -0.5004
14273SOL    HW245775   3.063   3.013   9.058  0.4016  0.8045 -0.4591
14274SOL     OW45776   0.749  10.373   6.868 -0.0047  0.4033 -0.1580
14274SOL    HW145777   0.798  10.293   6.885 -0.9615  0.2818  2.4585
14274SOL    HW245778   0.740  10.375   6.772 -2.1460 -4.0399 -0.3414
14275SOL     OW45779   7.540   3.869   1.020 -0.2382 -0.4198 -0.0924
14275SOL    HW145780   7.542   3.888   1.114  0.6000  0.5200 -0.2850
14275SOL    HW245781   7.458   3.907   0.990 -0.6588 -0.9903  0.3003
14276SOL     OW45782  10.316   4.105   6.578 -0.3975  0.0143  0.3004
14276SOL    HW145783  10.335   4.191   6.540 -0.8149 -0.0219  0.0050
14276SOL    HW245784  10.260   4.124   6.652 -0.8082 -0.0319  0.0035
14277SOL     OW45785   3.057   4.123  10.644  0.1738  0.0324 -0.1675
14277SOL    HW145786   3.052   4.086  10.733  0.0672 -1.4068 -0.7441
14277SOL    HW245787   3.001   4.066  10.592  2.9472 -1.3569 -1.8723
14278SOL     OW45788   8.896   4.274   5.033  0.3417 -0.4731 -0.4005
14278SOL    HW145789   8.926   4.310   4.950 -1.2524  1.1817 -0.3224
14278SOL    HW245790   8.802   4.261   5.021 -0.2151  1.1261  1.5341
14279SOL     OW45791   3.359   9.942   6.717  0.3130 -1.0326 -0.2965
14279SOL    HW145792   3.335   9.925   6.809 -0.1731  2.6692  0.4023
14279SOL    HW245793   3.444   9.985   6.722  0.3872 -0.9803 -1.6457
14280SOL     OW45794   5.362   6.958   7.921  0.2633  0.0520 -0.1339
14280SOL    HW145795   5.421   7.030   7.902 -1.5872  1.2875 -1.5859
14280SOL    HW245796   5.382   6.893   7.853  0.0773  0.3993 -0.5274
14281SOL     OW45797   9.472   5.604  10.627  0.3615 -0.1286 -0.0178
14281SOL    HW145798   9.399   5.548  10.603 -0.3426 -0.4345  2.5761
14281SOL    HW245799   9.472   5.605  10.722  1.6359  2.6459  0.0507
14282SOL     OW45800   7.215   5.228   7.713  0.1706 -0.4603 -0.2725
14282SOL    HW145801   7.211   5.222   7.809 -0.9930 -0.2542 -0.2910
14282SOL    HW245802   7.146   5.290   7.690  0.5853 -0.3377 -1.2363
14283SOL     OW45803  10.270   9.159   6.158 -0.5854 -0.3751 -0.2540
14283SOL    HW145804  10.292   9.172   6.250  0.0563 -1.7406 -0.1996
14283SOL    HW245805  10.305   9.236   6.113 -0.6843  0.1758  0.6079
14284SOL     OW45806   6.655   6.204   3.463  0.3156  0.3234 -0.0717
14284SOL    HW145807   6.679   6.292   3.492 -2.2308  0.7605  0.9851
14284SOL    HW245808   6.705   6.145   3.520  1.0021  1.0891  0.1400
14285SOL     OW45809   8.156   1.420  10.178 -0.5624 -0.0523 -0.3451
14285SOL    HW145810   8.079   1.473  10.157 -2.2286 -1.4565  1.8582
14285SOL    HW245811   8.193   1.397  10.092 -3.5936 -0.7463 -1.5881
14286SOL     OW45812   5.404   0.204   3.457  0.0685 -0.2712 -0.0993
14286SOL    HW145813   5.388   0.177   3.547  1.1580  0.4908  0.3395
14286SOL    HW245814   5.316   0.222   3.422 -0.5423 -2.4423  0.1622
14287SOL     OW45815   5.090   9.964   1.222  0.5623 -0.1437 -0.3259
14287SOL    HW145816   5.038   9.945   1.300  1.8548 -0.8091  0.4041
14287SOL    HW245817   5.054  10.046   1.189 -2.3263 -1.5953 -1.0816
14288SOL     OW45818   1.162   4.634   2.911 -0.0557 -0.1826 -1.0393
14288SOL    HW145819   1.117   4.630   2.996  1.7732 -1.7793 -0.0776
14288SOL    HW245820   1.216   4.712   2.916 -2.1268  1.4184 -1.9760
14289SOL     OW45821   7.433   6.985   9.035 -0.6117  0.0050  0.4942
14289SOL    HW145822   7.371   6.914   9.052 -2.1782  1.3745  0.7553
14289SOL    HW245823   7.400   7.026   8.955  0.2998  0.4183  0.3196
14290SOL     OW45824   1.995   4.761   5.179 -0.4011 -0.1196  0.5439
14290SOL    HW145825   1.945   4.794   5.104 -0.6833 -1.1902  0.2380
14290SOL    HW245826   2.060   4.829   5.196  1.1182 -0.7676 -2.0712
14291SOL     OW45827   7.863   5.086   6.864 -0.4697  0.0580 -0.1847
14291SOL    HW145828   7.952   5.107   6.837  0.8024 -2.7441  1.3856
14291SOL    HW245829   7.853   5.128   6.950 -1.8300  2.7681 -1.5340
14292SOL     OW45830   6.266   0.152   3.931 -0.2804  0.7467 -0.1713
14292SOL    HW145831   6.281   0.163   3.837  0.3044 -0.7092 -0.2744
14292SOL    HW245832   6.354   0.152   3.969 -0.4474  0.1960  0.2264
14293SOL     OW45833   8.342   8.900   4.301  0.5223 -0.3984  0.0798
14293SOL    HW145834   8.397   8.822   4.298  1.1290 -0.0023  0.6596
14293SOL    HW245835   8.401   8.973   4.279  0.0170 -0.0672 -0.2249
14294SOL     OW45836   2.930   7.032   0.725  0.0821 -0.3800  0.0789
14294SOL    HW145837   2.962   7.101   0.666 -0.5790 -0.5970 -0.5531
14294SOL    HW245838   2.864   7.075   0.778  0.7249 -0.1679  0.7212
14295SOL     OW45839   6.618   7.111   3.463 -0.3547  0.4266  0.2011
14295SOL    HW145840   6.551   7.127   3.530 -0.2393  1.3257  0.1131
14295SOL    HW245841   6.574   7.131   3.380 -0.5067 -0.7133 -0.0062
14296SOL     OW45842   5.870   2.595   5.708  0.6135  0.3021 -0.3464
14296SOL    HW145843   5.958   2.568   5.682  0.0935 -0.6452 -1.2327
14296SOL    HW245844   5.825   2.512   5.727  0.3755  0.8552  1.7153
14297SOL     OW45845   8.401   0.537   7.207 -0.0724 -0.0762 -0.3177
14297SOL    HW145846   8.456   0.612   7.185  0.7052 -0.0636  1.4820
14297SOL    HW245847   8.375   0.553   7.298 -1.7132 -0.9123 -0.5960
14298SOL     OW45848   4.412   8.216   1.067  0.0949  0.2220 -0.3552
14298SOL    HW145849   4.431   8.303   1.102 -0.0207 -0.1867  0.7680
14298SOL    HW245850   4.373   8.169   1.141  1.7385 -1.3295 -0.4129
14299SOL     OW45851   1.564   3.694   9.435 -0.3161  0.1999  0.2974
14299SOL    HW145852   1.615   3.728   9.361 -0.4447 -0.0142  0.1084
14299SOL    HW245853   1.564   3.766   9.499 -0.0798  0.3319  0.1510
14300SOL     OW45854   0.854   7.766   3.117 -0.0725 -0.0905 -0.0783
14300SOL    HW145855   0.782   7.813   3.161 -0.3310  0.2846 -0.8875
14300SOL    HW245856   0.849   7.795   3.026  0.8050 -0.4408 -0.2407
14301SOL     OW45857   9.451   6.832   5.324 -0.4797 -0.0836 -0.0824
14301SOL    HW145858   9.521   6.780   5.364 -0.7518 -0.5631 -0.2142
14301SOL    HW245859   9.402   6.867   5.398  1.1814  2.0900  0.0693
14302SOL     OW45860   9.504   5.780   1.908  0.3425  0.1304 -0.1187
14302SOL    HW145861   9.573   5.820   1.854  1.1176 -2.5513 -1.2427
14302SOL    HW245862   9.533   5.794   1.998  1.7168  0.1448 -0.5472
14303SOL     OW45863   4.869   5.957   7.612 -0.1562 -0.1214 -0.0118
14303SOL    HW145864   4.944   5.959   7.553  0.8480  1.2675  1.2352
14303SOL    HW245865   4.832   5.870   7.600  1.7549 -0.9252 -0.5613
14304SOL     OW45866   7.819   8.228   8.641  0.2866  0.2767 -0.0721
14304SOL    HW145867   7.876   8.187   8.705 -0.3689 -0.9341 -0.2230
14304SOL    HW245868   7.731   8.203   8.668  0.0229 -0.8970 -1.8174
14305SOL     OW45869   1.910   4.018   3.308  0.1500 -0.0590 -0.4024
14305SOL    HW145870   1.992   4.060   3.283 -0.2782  1.2701  0.3426
14305SOL    HW245871   1.846   4.052   3.246 -0.0529 -0.2457 -0.2962
14306SOL     OW45872   1.334   7.142  10.359 -0.8367 -0.0169  0.3819
14306SOL    HW145873   1.394   7.155  10.432  0.4565 -0.1513 -0.6233
14306SOL    HW245874   1.303   7.052  10.368  0.3898 -0.4988  0.0250
14307SOL     OW45875   6.455   5.676   4.277  0.1452  0.1737  0.4637
14307SOL    HW145876   6.540   5.652   4.313  1.4357  0.0894 -2.3425
14307SOL    HW245877   6.470   5.760   4.233 -0.3707 -1.1292 -2.4747
14308SOL     OW45878   1.973   9.434   4.533 -0.8656  0.1323 -0.9185
14308SOL    HW145879   2.036   9.385   4.480 -1.7775 -1.5053 -0.5631
14308SOL    HW245880   1.950   9.374   4.604 -1.7386  1.2484 -0.2238
14309SOL     OW45881   6.748   9.108   7.481 -0.1777 -0.5117 -0.1181
14309SOL    HW145882   6.796   9.085   7.560 -0.0370 -0.6356 -0.2398
14309SOL    HW245883   6.663   9.139   7.513  0.2757  0.5207  0.1589
14310SOL     OW45884   2.284  10.159   6.608 -0.3362 -0.3359 -0.4756
14310SOL    HW145885   2.349  10.088   6.610 -1.2830 -1.2042  0.4049
14310SOL    HW245886   2.321  10.223   6.547  2.2406  0.0737  1.3518
14311SOL     OW45887   0.304   7.289   5.704  0.1652  0.0330  0.7486
14311SOL    HW145888   0.281   7.338   5.783  3.9691 -0.6223  2.4864
14311SOL    HW245889   0.272   7.200   5.721 -1.9234  0.5791 -0.0121
14312SOL     OW45890   3.224   3.749   9.117  0.1658  0.1107 -0.8762
14312SOL    HW145891   3.273   3.715   9.042  0.1956  0.6647 -1.1163
14312SOL    HW245892   3.288   3.755   9.188  0.5692  1.2604 -1.3168
14313SOL     OW45893   0.403   7.154   3.863  0.4514  0.5277  0.1465
14313SOL    HW145894   0.472   7.203   3.817 -0.1052  1.8785  0.6756
14313SOL    HW245895   0.399   7.195   3.950 -1.3224  0.8090 -0.0274
14314SOL     OW45896   1.725   8.557   2.742 -0.0827  0.7213  0.4202
14314SOL    HW145897   1.637   8.523   2.729  0.0697  0.0267  1.1179
14314SOL    HW245898   1.728   8.638   2.690 -0.4569 -0.2897 -1.2507
14315SOL     OW45899   8.871   2.822  10.643 -0.0049  0.2479 -0.4255
14315SOL    HW145900   8.795   2.813  10.586 -0.7609 -0.0758  0.6139
14315SOL    HW245901   8.894   2.915  10.637 -0.0254  0.2124 -1.2835
14316SOL     OW45902   5.024   3.964   3.876 -0.0848 -0.2712  0.0295
14316SOL    HW145903   5.020   3.966   3.971  1.9793 -1.1686  0.1960
14316SOL    HW245904   5.099   3.906   3.856  0.1864  0.7085 -2.0999
14317SOL     OW45905   7.393   6.717   9.369  0.3216 -0.0461 -0.7601
14317SOL    HW145906   7.485   6.728   9.346 -0.0912  0.1684 -2.5280
14317SOL    HW245907   7.362   6.806   9.387  0.2058  0.0368 -1.3342
14318SOL     OW45908  10.681   9.818  10.338 -0.2076  0.9775 -0.2086
14318SOL    HW145909  10.615   9.848  10.274 -0.5896  0.0488 -0.2619
14318SOL    HW245910  10.748   9.775  10.286 -0.8198 -0.3257  0.0503
14319SOL     OW45911   0.607   9.999  10.283 -0.2271 -1.0476 -0.1771
14319SOL    HW145912   0.571  10.074  10.236  0.3874  0.0552  1.0545
14319SOL    HW245913   0.695  10.026  10.308  0.3247 -2.5232 -0.4352
14320SOL     OW45914   7.493   6.931   9.963  0.0174  0.2209  0.9116
14320SOL    HW145915   7.539   7.009   9.994  1.3578 -0.5938  1.0990
14320SOL    HW245916   7.555   6.889   9.903 -0.5301 -0.8710  1.0779
14321SOL     OW45917   2.466   0.038   7.859 -0.5432  0.3086 -0.5929
14321SOL    HW145918   2.492  -0.050   7.833 -1.7981  0.2818 -1.8979
14321SOL    HW245919   2.440   0.080   7.777 -1.7514  1.2677  0.2532
14322SOL     OW45920   1.277   8.712   5.453  0.3731  0.4240 -0.6146
14322SOL    HW145921   1.246   8.755   5.532  2.4222 -0.4528  0.7576
14322SOL    HW245922   1.336   8.775   5.412  0.4039  0.3601 -0.6703
14323SOL     OW45923   1.965   2.120   2.876  0.1987  0.3410 -0.4318
14323SOL    HW145924   1.870   2.134   2.877  0.4677  2.8999  1.6212
14323SOL    HW245925   1.985   2.086   2.963  1.1908  0.1119 -0.7386
14324SOL     OW45926   0.584  10.269   6.078  0.0479 -0.2155 -0.0440
14324SOL    HW145927   0.521  10.227   6.019  0.5555 -1.1621  0.0620
14324SOL    HW245928   0.570  10.363   6.066 -0.6638 -0.4076 -0.7909
14325SOL     OW45929   9.534  10.389   4.292  0.2336 -0.0701 -0.2676
14325SOL    HW145930   9.574  10.466   4.332 -0.1718  0.2874 -0.5526
14325SOL    HW245931   9.578  10.380   4.208  0.5712 -0.3961 -0.0612
14326SOL     OW45932   0.095   8.888   8.180  0.3908 -0.1855  0.0397
14326SOL    HW145933   0.115   8.919   8.268  0.4006  2.7039 -0.8923
14326SOL    HW245934   0.001   8.868   8.183  0.5338 -0.8338  0.8433
14327SOL     OW45935   7.214   5.901   6.455 -0.1528  0.0156  0.3917
14327SOL    HW145936   7.122   5.895   6.478 -0.1011  0.0963  0.6256
14327SOL    HW245937   7.261   5.874   6.534  0.0475  1.8006  0.9319
14328SOL     OW45938   4.599   1.610   0.118 -0.3232  0.9194 -0.4426
14328SOL    HW145939   4.656   1.659   0.176  1.7655 -1.2730 -0.4748
14328SOL    HW245940   4.624   1.518   0.132 -3.6084 -0.1617 -0.7651
14329SOL     OW45941   8.562   7.323   2.409 -0.0739 -0.9439 -0.1675
14329SOL    HW145942   8.528   7.365   2.330 -1.2877  4.3708  2.6769
14329SOL    HW245943   8.657   7.325   2.398  0.0086  3.1506 -0.2893
14330SOL     OW45944   1.375   9.522   9.255  0.4014  0.0072 -0.1688
14330SOL    HW145945   1.406   9.560   9.173 -0.9320 -0.5780 -0.9699
14330SOL    HW245946   1.450   9.531   9.315  1.5059  0.1622 -1.5132
14331SOL     OW45947   7.027   8.697   8.190  0.3604 -0.2638 -0.2590
14331SOL    HW145948   6.956   8.704   8.253 -0.2782 -0.0600 -0.9820
14331SOL    HW245949   7.009   8.616   8.142 -0.0590  0.3812 -1.2343
14332SOL     OW45950   8.796   6.709   9.257 -0.3419  0.2872  0.1429
14332SOL    HW145951   8.889   6.722   9.270 -0.5444 -0.0146  2.1096
14332SOL    HW245952   8.754   6.777   9.309 -1.2341 -0.3699  0.3169
14333SOL     OW45953   5.333   8.015   2.550 -0.1883  0.2598 -0.0921
14333SOL    HW145954   5.325   8.040   2.642 -2.3604  0.7733 -0.3591
14333SOL    HW245955   5.323   8.098   2.502 -1.1825 -0.2665 -0.8284
14334SOL     OW45956   3.177  10.275   0.112  0.7910  0.1692  0.0131
14334SOL    HW145957   3.128  10.280   0.030  2.3099  1.8891 -0.8562
14334SOL    HW245958   3.110  10.282   0.181 -0.4589 -0.8666 -1.0491
14335SOL     OW45959   0.393   8.503   4.500 -0.1835  0.2217 -0.3240
14335SOL    HW145960   0.403   8.505   4.596 -0.5540  0.2886 -0.2830
14335SOL    HW245961   0.436   8.422   4.473  1.4653  1.0474 -0.2996
14336SOL     OW45962   7.567   8.632   1.174 -0.4436  0.4369 -0.3416
14336SOL    HW145963   7.586   8.723   1.194 -0.0221  0.2939 -0.0642
14336SOL    HW245964   7.476   8.619   1.200 -0.3007  0.6006  0.2485
14337SOL     OW45965   1.872   0.695   3.186  0.0353  0.1041  0.6387
14337SOL    HW145966   1.938   0.763   3.199  1.0202 -0.7620  0.2307
14337SOL    HW245967   1.800   0.720   3.244  0.0992  1.8494  0.0250
14338SOL     OW45968   1.904  10.288   7.342  0.1741 -0.0380 -0.4856
14338SOL    HW145969   1.835  10.256   7.400  0.1480  1.6824  0.4881
14338SOL    HW245970   1.986  10.265   7.387  0.1672  0.5164 -0.1785
14339SOL     OW45971   3.176   0.827   4.467  0.2053  0.4389 -0.0724
14339SOL    HW145972   3.140   0.816   4.379 -4.1001 -0.2400  1.5366
14339SOL    HW245973   3.201   0.739   4.494 -1.3438  0.0895  0.3562
14340SOL     OW45974   5.951   2.895   5.498  0.0990 -0.0908  0.6179
14340SOL    HW145975   6.017   2.830   5.524  0.1200 -0.2784  0.1097
14340SOL    HW245976   5.964   2.967   5.559 -0.4314 -0.8751  1.6914
14341SOL     OW45977   3.139   7.689   2.397  0.1916  0.6657 -0.0180
14341SOL    HW145978   3.095   7.630   2.458  1.2393 -0.5328 -0.3655
14341SOL    HW245979   3.069   7.721   2.340 -0.8194  1.8479  1.7806
14342SOL     OW45980   8.571   2.291   3.267 -0.0593 -0.1503  0.3309
14342SOL    HW145981   8.664   2.313   3.258 -0.4373  2.0972  1.1262
14342SOL    HW245982   8.556   2.220   3.204  1.5477  1.4169 -1.9724
14343SOL     OW45983   3.118   0.337   4.539 -0.5282  0.5120 -0.2216
14343SOL    HW145984   3.041   0.281   4.535  0.0557 -0.3309  0.1378
14343SOL    HW245985   3.165   0.309   4.617 -0.1733  1.4482 -0.0744
14344SOL     OW45986   5.520   7.326   5.692 -0.1139 -0.5130  0.2855
14344SOL    HW145987   5.496   7.257   5.754 -2.4269 -0.7154 -0.7219
14344SOL    HW245988   5.567   7.280   5.622 -0.9305 -0.9587  0.0158
14345SOL     OW45989   5.650   3.501   3.313  0.2767 -0.0065  0.4949
14345SOL    HW145990   5.653   3.406   3.303 -1.1311 -0.0269  0.0707
14345SOL    HW245991   5.655   3.535   3.224  3.0437  0.4592  0.7220
14346SOL     OW45992   8.564   1.122   6.068  0.5599 -0.1584 -0.5738
14346SOL    HW145993   8.645   1.079   6.096 -0.5975 -2.3128 -0.3316
14346SOL    HW245994   8.494   1.073   6.111 -0.9583  0.6298 -2.0152
14347SOL     OW45995   6.837   6.515   6.681 -0.5696  0.3418  0.2406
14347SOL    HW145996   6.920   6.533   6.636 -1.0655 -0.6223 -1.1276
14347SOL    HW245997   6.770   6.530   6.614 -1.2494 -2.5159  0.1433
14348SOL     OW45998   3.904   1.998   5.244 -0.5114 -0.4871  0.5001
14348SOL    HW145999   3.904   1.954   5.329 -0.0656 -1.0761  0.2072
14348SOL    HW246000   3.901   2.091   5.264  0.6676 -0.5859  1.1918
14349SOL     OW46001   6.476   2.238   3.395  0.4538 -0.2482  0.1662
14349SOL    HW146002   6.569   2.230   3.419  0.5072  0.7825  0.3630
14349SOL    HW246003   6.478   2.284   3.311  0.1023  0.3828  0.5003
14350SOL     OW46004   3.742   8.645   5.039  0.2130  0.1852 -0.4711
14350SOL    HW146005   3.838   8.638   5.041  0.1934 -0.0188 -0.1823
14350SOL    HW246006   3.711   8.555   5.046  0.0062  0.1285 -1.8709
14351SOL     OW46007   7.689   4.932   2.374 -0.2063 -0.0917  0.6965
14351SOL    HW146008   7.636   4.878   2.432 -0.3645  0.0031  0.6426
14351SOL    HW246009   7.626   4.992   2.334 -0.8848 -2.6816 -2.6020
14352SOL     OW46010  10.227   7.342   0.536 -0.5179 -0.3840  0.8570
14352SOL    HW146011  10.200   7.329   0.445  0.5143  0.3299  0.4302
14352SOL    HW246012  10.210   7.435   0.552  2.4789  0.3760  0.2388
14353SOL     OW46013   8.818   8.231   2.829 -0.1166  0.1595 -0.3436
14353SOL    HW146014   8.832   8.185   2.746 -1.9350 -1.1276 -0.0008
14353SOL    HW246015   8.777   8.166   2.886 -1.1531  1.7054  0.7592
14354SOL     OW46016   3.718   8.663   4.311 -0.1476  0.0903 -0.3077
14354SOL    HW146017   3.803   8.619   4.317  0.0850  0.4755 -0.6966
14354SOL    HW246018   3.732   8.734   4.249 -0.4111  0.9520  0.5894
14355SOL     OW46019   0.460   3.432   9.743 -0.1015  0.5938 -0.0558
14355SOL    HW146020   0.420   3.487   9.810  2.0550  1.4747  0.5746
14355SOL    HW246021   0.461   3.486   9.665  1.6189  1.3618  0.4528
14356SOL     OW46022   0.762   0.004   2.644  0.8148  0.2345 -0.7942
14356SOL    HW146023   0.695   0.069   2.624  0.1391 -0.0461  0.4674
14356SOL    HW246024   0.743  -0.024   2.733  1.0759 -1.7071 -1.2963
14357SOL     OW46025   1.608   2.854   7.164  0.3502  0.0634 -0.4532
14357SOL    HW146026   1.609   2.777   7.108  1.1740 -0.0076 -0.3443
14357SOL    HW246027   1.700   2.874   7.180  0.1353  0.2492  0.6468
14358SOL     OW46028   8.887   0.893   1.399 -0.4125  0.2859 -0.0113
14358SOL    HW146029   8.931   0.850   1.326  2.0965  0.4447  1.3062
14358SOL    HW246030   8.885   0.986   1.375 -0.1066  0.2612 -0.1352
14359SOL     OW46031   7.698  10.236   9.997  0.6449 -0.4865  0.3727
14359SOL    HW146032   7.659  10.193  10.074  1.0204 -1.4175  0.0641
14359SOL    HW246033   7.788  10.253  10.023  0.2459  1.0650  0.8496
14360SOL     OW46034   3.711   6.651   3.072 -0.0858  0.3915 -0.3119
14360SOL    HW146035   3.627   6.605   3.069 -1.7832  3.3341 -1.6522
14360SOL    HW246036   3.753   6.629   2.989 -0.6542  0.8628 -0.7270
14361SOL     OW46037   4.462   2.208   0.001  0.4091 -0.1046  0.0149
14361SOL    HW146038   4.546   2.248   0.025  1.0309  0.2932 -2.5226
14361SOL    HW246039   4.473   2.115   0.021  1.2849  0.0118  0.1462
14362SOL     OW46040   7.738   1.864   2.113 -0.1195 -0.3425 -0.7683
14362SOL    HW146041   7.775   1.812   2.184 -0.4362 -0.1661 -0.4700
14362SOL    HW246042   7.786   1.836   2.035  2.1971  1.4249 -0.0923
14363SOL     OW46043   9.371   7.915   0.738 -0.4468  0.5417 -0.3479
14363SOL    HW146044   9.391   7.978   0.807 -0.6638  1.6461 -1.2837
14363SOL    HW246045   9.456   7.896   0.698 -0.2241 -0.5853  0.6054
14364SOL     OW46046   6.538  10.313   4.823  0.6382 -0.0364  0.4906
14364SOL    HW146047   6.533  10.342   4.732  0.7345 -0.0231  0.4893
14364SOL    HW246048   6.472  10.365   4.868 -0.5890 -1.2066  0.1255
14365SOL     OW46049   9.613   7.134   9.615 -0.2006  0.0272  0.3198
14365SOL    HW146050   9.654   7.051   9.589 -1.3572 -0.2134 -0.8174
14365SOL    HW246051   9.659   7.200   9.563 -2.2239 -0.4081 -2.2305
14366SOL     OW46052   1.968   4.722   3.601 -0.5078  0.1814  0.0905
14366SOL    HW146053   2.058   4.745   3.628 -0.8196 -1.0131  2.4297
14366SOL    HW246054   1.977   4.638   3.558 -0.7111 -1.5989  3.1856
14367SOL     OW46055   6.245   4.606   8.913 -0.5605 -0.4644 -0.2532
14367SOL    HW146056   6.171   4.667   8.914 -1.4979 -1.4532  2.4791
14367SOL    HW246057   6.321   4.659   8.890 -1.6514  1.2616 -0.0195
14368SOL     OW46058   5.866   1.468   2.842  0.2548  0.2212  0.3248
14368SOL    HW146059   5.855   1.562   2.857  1.2860  0.7655 -1.8025
14368SOL    HW246060   5.942   1.443   2.895 -0.4116  0.4181  1.3938
14369SOL     OW46061   1.478   3.405   1.944 -0.4877 -0.6860 -0.0729
14369SOL    HW146062   1.535   3.330   1.928 -0.0727 -0.2825 -0.5147
14369SOL    HW246063   1.463   3.403   2.039 -1.3885 -1.9661 -0.2141
14370SOL     OW46064   2.452   1.558   2.779  0.2861  0.1680 -0.7652
14370SOL    HW146065   2.441   1.530   2.870  3.1944  0.9364 -0.0580
14370SOL    HW246066   2.365   1.584   2.751 -0.4320  1.9689  2.5505
14371SOL     OW46067  10.312   1.833   3.021  0.0739 -0.1407 -0.6483
14371SOL    HW146068  10.291   1.911   2.969  0.4159 -0.1604 -0.8130
14371SOL    HW246069  10.402   1.813   2.999  0.9315  1.0659  1.4653
14372SOL     OW46070   4.498   3.629  10.055 -0.2811 -0.0304  0.2153
14372SOL    HW146071   4.420   3.684  10.062  1.1375  2.1996 -0.3413
14372SOL    HW246072   4.505   3.586  10.141 -1.4522  0.6793  0.6923
14373SOL     OW46073   5.126   8.400   8.446  0.4115  0.0651  0.5050
14373SOL    HW146074   5.178   8.442   8.378  0.5826 -0.7631  0.1044
14373SOL    HW246075   5.081   8.471   8.490  1.0109  0.6952  0.1171
14374SOL     OW46076   2.402   3.405   9.124 -0.0829  0.1658  0.0346
14374SOL    HW146077   2.485   3.394   9.077 -0.1484 -0.2610  0.0210
14374SOL    HW246078   2.365   3.486   9.088  1.4395  1.6934  1.7003
14375SOL     OW46079   5.249   2.193   1.200 -0.1511  0.0632 -0.1945
14375SOL    HW146080   5.262   2.288   1.200  1.7873 -0.1345 -1.9959
14375SOL    HW246081   5.178   2.179   1.262  0.6912  2.5245  1.4891
14376SOL     OW46082   3.912   6.217   4.227  0.3577 -0.3139 -0.1621
14376SOL    HW146083   3.987   6.245   4.280  1.8317 -0.5870 -1.9885
14376SOL    HW246084   3.946   6.213   4.138 -1.8774 -0.3952 -1.0801
14377SOL     OW46085   7.043   3.261   2.715 -0.9406  0.2529  0.0835
14377SOL    HW146086   7.051   3.313   2.795  0.0065  0.0298  0.1444
14377SOL    HW246087   7.091   3.181   2.734 -2.4659 -0.7022  0.0202
14378SOL     OW46088  10.192   4.886   9.711 -0.5449 -0.3084  0.3928
14378SOL    HW146089  10.188   4.980   9.694 -2.1401 -0.5978 -1.1233
14378SOL    HW246090  10.224   4.848   9.629  2.5088 -0.9588  1.7583
14379SOL     OW46091   2.250   8.343   6.128  0.5704 -0.0636 -0.2395
14379SOL    HW146092   2.337   8.372   6.152 -0.1292  0.2806  2.1722
14379SOL    HW246093   2.235   8.379   6.041  2.3393  0.9508 -0.1602
14380SOL     OW46094   3.240   7.583   8.334  0.1701 -0.0172 -0.6311
14380SOL    HW146095   3.202   7.509   8.285 -0.0962  0.3209 -0.9393
14380SOL    HW246096   3.299   7.542   8.397 -1.7177 -0.6632  0.8101
14381SOL     OW46097   3.323   4.703   3.292  0.4121  0.2751 -0.7456
14381SOL    HW146098   3.280   4.740   3.215  0.7212  0.4171 -0.8538
14381SOL    HW246099   3.416   4.726   3.281  0.6787 -0.8311 -0.9996
14382SOL     OW46100   4.223   3.761   9.017  0.0526  0.2128 -0.1972
14382SOL    HW146101   4.228   3.783   8.924  1.0472  2.1818  0.2545
14382SOL    HW246102   4.296   3.701   9.032  1.6675  2.0522 -0.2306
14383SOL     OW46103   5.535   5.652   6.857  0.4265  0.0680  0.2515
14383SOL    HW146104   5.561   5.560   6.852 -0.8255 -0.2738 -0.2151
14383SOL    HW246105   5.569   5.691   6.777 -0.4679 -0.3847 -0.3705
14384SOL     OW46106   9.945   0.848   3.187 -0.1906 -0.3317  0.6569
14384SOL    HW146107   9.878   0.874   3.123  0.0894 -2.0933 -0.4292
14384SOL    HW246108   9.929   0.904   3.263 -1.3614  0.9352 -0.4729
14385SOL     OW46109   1.995   9.338   7.388 -0.0921 -0.0135 -0.1793
14385SOL    HW146110   2.078   9.322   7.342  0.2286  1.0736 -0.0073
14385SOL    HW246111   2.013   9.414   7.444 -1.9150  1.9294 -2.0392
14386SOL     OW46112   7.256   4.491   3.389 -0.2808  0.5096 -0.0987
14386SOL    HW146113   7.330   4.536   3.430 -1.0680  0.7316  1.1331
14386SOL    HW246114   7.295   4.414   3.347  0.5057 -0.0962  1.6419
14387SOL     OW46115   3.849   8.507   8.263  0.2216 -0.2808 -0.3166
14387SOL    HW146116   3.756   8.499   8.283  0.3358 -0.5982  0.1017
14387SOL    HW246117   3.886   8.549   8.341  0.5280 -0.7124 -0.2277
14388SOL     OW46118   4.151   5.636   4.279 -0.1132 -0.0766  0.3104
14388SOL    HW146119   4.088   5.679   4.222  0.0523  0.5193  0.5663
14388SOL    HW246120   4.116   5.548   4.293 -0.2460 -0.1635 -0.5506
14389SOL     OW46121   0.667   7.359   0.972 -0.1056 -0.0124 -0.2755
14389SOL    HW146122   0.748   7.311   0.989  0.0678  0.4140  0.1240
14389SOL    HW246123   0.598   7.303   1.006 -0.1822 -1.2949 -2.3714
14390SOL     OW46124   3.516   0.469   0.313 -0.0959 -0.5768  0.3062
14390SOL    HW146125   3.575   0.395   0.325 -0.8456 -1.1713  0.4391
14390SOL    HW246126   3.445   0.435   0.258 -1.6767 -0.6836  2.2951
14391SOL     OW46127   3.311   5.282  10.633  0.3762  0.2443  0.0205
14391SOL    HW146128   3.343   5.369  10.610  1.4000  0.2704  1.3936
14391SOL    HW246129   3.390   5.230  10.646 -0.2198 -0.8024 -0.4234
14392SOL     OW46130   1.854   9.443   1.456 -0.5868  0.2939  0.7440
14392SOL    HW146131   1.817   9.379   1.516  1.6741 -1.8214  0.0411
14392SOL    HW246132   1.921   9.488   1.507 -1.6367  1.6417  1.0024
14393SOL     OW46133   7.578   0.666   1.829  0.5144 -0.2507 -0.5506
14393SOL    HW146134   7.535   0.663   1.915 -1.1781  1.7055 -1.2255
14393SOL    HW246135   7.669   0.644   1.847  0.3904  0.8703  1.9085
14394SOL     OW46136   7.551   5.083   1.757 -0.5681 -0.2071 -0.1676
14394SOL    HW146137   7.606   5.069   1.680 -0.2526  0.9860 -0.1703
14394SOL    HW246138   7.612   5.115   1.824 -1.3990  2.1985 -0.4915
14395SOL     OW46139   8.376  10.387   0.688  0.1450  0.3600  0.0073
14395SOL    HW146140   8.302  10.433   0.648 -1.1911 -0.6736  1.1789
14395SOL    HW246141   8.413  10.452   0.748 -1.0764  0.2974  0.8787
14396SOL     OW46142   8.883   7.148   7.552  0.0798 -0.4573 -0.6459
14396SOL    HW146143   8.914   7.233   7.583  0.1062  0.8114 -3.8351
14396SOL    HW246144   8.855   7.102   7.632  0.7439  2.2285  1.2519
14397SOL     OW46145   0.687   9.348   6.057 -0.2139  0.1506  0.1977
14397SOL    HW146146   0.626   9.312   5.994 -0.3767 -0.2494  0.5776
14397SOL    HW246147   0.758   9.384   6.004  0.5238 -1.7371 -0.1893
14398SOL     OW46148   7.678   8.754   5.529  0.1917  0.4070 -0.3124
14398SOL    HW146149   7.587   8.723   5.527  0.7021 -1.1522 -0.2078
14398SOL    HW246150   7.692   8.792   5.442 -0.8411  1.5380 -0.0088
14399SOL     OW46151  10.326   2.499   2.636 -0.2475 -0.4070 -0.2271
14399SOL    HW146152  10.260   2.495   2.706  0.4882 -2.3346  0.4319
14399SOL    HW246153  10.348   2.592   2.630 -1.5296  0.0203  0.9631
14400SOL     OW46154   2.769   9.036   2.561  0.4649 -0.1340  0.0105
14400SOL    HW146155   2.727   9.041   2.475 -0.5581 -0.5143  0.4821
14400SOL    HW246156   2.861   9.055   2.543  0.1970  0.1785 -1.1123
14401SOL     OW46157   5.704   7.963   7.440 -0.2807 -0.6931  0.1834
14401SOL    HW146158   5.643   8.000   7.505 -1.6738 -3.2059  0.4296
14401SOL    HW246159   5.650   7.905   7.386  1.7979 -2.7896  0.1822
14402SOL     OW46160   2.763   0.373   9.609 -0.6065 -0.1001 -0.1849
14402SOL    HW146161   2.835   0.354   9.669 -0.2346  0.8774 -0.3061
14402SOL    HW246162   2.689   0.322   9.643  0.3255 -1.7256 -0.4914
14403SOL     OW46163   5.806   5.223  10.389 -0.0298  0.4771 -0.2005
14403SOL    HW146164   5.865   5.298  10.393  0.5073  0.0258  1.5149
14403SOL    HW246165   5.732   5.248  10.444  0.2807 -0.3258  0.6077
14404SOL     OW46166  10.195   9.702   7.335  0.9526  0.0352  0.3073
14404SOL    HW146167  10.199   9.778   7.276  0.8459 -0.6004 -0.5421
14404SOL    HW246168  10.129   9.645   7.296  1.6701 -0.9042  0.4314
14405SOL     OW46169   3.520   1.567   7.785 -0.3978 -0.1843  0.7626
14405SOL    HW146170   3.587   1.604   7.843 -1.1565 -1.0232  2.2533
14405SOL    HW246171   3.546   1.595   7.697  0.7938  1.1694  1.4926
14406SOL     OW46172   1.698   3.634   7.547  0.3605 -0.0728 -0.3686
14406SOL    HW146173   1.702   3.707   7.609  2.7233  1.2866 -1.9368
14406SOL    HW246174   1.677   3.558   7.601 -2.6411  1.7483  1.2699
14407SOL     OW46175   7.213   5.318   2.274  0.6307  0.2041 -0.1216
14407SOL    HW146176   7.196   5.393   2.330  2.5698  0.2344  0.4698
14407SOL    HW246177   7.304   5.295   2.290  0.9648 -0.4337 -2.4983
14408SOL     OW46178   1.111   1.973   5.877  0.0482  0.3043  0.0402
14408SOL    HW146179   1.092   1.982   5.784 -0.7867 -0.5360  0.1194
14408SOL    HW246180   1.205   1.960   5.881 -0.0277 -0.5865 -0.7608
14409SOL     OW46181   1.730   1.939   1.724 -0.2289  0.5568 -0.5585
14409SOL    HW146182   1.651   1.891   1.697  0.0050  0.8486 -1.8451
14409SOL    HW246183   1.803   1.885   1.694  0.1997 -0.9949  2.8297
14410SOL     OW46184   6.599   1.107   4.873  0.3906 -0.0226 -0.1792
14410SOL    HW146185   6.615   1.048   4.947 -0.2504 -0.7769 -0.6293
14410SOL    HW246186   6.631   1.060   4.796  1.1328  0.7949 -0.3874
14411SOL     OW46187   5.964   1.799   8.937 -0.2539 -0.1009 -0.1868
14411SOL    HW146188   5.881   1.800   8.985  0.2515  0.5737  0.7111
14411SOL    HW246189   5.992   1.891   8.935 -0.1708 -0.1280 -1.6518
14412SOL     OW46190   1.535   2.853   3.832 -0.1582  0.2434 -0.4431
14412SOL    HW146191   1.623   2.875   3.864  0.7291  0.4444 -2.7934
14412SOL    HW246192   1.481   2.927   3.859  0.9050  1.2024 -0.8327
14413SOL     OW46193   8.965   5.455   0.518  0.1380 -0.0272 -0.7499
14413SOL    HW146194   9.016   5.530   0.489  2.4091 -1.3102 -0.3573
14413SOL    HW246195   8.902   5.491   0.580  1.0892  1.5653 -0.6505
14414SOL     OW46196   6.354   7.044   9.349 -0.2192 -0.4985 -0.0046
14414SOL    HW146197   6.323   7.020   9.437  0.8609  0.9359  0.8087
14414SOL    HW246198   6.408   6.969   9.322  0.0840 -0.6258  0.9003
14415SOL     OW46199   3.533   7.684   1.180  0.2675 -0.1426 -0.0205
14415SOL    HW146200   3.474   7.649   1.247  0.7206  1.5035  1.3156
14415SOL    HW246201   3.554   7.772   1.210 -1.3548  1.6456 -3.5500
14416SOL     OW46202   0.706   9.786   0.855 -0.1237 -0.3489 -0.5792
14416SOL    HW146203   0.715   9.692   0.868 -0.5172 -0.0851  2.2802
14416SOL    HW246204   0.796   9.817   0.845  0.3698 -0.6809  2.1224
14417SOL     OW46205   5.648   5.388   6.860  0.5548 -0.3369  0.1343
14417SOL    HW146206   5.720   5.340   6.900  0.9163  0.0531 -0.0362
14417SOL    HW246207   5.633   5.343   6.777  1.7744  0.6018 -0.6452
14418SOL     OW46208   3.588   9.224   6.854  0.4919 -0.4745 -0.3552
14418SOL    HW146209   3.559   9.304   6.898  0.9062 -0.3994 -0.2143
14418SOL    HW246210   3.509   9.171   6.847 -0.1199  0.5701 -1.7984
14419SOL     OW46211   3.599   9.553   3.801 -0.9908 -0.4465 -0.5337
14419SOL    HW146212   3.662   9.554   3.873 -0.1636  0.9442 -1.2414
14419SOL    HW246213   3.652   9.549   3.722 -1.8853 -2.0089 -1.1143
14420SOL     OW46214   1.530   1.479   9.624  0.1645  0.6446  0.0834
14420SOL    HW146215   1.584   1.470   9.546  1.7923 -2.6305  1.3945
14420SOL    HW246216   1.576   1.545   9.677  0.2229  1.3356 -0.8189
14421SOL     OW46217   3.380   1.845   0.786 -0.0323  0.0734  0.0178
14421SOL    HW146218   3.316   1.779   0.814  1.1606 -0.9783  0.3926
14421SOL    HW246219   3.355   1.865   0.696 -0.9371 -0.2429  0.1791
14422SOL     OW46220  10.008   0.759   1.571  0.0580 -0.0454  0.1115
14422SOL    HW146221   9.945   0.802   1.513 -0.6220  1.5062  1.8815
14422SOL    HW246222  10.094   0.781   1.533 -0.3657  0.6649 -0.4720
14423SOL     OW46223   2.686   7.559   0.434 -0.1972  0.2676  0.0640
14423SOL    HW146224   2.609   7.505   0.453  0.4342 -0.4854  0.5416
14423SOL    HW246225   2.718   7.526   0.350  0.1796 -0.0873  0.3474
14424SOL     OW46226   1.562   7.544   3.238  0.7438 -0.1950 -0.4942
14424SOL    HW146227   1.625   7.541   3.166  0.1017  0.3561 -1.0958
14424SOL    HW246228   1.520   7.458   3.236  1.6812 -0.6909  0.1227
14425SOL     OW46229   8.644   8.156   6.077 -0.1751 -0.0579 -0.0921
14425SOL    HW146230   8.573   8.106   6.117  1.0181 -1.4257  0.4240
14425SOL    HW246231   8.621   8.162   5.985 -0.9525 -0.4795  0.0720
14426SOL     OW46232   1.247   4.541   2.595 -0.2277 -0.0369  0.6088
14426SOL    HW146233   1.314   4.560   2.661  0.9223 -2.0845  0.1307
14426SOL    HW246234   1.290   4.562   2.512  0.1721 -2.1084  0.2459
14427SOL     OW46235   6.315  10.359   7.269 -0.0138  0.6225  0.2312
14427SOL    HW146236   6.276  10.337   7.185  1.9855 -0.7356 -0.3907
14427SOL    HW246237   6.316  10.455   7.270 -1.6273  0.6795 -0.4963
14428SOL     OW46238   9.685   1.345   2.790 -0.1027  0.2328  0.3364
14428SOL    HW146239   9.736   1.410   2.839 -1.2740  0.5398  1.2012
14428SOL    HW246240   9.679   1.381   2.702  0.0453  0.8650  0.5751
14429SOL     OW46241   5.899   2.585   1.556  0.0537 -0.3235 -0.2161
14429SOL    HW146242   5.938   2.646   1.494 -2.8945  0.7915 -1.1598
14429SOL    HW246243   5.855   2.641   1.621  0.3881 -1.4765  1.0600
14430SOL     OW46244   0.543   2.680   7.609  0.0315  0.1462  0.5450
14430SOL    HW146245   0.637   2.691   7.601  0.0086  0.7303  0.9823
14430SOL    HW246246   0.529   2.657   7.701 -0.1726 -0.9227  0.2629
14431SOL     OW46247  10.496   4.446   0.073  0.6352 -0.0279 -0.6678
14431SOL    HW146248  10.449   4.488   0.145  1.7043  0.9477 -0.5107
14431SOL    HW246249  10.495   4.353   0.094  3.2511  0.4175  2.1006
14432SOL     OW46250   5.577   7.392   8.523  0.4501 -0.1523  0.6742
14432SOL    HW146251   5.625   7.391   8.440 -0.3204  0.3523  0.2112
14432SOL    HW246252   5.572   7.484   8.547 -1.5903 -0.0194 -0.0737
14433SOL     OW46253   3.454   8.726   8.523 -0.0474 -0.1078 -0.6740
14433SOL    HW146254   3.528   8.759   8.472  0.0898 -1.3514 -1.3170
14433SOL    HW246255   3.487   8.645   8.563 -0.0789  0.9446  1.6113
14434SOL     OW46256   7.721   3.653   1.612  0.2636  0.6729 -0.0930
14434SOL    HW146257   7.787   3.601   1.565 -0.1868  0.0928 -0.0962
14434SOL    HW246258   7.679   3.590   1.671 -0.5554  0.9521 -0.3700
14435SOL     OW46259  10.313   3.384   6.202  0.3208 -0.1256  0.4385
14435SOL    HW146260  10.341   3.339   6.123 -0.6199 -1.1837  0.6874
14435SOL    HW246261  10.254   3.452   6.171 -2.0067 -2.0559  0.3111
14436SOL     OW46262   6.957   7.105   1.890  0.7981 -0.3462  0.1145
14436SOL    HW146263   6.990   7.073   1.974  1.3011 -0.5250 -0.1486
14436SOL    HW246264   7.013   7.180   1.869  2.2029 -1.6799 -1.1612
14437SOL     OW46265   3.574   0.981   4.331  0.7845 -0.1195 -0.1118
14437SOL    HW146266   3.539   0.979   4.420 -0.1300 -2.7479 -0.4401
14437SOL    HW246267   3.666   1.003   4.342  0.2871  1.5666  1.2573
14438SOL     OW46268   2.731   8.192   4.327  0.2792 -0.2996  0.2866
14438SOL    HW146269   2.642   8.200   4.361  0.1024 -0.3132 -0.1652
14438SOL    HW246270   2.721   8.145   4.244  0.8729 -1.7960  1.0228
14439SOL     OW46271   5.784   0.823   0.151  0.0174 -0.1704  0.0845
14439SOL    HW146272   5.751   0.737   0.127 -0.7096 -0.1400  0.9501
14439SOL    HW246273   5.840   0.848   0.077  2.4964 -2.5400  0.9959
14440SOL     OW46274   4.397   4.029   0.763  0.5515  0.5816 -0.4779
14440SOL    HW146275   4.396   4.098   0.830 -0.0038 -1.1295  1.3803
14440SOL    HW246276   4.474   3.977   0.785 -0.8721 -1.3096  0.3045
14441SOL     OW46277   7.240   8.775   3.470  0.0902  0.3660  0.5520
14441SOL    HW146278   7.162   8.830   3.472  0.3022  0.7096 -0.3747
14441SOL    HW246279   7.269   8.776   3.379  0.0986 -1.2813  0.4974
14442SOL     OW46280   9.352   7.194   5.358  0.2425  0.1799 -0.3429
14442SOL    HW146281   9.446   7.189   5.376  0.5898  4.1434  0.0078
14442SOL    HW246282   9.313   7.214   5.444 -0.8379 -0.7193 -0.6117
14443SOL     OW46283   8.629   1.181   6.651 -0.5905  0.1400 -0.2366
14443SOL    HW146284   8.614   1.148   6.563 -0.9091  0.8555 -0.4588
14443SOL    HW246285   8.559   1.144   6.704 -1.1066  0.6750 -0.5406
14444SOL     OW46286   9.723   9.270   5.054  0.1605 -0.1290  0.4678
14444SOL    HW146287   9.730   9.317   5.137  2.6028 -0.6054  0.5987
14444SOL    HW246288   9.810   9.233   5.040 -0.2379 -0.2170 -2.2283
14445SOL     OW46289   8.293   1.785   3.185  0.3412  0.5159 -0.8578
14445SOL    HW146290   8.297   1.769   3.279  1.4586 -3.2483 -1.3895
14445SOL    HW246291   8.367   1.843   3.166  1.0191  0.0767  0.3798
14446SOL     OW46292   5.014   3.878   5.319  0.8260  0.2354 -0.1403
14446SOL    HW146293   5.010   3.887   5.415  2.9827  2.0856 -0.1495
14446SOL    HW246294   5.101   3.844   5.301  0.3020 -0.4831 -1.4682
14447SOL     OW46295   9.012   7.168   6.792 -0.1127  0.2256 -0.1499
14447SOL    HW146296   8.973   7.108   6.856 -1.0909 -0.8136 -1.6354
14447SOL    HW246297   8.937   7.203   6.744  0.5488  1.6182 -0.2066
14448SOL     OW46298   9.690  10.082   0.918 -0.5249  0.1104 -0.2489
14448SOL    HW146299   9.767  10.065   0.973 -0.2522  0.5385 -0.4974
14448SOL    HW246300   9.615  10.059   0.974 -0.2581  0.8115  0.4020
14449SOL     OW46301   5.169   4.397   9.794 -0.3017  0.3643 -0.3792
14449SOL    HW146302   5.143   4.460   9.860 -0.1930  1.2010 -1.1125
14449SOL    HW246303   5.127   4.315   9.820 -0.9864  0.9009  0.2193
14450SOL     OW46304   3.973   1.804  10.021 -0.7299  0.3319 -0.2875
14450SOL    HW146305   3.941   1.858  10.093 -0.0024 -1.4530  1.4830
14450SOL    HW246306   4.015   1.866   9.961 -1.5792  1.9069  0.6848
14451SOL     OW46307   2.071   0.687   1.626 -0.3570  0.3709 -0.1590
14451SOL    HW146308   2.053   0.617   1.689 -0.5961  0.0328 -0.5959
14451SOL    HW246309   2.047   0.649   1.542  1.6106  0.1878 -0.6926
14452SOL     OW46310   2.768   8.941   9.392  0.2019  0.0402  0.2453
14452SOL    HW146311   2.707   8.899   9.452 -1.3749  1.7313 -0.0932
14452SOL    HW246312   2.746   8.904   9.306 -0.0597  0.3052  0.1947
14453SOL     OW46313   5.662   4.063   5.331 -0.5795 -0.2225 -0.0092
14453SOL    HW146314   5.613   4.055   5.413  0.8995  1.2541  1.0849
14453SOL    HW246315   5.645   4.152   5.302  3.1236  1.2260  1.6587
14454SOL     OW46316   2.967   3.139   7.047  0.2120  0.7473 -0.0911
14454SOL    HW146317   2.989   3.086   7.123 -1.0623 -0.5739 -0.6012
14454SOL    HW246318   2.871   3.135   7.042  0.2554  0.9693 -1.6524
14455SOL     OW46319   0.979   5.240   5.073 -0.9987  0.5057 -0.0802
14455SOL    HW146320   0.982   5.205   5.162  0.2929  1.9827  0.5013
14455SOL    HW246321   0.888   5.262   5.059 -1.2826 -0.0770  0.7394
14456SOL     OW46322   9.354   1.647   5.650 -0.2452 -0.0688 -0.7806
14456SOL    HW146323   9.305   1.571   5.680 -1.5672  0.2402 -2.0666
14456SOL    HW246324   9.320   1.720   5.702 -1.1172  0.1318 -1.6169
14457SOL     OW46325   6.868  10.464   0.393 -0.5347 -0.3934  0.4260
14457SOL    HW146326   6.833  10.521   0.463  0.0961  0.2238  0.2522
14457SOL    HW246327   6.961  10.457   0.413 -0.4954 -0.8522  0.0794
14458SOL     OW46328   3.379   0.337   8.747  0.1094  0.1774  0.2950
14458SOL    HW146329   3.345   0.389   8.819 -1.2951  0.5714 -0.6053
14458SOL    HW246330   3.424   0.400   8.690 -1.3503  0.4263 -0.6517
14459SOL     OW46331   5.556   1.406   7.606 -0.1345 -0.1284  0.0874
14459SOL    HW146332   5.646   1.425   7.578  0.5652 -0.6307  1.8217
14459SOL    HW246333   5.502   1.467   7.558  1.2059  0.5624 -0.5933
14460SOL     OW46334   5.722   1.173  10.365  0.1934 -0.3918 -0.0336
14460SOL    HW146335   5.817   1.169  10.353  0.3415  1.1070  0.4154
14460SOL    HW246336   5.711   1.216  10.450 -0.8897  1.0355 -0.8616
14461SOL     OW46337   9.464   8.219   0.480 -0.1842  0.5636 -0.2830
14461SOL    HW146338   9.401   8.274   0.433 -1.2600  0.7698  1.3176
14461SOL    HW246339   9.490   8.272   0.555  0.0326 -0.4703  0.3808
14462SOL     OW46340   4.191   4.315   7.657  0.7277  0.8070 -0.3214
14462SOL    HW146341   4.129   4.244   7.642  1.7361 -0.1898  0.1294
14462SOL    HW246342   4.140   4.395   7.642 -0.4975  0.0045 -0.5427
14463SOL     OW46343   5.932   5.216   4.279 -0.5039 -0.3209 -0.8171
14463SOL    HW146344   5.848   5.224   4.233 -0.5152 -1.8459 -1.1100
14463SOL    HW246345   5.913   5.161   4.354  0.6354 -2.5644 -2.0828
14464SOL     OW46346   5.325   2.190  10.270  0.0362  0.0050 -0.3185
14464SOL    HW146347   5.250   2.134  10.250 -0.0149 -0.3960  0.9244
14464SOL    HW246348   5.390   2.131  10.308  0.5191  0.5535 -0.2750
14465SOL     OW46349   2.221   1.166   5.019 -0.1780 -0.1303  0.5805
14465SOL    HW146350   2.181   1.125   4.943 -0.1360 -2.4543  1.7122
14465SOL    HW246351   2.152   1.223   5.054 -1.2252 -1.2107  0.3809
14466SOL     OW46352   4.156   5.698   2.421  0.3157  0.8814  0.1175
14466SOL    HW146353   4.245   5.676   2.395 -0.4176 -0.8155 -1.1937
14466SOL    HW246354   4.159   5.791   2.445  2.4466  0.7997  0.3103
14467SOL     OW46355   0.723   4.478   8.045  0.3117  0.2885 -0.0185
14467SOL    HW146356   0.645   4.424   8.059 -1.1662  2.0354 -1.0554
14467SOL    HW246357   0.746   4.511   8.131 -1.3046  1.3072  0.0461
14468SOL     OW46358   3.525   6.096   6.956 -0.1327 -0.7416 -0.1945
14468SOL    HW146359   3.543   6.050   6.875  1.9600  2.3635 -1.7229
14468SOL    HW246360   3.499   6.184   6.928 -1.9694 -0.3051  2.5078
14469SOL     OW46361   7.396   5.269   8.776 -0.5765 -0.2931 -0.2963
14469SOL    HW146362   7.370   5.358   8.799 -0.6128 -0.2918 -0.3415
14469SOL    HW246363   7.479   5.279   8.730 -1.2666 -0.1608 -1.5547
14470SOL     OW46364   1.965   8.061   7.364  0.5004  0.1169  0.4147
14470SOL    HW146365   1.879   8.103   7.361  2.0309  3.4786 -0.1257
14470SOL    HW246366   1.964   8.000   7.290 -1.1307  0.6626 -0.0585
14471SOL     OW46367   7.493   8.222   2.428 -0.2949  0.5575  0.5163
14471SOL    HW146368   7.578   8.192   2.459 -1.1417 -0.8785  1.5355
14471SOL    HW246369   7.462   8.152   2.370 -1.0973  0.7009  0.7511
14472SOL     OW46370   4.464   5.716   3.965 -0.4786 -0.0846 -0.3901
14472SOL    HW146371   4.559   5.725   3.955 -0.7030  1.0670 -1.6551
14472SOL    HW246372   4.431   5.805   3.963 -1.5111 -0.3950  1.2060
14473SOL     OW46373   2.100   0.031   0.428 -0.3012  0.0982  0.2871
14473SOL    HW146374   2.048   0.050   0.350  0.7105 -1.5699 -0.8606
14473SOL    HW246375   2.129   0.117   0.459  1.7883  0.7746 -2.9808
14474SOL     OW46376   7.222   4.538   0.849  0.1301  0.0051  0.5130
14474SOL    HW146377   7.193   4.448   0.837  1.0718 -0.2924  0.4065
14474SOL    HW246378   7.156   4.591   0.804  1.6392 -0.8644 -3.0093
14475SOL     OW46379   1.327   6.231   2.942  0.3949  0.2913  0.6899
14475SOL    HW146380   1.388   6.295   2.979  0.4468 -0.1413  1.3666
14475SOL    HW246381   1.382   6.154   2.925  0.3731  0.4787 -0.3023
14476SOL     OW46382  10.286   8.789   5.708  0.0283 -0.1331 -0.0135
14476SOL    HW146383  10.277   8.884   5.708 -0.6319 -0.1797 -1.1011
14476SOL    HW246384  10.270   8.764   5.799  0.6265  0.8237  0.3672
14477SOL     OW46385   1.577   4.943   0.656  0.7038 -0.1263  0.1033
14477SOL    HW146386   1.610   5.019   0.608  0.9519 -0.4331 -0.2122
14477SOL    HW246387   1.564   4.876   0.590  0.9275 -0.5137  0.4468
14478SOL     OW46388   6.279   8.985   4.699  0.1211  0.4913  0.0610
14478SOL    HW146389   6.346   8.950   4.758  0.5579  0.4549 -0.4476
14478SOL    HW246390   6.328   9.011   4.621 -0.7433 -1.6800 -1.2730
14479SOL     OW46391   2.616   9.940   2.836 -0.2567 -0.2487  0.0240
14479SOL    HW146392   2.541   9.973   2.787  0.6000  2.5293  0.3838
14479SOL    HW246393   2.581   9.921   2.923 -0.6959  0.3872 -0.0035
14480SOL     OW46394   0.668   9.630   1.587  0.2725  0.0460  0.5594
14480SOL    HW146395   0.743   9.673   1.546  0.7135 -0.2630  1.0433
14480SOL    HW246396   0.706   9.565   1.645 -0.3672  0.0596  0.9979
14481SOL     OW46397   3.571   4.437   4.779  0.6881  0.3324  0.1516
14481SOL    HW146398   3.489   4.463   4.735  1.1380  1.6829  0.0497
14481SOL    HW246399   3.565   4.342   4.786 -2.2133  0.5386  2.7665
14482SOL     OW46400   2.011   6.127   1.587 -0.3009 -0.1922  0.1695
14482SOL    HW146401   2.053   6.212   1.573 -0.3461 -0.3511 -1.0983
14482SOL    HW246402   2.021   6.110   1.680  0.7548  0.6637  0.2361
14483SOL     OW46403   0.018   7.737   1.500  0.0013  0.6818 -0.4047
14483SOL    HW146404   0.072   7.662   1.524 -1.0210 -0.0884 -0.4362
14483SOL    HW246405  -0.043   7.703   1.434  0.5638  1.9423 -1.6452
14484SOL     OW46406   1.230   2.518   8.132 -0.0231  0.0698 -0.5778
14484SOL    HW146407   1.197   2.529   8.043  1.0250 -2.9615 -1.4857
14484SOL    HW246408   1.308   2.463   8.122 -0.4875 -1.3398  2.2867
14485SOL     OW46409   0.049   0.248   0.692  0.3731 -0.0182 -0.0990
14485SOL    HW146410   0.011   0.169   0.654  0.0722 -0.2085  0.5800
14485SOL    HW246411   0.084   0.220   0.776 -1.0524  0.8704  0.8157
14486SOL     OW46412   9.702   2.205   3.859  0.6676 -0.3563  0.1117
14486SOL    HW146413   9.744   2.132   3.814  0.9035 -0.5092  0.5629
14486SOL    HW246414   9.633   2.235   3.800  2.2683  0.7784 -1.2515
14487SOL     OW46415   4.948   7.223   2.313 -0.0624 -0.7974 -0.2470
14487SOL    HW146416   4.879   7.225   2.380 -0.7959 -1.4259 -0.9593
14487SOL    HW246417   4.917   7.284   2.245 -0.1070 -1.3723 -0.7466
14488SOL     OW46418   8.835   1.581   8.393  0.2195  0.1882 -0.5504
14488SOL    HW146419   8.912   1.547   8.346  0.0487 -0.9704 -0.0120
14488SOL    HW246420   8.868   1.656   8.442  0.9571 -0.1664 -0.4979
14489SOL     OW46421   2.612   5.967   4.498  0.0355  0.3543 -0.6272
14489SOL    HW146422   2.642   5.958   4.589 -0.0746 -1.7722 -0.7416
14489SOL    HW246423   2.605   6.061   4.484  0.0232  0.7344  1.5791
14490SOL     OW46424   6.586   0.118   9.984  0.1228  0.3293  0.1607
14490SOL    HW146425   6.533   0.038   9.977  0.0868  0.4509 -1.2029
14490SOL    HW246426   6.576   0.145  10.075 -1.5047 -0.0928  0.1433
14491SOL     OW46427   3.764   7.494   1.135  0.0307 -0.5133 -0.2198
14491SOL    HW146428   3.691   7.555   1.149 -0.4705 -1.3217  0.8119
14491SOL    HW246429   3.818   7.502   1.213  2.6806  2.1486 -2.1284
14492SOL     OW46430   3.038  10.598   9.243  0.4987  0.0734 -0.1935
14492SOL    HW146431   2.960  10.558   9.283  0.9357  0.9009  1.5729
14492SOL    HW246432   3.054  10.677   9.295  1.8157  0.5711 -1.2933
14493SOL     OW46433   8.819   8.132   2.571  0.4208 -0.6404  0.0590
14493SOL    HW146434   8.726   8.147   2.557  0.2962  0.2783  1.6239
14493SOL    HW246435   8.857   8.130   2.483 -1.1488 -1.7113 -0.6344
14494SOL     OW46436  10.236   2.266   1.406  0.0212  0.5509  0.0902
14494SOL    HW146437  10.235   2.192   1.346  0.8346  1.0158 -0.5140
14494SOL    HW246438  10.313   2.317   1.381  0.6207  0.5502  1.7740
14495SOL     OW46439   6.123   6.544   8.892 -0.4265  0.1260  0.3344
14495SOL    HW146440   6.050   6.568   8.949 -1.8943 -0.0876 -1.4058
14495SOL    HW246441   6.176   6.624   8.886 -0.7919  0.4440  1.1776
14496SOL     OW46442   4.030   4.250   1.780  0.1552  0.2663 -0.3973
14496SOL    HW146443   3.973   4.273   1.853 -0.1439  0.7182 -0.7629
14496SOL    HW246444   4.072   4.333   1.756  1.5608 -0.1972  0.3556
14497SOL     OW46445   4.721   2.546   2.157  0.3023  0.4808 -0.0504
14497SOL    HW146446   4.760   2.564   2.071 -0.3678 -1.5968 -0.8370
14497SOL    HW246447   4.770   2.602   2.217  0.2017  2.6627 -1.8756
14498SOL     OW46448   2.662   3.280   2.661 -0.1218 -0.7999  0.0611
14498SOL    HW146449   2.725   3.351   2.666 -0.6922 -0.4110  2.8746
14498SOL    HW246450   2.715   3.200   2.670  0.1973 -0.6010 -0.0443
14499SOL     OW46451   8.059   3.033   3.659  0.2615  0.0523 -0.1112
14499SOL    HW146452   8.027   3.032   3.749  2.1065  0.1024  0.5984
14499SOL    HW246453   8.069   2.941   3.636  2.9474 -0.0375  1.0184
14500SOL     OW46454   9.960   2.416  10.492  0.0801  0.9504  0.2561
14500SOL    HW146455   9.988   2.386  10.406 -0.2935  2.7056 -0.5139
14500SOL    HW246456   9.872   2.379  10.503 -0.8976  2.6569 -1.2220
14501SOL     OW46457   1.183   8.724   8.186 -0.2259 -0.6673  0.0231
14501SOL    HW146458   1.162   8.720   8.093 -1.1923 -2.5024  0.2775
14501SOL    HW246459   1.107   8.765   8.227 -0.1089 -0.5110  0.0858
14502SOL     OW46460   7.324   9.413   5.739  0.2403  0.4298 -0.0539
14502SOL    HW146461   7.325   9.329   5.784 -0.5692  0.1624 -0.5136
14502SOL    HW246462   7.416   9.439   5.734  0.4193 -0.0137  0.8531
14503SOL     OW46463   0.852   4.025   9.724 -0.8596  0.0104  0.2058
14503SOL    HW146464   0.830   4.016   9.816 -2.8619 -0.7200 -0.2874
14503SOL    HW246465   0.842   3.937   9.688  0.4237  0.1720 -0.6285
14504SOL     OW46466   8.228   5.796  10.423  0.2715 -0.4045 -0.1188
14504SOL    HW146467   8.281   5.740  10.365  0.4489  0.6232 -0.9833
14504SOL    HW246468   8.179   5.735  10.478  1.7663 -1.3964  0.1672
14505SOL     OW46469   2.229   4.077   4.693 -0.1868 -0.3538  0.2958
14505SOL    HW146470   2.133   4.078   4.691 -0.1907 -1.2221 -1.2278
14505SOL    HW246471   2.253   4.169   4.688 -0.9965 -0.0661 -5.9866
14506SOL     OW46472   2.901   2.211   4.552 -0.6392  0.0004 -0.0490
14506SOL    HW146473   2.896   2.297   4.593 -1.0220 -0.2882  0.5167
14506SOL    HW246474   2.911   2.149   4.624  0.5126 -0.3712 -0.4994
14507SOL     OW46475   5.798   4.334   7.960  0.0944  0.1326  0.4053
14507SOL    HW146476   5.769   4.357   7.872  1.1063 -2.0112 -0.5456
14507SOL    HW246477   5.716   4.319   8.008 -0.4614  1.0401 -0.2286
14508SOL     OW46478   4.627   1.930   5.765 -0.1718 -0.4332  0.6101
14508SOL    HW146479   4.542   1.953   5.803  0.0854  1.0502  0.3346
14508SOL    HW246480   4.643   1.998   5.700  1.7250 -0.0432  1.4337
14509SOL     OW46481   8.736   7.601   5.687 -0.2459  0.0199  0.4970
14509SOL    HW146482   8.791   7.618   5.611 -0.3652 -0.7301  0.2284
14509SOL    HW246483   8.797   7.595   5.760  0.6660 -4.6907 -0.3203
14510SOL     OW46484   3.316   9.590   1.784 -0.3032  0.2309  0.2470
14510SOL    HW146485   3.339   9.523   1.848 -1.4169 -1.3890 -0.9637
14510SOL    HW246486   3.221   9.598   1.791 -0.3693  0.4930 -0.7656
14511SOL     OW46487   5.842   2.639   2.177  0.9721  0.6707 -0.2766
14511SOL    HW146488   5.797   2.602   2.101 -2.0154  1.2520  1.0816
14511SOL    HW246489   5.854   2.565   2.236 -1.2095  1.0017  0.6771
14512SOL     OW46490   0.470   5.688  10.055 -0.3988 -0.2841 -0.3011
14512SOL    HW146491   0.454   5.698   9.962 -0.1528  0.5759 -0.2582
14512SOL    HW246492   0.449   5.773  10.093 -1.0391 -0.7902  0.5108
14513SOL     OW46493   0.690   6.577   8.798  0.3906  0.2514 -0.0636
14513SOL    HW146494   0.710   6.595   8.890 -1.9005 -0.9568  0.7632
14513SOL    HW246495   0.643   6.655   8.768 -0.0426  0.0993  0.2119
14514SOL     OW46496   2.599   4.897   9.406  0.5851 -0.6059  0.8482
14514SOL    HW146497   2.594   4.922   9.313 -0.8852 -0.1458  1.0331
14514SOL    HW246498   2.675   4.945   9.439 -1.0770  2.3254  0.7515
14515SOL     OW46499   7.892   1.183  10.156 -0.3683  0.0535 -0.2766
14515SOL    HW146500   7.826   1.250  10.138  1.3421  1.9680  0.2450
14515SOL    HW246501   7.911   1.193  10.249  2.5821  1.4770 -0.9290
14516SOL     OW46502   0.452   7.475   3.668 -0.1712 -0.0848 -0.5312
14516SOL    HW146503   0.516   7.423   3.716  0.6113  0.9227 -0.4326
14516SOL    HW246504   0.397   7.411   3.624  0.0327 -1.0087  0.4999
14517SOL     OW46505   0.480   0.633   6.147 -0.2989  0.3572  0.4800
14517SOL    HW146506   0.409   0.608   6.206 -1.1353  1.2032 -0.1356
14517SOL    HW246507   0.534   0.555   6.140  0.8342  0.7233  3.7355
14518SOL     OW46508   7.296  10.490   0.321 -0.1231  0.1038  0.2343
14518SOL    HW146509   7.355  10.558   0.289  0.0509 -0.3088 -0.3270
14518SOL    HW246510   7.333  10.409   0.287 -1.2139 -0.1306 -0.4291
14519SOL     OW46511   1.825   1.465   6.028  0.0677 -0.2655 -0.0715
14519SOL    HW146512   1.838   1.412   5.950  1.3621  0.0216 -0.0675
14519SOL    HW246513   1.889   1.432   6.092 -1.8857 -1.4294  1.4016
14520SOL     OW46514   4.373   6.641   2.302 -0.0853  0.3314  0.2444
14520SOL    HW146515   4.423   6.608   2.376 -1.2409  0.0296  0.9254
14520SOL    HW246516   4.382   6.572   2.235 -1.4733 -0.8735  1.2180
14521SOL     OW46517   7.306   3.814   9.608  1.0883 -0.0467  0.1086
14521SOL    HW146518   7.364   3.739   9.624  1.3847  0.0163 -0.6627
14521SOL    HW246519   7.266   3.831   9.694  1.8668 -0.3699  0.5525
14522SOL     OW46520   3.546   1.275   3.882  0.5082  0.1762 -0.0938
14522SOL    HW146521   3.604   1.199   3.871  0.4426  0.1386 -0.1762
14522SOL    HW246522   3.474   1.259   3.822 -0.3340 -0.4903  1.0561
14523SOL     OW46523   3.733   8.956   6.863  0.4268 -0.2390  0.4082
14523SOL    HW146524   3.707   8.885   6.922  0.1975 -1.6636 -1.3226
14523SOL    HW246525   3.687   9.033   6.897 -1.0986 -1.3773  1.0695
14524SOL     OW46526   4.258   7.936   6.369  0.1215 -0.0898  0.3170
14524SOL    HW146527   4.178   7.899   6.405 -0.2685  0.3553 -0.0755
14524SOL    HW246528   4.307   7.860   6.336 -0.9435 -0.2330 -1.0168
14525SOL     OW46529   1.963  10.298   9.877  0.8439 -0.8351 -0.4657
14525SOL    HW146530   1.937  10.207   9.893 -1.5002 -0.2559 -0.6238
14525SOL    HW246531   2.053  10.303   9.908  0.5810 -2.8628  0.8085
14526SOL     OW46532   3.297   6.990   4.682 -0.3581 -0.6999 -0.5154
14526SOL    HW146533   3.388   7.015   4.668  0.4794 -1.6654  2.4311
14526SOL    HW246534   3.274   7.030   4.767 -2.5755 -0.8073 -0.9910
14527SOL     OW46535   2.223   8.150   7.450 -0.3267 -0.2894 -0.0438
14527SOL    HW146536   2.150   8.117   7.397  0.0020  0.3448 -0.9241
14527SOL    HW246537   2.231   8.242   7.423 -0.8304  0.3543  1.8838
14528SOL     OW46538   2.855   2.196   4.277  0.1071  0.1339  0.0176
14528SOL    HW146539   2.812   2.281   4.270 -2.4259 -1.1527 -1.4571
14528SOL    HW246540   2.850   2.174   4.370  0.7104  1.4873  0.4039
14529SOL     OW46541   5.444   9.864   9.668 -0.4399  0.0327 -0.6543
14529SOL    HW146542   5.407   9.792   9.617 -1.7158  1.2527 -1.5123
14529SOL    HW246543   5.482   9.922   9.603 -0.0998  0.5304 -0.0239
14530SOL     OW46544   8.155   8.457   9.657 -0.1459  0.2868 -0.2631
14530SOL    HW146545   8.167   8.407   9.738 -3.1759  2.1730  1.5431
14530SOL    HW246546   8.201   8.539   9.673 -1.5262  1.0348 -0.0398
14531SOL     OW46547   6.140   6.859   8.730 -0.1560 -0.9599 -0.2337
14531SOL    HW146548   6.052   6.879   8.697  0.2186  1.2874 -0.0236
14531SOL    HW246549   6.180   6.806   8.661 -0.9181 -0.1384 -1.3351
14532SOL     OW46550   7.064   0.471   2.130  0.8029 -0.5689  0.3525
14532SOL    HW146551   7.051   0.541   2.066  0.5722 -0.6676  0.2907
14532SOL    HW246552   7.061   0.515   2.215  1.4726 -0.3826  0.2851
14533SOL     OW46553   8.656  10.376   0.134 -0.4786  0.2152  0.7016
14533SOL    HW146554   8.739  10.333   0.116  0.1850  1.1682  1.4078
14533SOL    HW246555   8.594  10.304   0.145  0.2670 -0.5098  0.2925
14534SOL     OW46556  10.263   5.291   3.243 -0.5135 -0.4408  0.1350
14534SOL    HW146557  10.169   5.278   3.255 -0.2129 -1.6597  1.4370
14534SOL    HW246558  10.285   5.233   3.171 -0.4909 -1.4991  0.9652
14535SOL     OW46559  10.241   0.259   4.885  0.1860 -0.1575 -0.4318
14535SOL    HW146560  10.325   0.260   4.840  1.3227 -1.0793  1.5461
14535SOL    HW246561  10.253   0.317   4.960 -1.1581  0.1765 -0.4395
14536SOL     OW46562   2.454   6.943   7.078 -0.0694 -0.3945 -0.4570
14536SOL    HW146563   2.547   6.934   7.055  0.0169 -0.4403 -0.1060
14536SOL    HW246564   2.411   6.870   7.033  0.2622 -1.1638  0.4258
14537SOL     OW46565   8.504   4.288   4.437  0.7217 -0.5477 -0.0887
14537SOL    HW146566   8.437   4.335   4.387  0.9810 -0.5192 -0.4209
14537SOL    HW246567   8.536   4.222   4.376  0.3624 -1.1567  0.3781
14538SOL     OW46568   7.607   3.904   5.665 -0.0089 -0.2105  0.1691
14538SOL    HW146569   7.513   3.885   5.668 -0.0163 -0.1308  0.5946
14538SOL    HW246570   7.628   3.910   5.572 -0.4452 -0.1285  0.0752
14539SOL     OW46571   0.339   2.820   1.709  0.5745 -0.6820 -0.1552
14539SOL    HW146572   0.278   2.755   1.674  0.0773 -0.8216  0.9321
14539SOL    HW246573   0.388   2.850   1.632  0.4710 -1.9660 -0.7613
14540SOL     OW46574   6.553   3.991   1.248 -0.3247 -0.1575  0.1988
14540SOL    HW146575   6.581   3.956   1.163 -2.2436  0.5828 -0.8026
14540SOL    HW246576   6.477   3.937   1.272 -0.9740  0.8603  0.4969
14541SOL     OW46577   8.602   2.433   1.748  0.0203 -0.2514 -0.3722
14541SOL    HW146578   8.620   2.526   1.764 -1.6442  0.2869 -1.3471
14541SOL    HW246579   8.620   2.390   1.832  2.9976  0.5357 -0.4968
14542SOL     OW46580   5.428   6.371   2.166 -0.2168 -0.0341  0.3308
14542SOL    HW146581   5.435   6.466   2.178  1.7722  0.1399 -1.4901
14542SOL    HW246582   5.339   6.350   2.192 -0.8093  2.3859  0.5155
14543SOL     OW46583   0.756   6.756   7.432  0.2971 -0.4936 -0.2555
14543SOL    HW146584   0.727   6.706   7.357  1.1157 -2.2211  0.5218
14543SOL    HW246585   0.811   6.695   7.482  0.3653  0.8167  1.3603
14544SOL     OW46586  10.344   4.009   7.518  0.3435 -0.7930  0.3272
14544SOL    HW146587  10.292   3.936   7.553  0.6350 -0.7501  0.8521
14544SOL    HW246588  10.336   4.078   7.583  0.0760 -0.3479 -0.1687
14545SOL     OW46589   6.890   9.526   4.889 -0.5435  0.3262 -0.1276
14545SOL    HW146590   6.902   9.491   4.977  1.5975  0.3318 -0.3693
14545SOL    HW246591   6.908   9.620   4.897  0.6004  0.1798 -0.6952
14546SOL     OW46592   2.251   6.533   9.710 -0.2099  0.3309  0.6179
14546SOL    HW146593   2.193   6.589   9.762  0.7930  0.8345  1.2382
14546SOL    HW246594   2.193   6.471   9.667 -1.4411  2.2035 -0.5748
14547SOL     OW46595   0.959   8.447   6.848 -0.0093 -0.2711 -0.4631
14547SOL    HW146596   1.050   8.439   6.879  0.5964 -0.8354 -2.2699
14547SOL    HW246597   0.913   8.487   6.922  1.4344 -1.0982  0.9606
14548SOL     OW46598   2.367   6.221   8.747 -0.1410  0.1259  0.5060
14548SOL    HW146599   2.337   6.174   8.825 -1.5834  0.4676  0.1950
14548SOL    HW246600   2.366   6.156   8.677 -1.2808  0.3784  0.2641
14549SOL     OW46601  10.049   0.231   4.279 -0.3944  0.0029 -0.3818
14549SOL    HW146602  10.025   0.298   4.342  0.1497 -1.1400  1.1108
14549SOL    HW246603   9.968   0.181   4.264 -0.0984 -0.9676  1.0310
14550SOL     OW46604   0.940   1.729   9.159  0.4467 -0.0496 -0.2288
14550SOL    HW146605   1.025   1.712   9.199  0.4264  0.2393 -0.0564
14550SOL    HW246606   0.894   1.645   9.164  0.9361 -0.3667 -0.8688
14551SOL     OW46607   6.621   2.965   0.967  0.4326  0.1696 -0.9396
14551SOL    HW146608   6.637   2.961   0.873 -0.5849 -0.5962 -1.1003
14551SOL    HW246609   6.701   3.002   1.004  0.8225  0.5262 -2.1074
14552SOL     OW46610   0.551   4.694   7.969  0.2349 -0.1182  0.0473
14552SOL    HW146611   0.629   4.640   7.974  0.9838  0.9082 -0.2761
14552SOL    HW246612   0.519   4.697   8.060  2.1932  1.7261  0.7725
14553SOL     OW46613   4.601   3.612   0.242 -0.0073  0.9127 -0.2586
14553SOL    HW146614   4.558   3.552   0.302  0.8350 -0.0685 -0.6094
14553SOL    HW246615   4.675   3.647   0.291  0.0387  0.9583 -0.3587
14554SOL     OW46616   4.307   9.462   4.508 -0.6099 -0.0081 -0.1839
14554SOL    HW146617   4.302   9.378   4.463 -1.0033  0.1324 -0.4090
14554SOL    HW246618   4.306   9.527   4.438 -2.0294  0.2415  0.0370
14555SOL     OW46619   8.402   8.297   0.223  0.4966 -0.0600 -0.1091
14555SOL    HW146620   8.490   8.293   0.261 -0.0989  1.1717  1.5699
14555SOL    HW246621   8.369   8.383   0.250 -2.2894 -1.5850  1.8532
14556SOL     OW46622   3.408  10.158   1.863  0.2074 -0.1247  0.2090
14556SOL    HW146623   3.413  10.065   1.882 -0.3328  0.3104  2.8087
14556SOL    HW246624   3.496  10.181   1.833  0.3429 -1.4395 -0.4616
14557SOL     OW46625   9.949   7.196   9.821 -0.3824  0.0143 -0.2873
14557SOL    HW146626   9.864   7.172   9.859 -0.4615 -0.9053 -1.0190
14557SOL    HW246627   9.928   7.227   9.733  0.0951 -0.9445 -0.7581
14558SOL     OW46628   0.720   7.686   9.364 -0.5824  0.8639  0.4935
14558SOL    HW146629   0.785   7.732   9.311 -0.4792 -1.4729 -1.5486
14558SOL    HW246630   0.636   7.706   9.323 -0.5768 -0.3730 -0.1593
14559SOL     OW46631   2.325   8.068   3.586  0.1247  0.2915 -0.3360
14559SOL    HW146632   2.384   8.048   3.513  1.9055 -0.4367  1.2189
14559SOL    HW246633   2.245   8.020   3.566  1.3792 -1.7603 -0.7603
14560SOL     OW46634   9.945   0.758  10.391 -0.0837 -0.0865 -0.6778
14560SOL    HW146635   9.926   0.688  10.329  0.7248  0.1689 -1.2429
14560SOL    HW246636   9.874   0.755  10.455  0.1977 -1.7350 -0.4117
14561SOL     OW46637   1.406   2.344   2.575 -0.3851  0.6157 -0.3630
14561SOL    HW146638   1.313   2.360   2.590 -0.5098  0.8803 -1.3501
14561SOL    HW246639   1.412   2.251   2.552 -0.4769  0.7254 -0.8318
14562SOL     OW46640   6.000   3.184   6.098  0.3719 -0.1658 -0.0912
14562SOL    HW146641   6.040   3.171   6.184 -0.5350  1.6332  0.6803
14562SOL    HW246642   5.933   3.116   6.092  0.1364 -0.0398  0.8579
14563SOL     OW46643   4.921   2.204   1.306 -0.6247 -0.3916 -0.5589
14563SOL    HW146644   4.914   2.258   1.227 -0.6030 -0.6124 -0.7156
14563SOL    HW246645   4.849   2.232   1.362 -0.1408  0.3513 -0.2942
14564SOL     OW46646   6.237   2.570   9.041 -0.0563 -0.5084 -0.6007
14564SOL    HW146647   6.290   2.498   9.008  0.6351  0.0885 -0.8350
14564SOL    HW246648   6.221   2.625   8.964  0.4133  0.1848 -0.2119
14565SOL     OW46649   7.299   5.073   2.953  0.3790  0.0400  0.0507
14565SOL    HW146650   7.291   5.128   3.031 -3.9786  0.3670 -0.3826
14565SOL    HW246651   7.275   4.985   2.982 -0.2293 -0.0560 -0.7141
14566SOL     OW46652   6.922   5.004   9.342 -0.0297 -0.0143  0.4846
14566SOL    HW146653   6.945   5.080   9.289 -3.2995 -0.2826 -1.6041
14566SOL    HW246654   6.969   4.931   9.302  0.9220  0.4407  0.7420
14567SOL     OW46655   0.733   2.330   0.926 -0.1014 -0.2991  0.0798
14567SOL    HW146656   0.791   2.358   0.997  0.2026  1.8990 -0.9430
14567SOL    HW246657   0.787   2.335   0.847 -1.2743  0.4165 -0.7079
14568SOL     OW46658   7.282   1.265   9.319 -0.5513 -0.5710  0.0969
14568SOL    HW146659   7.309   1.205   9.250 -0.1869 -0.5520  0.2213
14568SOL    HW246660   7.350   1.258   9.385 -0.7723 -0.4034  0.3431
14569SOL     OW46661   0.657   5.118   3.582 -0.1271  0.3822  0.2366
14569SOL    HW146662   0.708   5.169   3.519 -1.6077  0.8357 -0.6261
14569SOL    HW246663   0.660   5.169   3.662 -1.5482  1.8553 -0.5969
14570SOL     OW46664   5.909   6.665   9.045  0.1465  0.0303  0.4774
14570SOL    HW146665   5.839   6.725   9.073  1.0148  1.0403  0.5486
14570SOL    HW246666   5.900   6.590   9.104  0.4467  1.0888  1.9163
14571SOL     OW46667   5.826  10.258   0.074 -0.5999 -0.0823  0.0173
14571SOL    HW146668   5.852  10.190   0.135  1.0166 -1.5132 -2.1051
14571SOL    HW246669   5.868  10.338   0.106 -0.1684 -0.6960  0.9965
14572SOL     OW46670   5.412   7.312   3.652  0.6331  0.2169  0.7143
14572SOL    HW146671   5.348   7.360   3.704 -0.3643 -0.3097  0.0018
14572SOL    HW246672   5.416   7.225   3.691 -0.3554 -0.2831 -0.2395
14573SOL     OW46673   4.182   4.154   1.056 -0.3559 -0.2427  0.4372
14573SOL    HW146674   4.125   4.123   0.986  0.8243 -1.2476 -0.1346
14573SOL    HW246675   4.269   4.155   1.016  0.5674 -2.1257  2.2241
14574SOL     OW46676   6.938   8.853   5.976 -0.0097 -0.4254 -0.1170
14574SOL    HW146677   6.962   8.800   5.900  0.0656 -0.8026  0.1675
14574SOL    HW246678   7.022   8.883   6.012 -0.0663  0.3458 -0.5904
14575SOL     OW46679   0.809   5.069   6.580  0.2840 -0.1720  0.2944
14575SOL    HW146680   0.795   5.160   6.554  1.5313  0.5313  1.9479
14575SOL    HW246681   0.852   5.029   6.504  1.3604  1.1086  0.1961
14576SOL     OW46682   0.520   9.446   9.406 -0.5928 -0.4966 -0.6768
14576SOL    HW146683   0.474   9.417   9.485 -1.6240  0.5676 -0.8381
14576SOL    HW246684   0.464   9.517   9.372  0.6014  0.0556 -1.5373
14577SOL     OW46685   1.545   1.289   5.436  0.3730  0.1175  0.1136
14577SOL    HW146686   1.578   1.379   5.441 -1.0182  0.6332  0.8146
14577SOL    HW246687   1.541   1.269   5.343  0.6938  0.7949 -0.0484
14578SOL     OW46688  10.531   4.367   6.026 -0.3507  0.1294 -0.3097
14578SOL    HW146689  10.523   4.302   5.956 -0.0763  0.9802 -1.1634
14578SOL    HW246690  10.562   4.446   5.981  0.7819  0.4193  0.9407
14579SOL     OW46691   6.856   6.440   4.384  0.2086  0.4276 -0.3955
14579SOL    HW146692   6.863   6.451   4.289  1.4036 -1.9329 -0.6616
14579SOL    HW246693   6.770   6.401   4.398 -0.2477  1.4042 -0.4107
14580SOL     OW46694   3.770   2.397   6.319 -0.1029  0.2334 -0.2504
14580SOL    HW146695   3.683   2.410   6.358  0.1163  0.2667  0.2331
14580SOL    HW246696   3.767   2.447   6.237 -0.9298 -0.6936 -0.8204
14581SOL     OW46697   2.150   8.387   0.397 -0.4948  0.3211 -0.0442
14581SOL    HW146698   2.055   8.387   0.413 -0.4067  2.7699  0.9680
14581SOL    HW246699   2.166   8.470   0.352  0.8346 -1.4361 -3.0529
14582SOL     OW46700   7.670   8.839   0.168 -0.0727 -0.0253 -0.0898
14582SOL    HW146701   7.642   8.919   0.123 -0.1622  1.0257  1.7340
14582SOL    HW246702   7.744   8.867   0.222 -1.3935 -0.6666  2.1641
14583SOL     OW46703   2.894   4.416   1.756 -0.8221 -0.2178  0.0182
14583SOL    HW146704   2.876   4.432   1.849 -1.0777  0.5405 -0.1536
14583SOL    HW246705   2.980   4.455   1.741 -0.9441 -0.0055 -0.1438
14584SOL     OW46706   6.007   4.481   9.294  0.3116 -0.7159  0.6458
14584SOL    HW146707   6.045   4.562   9.258 -0.8510 -0.0829  0.7924
14584SOL    HW246708   5.915   4.485   9.269 -0.2729 -0.8396  2.6513
14585SOL     OW46709   5.315   4.326   8.143  0.2521  0.1439  0.0384
14585SOL    HW146710   5.262   4.344   8.220 -1.1038  0.8415 -1.0179
14585SOL    HW246711   5.257   4.344   8.069  1.0635 -1.8518 -1.1678
14586SOL     OW46712   4.119   6.140  10.146 -0.1151  0.6819 -0.3060
14586SOL    HW146713   4.171   6.089  10.208 -0.2232 -0.3010 -1.0026
14586SOL    HW246714   4.112   6.085  10.068  0.7483  2.2387 -1.5535
14587SOL     OW46715   4.839   9.112   3.613 -0.1821 -0.1659  0.6249
14587SOL    HW146716   4.777   9.142   3.680 -1.8366  0.0011 -0.9152
14587SOL    HW246717   4.924   9.117   3.656 -1.1678 -0.0148  2.6961
14588SOL     OW46718   1.430  10.521   6.144  0.5411 -0.1740  0.0453
14588SOL    HW146719   1.479  10.596   6.179  1.7095 -0.9354  0.1013
14588SOL    HW246720   1.435  10.455   6.213 -0.0102 -0.5000 -0.2228
14589SOL     OW46721   7.935   2.258   4.283 -0.2563 -0.1637  0.3634
14589SOL    HW146722   7.916   2.323   4.215 -0.8478 -2.3647 -1.7303
14589SOL    HW246723   7.852   2.248   4.330  0.5350  2.4229  2.5127
14590SOL     OW46724   1.044   8.001   5.441 -0.1252  0.3476  0.9123
14590SOL    HW146725   1.036   7.908   5.463  2.3259 -0.2045 -0.1472
14590SOL    HW246726   0.963   8.041   5.472 -1.7007 -2.3072  0.4706
14591SOL     OW46727   5.304   6.914   3.398  0.5916  0.1899  0.0222
14591SOL    HW146728   5.247   6.968   3.453  0.0997 -0.9577  0.6627
14591SOL    HW246729   5.249   6.888   3.324  0.9223  0.8006 -0.4520
14592SOL     OW46730   8.253  10.192   7.797 -0.0599 -0.1538 -0.1991
14592SOL    HW146731   8.278  10.101   7.784 -0.5032 -0.1749 -0.9243
14592SOL    HW246732   8.158  10.191   7.798 -0.0647  0.2206  0.4430
14593SOL     OW46733   3.889   4.221   3.291 -0.0317  0.9790 -0.0313
14593SOL    HW146734   3.960   4.181   3.341 -0.3167  0.5702  0.0566
14593SOL    HW246735   3.822   4.241   3.356 -0.8096 -0.4403 -0.3452
14594SOL     OW46736   8.433   0.399   2.637  0.3927  0.2321  0.2357
14594SOL    HW146737   8.422   0.351   2.719  0.8389 -1.6801 -0.7535
14594SOL    HW246738   8.528   0.403   2.625  0.3352 -0.6271 -0.7521
14595SOL     OW46739   6.177   5.804   6.933  0.4868  0.0029 -0.9821
14595SOL    HW146740   6.205   5.747   6.862  0.8234 -0.2527 -0.6457
14595SOL    HW246741   6.107   5.858   6.894  0.0723 -0.7276 -1.2633
14596SOL     OW46742   9.561  10.436   7.325  0.1333 -0.2801  0.2001
14596SOL    HW146743   9.606  10.405   7.247  1.1345 -0.7399  0.9532
14596SOL    HW246744   9.475  10.394   7.321  0.3841 -0.7551 -0.3483
14597SOL     OW46745   3.187   9.660   9.025  0.2719  0.6914 -0.0614
14597SOL    HW146746   3.145   9.583   9.064 -0.2659  0.3189 -1.3316
14597SOL    HW246747   3.267   9.671   9.075  1.4547 -1.9991 -1.1605
14598SOL     OW46748   0.183   6.316   6.157  0.1770  0.1974  0.1121
14598SOL    HW146749   0.237   6.344   6.231  0.7382  0.0990 -0.2556
14598SOL    HW246750   0.225   6.355   6.080  0.0878 -0.3918 -0.2421
14599SOL     OW46751   6.345   5.332   7.042 -0.4316  0.2430 -0.1330
14599SOL    HW146752   6.370   5.247   7.005 -0.7160 -0.2979  0.8597
14599SOL    HW246753   6.251   5.339   7.024 -0.3046  0.6048 -0.6840
14600SOL     OW46754   3.433   1.236   9.364  0.3912 -0.7647 -0.6966
14600SOL    HW146755   3.463   1.279   9.444 -1.5365  1.2653 -0.9515
14600SOL    HW246756   3.510   1.234   9.308  0.9840  0.8555 -0.0004
14601SOL     OW46757   6.983   5.196   5.838  0.6177 -0.5114  0.9231
14601SOL    HW146758   6.963   5.150   5.920 -1.4591 -1.2509  0.0665
14601SOL    HW246759   7.016   5.128   5.780 -3.0159 -1.2663 -0.5430
14602SOL     OW46760   4.072   6.158   9.537 -0.0307 -0.8170 -0.0253
14602SOL    HW146761   4.054   6.178   9.445 -1.1806 -2.4777 -0.2179
14602SOL    HW246762   4.075   6.243   9.580  1.7433  0.0732 -1.7778
14603SOL     OW46763   6.033   7.924   0.415  0.0103 -0.7088 -0.1934
14603SOL    HW146764   6.116   7.962   0.387  0.9705 -2.8388 -0.4456
14603SOL    HW246765   5.974   7.999   0.424  1.9646  0.8912  0.1161
14604SOL     OW46766   6.903   4.731   3.645 -0.3160  0.5588 -0.0346
14604SOL    HW146767   6.900   4.770   3.557 -2.1345 -1.4027 -0.9395
14604SOL    HW246768   6.868   4.643   3.633 -0.1995  0.0689  2.6141
14605SOL     OW46769   2.045   8.724   5.849  0.7853 -0.2156 -0.3717
14605SOL    HW146770   2.139   8.713   5.839  1.0624 -1.0494  2.2901
14605SOL    HW246771   2.036   8.805   5.899 -0.2597  2.2882 -4.2134
14606SOL     OW46772   8.126  10.181   0.579  0.3468 -0.1406 -0.0290
14606SOL    HW146773   8.212  10.162   0.616 -0.7386 -0.3359  2.6813
14606SOL    HW246774   8.077  10.099   0.588 -0.3798  0.1986 -0.7229
14607SOL     OW46775   5.877   8.312   3.968 -0.0239 -0.1343  0.1358
14607SOL    HW146776   5.861   8.217   3.961  0.5256 -0.2527  0.4365
14607SOL    HW246777   5.791   8.351   3.951  0.3065 -0.5223 -3.1811
14608SOL     OW46778   0.531  10.382   8.906  0.1218 -0.1378 -0.7566
14608SOL    HW146779   0.594  10.427   8.849  0.1104 -1.5751 -1.9666
14608SOL    HW246780   0.576  10.302   8.932 -0.0361  0.3014  0.9813
14609SOL     OW46781   9.546   8.773   9.758 -0.1719  0.5428  0.2761
14609SOL    HW146782   9.565   8.762   9.851 -2.2412 -1.6277  0.5269
14609SOL    HW246783   9.633   8.781   9.717  0.8292  0.2382  2.2254
14610SOL     OW46784   5.902   7.248   9.257  0.0128 -0.1651  0.5041
14610SOL    HW146785   5.970   7.183   9.276 -1.6324 -1.7960  1.0176
14610SOL    HW246786   5.845   7.247   9.334 -1.8137 -0.4150 -0.7910
14611SOL     OW46787   6.834   7.413   4.978 -0.4322  0.0159 -0.0610
14611SOL    HW146788   6.745   7.447   4.974 -0.2791  0.6253  1.1690
14611SOL    HW246789   6.825   7.319   4.962 -1.2858  0.0887 -0.0342
14612SOL     OW46790  10.243   3.468   7.208  0.3706 -0.4074  0.4024
14612SOL    HW146791  10.302   3.397   7.233  0.5368 -0.0398  1.0807
14612SOL    HW246792  10.176   3.468   7.277 -0.5555 -0.9635 -0.4762
14613SOL     OW46793   2.506   3.773   0.114  0.7246 -0.3145 -0.3693
14613SOL    HW146794   2.448   3.814   0.177  1.3939 -0.7177  0.5253
14613SOL    HW246795   2.498   3.827   0.035  0.2864  0.4980  0.2195
14614SOL     OW46796   3.950  10.437   8.121 -0.0057 -0.4506 -0.3804
14614SOL    HW146797   3.974  10.501   8.054 -0.9623 -0.5424 -0.8258
14614SOL    HW246798   3.924  10.490   8.196  0.8381 -0.3461 -0.1494
14615SOL     OW46799   2.394   4.120  10.294 -0.0020  0.4281  0.4466
14615SOL    HW146800   2.482   4.156  10.302 -0.4832  1.6714  0.3030
14615SOL    HW246801   2.339   4.179  10.346 -0.7198 -0.4767  0.7401
14616SOL     OW46802   1.699   7.866   0.150 -0.3598 -0.0598 -0.0548
14616SOL    HW146803   1.744   7.782   0.159 -1.7691 -0.9753 -1.1915
14616SOL    HW246804   1.725   7.915   0.229  1.9315 -0.8193 -0.2629
14617SOL     OW46805   6.171   7.195   4.449  0.1719 -0.0111 -0.2342
14617SOL    HW146806   6.118   7.116   4.452 -0.6283  0.4752 -1.0600
14617SOL    HW246807   6.143   7.247   4.524 -0.6033  0.2798 -0.7115
14618SOL     OW46808   1.603  10.379   5.929  0.3328  0.3933 -0.5604
14618SOL    HW146809   1.650  10.332   5.999 -0.9149 -2.2803 -1.3644
14618SOL    HW246810   1.532  10.424   5.975  2.1531  2.5315  0.3632
14619SOL     OW46811   8.857   8.152   3.676 -0.1014 -0.8492 -0.0958
14619SOL    HW146812   8.888   8.145   3.586  1.7367 -0.2130  0.4452
14619SOL    HW246813   8.884   8.240   3.704 -0.8523 -0.9461  0.9964
14620SOL     OW46814   6.336   4.956   1.276  0.2321  0.1065 -0.4773
14620SOL    HW146815   6.403   4.888   1.278 -0.2987 -0.4121  0.2223
14620SOL    HW246816   6.328   4.979   1.183  1.2765  0.0873 -0.5812
14621SOL     OW46817   1.696   9.606   5.051 -0.1491 -0.1894 -0.3631
14621SOL    HW146818   1.758   9.534   5.049 -0.7709 -0.8565  1.6631
14621SOL    HW246819   1.726   9.662   5.123 -0.2356  1.0553 -1.2665
14622SOL     OW46820   7.412   6.475   8.828 -0.0832 -0.0879 -0.4398
14622SOL    HW146821   7.364   6.558   8.828  0.1386  0.0390 -0.8814
14622SOL    HW246822   7.502   6.499   8.850 -0.1540 -0.2954  0.1132
14623SOL     OW46823   2.894   3.642  10.040  0.2376  0.2249  0.2107
14623SOL    HW146824   2.893   3.548  10.024 -0.4130  0.4794 -1.4548
14623SOL    HW246825   2.833   3.655  10.113  0.1479 -0.6000  0.2914
14624SOL     OW46826   9.058   3.614   2.351 -0.1610  0.0426 -0.1827
14624SOL    HW146827   9.054   3.688   2.411  1.9589 -0.8062  1.0925
14624SOL    HW246828   9.022   3.541   2.401 -0.9876 -0.1111 -0.9682
14625SOL     OW46829  10.046   0.376   2.607 -0.2814  0.2573  0.0539
14625SOL    HW146830  10.073   0.304   2.551  0.3467  0.2817  0.3148
14625SOL    HW246831  10.007   0.440   2.548  1.9836  1.0776 -0.6315
14626SOL     OW46832   3.057   5.485  10.570  0.4745 -0.1321  0.2798
14626SOL    HW146833   3.127   5.511  10.631 -0.7062  2.6591  0.6038
14626SOL    HW246834   2.986   5.547  10.587 -0.4375 -0.0757 -3.0233
14627SOL     OW46835   9.517   0.044   5.823 -0.0617 -0.3302 -0.3195
14627SOL    HW146836   9.536   0.115   5.762 -0.4819  1.0567  1.0927
14627SOL    HW246837   9.602   0.020   5.859  0.2817 -1.6201 -1.8773
14628SOL     OW46838   3.529   0.911   4.059 -0.2358 -0.1590 -0.1896
14628SOL    HW146839   3.518   0.944   4.148 -1.2272 -1.0088  0.0216
14628SOL    HW246840   3.612   0.949   4.029  1.0797 -1.3597  1.7651
14629SOL     OW46841   9.685  10.310   9.937 -0.0258 -0.2444 -0.0150
14629SOL    HW146842   9.760  10.257   9.910  0.5832  1.1247 -1.2100
14629SOL    HW246843   9.661  10.277  10.023  0.0846 -2.6519 -0.8540
14630SOL     OW46844   3.111   7.370   1.382 -0.4578  0.0462 -0.5384
14630SOL    HW146845   3.019   7.384   1.402 -1.0121  0.6008 -3.2044
14630SOL    HW246846   3.123   7.403   1.293  1.5591 -2.8771 -1.5335
14631SOL     OW46847   0.371   5.599   4.119 -0.0367  0.0334  0.0494
14631SOL    HW146848   0.318   5.545   4.060 -0.1563  1.3300 -1.1045
14631SOL    HW246849   0.349   5.689   4.094  2.1396  0.6211  0.0626
14632SOL     OW46850   2.394   3.648   3.244  0.0633  0.3022 -0.1213
14632SOL    HW146851   2.456   3.679   3.310  1.0586 -0.3634 -0.7073
14632SOL    HW246852   2.439   3.574   3.203 -1.4811 -0.7542  0.0180
14633SOL     OW46853   9.894   0.586   0.059  0.3481  0.0362 -0.0673
14633SOL    HW146854   9.885   0.576   0.154 -0.2066  0.1461 -0.1039
14633SOL    HW246855   9.932   0.673   0.048 -0.2392  0.3125  0.0340
14634SOL     OW46856   6.984   6.115  10.083  1.0696  0.2061 -1.2408
14634SOL    HW146857   6.920   6.049  10.056  0.0415  0.9618 -0.6862
14634SOL    HW246858   7.018   6.150  10.001 -0.8053  1.3031 -1.5861
14635SOL     OW46859   5.675   6.969   2.610  0.0306 -0.1824 -0.3930
14635SOL    HW146860   5.671   6.918   2.691  1.0350 -1.5046 -1.1269
14635SOL    HW246861   5.762   7.010   2.613 -0.4508  0.8642 -0.2002
14636SOL     OW46862   1.215   3.164   0.009  0.4087 -0.3571 -0.1421
14636SOL    HW146863   1.183   3.074  -0.004  0.3395 -0.4680  0.7054
14636SOL    HW246864   1.138   3.219  -0.007  0.5781 -0.4006 -1.1784
14637SOL     OW46865   1.493  10.134   0.147 -0.0114 -0.0013 -0.4552
14637SOL    HW146866   1.532  10.102   0.066 -0.0841 -0.7643 -0.2001
14637SOL    HW246867   1.467  10.054   0.194  0.5484  0.4065  0.5736
14638SOL     OW46868   5.888   1.563   0.198 -0.5815  0.2966 -0.5340
14638SOL    HW146869   5.795   1.541   0.192 -0.4966  0.2357 -1.7987
14638SOL    HW246870   5.897   1.602   0.285 -1.7903  0.3464 -0.4069
14639SOL     OW46871   1.526   2.684   2.364  0.4890 -0.2322  0.5122
14639SOL    HW146872   1.588   2.681   2.436  0.5801 -0.4896  0.4256
14639SOL    HW246873   1.581   2.683   2.285  0.4480  1.2329  0.4287
14640SOL     OW46874   7.695   2.044   6.172  0.4553  0.3465  0.2599
14640SOL    HW146875   7.606   2.043   6.207  0.6610  0.5837  0.8017
14640SOL    HW246876   7.703   1.962   6.124  0.2598 -0.1216  1.0113
14641SOL     OW46877  10.427   6.546   3.127  0.2893 -0.4960  0.0808
14641SOL    HW146878  10.411   6.486   3.053 -0.0653 -0.5062  0.1657
14641SOL    HW246879  10.520   6.569   3.119  0.4484 -1.1223  0.0964
14642SOL     OW46880   1.620   8.397   0.444  0.4703 -0.2036 -0.6685
14642SOL    HW146881   1.543   8.452   0.440  1.6229  1.9044  2.5783
14642SOL    HW246882   1.587   8.308   0.429 -2.0764  0.8802 -2.0549
14643SOL     OW46883   2.634   6.180   7.700 -0.5607 -0.2483 -0.0918
14643SOL    HW146884   2.562   6.143   7.752 -2.3858  2.5109 -0.4005
14643SOL    HW246885   2.591   6.211   7.620  1.0386  1.1749 -0.4391
14644SOL     OW46886   7.643   3.505   5.302 -0.0575 -0.2192 -0.0474
14644SOL    HW146887   7.703   3.576   5.327 -0.9899  0.6184 -0.1230
14644SOL    HW246888   7.562   3.550   5.277 -0.5384 -1.2990 -0.4729
14645SOL     OW46889   9.782   9.495   3.970 -0.3618  0.1874 -0.5341
14645SOL    HW146890   9.831   9.509   3.889 -0.1275 -2.6047 -0.9859
14645SOL    HW246891   9.695   9.466   3.941  0.1050 -2.0613  0.1156
14646SOL     OW46892   3.367   3.161   9.213 -0.4186  0.3991 -0.3309
14646SOL    HW146893   3.458   3.187   9.228 -0.4578  0.0941  0.4539
14646SOL    HW246894   3.320   3.191   9.291 -0.9037  0.1334 -0.5180
14647SOL     OW46895   2.109   5.853   7.833 -0.2166  0.4329 -0.2130
14647SOL    HW146896   2.090   5.858   7.926  0.1036  1.9985 -0.1997
14647SOL    HW246897   2.203   5.872   7.826  0.7743 -3.6878 -0.5709
14648SOL     OW46898   1.068   7.070   4.690  0.2463 -0.2094 -0.4703
14648SOL    HW146899   1.048   7.051   4.781 -0.3030 -0.0028 -0.5453
14648SOL    HW246900   1.087   7.164   4.688  0.2924 -0.2204 -0.5610
14649SOL     OW46901   3.674   5.234   4.102  0.0842  0.1660 -0.2141
14649SOL    HW146902   3.738   5.180   4.056  0.3560  0.9970 -0.8275
14649SOL    HW246903   3.661   5.310   4.046 -0.6029  0.5528  0.4400
14650SOL     OW46904   6.894   0.826   2.926  0.2839  0.2180  0.1510
14650SOL    HW146905   6.908   0.746   2.976  0.9258  0.2085 -0.0385
14650SOL    HW246906   6.814   0.863   2.963 -0.0964 -0.5729  0.1598
14651SOL     OW46907   0.833   4.996   9.680 -0.0954  0.0867 -0.1950
14651SOL    HW146908   0.821   5.049   9.758 -0.9790  0.3435 -0.4905
14651SOL    HW246909   0.922   4.961   9.687 -0.5134 -0.7518  1.4506
14652SOL     OW46910   2.656   1.288   1.232 -0.4254  0.4308  0.0851
14652SOL    HW146911   2.653   1.261   1.141 -1.5728 -0.0002  0.2385
14652SOL    HW246912   2.714   1.225   1.275  0.3057  0.7770 -0.3809
14653SOL     OW46913   7.837   6.660   3.384 -0.0453  0.3433 -0.6855
14653SOL    HW146914   7.886   6.736   3.353 -0.5636  1.2312  0.5737
14653SOL    HW246915   7.849   6.661   3.479 -1.4236 -0.1884 -0.4799
14654SOL     OW46916   3.187   9.641   9.647  0.2278 -0.7095 -0.2251
14654SOL    HW146917   3.280   9.646   9.671  0.2961 -3.0090  0.1655
14654SOL    HW246918   3.143   9.697   9.710  1.1165 -1.4744  1.1265
14655SOL     OW46919   3.402   8.710   3.114  0.2067  0.5128 -0.1546
14655SOL    HW146920   3.340   8.741   3.048  1.6399  1.1280 -1.2685
14655SOL    HW246921   3.488   8.727   3.075  1.0804  0.1045  1.5361
14656SOL     OW46922   2.442   8.259   1.345  0.0275  0.3336  0.0217
14656SOL    HW146923   2.521   8.238   1.294 -0.3245 -0.6928 -0.1430
14656SOL    HW246924   2.416   8.346   1.315  1.9770  1.4076  1.2271
14657SOL     OW46925   3.342   3.352   6.875  0.2592 -0.0555  0.5403
14657SOL    HW146926   3.358   3.260   6.851  1.4012 -0.2316  1.8542
14657SOL    HW246927   3.279   3.348   6.946  0.6783  0.1476  0.9242
14658SOL     OW46928   5.361   6.143   8.727  0.1528  0.4677  0.3156
14658SOL    HW146929   5.342   6.066   8.672  0.8281 -0.0351  0.7769
14658SOL    HW246930   5.330   6.118   8.814 -0.0134  0.8862  0.3759
14659SOL     OW46931   0.451   1.174   0.196 -0.3264 -0.1518  0.3756
14659SOL    HW146932   0.442   1.178   0.291  2.3613  1.1483  0.6614
14659SOL    HW246933   0.404   1.251   0.164 -1.6757 -0.8732  0.5744
14660SOL     OW46934   6.511   4.511   9.553  0.3867  0.4587 -0.5833
14660SOL    HW146935   6.604   4.499   9.533  0.3773 -0.3746 -0.1769
14660SOL    HW246936   6.505   4.502   9.648 -0.0227  1.1583 -0.5379
14661SOL     OW46937   2.924   8.029   7.337 -0.6012  0.0975  0.9188
14661SOL    HW146938   2.929   8.103   7.276 -1.1166  0.1714  0.9616
14661SOL    HW246939   2.964   8.061   7.417 -0.5930  0.2457  0.8559
14662SOL     OW46940   6.597  10.052   9.082  0.3726  0.2474  0.1114
14662SOL    HW146941   6.587   9.966   9.041  1.7096  0.8014 -1.4626
14662SOL    HW246942   6.516  10.098   9.061 -0.1547 -0.4511  0.5720
14663SOL     OW46943   2.235   1.278   3.107  0.2657  0.0902 -0.0898
14663SOL    HW146944   2.156   1.313   3.149  0.7654 -0.4120  1.3450
14663SOL    HW246945   2.206   1.251   3.020 -0.8764  0.9600 -0.0042
14664SOL     OW46946   6.239   3.045  10.155 -0.2335  0.0587  0.4221
14664SOL    HW146947   6.304   2.975  10.144  0.8272  1.0664  0.1041
14664SOL    HW246948   6.155   3.003  10.136  0.5116 -0.7997 -1.1155
14665SOL     OW46949   8.990   5.809   9.780 -0.1888  0.0462  0.0132
14665SOL    HW146950   9.016   5.718   9.797 -0.7069 -0.2503 -0.7156
14665SOL    HW246951   9.051   5.862   9.832 -0.6460 -0.7463  1.4303
14666SOL     OW46952   7.961   3.774   8.478 -0.4553 -0.4451 -0.2037
14666SOL    HW146953   7.882   3.732   8.445 -1.0924 -0.0307  0.7601
14666SOL    HW246954   7.938   3.803   8.566  0.2743  1.0564 -0.4751
14667SOL     OW46955  10.094   9.488   8.789  0.4508 -0.2177 -0.2001
14667SOL    HW146956  10.179   9.444   8.786  0.8326  0.4987 -0.1352
14667SOL    HW246957  10.080   9.517   8.699  0.5830  0.2321 -0.0774
14668SOL     OW46958   0.575   2.365   5.690 -0.2801  0.0755  0.3361
14668SOL    HW146959   0.601   2.300   5.756 -2.2159 -1.7137 -0.5261
14668SOL    HW246960   0.561   2.313   5.611 -1.3070  1.6525 -0.5659
14669SOL     OW46961   4.003   8.489   8.502  0.2432 -0.1880  0.1302
14669SOL    HW146962   3.993   8.453   8.590 -0.6186 -1.8715 -0.6175
14669SOL    HW246963   4.051   8.422   8.454 -0.9113 -0.1243 -1.1634
14670SOL     OW46964   6.330   6.792   1.806 -0.6414  0.5808 -0.0515
14670SOL    HW146965   6.292   6.787   1.719 -1.2999  0.9530  0.2075
14670SOL    HW246966   6.323   6.703   1.841 -2.2575  0.8399  0.3859
14671SOL     OW46967   2.609   3.813   9.801 -0.4864 -0.0619 -0.3029
14671SOL    HW146968   2.517   3.826   9.778 -0.5398  0.2608  0.0843
14671SOL    HW246969   2.611   3.726   9.840 -0.4743 -0.4243 -1.0925
14672SOL     OW46970   5.325  10.646   4.206 -0.1307 -0.1586 -0.0302
14672SOL    HW146971   5.363  10.564   4.174  1.0429 -0.4128  1.8359
14672SOL    HW246972   5.232  10.625   4.219 -0.0577 -0.8652 -0.5727
14673SOL     OW46973   6.198   6.749   8.170 -0.1550  0.1848  0.0105
14673SOL    HW146974   6.232   6.667   8.207  1.0839  1.0315  0.8386
14673SOL    HW246975   6.206   6.813   8.241  1.0017  1.5422 -1.2741
14674SOL     OW46976   8.641   7.213   6.206  0.2688  0.6459  0.8082
14674SOL    HW146977   8.609   7.299   6.178 -0.8446 -0.6767 -2.5213
14674SOL    HW246978   8.728   7.206   6.168 -0.4250 -0.3796 -0.6855
14675SOL     OW46979   0.012   0.141   3.574  0.5067 -0.0057 -0.1837
14675SOL    HW146980   0.038   0.185   3.493  1.2756 -2.0143 -1.1002
14675SOL    HW246981   0.077   0.170   3.638  0.4171  0.9171 -0.4912
14676SOL     OW46982   3.692   6.920   7.087  0.0312 -0.0126 -0.2803
14676SOL    HW146983   3.708   6.981   7.016 -1.1767  1.2605  0.4912
14676SOL    HW246984   3.709   6.969   7.167 -3.3100  0.2216  0.4577
14677SOL     OW46985   1.389   5.172   5.058  0.3315  0.0460 -0.2046
14677SOL    HW146986   1.479   5.152   5.032  0.4520  0.6149 -0.2395
14677SOL    HW246987   1.366   5.103   5.119  0.7559 -0.1682 -0.2848
14678SOL     OW46988   8.864   7.839   4.545  0.2957  0.0224  0.2075
14678SOL    HW146989   8.909   7.859   4.627 -1.1874  1.9955  0.6221
14678SOL    HW246990   8.800   7.771   4.568  1.0786 -0.7130  0.2528
14679SOL     OW46991   4.279   9.455   2.614 -0.4033 -0.3987 -0.3893
14679SOL    HW146992   4.271   9.544   2.649  0.2035  0.8762 -3.1587
14679SOL    HW246993   4.354   9.417   2.659 -0.8905  0.3348  1.1002
14680SOL     OW46994   5.235   7.168   4.334 -0.2679 -0.3049  0.7558
14680SOL    HW146995   5.152   7.158   4.381 -0.8892 -0.2806 -0.3067
14680SOL    HW246996   5.261   7.259   4.351 -1.1491  0.0986  0.0127
14681SOL     OW46997   2.331   2.589   9.031 -0.3136  0.8073 -0.1629
14681SOL    HW146998   2.296   2.607   8.944 -0.1025  1.0037 -0.2083
14681SOL    HW246999   2.425   2.577   9.018 -0.2464  1.0663  0.0680
14682SOL     OW47000   9.842   2.735   9.973 -0.4745  0.2340  0.8903
14682SOL    HW147001   9.822   2.829   9.969  0.3102  0.3894  0.3401
14682SOL    HW247002   9.907   2.728  10.044 -0.2667  0.1580  0.6920
14683SOL     OW47003   1.200   7.626   3.762 -0.3711  0.0441  0.3114
14683SOL    HW147004   1.107   7.650   3.764 -0.8180 -1.6585  1.3666
14683SOL    HW247005   1.216   7.601   3.671 -1.1843 -0.4909  0.3047
14684SOL     OW47006   7.796  10.427   4.522 -0.1592 -0.0981  0.4863
14684SOL    HW147007   7.732  10.492   4.551  0.1422  1.1168 -1.3641
14684SOL    HW247008   7.748  10.344   4.522 -0.9262  0.3175  1.6885
14685SOL     OW47009   3.361   8.457   3.531 -0.2133 -0.5948 -0.4236
14685SOL    HW147010   3.427   8.508   3.579  0.5073 -1.5153 -0.4200
14685SOL    HW247011   3.397   8.449   3.443 -0.8438 -0.1804 -0.7284
14686SOL     OW47012   4.874   4.004   9.276  0.2782 -1.0974 -0.1289
14686SOL    HW147013   4.788   4.046   9.264 -0.6774 -3.0659 -0.5739
14686SOL    HW247014   4.919   4.017   9.192  0.6047  0.2490  0.2237
14687SOL     OW47015   7.275   9.080   8.763 -0.4436 -0.3692 -0.1584
14687SOL    HW147016   7.339   9.152   8.762 -1.2005  0.3063 -1.4042
14687SOL    HW247017   7.195   9.118   8.729 -1.9057 -0.9005  2.3824
14688SOL     OW47018   4.311   8.408   4.665 -0.1071 -0.0983  0.4380
14688SOL    HW147019   4.240   8.462   4.630 -1.0209 -0.7795  1.1804
14688SOL    HW247020   4.343   8.359   4.589 -0.4620  0.1938  0.0959
14689SOL     OW47021   8.624   3.342   7.954  0.5348  0.4880 -0.3596
14689SOL    HW147022   8.696   3.370   8.011 -0.7114  0.9896  1.0255
14689SOL    HW247023   8.617   3.248   7.969 -0.2147  0.7212  0.8683
14690SOL     OW47024   4.419   2.947   8.643 -0.1551 -0.2420 -0.1992
14690SOL    HW147025   4.375   2.861   8.646  1.4416 -1.1105 -0.4601
14690SOL    HW247026   4.483   2.943   8.714 -0.5749  1.0649  0.2813
14691SOL     OW47027   1.647   1.853   0.251  0.3257 -0.0553  0.2902
14691SOL    HW147028   1.602   1.874   0.333  0.2056 -1.7410  0.6896
14691SOL    HW247029   1.613   1.768   0.226  0.8978  0.1196 -1.1535
14692SOL     OW47030   5.351   4.076   7.167  0.0377  0.0225  0.1993
14692SOL    HW147031   5.445   4.060   7.174 -0.1626 -1.4087 -0.0112
14692SOL    HW247032   5.311   3.996   7.201 -1.0636 -0.2484 -1.5893
14693SOL     OW47033   3.256   3.566   9.513  0.2884 -0.5268  0.2275
14693SOL    HW147034   3.211   3.573   9.597 -0.4561 -1.9135 -0.0289
14693SOL    HW247035   3.193   3.599   9.449  0.8202  0.4428  0.1972
14694SOL     OW47036   3.820   7.436   5.670  0.2292 -0.2668 -0.2713
14694SOL    HW147037   3.859   7.384   5.741  0.0938 -1.0893 -0.7950
14694SOL    HW247038   3.742   7.475   5.710 -0.5545 -1.7348 -0.2932
14695SOL     OW47039   2.775   7.923  10.191 -0.3353  0.2371 -0.4238
14695SOL    HW147040   2.815   7.936  10.277  0.2759 -1.0135 -0.4835
14695SOL    HW247041   2.847   7.937  10.129 -0.8658  1.5263 -0.7739
14696SOL     OW47042   8.479   9.468   6.281  0.2909  0.0713 -0.3150
14696SOL    HW147043   8.559   9.457   6.332  1.4894 -0.4070 -2.2195
14696SOL    HW247044   8.430   9.387   6.296 -0.9416  1.1797  2.5218
14697SOL     OW47045   9.106  10.356   6.714 -0.3857 -0.0660 -0.5749
14697SOL    HW147046   9.040  10.418   6.682 -0.9611  0.0795  0.8443
14697SOL    HW247047   9.057  10.275   6.728 -0.8686  0.6622  2.7251
14698SOL     OW47048   5.393   6.478   5.124  0.4023 -0.3145  0.2601
14698SOL    HW147049   5.407   6.439   5.210 -0.3906 -0.9049  0.1363
14698SOL    HW247050   5.306   6.448   5.098 -0.0609  1.2002 -0.0390
14699SOL     OW47051   9.536   2.181   1.267  0.0859  0.0342  0.0420
14699SOL    HW147052   9.531   2.121   1.342  2.4011 -1.2608 -0.7481
14699SOL    HW247053   9.592   2.253   1.298 -0.3667  0.3646  0.0941
14700SOL     OW47054   0.695   6.586   5.874  0.4900  0.7800 -0.1340
14700SOL    HW147055   0.649   6.526   5.934  0.6403  1.0323  0.2399
14700SOL    HW247056   0.640   6.664   5.870 -0.8386 -0.1710 -2.3401
14701SOL     OW47057   8.830   8.196   8.375  0.4867  0.0030  0.5674
14701SOL    HW147058   8.771   8.155   8.438 -0.0238 -0.5273 -0.2317
14701SOL    HW247059   8.779   8.201   8.294  0.6754  1.8408  0.5082
14702SOL     OW47060   9.927   6.812   1.554 -0.9575  0.0683 -0.0789
14702SOL    HW147061   9.885   6.734   1.591  1.6522 -1.0512  0.7704
14702SOL    HW247062   9.944   6.788   1.462  0.4197 -0.6921  0.3419
14703SOL     OW47063  10.478   1.969   1.133  0.0360 -0.4854  0.0763
14703SOL    HW147064  10.562   1.949   1.090  0.4400 -0.3112  0.7788
14703SOL    HW247065  10.448   1.884   1.166  0.0621 -0.5005  0.0622
14704SOL     OW47066   5.190   4.781   9.710 -0.0260  0.6800  0.2118
14704SOL    HW147067   5.151   4.828   9.637 -1.5844  0.0397  0.5724
14704SOL    HW247068   5.250   4.843   9.751 -0.1874  1.4993 -0.7782
14705SOL     OW47069   2.905   6.279   2.307 -0.1193 -0.0797  0.4053
14705SOL    HW147070   2.879   6.351   2.365 -0.1393  1.5842 -1.5611
14705SOL    HW247071   2.828   6.263   2.252  0.0540 -1.3095  0.4870
14706SOL     OW47072   6.801   2.010   2.020 -0.5679 -0.6765  0.6027
14706SOL    HW147073   6.727   2.021   1.960  0.5368 -0.4647 -0.7812
14706SOL    HW247074   6.824   2.099   2.046 -1.9748 -0.8215  2.6195
14707SOL     OW47075   3.846   9.414   8.304 -0.0991  0.0256 -0.1499
14707SOL    HW147076   3.877   9.419   8.395 -0.8160 -1.4847  0.2173
14707SOL    HW247077   3.924   9.390   8.253  0.1591  0.1736  0.1726
14708SOL     OW47078   7.952   8.070  10.278 -0.4683  0.1387 -0.1533
14708SOL    HW147079   7.871   8.120  10.292 -0.5334 -0.0950  0.3466
14708SOL    HW247080   7.932   7.983  10.312 -0.5878 -0.4430 -1.6731
14709SOL     OW47081   9.495   6.798   5.729 -0.3791  0.4261 -0.2189
14709SOL    HW147082   9.411   6.831   5.759 -0.5392 -1.0922  1.1360
14709SOL    HW247083   9.480   6.705   5.714  0.6128  0.4811 -1.7519
14710SOL     OW47084  10.010   3.175   3.761  0.0376  0.2703  0.4018
14710SOL    HW147085   9.980   3.091   3.797  2.0461 -0.9737 -0.5924
14710SOL    HW247086  10.105   3.172   3.772  0.1578  2.4910  0.4082
14711SOL     OW47087   2.339   4.607   3.612 -0.2991  0.1014 -0.2428
14711SOL    HW147088   2.431   4.633   3.602  0.0615 -1.0024  0.0921
14711SOL    HW247089   2.311   4.585   3.524  0.2549 -1.1221 -0.1325
14712SOL     OW47090   0.827   8.311   2.839  0.0440  0.3978  0.0600
14712SOL    HW147091   0.869   8.260   2.771 -0.3732  1.6777 -1.2043
14712SOL    HW247092   0.734   8.292   2.830  0.0556 -0.1551  0.9255
14713SOL     OW47093   4.676   3.473   5.655  0.2324  0.6122 -0.1121
14713SOL    HW147094   4.656   3.555   5.610 -0.7391  0.2267 -0.3898
14713SOL    HW247095   4.768   3.455   5.632  0.3543  1.4442 -0.3132
14714SOL     OW47096   7.475   8.669   1.609  0.6264 -0.0224  0.0818
14714SOL    HW147097   7.516   8.624   1.682  0.3735 -0.4004 -0.0081
14714SOL    HW247098   7.501   8.620   1.532  0.2239 -0.1112 -0.0020
14715SOL     OW47099   3.233   7.630   9.086  0.0937 -0.1032  0.1123
14715SOL    HW147100   3.202   7.713   9.123  1.0018 -0.3267  1.4419
14715SOL    HW247101   3.249   7.574   9.162  2.6456 -0.3699 -0.5296
14716SOL     OW47102   6.777  10.201  10.159  0.2755  0.2356  0.0929
14716SOL    HW147103   6.746  10.181  10.248 -1.1036  1.9972  0.0639
14716SOL    HW247104   6.706  10.171  10.102  0.7829 -0.1060 -0.3710
14717SOL     OW47105   8.534   6.186   7.311 -0.0445  0.2573 -0.2791
14717SOL    HW147106   8.525   6.142   7.395  0.8317 -0.1822 -0.4051
14717SOL    HW247107   8.573   6.271   7.332  1.1290 -0.2511 -0.3223
14718SOL     OW47108   6.973   8.108   0.892 -0.3860 -0.1411  0.9865
14718SOL    HW147109   6.916   8.034   0.916 -0.3279 -0.3775  0.4135
14718SOL    HW247110   7.015   8.080   0.811  1.3885 -0.4311  1.9527
14719SOL     OW47111   6.590   3.928   2.127 -0.3161  0.7700  0.1728
14719SOL    HW147112   6.627   3.900   2.044  1.0984  1.6787  0.4562
14719SOL    HW247113   6.554   3.849   2.166  0.0178  0.1235 -0.7990
14720SOL     OW47114   5.989   2.515   0.118  0.6647 -0.2937 -0.1915
14720SOL    HW147115   6.069   2.497   0.168  1.4744 -2.6029 -2.1201
14720SOL    HW247116   5.920   2.468   0.165  0.6150  0.7335  0.8194
14721SOL     OW47117   3.452   9.325  10.277 -0.2856 -0.0902 -0.1749
14721SOL    HW147118   3.436   9.408  10.233 -2.9301 -0.4630 -0.0458
14721SOL    HW247119   3.400   9.261  10.230  0.9878 -1.5486  0.2900
14722SOL     OW47120   7.708   8.486   5.599  0.1134  0.5537  0.7627
14722SOL    HW147121   7.678   8.568   5.558 -1.7103 -0.2344  0.4494
14722SOL    HW247122   7.689   8.418   5.534 -0.1480 -0.3546  1.7683
14723SOL     OW47123  10.430   2.344   8.370 -0.5155 -0.6478  0.2463
14723SOL    HW147124  10.477   2.270   8.407 -1.1272 -0.5050  1.3618
14723SOL    HW247125  10.391   2.310   8.289 -2.1542 -2.0430  1.5564
14724SOL     OW47126   1.287   0.529   2.303 -0.1769  0.7026  0.4923
14724SOL    HW147127   1.246   0.485   2.229 -0.8801 -0.2812  1.4473
14724SOL    HW247128   1.216   0.543   2.365  0.4521  1.3021  1.0899
14725SOL     OW47129   6.639   2.222  10.412 -0.1317 -0.1635  0.5276
14725SOL    HW147130   6.680   2.251  10.494 -1.2593  1.7492  0.4678
14725SOL    HW247131   6.549   2.255  10.417 -0.5636 -1.0330 -0.9712
14726SOL     OW47132   4.325  10.689   9.950 -0.2147  0.2166 -0.6550
14726SOL    HW147133   4.288  10.715  10.035 -0.0210 -1.9900  0.1691
14726SOL    HW247134   4.413  10.728   9.951 -0.4504  0.7610 -0.1382
14727SOL     OW47135   0.405   2.087   5.004 -0.1947 -0.1229 -0.2413
14727SOL    HW147136   0.372   2.038   5.079  2.5661  0.6884  1.6483
14727SOL    HW247137   0.441   2.020   4.946  0.6894 -0.6070  0.8112
14728SOL     OW47138   9.568   4.240   1.949 -0.5459  0.9267 -0.1363
14728SOL    HW147139   9.546   4.289   1.869  2.0943  0.8830 -0.9776
14728SOL    HW247140   9.566   4.306   2.018 -1.4236  1.2683 -0.4693
14729SOL     OW47141   9.010   9.841   2.160 -0.7744  0.2495 -0.0325
14729SOL    HW147142   9.088   9.786   2.155 -1.0345 -0.0299 -1.6711
14729SOL    HW247143   8.952   9.806   2.092 -0.8031  2.7163 -1.4191
14730SOL     OW47144   8.756   7.515   4.158 -0.4278 -0.6477  0.1870
14730SOL    HW147145   8.726   7.540   4.070  0.6072  0.2867  0.0780
14730SOL    HW247146   8.832   7.458   4.142 -0.6034 -0.9656  0.4742
14731SOL     OW47147   0.585   7.560   4.297 -0.3697 -0.8054  0.6631
14731SOL    HW147148   0.662   7.609   4.270 -0.0046 -1.5998  0.2210
14731SOL    HW247149   0.586   7.481   4.242 -0.4651 -1.7289  1.9513
14732SOL     OW47150   6.568   1.101   2.041 -0.0913  0.2426  0.1925
14732SOL    HW147151   6.623   1.027   2.068  0.4165 -0.4743 -2.4533
14732SOL    HW247152   6.494   1.060   1.997 -0.3439  1.2871 -0.3905
14733SOL     OW47153   0.135  10.028   3.451  0.2897 -0.3545  0.3981
14733SOL    HW147154   0.085  10.056   3.528  1.8082 -0.5382  1.5075
14733SOL    HW247155   0.158   9.937   3.469 -0.8410 -0.9808 -1.1265
14734SOL     OW47156   9.215   9.442  10.234 -0.0337 -0.0120 -0.3476
14734SOL    HW147157   9.128   9.449  10.195  0.1150  0.6383 -0.5820
14734SOL    HW247158   9.268   9.398  10.167 -0.3445 -1.0534  0.0758
14735SOL     OW47159   9.981   4.059   4.951 -0.3539  0.1884 -0.4002
14735SOL    HW147160  10.006   3.981   5.000 -2.7311 -0.2049  0.2845
14735SOL    HW247161   9.910   4.098   5.001 -0.1441  2.0542 -1.4523
14736SOL     OW47162   6.751   9.017   1.150 -0.4335  0.0689  0.8326
14736SOL    HW147163   6.799   8.974   1.220  1.8126  0.2309 -0.5146
14736SOL    HW247164   6.736   8.948   1.085 -0.7261  0.3416  0.6065
14737SOL     OW47165   7.743  10.253   6.603  0.7060 -0.4656 -0.1025
14737SOL    HW147166   7.820  10.279   6.653  0.8768  1.2095 -1.1392
14737SOL    HW247167   7.773  10.256   6.511 -0.5073 -0.0541 -0.4996
14738SOL     OW47168   9.202   8.834  10.457 -0.1913  0.4653  0.8220
14738SOL    HW147169   9.170   8.847  10.367 -2.2499  1.5737  1.6402
14738SOL    HW247170   9.233   8.743  10.459 -0.1163  0.4155 -0.9874
14739SOL     OW47171   6.987   1.049   4.481  0.4224  0.4578 -0.2598
14739SOL    HW147172   6.920   1.116   4.493  0.7386  0.5666  1.0614
14739SOL    HW247173   6.938   0.967   4.474  0.1440  0.4603  1.2868
14740SOL     OW47174   8.880  10.496  10.534 -0.1869  0.5880 -0.2349
14740SOL    HW147175   8.795  10.523  10.498 -0.1003  0.9776 -0.1573
14740SOL    HW247176   8.878  10.526  10.625  0.1472  0.8630 -0.3149
14741SOL     OW47177   8.330   8.410   6.408 -0.3876  0.0167  0.0724
14741SOL    HW147178   8.301   8.319   6.410 -0.4214 -0.0058 -1.2016
14741SOL    HW247179   8.424   8.405   6.425 -0.4481 -0.2179  0.3573
14742SOL     OW47180   4.273   4.754   8.396 -0.6582 -0.9188 -0.1352
14742SOL    HW147181   4.363   4.773   8.420 -1.0312 -0.5498  1.0342
14742SOL    HW247182   4.269   4.658   8.393 -0.2801 -0.9401  0.0209
14743SOL     OW47183   8.147   4.228   1.887  0.2187  0.5903  0.1305
14743SOL    HW147184   8.169   4.137   1.865 -0.1303  0.9816 -2.0589
14743SOL    HW247185   8.229   4.266   1.917  0.5512 -0.2225  0.2730
14744SOL     OW47186   2.480   0.600   8.811  0.0772 -0.3261 -0.0607
14744SOL    HW147187   2.388   0.594   8.837  0.3806  1.2100  1.5178
14744SOL    HW247188   2.526   0.628   8.890  1.4640  1.9139 -1.5545
14745SOL     OW47189   5.012   0.892   3.437  0.3551 -0.1271  0.0367
14745SOL    HW147190   4.986   0.972   3.483  0.6292 -0.1324  0.2048
14745SOL    HW247191   5.107   0.887   3.451  0.1651 -1.1423  1.0670
14746SOL     OW47192   6.393   4.625   2.717 -0.2527 -0.1442 -0.1464
14746SOL    HW147193   6.462   4.682   2.684 -0.2149  0.1626  0.4452
14746SOL    HW247194   6.420   4.537   2.690  0.1165  0.0280 -0.3507
14747SOL     OW47195   9.243   1.090   5.365 -0.2210 -0.1082  0.3850
14747SOL    HW147196   9.324   1.110   5.412 -0.1265  3.0328 -0.8829
14747SOL    HW247197   9.272   1.056   5.281 -0.1787  0.7854  0.0253
14748SOL     OW47198   2.185   0.015   8.561 -0.3192  0.2237 -0.1670
14748SOL    HW147199   2.110   0.074   8.566  0.4282  1.2330 -0.5817
14748SOL    HW247200   2.224   0.032   8.476  0.2856 -0.4275 -0.0361
14749SOL     OW47201   0.760   4.572   8.726  0.6524  0.0847 -0.0457
14749SOL    HW147202   0.796   4.569   8.815  1.9963 -1.9905 -0.6013
14749SOL    HW247203   0.824   4.525   8.672 -0.7645  0.1573 -1.8866
14750SOL     OW47204   2.230   6.029  10.650 -0.1833 -0.3852 -0.0432
14750SOL    HW147205   2.236   5.992  10.562 -0.2327 -1.0945  0.2434
14750SOL    HW247206   2.259   6.119  10.640 -0.0656 -0.4960 -0.7645
14751SOL     OW47207   6.580   6.300   6.844  0.6418 -0.1933  0.2003
14751SOL    HW147208   6.636   6.251   6.784  0.4627 -0.7668  0.4943
14751SOL    HW247209   6.589   6.255   6.928  0.2432  0.0971  0.4057
14752SOL     OW47210   7.364   9.085   6.686 -0.2344  0.7369 -0.0661
14752SOL    HW147211   7.321   9.060   6.768  0.1937  0.6676  0.1425
14752SOL    HW247212   7.306   9.052   6.618  0.0121 -0.3017  0.2013
14753SOL     OW47213   0.204   9.443   6.629  0.0706 -0.1871  0.0188
14753SOL    HW147214   0.248   9.456   6.545  0.0601  0.1567  0.0618
14753SOL    HW247215   0.199   9.348   6.641 -2.3200 -0.3631 -1.6508
14754SOL     OW47216   4.202   3.979   4.007 -0.1344  0.0595  0.1932
14754SOL    HW147217   4.194   4.066   4.047 -0.5430  0.2285 -0.2395
14754SOL    HW247218   4.250   3.927   4.071  0.1292  0.6109  0.4517
14755SOL     OW47219   0.877   3.797  10.192 -0.0014 -0.4204 -0.5668
14755SOL    HW147220   0.880   3.740  10.270  2.3008  0.5157  0.1106
14755SOL    HW247221   0.900   3.739  10.120 -4.8035 -1.9937 -1.2252
14756SOL     OW47222   1.179   5.746   2.170  0.4970  0.7833  0.4426
14756SOL    HW147223   1.238   5.786   2.106  2.0316 -0.4077  1.0735
14756SOL    HW247224   1.233   5.732   2.247 -0.9275  0.7310  1.4718
14757SOL     OW47225   2.444   1.162   9.160  0.4593  0.0305 -0.0358
14757SOL    HW147226   2.420   1.103   9.089 -0.8457 -2.1646  2.0685
14757SOL    HW247227   2.362   1.205   9.184  0.7620  0.3087  0.5140
14758SOL     OW47228   9.232   5.119   6.138  0.1482  0.1365 -0.0617
14758SOL    HW147229   9.234   5.176   6.062  0.0720 -0.0814 -0.2295
14758SOL    HW247230   9.318   5.077   6.139 -0.0123 -0.2072 -0.2976
14759SOL     OW47231   9.841   0.545   7.714  0.2576  0.2501  0.5123
14759SOL    HW147232   9.787   0.470   7.688  0.2229  0.2496  0.5858
14759SOL    HW247233   9.926   0.530   7.672  0.5860 -0.3684  1.3876
14760SOL     OW47234   3.882   5.161   8.424 -0.2922  0.0949  0.0155
14760SOL    HW147235   3.934   5.084   8.445  0.4708  0.2609 -1.1857
14760SOL    HW247236   3.799   5.147   8.470 -1.1220 -2.6237 -1.9956
14761SOL     OW47237   7.311   8.045   2.032 -0.1008 -0.5138  0.6174
14761SOL    HW147238   7.254   8.116   2.061  0.0244  0.1740 -0.7333
14761SOL    HW247239   7.361   8.020   2.110 -0.6441  0.4008  1.2708
14762SOL     OW47240   2.760  10.060   8.163 -0.2098  0.5790 -0.5825
14762SOL    HW147241   2.697   9.990   8.174 -0.9018  1.3358  0.3526
14762SOL    HW247242   2.710  10.141   8.176  0.7874  1.2187 -0.5804
14763SOL     OW47243   3.137   4.259   9.249 -0.6172 -0.7500 -0.2470
14763SOL    HW147244   3.226   4.272   9.219  0.3088 -0.3968  2.3925
14763SOL    HW247245   3.110   4.175   9.210  0.1426  0.0058 -2.5305
14764SOL     OW47246   2.420   0.241   3.763 -0.6085 -0.1566 -0.1383
14764SOL    HW147247   2.443   0.179   3.694 -0.5126 -0.4175  0.1307
14764SOL    HW247248   2.340   0.283   3.732  0.7052  1.4531 -1.5545
14765SOL     OW47249   5.131   2.014   4.539 -0.1454 -0.0772  0.0687
14765SOL    HW147250   5.196   2.023   4.608  0.2569 -0.0408 -0.3112
14765SOL    HW247251   5.047   2.025   4.584  0.1526  1.4682  0.3299
14766SOL     OW47252   6.691   6.423   7.323  0.3633  0.4164  0.6022
14766SOL    HW147253   6.603   6.393   7.346  0.0615  1.6127  1.0959
14766SOL    HW247254   6.699   6.509   7.365  1.4247  0.7403 -0.2114
14767SOL     OW47255   6.659   4.476   2.639 -0.6913 -0.1578  0.1004
14767SOL    HW147256   6.578   4.427   2.625  0.2665 -2.6714  2.5070
14767SOL    HW247257   6.695   4.489   2.551 -2.3115 -1.4787 -0.8019
14768SOL     OW47258  10.438   1.796  10.157  0.2076 -0.2635 -0.2232
14768SOL    HW147259  10.420   1.721  10.215 -0.9626  1.8410  2.3340
14768SOL    HW247260  10.362   1.798  10.098 -0.0884 -0.7009  0.1292
14769SOL     OW47261   1.867   9.171   2.846  0.2893 -0.4417  0.4900
14769SOL    HW147262   1.859   9.076   2.856 -0.3605 -0.4400  0.0591
14769SOL    HW247263   1.913   9.182   2.763  0.3192 -0.3788  0.5150
14770SOL     OW47264   1.677  10.221   2.328 -0.0132  0.0640 -0.7661
14770SOL    HW147265   1.632  10.136   2.320 -1.4566  0.6135  0.9159
14770SOL    HW247266   1.631  10.266   2.398  0.7650  2.2454 -1.5707
14771SOL     OW47267   6.175   6.537   5.276  0.0252  0.2489  0.5464
14771SOL    HW147268   6.196   6.631   5.280  0.3917  0.1890  0.0794
14771SOL    HW247269   6.203   6.503   5.361  0.3205  0.4788  0.5432
14772SOL     OW47270  10.032   4.256   4.693  0.9200 -0.3053  0.0990
14772SOL    HW147271  10.002   4.301   4.613  0.3174 -0.0432  0.4635
14772SOL    HW247272  10.004   4.313   4.764  2.7454  0.1846  0.4531
14773SOL     OW47273   8.595  10.114   5.014 -0.1448 -0.3415  0.4086
14773SOL    HW147274   8.530  10.126   4.944  0.7250  0.4633 -0.2870
14773SOL    HW247275   8.550  10.143   5.093 -0.6016  0.3528 -0.0925
14774SOL     OW47276   0.593   6.365   8.620  0.4507 -0.4252 -0.2342
14774SOL    HW147277   0.589   6.296   8.686  0.6465  0.4716  0.7279
14774SOL    HW247278   0.624   6.443   8.667 -4.3965  1.7530 -0.0694
14775SOL     OW47279   9.879   8.477   2.602  0.3590 -0.0661  0.7452
14775SOL    HW147280   9.970   8.499   2.582  0.3818  0.0563  0.9813
14775SOL    HW247281   9.841   8.558   2.636 -0.3539  0.4210 -1.0877
14776SOL     OW47282   1.206   2.314   7.534  0.3106 -0.0475  0.7011
14776SOL    HW147283   1.118   2.352   7.527  0.1894 -0.1226  1.6579
14776SOL    HW247284   1.263   2.390   7.546  0.1624 -0.0926  1.8037
14777SOL     OW47285   8.910   6.681   0.841  0.0140  0.2775 -0.2756
14777SOL    HW147286   8.965   6.757   0.860 -0.2220  0.4335 -0.2109
14777SOL    HW247287   8.968   6.620   0.795  0.1386  0.6065 -0.5602
14778SOL     OW47288   7.092   3.153   7.521 -0.2773 -0.2923 -0.0899
14778SOL    HW147289   7.039   3.227   7.493  0.6967  0.1618 -0.8343
14778SOL    HW247290   7.030   3.082   7.535 -1.0864  0.2685 -0.7670
14779SOL     OW47291   1.700   2.207   2.578  0.7315 -0.2726 -0.5290
14779SOL    HW147292   1.703   2.112   2.577  0.4596 -0.3092 -2.9007
14779SOL    HW247293   1.788   2.234   2.605  1.6762 -1.2307 -2.4566
14780SOL     OW47294   0.486   1.928   4.175  0.2596  0.1784  0.6371
14780SOL    HW147295   0.536   1.846   4.174 -0.2607 -0.1361  0.0637
14780SOL    HW247296   0.414   1.914   4.114  0.9770  1.5690 -0.6073
14781SOL     OW47297   8.057   6.818   3.342  0.2487  0.0377  0.1890
14781SOL    HW147298   8.147   6.796   3.367  0.0522  0.7377  1.6486
14781SOL    HW247299   8.062   6.911   3.317  0.1516 -0.2543 -0.9491
14782SOL     OW47300   0.711   1.895   5.340  0.1430  0.1622 -0.5124
14782SOL    HW147301   0.745   1.912   5.428  0.1848 -0.2546 -0.4424
14782SOL    HW247302   0.776   1.838   5.300 -1.6329 -2.8741  0.5577
14783SOL     OW47303   8.723   1.112   1.001 -0.2720  0.1198  0.1892
14783SOL    HW147304   8.642   1.065   0.980  0.3646 -1.3794  0.9200
14783SOL    HW247305   8.716   1.194   0.953  0.0069 -1.9992 -3.9332
14784SOL     OW47306   3.619   0.720   9.648  0.2093 -0.4821 -0.3177
14784SOL    HW147307   3.569   0.773   9.710 -1.0683 -1.8050 -0.1598
14784SOL    HW247308   3.697   0.694   9.696 -0.9944 -1.9073  0.9894
14785SOL     OW47309   3.052   8.072   4.058 -0.7414 -0.1374  0.4495
14785SOL    HW147310   2.965   8.038   4.080 -0.6563 -0.4006  0.3698
14785SOL    HW247311   3.085   8.106   4.141 -1.3462  0.9160  0.2832
14786SOL     OW47312   8.308   5.855   8.015 -0.8224  0.5306  0.4720
14786SOL    HW147313   8.213   5.849   8.004 -0.6010 -2.6709 -0.9878
14786SOL    HW247314   8.340   5.888   7.931 -0.5766  0.3541  0.4947
14787SOL     OW47315   0.715  10.197   4.396 -0.2415 -0.6125 -0.0643
14787SOL    HW147316   0.753  10.195   4.309  1.2649 -0.5382  0.5672
14787SOL    HW247317   0.774  10.143   4.449 -1.7794 -1.6595  0.6701
14788SOL     OW47318   6.707  10.367   8.574  0.3291  0.1474 -0.2038
14788SOL    HW147319   6.714  10.316   8.654  0.3349  0.8341  0.2442
14788SOL    HW247320   6.613  10.368   8.555  0.3593 -0.2748 -0.3770
14789SOL     OW47321   6.952   4.991   2.103  0.1583  0.0035  0.3339
14789SOL    HW147322   6.893   4.945   2.043  0.3943  1.6622 -1.2402
14789SOL    HW247323   6.895   5.050   2.152  0.3949  1.2381 -0.8288
14790SOL     OW47324   2.455   2.170   3.651 -0.2486  0.4752 -0.0323
14790SOL    HW147325   2.502   2.247   3.619 -0.8270  0.7545 -0.2309
14790SOL    HW247326   2.511   2.096   3.627  0.2175  0.8172 -0.0134
14791SOL     OW47327   0.905   0.793   9.819 -0.3081  0.4507  0.4326
14791SOL    HW147328   0.938   0.769   9.732 -1.2488  2.2391 -0.4722
14791SOL    HW247329   0.874   0.710   9.856 -2.1833 -0.0548 -1.9670
14792SOL     OW47330  10.145  10.671   5.018 -0.4516 -0.5525  0.1332
14792SOL    HW147331  10.207  10.723   4.966  0.2527 -0.9205  0.5951
14792SOL    HW247332  10.094  10.624   4.953  0.2527 -0.8125 -0.2489
14793SOL     OW47333   6.714   0.280   3.037 -0.1023 -0.7736 -0.4264
14793SOL    HW147334   6.626   0.316   3.055  0.6485  0.4595  1.0733
14793SOL    HW247335   6.766   0.308   3.112  2.0299  0.0467 -2.1256
14794SOL     OW47336   5.548   3.984   4.615  0.3668 -0.1815  0.0467
14794SOL    HW147337   5.571   3.937   4.535 -0.7502  2.0932 -1.7211
14794SOL    HW247338   5.632   3.997   4.659  1.2367 -0.2619 -1.4915
14795SOL     OW47339   4.404   7.662   9.115  0.0765 -0.7256  0.0444
14795SOL    HW147340   4.401   7.753   9.083 -0.4531 -0.4950  0.7343
14795SOL    HW247341   4.452   7.615   9.047 -0.9203 -0.2178 -1.0564
14796SOL     OW47342   8.192   6.512   2.206 -0.2217  0.2686 -0.1864
14796SOL    HW147343   8.212   6.537   2.297  0.6788 -1.1275  0.0343
14796SOL    HW247344   8.103   6.543   2.192 -0.5684  0.0654  1.3604
14797SOL     OW47345   9.820  10.665   4.263  0.5941 -0.3640 -0.1024
14797SOL    HW147346   9.862  10.580   4.275  2.7922  0.4485 -1.3845
14797SOL    HW247347   9.744  10.663   4.321  1.5027 -2.5579  1.1364
14798SOL     OW47348   1.072   2.732   2.518 -0.2248 -0.2364 -0.2745
14798SOL    HW147349   1.148   2.698   2.564 -1.3053 -1.0173  1.0289
14798SOL    HW247350   1.035   2.798   2.577 -0.1740  0.6580 -1.2090
14799SOL     OW47351  10.143   2.841   7.786  0.1650  0.3977 -0.1178
14799SOL    HW147352  10.129   2.902   7.713 -0.1587 -0.9828 -1.2607
14799SOL    HW247353  10.139   2.754   7.745  0.4285 -0.3993  1.4887
14800SOL     OW47354   0.689   3.493   9.288 -0.1142  0.3296 -0.1078
14800SOL    HW147355   0.754   3.433   9.325 -0.9467 -1.0159 -0.7458
14800SOL    HW247356   0.708   3.493   9.194 -1.3497 -0.5111 -0.3814
14801SOL     OW47357   6.666   9.881   9.880 -0.6860 -1.2303  0.1773
14801SOL    HW147358   6.628   9.951   9.933  1.4639  3.0027 -3.2021
14801SOL    HW247359   6.614   9.881   9.800  0.6705 -2.0143 -0.7421
14802SOL     OW47360   2.276  10.473   6.693 -0.4903 -0.4266  0.5017
14802SOL    HW147361   2.230  10.447   6.773 -0.8582  0.7470  0.6973
14802SOL    HW247362   2.207  10.485   6.628 -0.2151 -1.1107  0.0712
14803SOL     OW47363   3.128   2.851   9.575 -0.1568 -0.2325 -0.1481
14803SOL    HW147364   3.122   2.762   9.539  3.2914 -1.3006  1.4445
14803SOL    HW247365   3.149   2.837   9.668  1.0891  2.2277 -0.0009
14804SOL     OW47366   7.277   1.560   2.855  0.0124 -0.1166 -0.4422
14804SOL    HW147367   7.290   1.516   2.940 -1.2644 -0.5983 -0.4654
14804SOL    HW247368   7.197   1.611   2.867  0.2635  0.4514 -1.1215
14805SOL     OW47369   0.330   3.759   1.080 -0.5979 -0.3669  0.1642
14805SOL    HW147370   0.310   3.836   1.026  0.1954 -0.6747 -0.6101
14805SOL    HW247371   0.245   3.718   1.096 -0.9331  0.1734 -0.1922
14806SOL     OW47372   5.336   0.252   1.495  0.3187 -0.5731  0.8843
14806SOL    HW147373   5.392   0.330   1.504  1.8472 -1.5306  0.0668
14806SOL    HW247374   5.305   0.235   1.584 -0.7371  1.4386  0.9516
14807SOL     OW47375   6.977   6.234   1.256 -0.4401  0.0285 -0.0284
14807SOL    HW147376   7.025   6.276   1.185 -0.4925 -0.4165 -0.3261
14807SOL    HW247377   6.927   6.165   1.214 -0.2764 -0.4004  0.4740
14808SOL     OW47378   6.497   9.606   1.197 -0.3152  0.3620  0.0316
14808SOL    HW147379   6.487   9.515   1.170 -2.2054 -0.3411  2.6808
14808SOL    HW247380   6.414   9.648   1.171 -0.3789  0.7422  0.8330
14809SOL     OW47381   1.900  10.385   9.592  0.2762 -0.2855 -0.8067
14809SOL    HW147382   1.863  10.299   9.613  2.5240 -0.9651  0.7028
14809SOL    HW247383   1.894  10.434   9.674  2.9970 -0.5852 -0.3414
14810SOL     OW47384  10.558   2.066   9.457  0.1403  0.3708 -0.3026
14810SOL    HW147385  10.596   2.122   9.389  0.3789  0.2062 -0.3031
14810SOL    HW247386  10.609   2.085   9.536 -0.4965  0.9774 -0.0251
14811SOL     OW47387   2.536   6.232   4.509 -0.4652 -0.5001 -0.1556
14811SOL    HW147388   2.441   6.219   4.520 -0.5337  0.6221  0.8072
14811SOL    HW247389   2.554   6.315   4.554  1.3144 -1.6886  1.4773
14812SOL     OW47390   0.641   2.987   3.338  0.0386 -0.0614 -0.4704
14812SOL    HW147391   0.608   3.055   3.279  0.6390 -0.3839 -1.1940
14812SOL    HW247392   0.689   3.035   3.405 -2.2587  0.4627  0.9052
14813SOL     OW47393   4.149   5.433   2.688  0.0686  0.4286 -0.1647
14813SOL    HW147394   4.237   5.423   2.652  0.1139  1.2740 -0.3025
14813SOL    HW247395   4.126   5.524   2.671 -0.1294  0.7151  1.4773
14814SOL     OW47396   8.126   3.080   7.552  0.1372  0.3798  0.3216
14814SOL    HW147397   8.085   2.994   7.562 -1.0498  0.9389  0.3859
14814SOL    HW247398   8.212   3.070   7.593 -0.0698 -0.7147  0.5176
14815SOL     OW47399   4.366   4.986  10.366 -0.2129 -0.4167  0.1061
14815SOL    HW147400   4.410   4.917  10.316 -0.0577 -0.4821  0.3277
14815SOL    HW247401   4.274   4.978  10.342 -0.4131 -1.5994  1.1589
14816SOL     OW47402   0.464   1.635   0.129 -0.0281  0.3952 -0.0439
14816SOL    HW147403   0.499   1.673   0.049  2.5954  0.4116  1.0166
14816SOL    HW247404   0.448   1.710   0.187  0.5325  0.2281  0.3368
14817SOL     OW47405   7.096   7.049   8.555 -0.2470 -0.0309  0.5350
14817SOL    HW147406   7.084   6.963   8.595  1.3457 -0.2247  0.6562
14817SOL    HW247407   7.047   7.109   8.612  2.9935 -0.0854  3.7271
14818SOL     OW47408  10.665   4.144   5.129  0.1016 -0.2708  0.0921
14818SOL    HW147409  10.576   4.166   5.155  0.3734  2.0436 -0.6779
14818SOL    HW247410  10.663   4.147   5.033  0.4290 -2.9246 -0.0732
14819SOL     OW47411   1.214   0.477   8.790  0.2806  0.2219 -0.2286
14819SOL    HW147412   1.138   0.421   8.773  1.0587 -0.5966 -1.1253
14819SOL    HW247413   1.244   0.452   8.877 -1.0519  1.2608  0.5716
14820SOL     OW47414   1.258   6.378   1.644 -0.5753  0.3858 -0.0471
14820SOL    HW147415   1.191   6.369   1.576 -0.3289 -2.2057 -0.0244
14820SOL    HW247416   1.341   6.378   1.596 -0.4508 -0.2222  0.1591
14821SOL     OW47417   0.319   6.794   4.647 -0.3918 -0.2987 -0.0627
14821SOL    HW147418   0.324   6.871   4.590 -0.3152  0.0180  0.3717
14821SOL    HW247419   0.305   6.829   4.735  1.6788 -0.6560  0.4576
14822SOL     OW47420   0.622   2.864  10.087 -0.9736  0.4370 -0.1668
14822SOL    HW147421   0.572   2.785  10.106 -2.6774  1.9077  1.9525
14822SOL    HW247422   0.627   2.911  10.170 -0.0848  2.6005 -1.3361
14823SOL     OW47423   2.146   2.921   7.678  0.9844  0.4549 -0.1311
14823SOL    HW147424   2.189   2.848   7.634  1.0153  0.1886  0.3414
14823SOL    HW247425   2.195   2.932   7.759 -0.4122 -0.4668  0.8724
14824SOL     OW47426  10.223   2.799   5.459 -0.1653 -0.2242 -0.2220
14824SOL    HW147427  10.307   2.805   5.504 -1.2483  2.4959  1.6692
14824SOL    HW247428  10.158   2.800   5.529 -1.8530  0.2889 -1.7210
14825SOL     OW47429   3.311   4.553   2.966  0.2453 -0.0818 -0.0682
14825SOL    HW147430   3.404   4.571   2.950  0.8026 -0.5353  2.2631
14825SOL    HW247431   3.306   4.458   2.978 -0.6471 -0.1451 -0.8698
14826SOL     OW47432   9.837  10.120   3.624 -0.5846 -0.1142 -0.5163
14826SOL    HW147433   9.857  10.101   3.533 -1.4607  1.6812 -1.1275
14826SOL    HW247434   9.764  10.062   3.646  0.2191 -1.2022 -0.6390
14827SOL     OW47435   5.584   9.579   4.657 -0.3706  0.2407 -0.5278
14827SOL    HW147436   5.658   9.563   4.717 -1.2208  0.1948  0.5384
14827SOL    HW247437   5.609   9.535   4.576 -0.0313 -1.3552  0.4041
14828SOL     OW47438   8.070   7.153   8.012 -0.3635 -0.6065  0.4225
14828SOL    HW147439   8.128   7.077   8.007 -0.0954 -0.4877  1.5736
14828SOL    HW247440   8.096   7.199   8.091 -0.6898  0.5710 -0.1307
14829SOL     OW47441   6.877   3.141   3.894 -0.7871  0.5691 -0.0744
14829SOL    HW147442   6.960   3.188   3.884  0.2814 -0.9387  1.3123
14829SOL    HW247443   6.825   3.169   3.818  0.5411  2.3994 -0.3878
14830SOL     OW47444   8.702   0.349   2.594 -0.0750 -0.1832 -0.5434
14830SOL    HW147445   8.786   0.383   2.624 -0.5794 -0.0172  0.7398
14830SOL    HW247446   8.673   0.290   2.663 -1.6332  0.7749 -0.3215
14831SOL     OW47447   7.264   2.765   5.994 -0.2444 -0.0154  0.4824
14831SOL    HW147448   7.321   2.689   6.004  1.0488  1.0561  1.7402
14831SOL    HW247449   7.281   2.797   5.906  0.0114 -0.5521  0.3348
14832SOL     OW47450  10.437   0.278   3.613 -0.2236 -0.0065 -0.0179
14832SOL    HW147451  10.366   0.226   3.576  0.0172  1.0626 -2.1309
14832SOL    HW247452  10.509   0.216   3.625  0.1974 -0.2067 -2.8613
14833SOL     OW47453   6.216   6.186   9.248 -0.4887  0.2017  0.4745
14833SOL    HW147454   6.138   6.133   9.233 -0.4744  0.2252  0.3122
14833SOL    HW247455   6.263   6.184   9.164 -0.4536  0.4115  0.4899
14834SOL     OW47456   1.179   7.912   1.152 -0.1766 -0.1419  0.2738
14834SOL    HW147457   1.262   7.872   1.128 -0.3641 -0.7301  0.5803
14834SOL    HW247458   1.180   7.997   1.109  0.2421 -0.4608 -0.3657
14835SOL     OW47459   3.083   2.534   5.818 -0.2939  0.1070 -0.0921
14835SOL    HW147460   3.137   2.613   5.810 -0.5934  0.2898 -0.3091
14835SOL    HW247461   3.012   2.546   5.755 -0.5985 -0.1271  0.2026
14836SOL     OW47462   2.239   0.824  10.223 -0.7217  0.0969  0.0854
14836SOL    HW147463   2.262   0.732  10.228 -0.2699  0.1818 -0.3150
14836SOL    HW247464   2.143   0.825  10.222 -0.7977 -0.2347  2.3300
14837SOL     OW47465   4.322   3.348   0.202 -0.6592  0.6556 -0.2247
14837SOL    HW147466   4.387   3.301   0.254  0.3631  0.3759 -1.6760
14837SOL    HW247467   4.238   3.328   0.243  0.0813  0.3134  1.1766
14838SOL     OW47468   2.727   3.993   5.958 -0.0340 -0.4036 -0.0204
14838SOL    HW147469   2.644   3.985   6.005 -1.2776  0.9732 -1.8260
14838SOL    HW247470   2.707   3.963   5.869  1.9793 -2.0456  0.0189
14839SOL     OW47471   8.292   5.008   9.501  0.0907  0.4208 -0.0994
14839SOL    HW147472   8.291   4.938   9.565  0.5334  0.5589  0.0649
14839SOL    HW247473   8.273   5.088   9.551 -2.4086  0.2224 -0.5802
14840SOL     OW47474   6.874   0.974   1.485  0.1489 -0.0206  0.4427
14840SOL    HW147475   6.840   0.975   1.395 -2.0351 -0.4300  1.1988
14840SOL    HW247476   6.969   0.971   1.475 -0.0457 -2.8642 -1.9050
14841SOL     OW47477   9.107   3.498   8.295  0.0447 -1.2942  0.5918
14841SOL    HW147478   9.016   3.488   8.267 -0.7344  0.7610  2.1384
14841SOL    HW247479   9.116   3.439   8.370  0.2517 -2.0577 -0.0144
14842SOL     OW47480   5.800   4.373   4.224 -0.1776 -0.2319  0.3042
14842SOL    HW147481   5.755   4.383   4.308 -0.3763  0.5597  0.1181
14842SOL    HW247482   5.741   4.321   4.170 -0.7587  0.5659  0.1535
14843SOL     OW47483   4.392   4.970   8.861  0.0472  0.1267  0.0611
14843SOL    HW147484   4.410   5.056   8.898 -0.6692  0.1619  0.3399
14843SOL    HW247485   4.460   4.913   8.898 -0.3214  0.2821  0.9934
14844SOL     OW47486   0.070   9.427   2.279  0.4286  0.1711  0.4949
14844SOL    HW147487  -0.025   9.416   2.289  0.4559  0.7830  1.7017
14844SOL    HW247488   0.082   9.521   2.268  0.8421  0.0026 -0.6095
14845SOL     OW47489   8.102   7.848   9.315 -0.1112 -0.2597 -0.5529
14845SOL    HW147490   8.115   7.795   9.393  1.6749  2.2930  1.0586
14845SOL    HW247491   8.037   7.913   9.341  1.6810  1.6294 -0.5182
14846SOL     OW47492  10.292   8.396   6.936  0.6744 -0.2173  0.6308
14846SOL    HW147493  10.335   8.480   6.925  1.6606 -0.8669 -0.8261
14846SOL    HW247494  10.227   8.393   6.865 -1.1625  0.3410  2.2099
14847SOL     OW47495   0.813   2.836   7.406 -0.3423 -0.5479 -0.0966
14847SOL    HW147496   0.839   2.928   7.415 -0.4737 -0.0968 -3.0792
14847SOL    HW247497   0.831   2.797   7.491  2.0424  1.6802  0.5457
14848SOL     OW47498   8.716   7.107   9.781  0.4682 -0.4491  0.5630
14848SOL    HW147499   8.630   7.065   9.781 -0.4868  1.4071  0.4177
14848SOL    HW247500   8.720   7.155   9.863 -0.1933  2.3886 -0.9490
14849SOL     OW47501   7.453   0.585   7.909 -0.1437 -0.6842  0.5098
14849SOL    HW147502   7.469   0.542   7.993 -0.9321 -2.6207 -0.2947
14849SOL    HW247503   7.487   0.525   7.843 -2.0443 -0.5077 -0.7082
14850SOL     OW47504   8.981   3.396   3.144 -0.1447 -0.1337 -0.4501
14850SOL    HW147505   8.997   3.421   3.053 -1.2921  0.0317 -0.6207
14850SOL    HW247506   9.000   3.302   3.147  0.0800 -0.1004 -0.8200
14851SOL     OW47507   7.824   7.724   8.618 -0.4530 -0.3290  0.3971
14851SOL    HW147508   7.839   7.736   8.524  0.8164 -1.8507  0.3678
14851SOL    HW247509   7.818   7.813   8.653  1.0663  0.3017 -0.8268
14852SOL     OW47510   0.026   9.570   1.977  0.0390 -0.2339 -0.4040
14852SOL    HW147511  -0.008   9.570   2.066  0.4347 -1.6009 -0.2276
14852SOL    HW247512  -0.043   9.609   1.924 -0.3855  0.1642  0.4319
14853SOL     OW47513   5.176   2.707   2.271  0.3736  0.1907  0.3271
14853SOL    HW147514   5.211   2.681   2.186 -0.0059  0.6791  0.0156
14853SOL    HW247515   5.253   2.736   2.321  0.5560  0.2140  0.0360
14854SOL     OW47516   5.012   6.931   8.594 -0.4219  0.1894 -0.3039
14854SOL    HW147517   4.926   6.937   8.636  0.5060  1.9653  1.5861
14854SOL    HW247518   5.057   6.862   8.642 -1.3250 -2.0959 -2.5454
14855SOL     OW47519   0.973   5.289   5.950 -0.2013  0.1551  0.1801
14855SOL    HW147520   1.024   5.252   5.878  0.2361 -1.2019  1.1288
14855SOL    HW247521   0.896   5.326   5.908 -0.9375 -2.3448 -0.8634
14856SOL     OW47522   4.468   7.311   5.049 -0.0333  0.1730  0.4408
14856SOL    HW147523   4.417   7.353   5.118  1.3770  1.2565  0.8969
14856SOL    HW247524   4.409   7.307   4.974 -1.0798  0.4791  1.2267
14857SOL     OW47525   8.766   4.219   3.315 -0.7274  0.2156  0.8031
14857SOL    HW147526   8.851   4.261   3.313 -0.9118  0.6982 -2.0289
14857SOL    HW247527   8.785   4.127   3.330  0.3758  0.2328 -0.3197
14858SOL     OW47528   9.649   8.110   8.031 -0.5438 -0.5720  0.3734
14858SOL    HW147529   9.736   8.137   8.062 -0.4069 -0.7849  0.1823
14858SOL    HW247530   9.598   8.097   8.110 -0.3356 -0.6610  0.4951
14859SOL     OW47531   0.163   9.355   9.144  0.3387  0.4529  0.2102
14859SOL    HW147532   0.251   9.327   9.117 -0.4398 -1.4123 -0.6128
14859SOL    HW247533   0.148   9.436   9.096  0.3447 -0.9967 -2.4271
14860SOL     OW47534  10.421   0.833   4.619  0.2299  0.0305 -0.2591
14860SOL    HW147535  10.343   0.823   4.674 -1.6018  0.3774 -2.6259
14860SOL    HW247536  10.494   0.829   4.680 -1.5866 -1.1025  1.9928
14861SOL     OW47537   0.051   2.047   4.019  0.2004  0.1996 -0.2482
14861SOL    HW147538   0.010   2.048   3.932  1.8374  0.5300 -1.0628
14861SOL    HW247539   0.068   2.139   4.039  0.8532  0.0539 -0.1049
14862SOL     OW47540   0.478   5.661   1.177 -0.5423 -0.3802  0.5763
14862SOL    HW147541   0.434   5.692   1.256 -0.5444  0.0627  0.4032
14862SOL    HW247542   0.454   5.724   1.109 -0.1654 -0.4944  0.3299
14863SOL     OW47543   6.815   1.533   8.563 -0.1950 -0.4345 -0.1127
14863SOL    HW147544   6.792   1.547   8.655  0.9723  1.2534 -0.0251
14863SOL    HW247545   6.840   1.620   8.531  3.1281 -1.5381 -0.9310
14864SOL     OW47546   8.939   7.212   1.679 -0.1670  0.0912  0.3974
14864SOL    HW147547   8.995   7.241   1.752 -0.7031 -0.9600  1.2606
14864SOL    HW247548   8.952   7.278   1.611  1.2196  0.5018  1.0185
14865SOL     OW47549  10.122   2.783   1.997  0.1149  0.4349  0.1097
14865SOL    HW147550  10.069   2.782   2.077 -0.5045  1.9111 -0.2623
14865SOL    HW247551  10.084   2.713   1.943  0.2233 -0.2412  0.8895
14866SOL     OW47552   8.946   7.665   0.658 -0.8825 -0.5505 -0.0138
14866SOL    HW147553   8.921   7.755   0.638  1.2628  0.2359  0.5798
14866SOL    HW247554   8.904   7.612   0.590 -0.7127  1.0933 -1.4542
14867SOL     OW47555   7.738   3.725   5.970 -0.5966 -0.2687 -0.1232
14867SOL    HW147556   7.648   3.754   5.983 -1.2567 -2.7351  1.5266
14867SOL    HW247557   7.759   3.676   6.049  1.9269 -0.4840 -0.8390
14868SOL     OW47558   7.853   6.788  10.027  0.0757  0.2826  0.2059
14868SOL    HW147559   7.924   6.806   9.965 -0.8268  1.5310 -0.5309
14868SOL    HW247560   7.891   6.729  10.091  1.7304  0.7999 -0.2498
14869SOL     OW47561   8.472   8.213   2.128 -0.0139  0.3584 -0.3964
14869SOL    HW147562   8.400   8.209   2.191  0.9327 -1.6087  0.6740
14869SOL    HW247563   8.439   8.166   2.051  0.3017 -1.1707  0.3597
14870SOL     OW47564   5.055  10.409   8.827  0.0533 -0.2245  0.4635
14870SOL    HW147565   5.018  10.352   8.894  0.2099 -0.2322  0.5449
14870SOL    HW247566   5.074  10.491   8.873 -0.8203  0.1348  0.1880
14871SOL     OW47567   2.953   6.932   8.634 -0.3380  0.1724  0.2806
14871SOL    HW147568   2.976   7.013   8.588  0.6060 -0.5724 -0.6080
14871SOL    HW247569   2.932   6.870   8.564 -0.8459 -0.4252  0.9466
14872SOL     OW47570   4.337   0.727  10.529  0.6196  0.3638 -0.1777
14872SOL    HW147571   4.335   0.694  10.439 -0.1895 -2.4354  0.7783
14872SOL    HW247572   4.428   0.718  10.556  0.9521  1.6039 -0.7923
14873SOL     OW47573   0.369   0.150   4.031 -0.5236 -0.0512 -0.1519
14873SOL    HW147574   0.402   0.130   4.118  5.0998 -1.0319 -2.0486
14873SOL    HW247575   0.379   0.069   3.982  0.8235  1.4690 -2.6335
14874SOL     OW47576   7.953   5.934   0.081  0.0682 -0.0326 -0.2276
14874SOL    HW147577   8.041   5.901   0.064  0.3839  1.2753 -1.2319
14874SOL    HW247578   7.966   6.022   0.115 -0.8386 -0.1530  0.4883
14875SOL     OW47579   9.085   9.453   1.806  0.3432 -0.2935 -0.3943
14875SOL    HW147580   9.080   9.548   1.794 -0.6708 -0.3714 -0.6827
14875SOL    HW247581   9.165   9.439   1.856  1.4723  0.5620 -1.8598
14876SOL     OW47582   4.334   0.301   0.903 -0.0038 -0.2773  0.2735
14876SOL    HW147583   4.295   0.225   0.948 -1.7073 -0.7707 -1.8799
14876SOL    HW247584   4.362   0.266   0.818  2.2888  0.8203  0.5222
14877SOL     OW47585   3.336   7.631   1.375 -0.8168 -0.3178  0.0491
14877SOL    HW147586   3.248   7.617   1.341 -1.2906 -1.1761  1.5598
14877SOL    HW247587   3.374   7.544   1.379 -1.0667 -0.3689  2.4040
14878SOL     OW47588   9.793   1.388  10.314 -0.1784  0.2167 -0.0700
14878SOL    HW147589   9.795   1.365  10.407  3.3416  1.0653  0.1832
14878SOL    HW247590   9.798   1.483  10.313 -0.0937  0.2115 -1.1520
14879SOL     OW47591   5.719   3.519   7.089  0.3896  0.0087  0.1049
14879SOL    HW147592   5.780   3.534   7.017 -1.0111 -1.0378 -1.3751
14879SOL    HW247593   5.687   3.430   7.076  0.7327 -0.5621  2.5584
14880SOL     OW47594   9.402   7.026   2.455 -0.0154 -0.8839  0.4084
14880SOL    HW147595   9.405   7.081   2.377 -0.0252 -0.0307  1.0032
14880SOL    HW247596   9.334   7.064   2.510  1.7484  0.1200  1.9887
14881SOL     OW47597   1.493   8.605   1.570 -0.0943  0.7322 -0.0976
14881SOL    HW147598   1.423   8.669   1.557 -0.8764 -0.1812 -0.4713
14881SOL    HW247599   1.514   8.611   1.663 -0.0432  1.6272 -0.1535
14882SOL     OW47600   7.900   1.664   0.837 -0.1273 -0.6411  0.2882
14882SOL    HW147601   7.938   1.647   0.751 -0.6509  0.0581 -0.0946
14882SOL    HW247602   7.912   1.758   0.851 -2.6820 -0.1275 -0.3754
14883SOL     OW47603   2.401   9.639   2.099 -0.4756  0.2188  0.2371
14883SOL    HW147604   2.430   9.560   2.145  2.0875  0.2131 -1.2254
14883SOL    HW247605   2.332   9.608   2.040 -0.2867 -0.7086  0.4823
14884SOL     OW47606   9.554   9.044   5.863  0.4791  0.0190  0.9463
14884SOL    HW147607   9.477   9.056   5.919 -0.8291  0.3158 -0.8316
14884SOL    HW247608   9.541   8.958   5.823  1.3637 -0.1645  1.0239
14885SOL     OW47609   4.383   7.417   5.986  0.1446 -0.8950 -0.3526
14885SOL    HW147610   4.444   7.408   5.912  0.6148 -0.7403  0.0133
14885SOL    HW247611   4.427   7.478   6.046  0.1908 -1.7576  0.5059
14886SOL     OW47612   7.685   4.887   6.030  0.1700  0.6424  0.1349
14886SOL    HW147613   7.690   4.937   6.111  0.1415 -0.2578  0.6962
14886SOL    HW247614   7.595   4.853   6.028  0.6738 -0.7933  0.6216
14887SOL     OW47615  10.300   6.358   2.687  0.2752  0.4263  0.2459
14887SOL    HW147616  10.335   6.330   2.771 -1.5830  1.3083  1.3939
14887SOL    HW247617  10.297   6.454   2.693 -3.2512  0.4146  0.7558
14888SOL     OW47618   2.147   0.487   9.716  0.0741 -0.1092 -0.3830
14888SOL    HW147619   2.238   0.482   9.746  0.4726  0.4920 -1.4431
14888SOL    HW247620   2.131   0.402   9.674  0.3111 -0.0280 -0.6392
14889SOL     OW47621   1.133   3.813   9.039 -0.2758 -0.0891 -0.5136
14889SOL    HW147622   1.150   3.845   8.950  0.3093  0.2436 -0.2888
14889SOL    HW247623   1.048   3.851   9.062 -0.3432 -0.0237 -0.8563
14890SOL     OW47624   5.195   8.176   3.068 -0.0037  0.3283  0.3036
14890SOL    HW147625   5.236   8.160   3.153  0.6421 -0.6575 -0.1687
14890SOL    HW247626   5.170   8.089   3.037  0.5458  0.5641 -0.8881
14891SOL     OW47627   8.854   6.293   6.542 -0.5804  0.2873  0.0666
14891SOL    HW147628   8.886   6.324   6.458 -0.9334  0.2845 -0.0678
14891SOL    HW247629   8.784   6.231   6.521 -0.3211 -0.1068  0.3476
14892SOL     OW47630   5.839   8.333   9.058 -0.2442  0.3158  0.0111
14892SOL    HW147631   5.818   8.425   9.074  0.2047  0.7914 -1.8731
14892SOL    HW247632   5.772   8.303   8.997  0.5167 -0.1424 -0.6134
14893SOL     OW47633   2.163   0.167   2.973  0.5288 -0.5013  0.3493
14893SOL    HW147634   2.207   0.181   2.889  1.3650 -0.0260  0.8579
14893SOL    HW247635   2.073   0.146   2.949  1.0802 -1.8552 -0.7352
14894SOL     OW47636   7.601   0.122   3.093  0.3483 -0.0326 -0.0207
14894SOL    HW147637   7.624   0.031   3.071  0.8719 -0.0323  0.5016
14894SOL    HW247638   7.666   0.147   3.159 -0.7881  0.1878  1.0341
14895SOL     OW47639   7.082   4.577   4.002  0.2235 -0.4296  0.2282
14895SOL    HW147640   7.143   4.604   3.934  0.5644 -1.0790  0.2625
14895SOL    HW247641   7.037   4.501   3.964  0.4475 -0.8270  0.7354
14896SOL     OW47642  10.498  10.510   5.384  0.0744  0.6778  0.0306
14896SOL    HW147643  10.496  10.591   5.333  0.0181  0.3427 -0.4987
14896SOL    HW247644  10.409  10.503   5.420 -0.1072  0.5166 -0.4481
14897SOL     OW47645   0.685   2.995   4.192 -0.4912  0.0990 -0.0663
14897SOL    HW147646   0.687   2.904   4.223 -1.3417 -0.1381 -0.6759
14897SOL    HW247647   0.763   3.004   4.138  1.3747  0.6922  2.5301
14898SOL     OW47648   8.258   6.488   4.823  0.2842 -0.1841  0.1484
14898SOL    HW147649   8.178   6.526   4.788  0.7171  0.0247 -0.6684
14898SOL    HW247650   8.322   6.500   4.752  1.0499 -0.2699  0.8132
14899SOL     OW47651   5.500  10.336   3.866 -0.0765  0.2015  0.1934
14899SOL    HW147652   5.506  10.243   3.844 -1.2581  0.0395  0.4863
14899SOL    HW247653   5.452  10.338   3.949 -0.6135  1.1000 -0.1223
14900SOL     OW47654   5.375   6.932   2.638  0.0577  0.0672  0.3893
14900SOL    HW147655   5.462   6.960   2.665 -0.0796 -1.0401  2.1579
14900SOL    HW247656   5.315   6.988   2.688 -0.2240 -0.5415  0.7436
14901SOL     OW47657   0.469   5.982   4.820 -0.3789  0.3453 -0.3698
14901SOL    HW147658   0.502   5.970   4.731  0.8522  0.8753 -0.0121
14901SOL    HW247659   0.474   5.895   4.859  1.1349  0.4890 -0.1739
14902SOL     OW47660   6.261   6.951   7.031  0.2464  0.3281 -0.1025
14902SOL    HW147661   6.192   6.887   7.049  2.0746 -1.8496 -0.3603
14902SOL    HW247662   6.235   7.029   7.081 -1.3665 -1.0920  1.4200
14903SOL     OW47663   1.027   5.939  10.042 -0.0042 -0.0999 -1.2115
14903SOL    HW147664   1.016   6.023  10.086 -0.3564 -0.0444 -1.3995
14903SOL    HW247665   1.119   5.938  10.017  0.1895 -0.1183 -0.5101
14904SOL     OW47666   4.690   0.934   8.314 -0.3504  0.3770  0.6726
14904SOL    HW147667   4.649   0.891   8.390 -0.0877  0.3412  0.7999
14904SOL    HW247668   4.769   0.881   8.298  0.9204  1.7722  1.9070
14905SOL     OW47669   0.781  10.099   6.876 -0.2777  0.2399  0.2050
14905SOL    HW147670   0.693  10.079   6.908 -0.3520 -0.2747 -0.3055
14905SOL    HW247671   0.770  10.119   6.783  0.2149 -0.4383 -0.0148
14906SOL     OW47672   2.395   7.490   0.296  0.0962 -0.2801 -0.1368
14906SOL    HW147673   2.374   7.401   0.324 -1.5944  0.4662  1.1118
14906SOL    HW247674   2.421   7.535   0.376 -1.8935  1.0990 -0.2021
14907SOL     OW47675   7.653   2.323   7.855  0.0270  0.0429  0.7616
14907SOL    HW147676   7.654   2.309   7.761  0.8606  1.5829  0.5059
14907SOL    HW247677   7.578   2.380   7.870 -1.8917 -2.5074  1.4616
14908SOL     OW47678   2.387   5.059   5.476 -0.4888 -0.0410  0.3870
14908SOL    HW147679   2.477   5.091   5.479 -0.1834 -0.6516 -1.3200
14908SOL    HW247680   2.394   4.967   5.502 -0.3898 -0.4531 -0.9992
14909SOL     OW47681   0.290   7.867   0.888  0.3505  0.1939 -0.5203
14909SOL    HW147682   0.250   7.842   0.805 -1.0748  0.7873 -0.0305
14909SOL    HW247683   0.374   7.820   0.889 -0.9562 -2.2951 -0.8819
14910SOL     OW47684   9.887   1.023   0.559  0.0594 -0.0329  0.2891
14910SOL    HW147685   9.796   1.021   0.532 -1.0047 -1.3836  3.4353
14910SOL    HW247686   9.897   1.106   0.606  0.3542 -0.0101  0.1888
14911SOL     OW47687   8.323   5.841   0.854 -0.7116  0.3695 -0.1161
14911SOL    HW147688   8.346   5.926   0.816  2.7886 -0.6671 -0.7058
14911SOL    HW247689   8.285   5.792   0.781  1.5333 -0.0059 -1.1245
14912SOL     OW47690   3.011   1.684   8.058  0.1815  0.9595  0.3046
14912SOL    HW147691   3.034   1.721   7.973  0.7457 -0.5885 -0.2360
14912SOL    HW247692   3.018   1.758   8.119  3.2950  1.3564 -0.3934
14913SOL     OW47693   9.586  10.110   5.509  0.8524  0.0495  0.6212
14913SOL    HW147694   9.525  10.051   5.464 -1.1077  2.0481  0.4539
14913SOL    HW247695   9.632  10.054   5.571  0.3323 -1.9404 -0.6838
14914SOL     OW47696   5.808   4.671   2.282  0.8718  0.0662 -0.3136
14914SOL    HW147697   5.794   4.682   2.376  0.2208 -2.2437 -0.0927
14914SOL    HW247698   5.723   4.689   2.242  1.1575  1.0860 -0.4931
14915SOL     OW47699   3.625  10.184   9.248  0.3052 -0.4021  0.0933
14915SOL    HW147700   3.630  10.117   9.315 -0.2388  0.4866  1.0545
14915SOL    HW247701   3.532  10.190   9.227  0.4664 -0.6410 -0.7151
14916SOL     OW47702   1.976   1.254   3.269  0.2091  0.1387 -0.0794
14916SOL    HW147703   1.900   1.312   3.270  0.7932  0.9271  0.0077
14916SOL    HW247704   2.000   1.244   3.361 -0.9210 -1.6705  0.0563
14917SOL     OW47705   3.228   1.781   5.841 -0.2901 -0.0810 -0.0380
14917SOL    HW147706   3.138   1.782   5.874 -0.1079  2.2179  0.5710
14917SOL    HW247707   3.282   1.797   5.918  0.5579 -0.2137 -0.5897
14918SOL     OW47708   1.068   1.582   7.664  0.0807 -0.4365 -0.0455
14918SOL    HW147709   1.019   1.580   7.581  0.3485 -0.1545 -0.2151
14918SOL    HW247710   1.145   1.528   7.647  0.9117  0.8480 -0.4912
14919SOL     OW47711   2.529   4.965   6.601  0.1916  0.3094 -0.3422
14919SOL    HW147712   2.555   4.875   6.617  0.5167  0.9734  4.0834
14919SOL    HW247713   2.601   5.018   6.635 -0.5980  2.2586 -1.5029
14920SOL     OW47714   7.066   3.761   7.778 -0.1006  0.6065  0.3892
14920SOL    HW147715   6.994   3.750   7.716  0.5771 -1.0971 -0.1550
14920SOL    HW247716   7.121   3.684   7.765  1.6081  1.6538  1.0867
14921SOL     OW47717   2.788   0.051   6.297  0.3478 -0.4099  0.0095
14921SOL    HW147718   2.767   0.059   6.390 -0.1801 -2.3846  0.1099
14921SOL    HW247719   2.863  -0.008   6.295 -0.0878 -0.9586 -0.8274
14922SOL     OW47720   2.013   5.849   6.299  0.3793  0.3130 -0.6222
14922SOL    HW147721   1.999   5.804   6.215  1.9212 -3.1419  0.8074
14922SOL    HW247722   2.098   5.891   6.290  1.0587 -0.9983 -0.4479
14923SOL     OW47723   8.319   1.385   4.492  0.5634 -0.4366  0.9964
14923SOL    HW147724   8.309   1.291   4.474 -0.7956 -0.2576  0.7230
14923SOL    HW247725   8.307   1.392   4.587  1.1236 -0.5879  1.0814
14924SOL     OW47726  10.313   5.247   8.600 -0.3146  0.2498 -0.7871
14924SOL    HW147727  10.346   5.192   8.670 -0.9308 -0.0325 -0.7156
14924SOL    HW247728  10.382   5.312   8.586  0.6931 -0.8880 -1.2905
14925SOL     OW47729  10.093   8.451   9.273 -0.1949 -0.9415 -0.1217
14925SOL    HW147730  10.037   8.528   9.266  1.2399  0.1651  0.0954
14925SOL    HW247731  10.065   8.408   9.354 -2.1791 -1.6620 -1.1311
14926SOL     OW47732   5.745   5.324   4.596  0.9471 -0.0077  0.1298
14926SOL    HW147733   5.838   5.309   4.612  1.0062  0.7776  0.6105
14926SOL    HW247734   5.719   5.256   4.535  1.6495 -0.7214  0.6181
14927SOL     OW47735   6.351   5.990   7.840 -0.7127  0.4957 -0.4768
14927SOL    HW147736   6.403   5.913   7.862 -2.8816 -0.3480  2.2254
14927SOL    HW247737   6.330   5.978   7.747  0.9220 -0.9053 -0.7231
14928SOL     OW47738  10.542   3.495   3.071 -0.6431  0.6794  0.5875
14928SOL    HW147739  10.483   3.570   3.065 -0.7057  0.5227 -1.4707
14928SOL    HW247740  10.583   3.489   2.985 -0.5106 -1.5545  0.7405
14929SOL     OW47741  10.459   4.169   8.642  0.1653 -0.1916  0.2248
14929SOL    HW147742  10.489   4.259   8.629 -0.8389  0.4913  2.2121
14929SOL    HW247743  10.391   4.176   8.708 -1.3165 -2.2076 -0.9904
14930SOL     OW47744   1.968   4.690   2.452 -0.0959 -0.4606  0.0536
14930SOL    HW147745   1.909   4.694   2.376  0.7124  0.6547 -0.5451
14930SOL    HW247746   2.051   4.659   2.416 -0.0134 -1.0058  0.6991
14931SOL     OW47747   9.257   2.737   0.342 -0.7312  0.2844  0.4813
14931SOL    HW147748   9.285   2.646   0.357  0.1214  0.8598  2.7538
14931SOL    HW247749   9.327   2.790   0.380 -1.0776  1.9433 -1.0701
14932SOL     OW47750   5.173   4.761   4.465 -0.0279 -0.0963  0.2423
14932SOL    HW147751   5.269   4.763   4.460 -0.0204 -0.1750  0.3523
14932SOL    HW247752   5.154   4.693   4.530 -0.1863 -0.9835 -0.7146
14933SOL     OW47753   5.904   9.850   7.481  0.5218  0.2008  0.1429
14933SOL    HW147754   5.955   9.929   7.500 -0.1807  0.7045 -0.0357
14933SOL    HW247755   5.938   9.818   7.398  1.0757  0.0879  0.4097
14934SOL     OW47756   7.274   8.763   3.210  0.2750 -0.1260  0.1589
14934SOL    HW147757   7.303   8.673   3.195 -0.4629 -0.5518  1.2130
14934SOL    HW247758   7.195   8.772   3.157  0.7791  0.1627 -0.5587
14935SOL     OW47759   7.497   5.813   6.088  0.0825  0.4044  0.2059
14935SOL    HW147760   7.521   5.862   6.008 -2.3908 -0.7957 -1.3904
14935SOL    HW247761   7.501   5.721   6.061 -3.6253  0.0455  0.4804
14936SOL     OW47762   5.944   3.618   9.851 -0.1572  0.2919  0.3139
14936SOL    HW147763   5.974   3.585   9.936 -1.7685  0.6069  1.0447
14936SOL    HW247764   5.975   3.709   9.848 -0.5333  0.4396  0.8033
14937SOL     OW47765   8.183   7.720  10.484 -1.1318 -0.1760 -0.2147
14937SOL    HW147766   8.260   7.674  10.517 -1.4638  0.7646  2.0638
14937SOL    HW247767   8.116   7.652  10.477 -1.1717 -0.3728  1.6003
14938SOL     OW47768  10.642   4.868   7.536 -0.2004  0.0349 -0.2183
14938SOL    HW147769  10.701   4.942   7.548  0.2313 -0.4317  0.5932
14938SOL    HW247770  10.562   4.906   7.499  0.1598  0.8426 -0.1730
14939SOL     OW47771   8.019   2.760  10.308 -0.5815  0.2474  0.2090
14939SOL    HW147772   7.950   2.719  10.255 -1.2320  0.4536  0.8753
14939SOL    HW247773   8.099   2.714  10.283 -0.7993  0.6246 -1.2469
14940SOL     OW47774   0.867   6.686   7.012  0.2669 -1.0015  0.1237
14940SOL    HW147775   0.932   6.687   7.081  0.3926 -1.1315  0.0080
14940SOL    HW247776   0.861   6.777   6.983 -1.5184 -0.4868  1.9172
14941SOL     OW47777  10.661   9.601   6.782 -0.5917  0.5962  0.4271
14941SOL    HW147778  10.742   9.560   6.752 -1.2990 -1.2583  0.9515
14941SOL    HW247779  10.669   9.692   6.753  1.1253  0.1704 -0.6032
14942SOL     OW47780   5.751   5.694   9.947 -0.0815  0.0151 -0.2854
14942SOL    HW147781   5.677   5.662   9.895 -0.2505 -1.5441  0.8176
14942SOL    HW247782   5.829   5.670   9.896 -0.2731 -0.5782 -0.3099
14943SOL     OW47783   9.407   6.406   6.040 -0.8026  0.1094 -0.3498
14943SOL    HW147784   9.380   6.353   6.115  1.8258 -1.3019 -0.2875
14943SOL    HW247785   9.495   6.435   6.061 -0.9949  1.9344 -1.7914
14944SOL     OW47786   6.522   2.713   3.882  0.0146  0.1039 -0.3303
14944SOL    HW147787   6.584   2.684   3.948 -0.9826  0.3247  0.7243
14944SOL    HW247788   6.482   2.792   3.919  1.8781  2.3164 -2.6474
14945SOL     OW47789   4.352   0.361   4.750 -0.2402  0.5333  0.4930
14945SOL    HW147790   4.395   0.344   4.833  0.7245  0.6825  0.0368
14945SOL    HW247791   4.420   0.347   4.684 -1.6120 -2.3001 -0.5237
14946SOL     OW47792   4.538   9.452   5.213 -0.6360  0.0806 -0.6186
14946SOL    HW147793   4.518   9.372   5.260  1.2673  0.1692  0.4552
14946SOL    HW247794   4.567   9.513   5.281 -0.5719  1.1697 -1.5950
14947SOL     OW47795   6.760   6.969   0.923  0.3548 -0.2760 -0.7972
14947SOL    HW147796   6.692   7.036   0.920 -0.3860 -1.0240 -1.1773
14947SOL    HW247797   6.736   6.913   0.996  1.6335  0.5286  0.2873
14948SOL     OW47798   8.972   7.339   7.777 -0.3731 -0.3655  0.1065
14948SOL    HW147799   8.919   7.294   7.842  2.4219 -0.2325  2.7340
14948SOL    HW247800   8.967   7.432   7.802 -1.5178  0.1111 -1.7161
14949SOL     OW47801   2.961   5.142   7.966  0.2565 -0.5072 -0.2049
14949SOL    HW147802   3.008   5.106   7.890 -0.6177  0.3283 -1.1713
14949SOL    HW247803   3.010   5.110   8.041  1.7934 -0.4741 -1.1498
14950SOL     OW47804   1.010   0.990   1.155 -0.2669  0.0365 -0.7219
14950SOL    HW147805   0.953   0.913   1.152  0.2285 -0.8357  4.0785
14950SOL    HW247806   0.955   1.058   1.194  1.0605  0.0280  1.3065
14951SOL     OW47807   4.724   9.069   3.215  0.4729  0.1681 -0.2045
14951SOL    HW147808   4.669   9.146   3.227 -3.2828 -2.0085 -1.5312
14951SOL    HW247809   4.728   9.029   3.303 -0.2762  0.2702 -0.1157
14952SOL     OW47810   8.265   6.638   1.408 -0.7786 -0.3795 -0.2184
14952SOL    HW147811   8.355   6.644   1.376 -0.9150  2.2943 -0.2850
14952SOL    HW247812   8.218   6.591   1.339  0.0371  0.5582 -1.4452
14953SOL     OW47813   8.097   4.432   7.834  0.4457 -0.4642 -0.1107
14953SOL    HW147814   8.004   4.412   7.828  0.2872  0.3783 -0.6151
14953SOL    HW247815   8.139   4.347   7.848 -0.4168 -0.8134  0.4270
14954SOL     OW47816   7.751   8.944   1.133  0.5633  0.5017 -0.1819
14954SOL    HW147817   7.711   9.031   1.131 -0.6483 -0.0506 -0.9349
14954SOL    HW247818   7.774   8.926   1.042  0.2936 -0.1845 -0.1194
14955SOL     OW47819   3.299   9.456   5.673 -0.3609  0.1631 -0.0328
14955SOL    HW147820   3.358   9.519   5.715  0.7682  0.4863 -1.9553
14955SOL    HW247821   3.211   9.489   5.691  0.1720  1.6438  0.0065
14956SOL     OW47822   4.324   6.249   3.611 -0.0560  0.3785  0.6701
14956SOL    HW147823   4.258   6.299   3.659 -0.4922  0.1047  0.3648
14956SOL    HW247824   4.296   6.256   3.519 -0.0187 -0.2819  0.6098
14957SOL     OW47825   7.182   8.089   3.261  0.3477  0.1937 -0.6564
14957SOL    HW147826   7.241   8.027   3.302  1.0647  1.6409  0.5922
14957SOL    HW247827   7.095   8.049   3.269  0.5733  0.0478  1.5775
14958SOL     OW47828   1.515   9.578   8.421 -0.2647  0.0356 -0.4384
14958SOL    HW147829   1.574   9.510   8.453 -0.8423 -0.2945 -0.0598
14958SOL    HW247830   1.538   9.587   8.328 -0.2441 -0.7453 -0.5180
14959SOL     OW47831   7.275   6.556   1.080 -0.4007  0.3609 -0.4882
14959SOL    HW147832   7.280   6.635   1.133 -0.6225  1.0430 -1.4562
14959SOL    HW247833   7.366   6.530   1.066 -0.3502 -0.1801  0.7106
14960SOL     OW47834   6.407   0.861   9.237  0.6415  0.5206 -0.1330
14960SOL    HW147835   6.380   0.772   9.260 -0.8742  1.6657  3.1160
14960SOL    HW247836   6.494   0.871   9.277  1.1216  0.3202 -1.0979
14961SOL     OW47837   0.470   7.816   3.018  0.0422 -0.1561  0.0884
14961SOL    HW147838   0.442   7.835   2.929  1.1986 -1.3512 -0.5722
14961SOL    HW247839   0.483   7.721   3.019  2.7246  0.1424  0.6905
14962SOL     OW47840   9.707   0.866   2.951  0.0914 -0.1538 -0.3855
14962SOL    HW147841   9.745   0.954   2.954 -2.8445  1.2488 -0.8771
14962SOL    HW247842   9.695   0.848   2.858  0.4562 -1.0030 -0.2798
14963SOL     OW47843   2.535   0.372   6.828 -0.3362  0.5751  0.7695
14963SOL    HW147844   2.480   0.295   6.842 -1.8338  1.5861  0.7186
14963SOL    HW247845   2.616   0.338   6.792 -1.3105 -0.9145 -0.1184
14964SOL     OW47846   1.870   7.788   4.947  0.0717  1.0306  0.7164
14964SOL    HW147847   1.961   7.759   4.945 -0.2806 -0.5726  3.2546
14964SOL    HW247848   1.844   7.792   4.855  2.3992  0.5421 -0.0195
14965SOL     OW47849   8.511   7.704   6.335 -0.6888 -0.0430 -0.3710
14965SOL    HW147850   8.599   7.685   6.366 -1.3866 -1.2770  0.9818
14965SOL    HW247851   8.524   7.741   6.248  1.1853  0.5341  0.1019
14966SOL     OW47852   4.540   0.440   2.397  0.4379  0.1724 -0.0199
14966SOL    HW147853   4.612   0.479   2.347 -0.2128  1.9476  0.3585
14966SOL    HW247854   4.559   0.459   2.488 -1.0860  1.7816  0.0169
14967SOL     OW47855  10.370   2.645   9.027  0.2449  0.3701  0.3299
14967SOL    HW147856  10.462   2.620   9.016  0.4972  0.7058  1.4842
14967SOL    HW247857  10.360   2.723   8.972  1.4354  1.9936  2.2514
14968SOL     OW47858   7.728   4.926   5.768 -0.0314  0.4306 -0.1827
14968SOL    HW147859   7.696   4.839   5.744 -2.1330  1.2346 -0.5031
14968SOL    HW247860   7.734   4.924   5.863 -0.4734  0.0567 -0.1607
14969SOL     OW47861   3.383   9.554  10.158  0.0896 -0.5326  0.2632
14969SOL    HW147862   3.299   9.555  10.203  0.6181 -1.2247  1.3308
14969SOL    HW247863   3.399   9.645  10.134  0.1446  0.0409  2.2520
14970SOL     OW47864   4.344   0.674   0.244  0.1624  0.2619 -0.1900
14970SOL    HW147865   4.335   0.637   0.156 -0.5424 -0.8237  0.3303
14970SOL    HW247866   4.411   0.620   0.286  0.2276  0.5397  0.0680
14971SOL     OW47867   1.965   4.718   7.448  0.2588 -0.5429 -0.8919
14971SOL    HW147868   1.886   4.771   7.444  0.5987 -0.0599 -1.2747
14971SOL    HW247869   1.936   4.629   7.428 -0.5174 -0.7371  0.9154
14972SOL     OW47870  10.149  10.454   9.300 -0.7624  0.4482  0.2186
14972SOL    HW147871  10.181  10.466   9.210  0.7375  1.6172  0.8598
14972SOL    HW247872  10.111  10.366   9.300 -0.5817  0.3262 -1.4906
14973SOL     OW47873  10.661   1.814   2.353  0.0264  0.3097  0.5477
14973SOL    HW147874  10.573   1.851   2.354  0.3502  1.2808 -1.6523
14973SOL    HW247875  10.703   1.854   2.278  1.8124 -1.4054  0.5594
14974SOL     OW47876   6.123   5.987   5.550 -0.1141  0.6517  0.2738
14974SOL    HW147877   6.045   6.003   5.602 -0.9317  1.5376 -1.1529
14974SOL    HW247878   6.092   5.985   5.459  1.5062  1.0697 -0.3359
14975SOL     OW47879   7.318   3.454   1.525 -0.1423  0.1981 -0.6865
14975SOL    HW147880   7.316   3.399   1.447 -0.9277  0.1177 -0.6171
14975SOL    HW247881   7.226   3.462   1.551 -0.1586  2.3159 -1.2267
14976SOL     OW47882   4.042   0.313   0.347 -0.4138 -0.1049 -0.0759
14976SOL    HW147883   3.963   0.360   0.320  0.2554 -0.7783 -3.6593
14976SOL    HW247884   4.114   0.366   0.313  0.6874 -0.1163  2.1058
14977SOL     OW47885  10.007   8.649   9.817  0.1152  0.1712 -0.3352
14977SOL    HW147886  10.018   8.688   9.731  0.0502 -0.9624 -0.8799
14977SOL    HW247887   9.938   8.701   9.858 -0.2862  0.3463 -1.2029
14978SOL     OW47888   7.805   6.169   9.865  0.5302 -0.0775 -0.6133
14978SOL    HW147889   7.844   6.113   9.932 -1.4152 -0.4381  0.2689
14978SOL    HW247890   7.833   6.258   9.889  0.1592 -0.2395  0.4770
14979SOL     OW47891   9.533   4.340   2.657 -0.2902  0.7047  0.1290
14979SOL    HW147892   9.587   4.324   2.734  0.5641 -0.2476 -0.6310
14979SOL    HW247893   9.594   4.337   2.584 -1.5424 -2.4947 -1.0046
14980SOL     OW47894   9.442   4.611   6.288 -0.4525  0.0936  0.2574
14980SOL    HW147895   9.484   4.579   6.208  1.2320 -0.5421  1.3279
14980SOL    HW247896   9.501   4.680   6.320 -0.7576 -0.0922  1.2626
14981SOL     OW47897   0.088   9.435   0.653  0.0500 -0.4623  0.0563
14981SOL    HW147898   0.109   9.352   0.695 -1.8345 -1.1723 -0.3196
14981SOL    HW247899   0.029   9.412   0.581  0.7521  1.0438 -1.0636
14982SOL     OW47900   7.551   9.740   2.651 -0.9979 -0.0994  0.0207
14982SOL    HW147901   7.555   9.806   2.720 -1.7857 -0.9634  0.9335
14982SOL    HW247902   7.465   9.752   2.611 -0.6433  0.2319 -0.6519
14983SOL     OW47903   2.734   6.058   0.868  0.1900 -0.1165 -0.0912
14983SOL    HW147904   2.812   6.112   0.880  0.8406 -1.3991  1.8344
14983SOL    HW247905   2.765   5.981   0.819  0.5436 -1.3573  1.9727
14984SOL     OW47906   9.716   6.981   8.946  0.3507 -0.2216 -0.0581
14984SOL    HW147907   9.758   6.943   8.869  0.0519  0.3445 -0.5044
14984SOL    HW247908   9.682   7.065   8.916  1.6863  0.7747  1.1194
14985SOL     OW47909   9.706   0.998   2.586 -0.0065 -0.0978 -0.0362
14985SOL    HW147910   9.682   1.088   2.566 -2.8124 -0.4575  1.2928
14985SOL    HW247911   9.629   0.961   2.629  1.6941 -2.6106  1.1160
14986SOL     OW47912   6.899   4.776   5.115 -0.5893 -0.4705 -0.0688
14986SOL    HW147913   6.927   4.843   5.177 -1.4336 -0.4716  0.3365
14986SOL    HW247914   6.809   4.756   5.141 -0.6271 -1.1698 -0.6974
14987SOL     OW47915   7.811   2.929   3.460 -0.2860  0.3657 -0.3789
14987SOL    HW147916   7.824   2.883   3.377 -1.9805  0.2527 -0.6376
14987SOL    HW247917   7.883   2.900   3.516  0.5554 -0.0058 -1.6211
14988SOL     OW47918   4.234   5.031   8.356 -0.6745 -0.4994 -0.1837
14988SOL    HW147919   4.226   5.041   8.451  2.3092 -0.7906  0.2158
14988SOL    HW247920   4.248   4.938   8.343  1.1809 -0.2183 -0.5838
14989SOL     OW47921   4.095   9.056   7.405  0.2315  0.0437  0.2347
14989SOL    HW147922   4.060   9.130   7.455  0.4119  0.5628 -0.3967
14989SOL    HW247923   4.103   8.985   7.469  0.1123  0.5861  0.8568
14990SOL     OW47924   2.491   7.777   0.584 -0.0055  0.1171  0.4489
14990SOL    HW147925   2.560   7.800   0.646  0.5626  0.2819 -0.2407
14990SOL    HW247926   2.522   7.810   0.500 -0.4348 -0.7333 -0.0556
14991SOL     OW47927   1.447   4.389   4.988 -0.5383 -0.0671 -0.3101
14991SOL    HW147928   1.466   4.295   4.989 -0.6345 -0.0862 -0.2058
14991SOL    HW247929   1.457   4.417   5.079 -1.9893 -0.2843 -0.0574
14992SOL     OW47930   5.875   1.913   0.383  0.4587  0.0893 -0.0698
14992SOL    HW147931   5.900   1.822   0.370 -0.5376 -0.5237  1.9449
14992SOL    HW247932   5.931   1.943   0.455  2.1630  1.7305 -1.9413
14993SOL     OW47933   0.601   9.023   1.660 -0.0523  0.4685 -0.4110
14993SOL    HW147934   0.631   9.098   1.608  0.3660 -1.0422 -2.4909
14993SOL    HW247935   0.537   8.980   1.604  0.6722 -1.4368  0.1650
14994SOL     OW47936   5.824   7.337   4.415 -0.1981  0.0972  0.5874
14994SOL    HW147937   5.732   7.357   4.435 -0.2924 -0.2663  0.5245
14994SOL    HW247938   5.865   7.326   4.501 -0.5131 -1.0533  0.6092
14995SOL     OW47939   3.380  10.497   6.367  0.3647 -0.1941  0.3975
14995SOL    HW147940   3.346  10.410   6.389 -0.6029 -0.3192 -1.4303
14995SOL    HW247941   3.405  10.491   6.275 -0.5786  1.6893 -0.0346
14996SOL     OW47942   0.011   9.248   6.413  0.0727  0.2623 -0.2079
14996SOL    HW147943   0.076   9.202   6.467  2.9462  0.7355 -2.8943
14996SOL    HW247944   0.025   9.212   6.325 -0.6388  3.1490 -1.6028
14997SOL     OW47945   5.010   2.555   1.116 -0.1422  0.2158 -0.2904
14997SOL    HW147946   5.090   2.541   1.167 -0.6673 -1.1267  0.1873
14997SOL    HW247947   4.967   2.629   1.160  0.9661  1.1846 -0.7570
14998SOL     OW47948  10.681   4.867   0.736 -0.1747  0.2060  0.7201
14998SOL    HW147949  10.618   4.913   0.681 -0.1706  0.4490  0.9184
14998SOL    HW247950  10.628   4.809   0.791 -0.1399 -0.4380  0.0874
14999SOL     OW47951   2.200   1.778   0.303 -0.3663  0.3514 -0.2366
14999SOL    HW147952   2.176   1.687   0.315  0.0969  0.3548  0.8185
14999SOL    HW247953   2.132   1.828   0.348 -1.1570  0.5954 -1.6314
15000SOL     OW47954   1.753   0.793   1.644 -0.2416  0.3227 -0.3231
15000SOL    HW147955   1.764   0.844   1.563 -0.0556  1.2522  0.2682
15000SOL    HW247956   1.809   0.837   1.708  0.6987 -1.2345 -0.0260
15001SOL     OW47957   2.407   4.846   1.381 -0.0821  0.0364  0.0501
15001SOL    HW147958   2.448   4.768   1.344  0.9258  0.2996  0.5904
15001SOL    HW247959   2.458   4.919   1.346 -2.0587  0.6166 -1.8365
15002SOL     OW47960   8.708   5.547  10.233 -0.2042  0.2141 -0.0043
15002SOL    HW147961   8.788   5.561  10.183 -0.1353 -0.8086 -0.2144
15002SOL    HW247962   8.688   5.632  10.272  0.8498  0.5407 -0.1461
15003SOL     OW47963   8.548   8.462   7.766 -0.5907  0.2786  0.2894
15003SOL    HW147964   8.624   8.403   7.765 -0.8255 -0.0535  1.1702
15003SOL    HW247965   8.577   8.538   7.817 -0.7746  0.2461  0.4444
15004SOL     OW47966   6.174   1.480   0.329  0.2839 -0.3823 -0.4741
15004SOL    HW147967   6.264   1.478   0.297  0.7692 -1.0130  0.8553
15004SOL    HW247968   6.138   1.394   0.304  0.1079 -0.2066 -0.8316
15005SOL     OW47969   2.662   7.900   1.140 -0.1666  0.1240 -0.1307
15005SOL    HW147970   2.675   7.956   1.063  0.8663  0.1069  0.0131
15005SOL    HW247971   2.584   7.850   1.121 -0.9288  1.3708 -0.4214
15006SOL     OW47972   4.711   4.553   3.118 -0.0260  0.1124  0.4140
15006SOL    HW147973   4.623   4.587   3.131 -0.7766 -1.4902 -0.1789
15006SOL    HW247974   4.699   4.475   3.064  1.8546  0.3753 -0.4762
15007SOL     OW47975   8.065   9.673   4.379 -0.1566  0.4850  0.0434
15007SOL    HW147976   8.144   9.707   4.338  1.2977 -1.5464  0.9726
15007SOL    HW247977   8.097   9.614   4.448 -2.4856  1.4550  2.1265
15008SOL     OW47978   3.102   9.402   4.834  0.3093 -0.3858 -0.1899
15008SOL    HW147979   3.090   9.394   4.929 -2.1403  0.2735 -0.3675
15008SOL    HW247980   3.183   9.355   4.816  1.2487  0.1072  2.3183
15009SOL     OW47981   9.556   4.490   4.836  0.1007 -0.0876  0.4497
15009SOL    HW147982   9.596   4.574   4.855 -2.2893  1.0858  0.6697
15009SOL    HW247983   9.549   4.487   4.740  1.4426 -0.7075  0.3469
15010SOL     OW47984   8.144   2.865   8.122 -0.5608  0.3044  0.4311
15010SOL    HW147985   8.177   2.952   8.146 -0.3637 -0.5302  3.6650
15010SOL    HW247986   8.217   2.824   8.076 -0.1143  1.3425  0.1948
15011SOL     OW47987   5.978   3.836   1.919 -0.3936 -0.0572  0.1861
15011SOL    HW147988   6.069   3.811   1.904 -0.5065 -1.3170  1.3505
15011SOL    HW247989   5.980   3.883   2.002 -1.0122 -1.8639  1.2985
15012SOL     OW47990   7.132   6.516   0.184 -0.1140  0.0163 -0.3135
15012SOL    HW147991   7.167   6.539   0.099  0.7943 -1.8045 -0.4840
15012SOL    HW247992   7.204   6.532   0.245  0.5522 -2.1757 -0.4412
15013SOL     OW47993   0.807   5.029   2.274  0.1263 -0.0065  0.2011
15013SOL    HW147994   0.758   4.946   2.273  0.2180 -0.1214  1.7726
15013SOL    HW247995   0.788   5.069   2.190 -1.4436 -0.7609  0.1509
15014SOL     OW47996   1.857   2.583   6.519 -0.0090  0.3274 -0.1798
15014SOL    HW147997   1.890   2.511   6.574 -2.4862  1.0924  2.5515
15014SOL    HW247998   1.812   2.539   6.447  2.9135 -0.7132 -1.5684
15015SOL     OW47999   2.894   8.816   4.707  0.3472 -0.0068  0.0877
15015SOL    HW148000   2.948   8.895   4.699  0.3624  0.1616  1.5619
15015SOL    HW248001   2.806   8.845   4.681  0.7950 -0.1348 -1.7205
15016SOL     OW48002   1.842   6.027   5.052  0.0662 -0.0300 -0.3568
15016SOL    HW148003   1.810   5.982   5.130  0.5256  0.5802  0.1966
15016SOL    HW248004   1.890   5.960   5.003  3.0956  0.4195  1.7929
15017SOL     OW48005  10.367   3.412  10.267  0.4989 -0.1423  0.0916
15017SOL    HW148006  10.282   3.374  10.290  0.2140  0.3165 -0.1666
15017SOL    HW248007  10.427   3.338  10.264 -0.2989 -0.7894 -1.6924
15018SOL     OW48008   8.972   5.898   8.601  0.1415  0.1502  0.4608
15018SOL    HW148009   8.888   5.942   8.608  0.4530  0.7563  0.4845
15018SOL    HW248010   9.023   5.932   8.674  1.3469  1.9288 -1.0955
15019SOL     OW48011   1.287   2.148   5.711 -0.7031 -0.2530 -0.0748
15019SOL    HW148012   1.324   2.088   5.646 -0.7211 -0.5749  0.2066
15019SOL    HW248013   1.224   2.200   5.662 -1.4340 -1.1582 -0.1314
15020SOL     OW48014   0.018   5.547   6.399  0.2986 -0.2590  0.4099
15020SOL    HW148015   0.086   5.532   6.465  0.3174  0.3501  0.5348
15020SOL    HW248016   0.062   5.536   6.316  0.4602 -0.2509  0.4947
15021SOL     OW48017   9.206   5.271   0.153 -0.3754  0.2825 -0.1228
15021SOL    HW148018   9.160   5.274   0.237 -0.0520 -0.7749  0.1025
15021SOL    HW248019   9.297   5.256   0.176 -0.4638 -1.2509 -0.6944
15022SOL     OW48020   3.589   1.651   9.554  0.6367 -0.2617  0.2196
15022SOL    HW148021   3.648   1.648   9.629 -0.2101  1.0876  0.9754
15022SOL    HW248022   3.640   1.694   9.485  0.6938  0.4986  0.7275
15023SOL     OW48023   2.585   0.981   8.790 -0.6509 -0.1617  0.3699
15023SOL    HW148024   2.583   0.915   8.860 -2.4960 -0.0380  0.4864
15023SOL    HW248025   2.494   0.987   8.761 -0.2612  1.2994 -0.6330
15024SOL     OW48026   6.374  10.461   8.467 -0.0866  0.2417 -0.7278
15024SOL    HW148027   6.354  10.525   8.399 -1.5512 -0.8158 -1.3396
15024SOL    HW248028   6.380  10.377   8.421  1.0223 -0.1841  0.1584
15025SOL     OW48029   8.741   5.602   7.031 -0.0142  0.2201  0.5486
15025SOL    HW148030   8.667   5.640   6.983 -0.4690  0.5680  1.4936
15025SOL    HW248031   8.811   5.666   7.023  0.3423 -0.2961 -0.7006
15026SOL     OW48032   0.251   8.567   3.699  0.2822  0.3304  0.3143
15026SOL    HW148033   0.249   8.553   3.604  0.5830  1.0745  0.1953
15026SOL    HW248034   0.282   8.656   3.710 -0.0362  0.3543  1.1112
15027SOL     OW48035   5.202   7.608   0.983  0.0338 -0.0555  0.1714
15027SOL    HW148036   5.199   7.655   1.066 -0.2220  1.2452 -0.5541
15027SOL    HW248037   5.280   7.641   0.939 -1.1740  1.1678 -1.1616
15028SOL     OW48038   9.694   9.649   6.342  0.4811  0.3975  0.4242
15028SOL    HW148039   9.608   9.678   6.375  0.0282  1.7640 -1.7446
15028SOL    HW248040   9.700   9.558   6.369 -2.2567 -0.1294 -0.3579
15029SOL     OW48041   0.229   6.515   7.158  0.2199 -0.4028 -0.3776
15029SOL    HW148042   0.313   6.562   7.159 -0.1256  0.2851 -1.4085
15029SOL    HW248043   0.213   6.498   7.065 -1.5050  0.8506 -0.3623
15030SOL     OW48044   9.588   8.263   6.445  0.4226 -0.4948  0.3178
15030SOL    HW148045   9.629   8.297   6.524  1.4102  0.7587 -0.6835
15030SOL    HW248046   9.544   8.339   6.406 -0.4826 -1.2025 -0.0918
15031SOL     OW48047   7.716   4.586   6.654 -0.3974  0.1951  0.4874
15031SOL    HW148048   7.782   4.543   6.707  0.1506 -1.9643 -1.7497
15031SOL    HW248049   7.737   4.680   6.661  1.1105 -0.2090  2.0644
15032SOL     OW48050   5.613  10.241  10.087  0.2264 -0.0105  0.2603
15032SOL    HW148051   5.574  10.237  10.174 -2.6003  0.1844 -0.8867
15032SOL    HW248052   5.670  10.318  10.090  1.5153 -0.9485  2.3588
15033SOL     OW48053   0.332   9.588   0.011 -0.6882 -0.1642 -0.3362
15033SOL    HW148054   0.349   9.504  -0.032 -0.7311 -1.2067  1.5482
15033SOL    HW248055   0.260   9.627  -0.039  1.1614  0.0915 -2.9344
15034SOL     OW48056   3.866   9.461   2.583  0.1550  0.3222 -0.0751
15034SOL    HW148057   3.933   9.395   2.601  0.0392  0.0555 -0.5980
15034SOL    HW248058   3.913   9.545   2.585  0.4049  0.1792  0.0564
15035SOL     OW48059   0.544   2.409   1.212  0.5916  0.2378 -0.0042
15035SOL    HW148060   0.481   2.478   1.231 -1.3810 -1.4629 -0.0399
15035SOL    HW248061   0.621   2.431   1.264 -0.6044  1.5498  1.2748
15036SOL     OW48062   2.001   0.990   3.249  0.5178 -0.1110 -0.0880
15036SOL    HW148063   1.911   0.967   3.275  0.4158  0.7855  0.4120
15036SOL    HW248064   1.997   1.085   3.233  1.0563 -0.2930 -1.4466
15037SOL     OW48065   4.574   8.976   8.202  0.1511  0.2174 -0.1887
15037SOL    HW148066   4.574   9.053   8.260 -0.5234 -0.2765  0.4761
15037SOL    HW248067   4.491   8.980   8.156  1.3155  1.4825 -2.3648
15038SOL     OW48068   2.968   0.921   2.452 -0.1613 -0.4191  0.1000
15038SOL    HW148069   2.983   0.827   2.445  0.3348 -0.2902 -0.6936
15038SOL    HW248070   3.050   0.956   2.485  0.3244 -0.0630 -1.3871
15039SOL     OW48071   3.113   1.329   1.447  0.3051 -0.4217  0.1632
15039SOL    HW148072   3.128   1.301   1.357 -0.5658 -1.0054  0.1835
15039SOL    HW248073   3.024   1.362   1.447  0.1456 -0.8299  0.9014
15040SOL     OW48074   1.045   9.391   2.472 -0.0250  0.2543 -0.1357
15040SOL    HW148075   0.957   9.365   2.501  0.0436  0.8581  0.6503
15040SOL    HW248076   1.058   9.344   2.390 -2.7682  3.1935 -2.5636
15041SOL     OW48077   5.752   9.359   2.701  0.0557 -0.7917  0.6943
15041SOL    HW148078   5.812   9.328   2.634  1.1648 -0.9087  1.7187
15041SOL    HW248079   5.674   9.388   2.652 -0.7134 -4.2896 -0.4136
15042SOL     OW48080   4.998   3.552   2.372  0.1534  0.1080  0.2141
15042SOL    HW148081   5.085   3.552   2.331 -0.6328 -0.7679 -1.5561
15042SOL    HW248082   4.962   3.638   2.352  0.6206  0.5163  1.0490
15043SOL     OW48083   1.623   0.894   5.254  0.0328  0.7744  0.2278
15043SOL    HW148084   1.529   0.911   5.255 -0.2660 -0.6320 -0.7321
15043SOL    HW248085   1.636   0.828   5.323  0.2429  0.6714  0.0914
15044SOL     OW48086   5.208   7.611   9.732 -0.4314 -0.1808  0.2406
15044SOL    HW148087   5.285   7.663   9.755 -0.5375  0.0925 -0.0172
15044SOL    HW248088   5.178   7.648   9.649 -0.1017 -1.0904 -0.3039
15045SOL     OW48089   7.439   1.286   6.988 -0.1221 -0.3463 -0.6276
15045SOL    HW148090   7.379   1.309   7.059  0.7795  2.9585 -0.7790
15045SOL    HW248091   7.385   1.285   6.910 -0.3504  0.6602 -0.4965
15046SOL     OW48092   7.108   0.965   8.276 -0.1973 -0.4959  0.5424
15046SOL    HW148093   7.198   0.964   8.243 -0.3071 -3.2416  0.1355
15046SOL    HW248094   7.055   0.941   8.200 -1.2048  0.2495  0.9958
15047SOL     OW48095   8.727   7.180   0.036 -0.2962 -0.1468  0.6474
15047SOL    HW148096   8.799   7.121   0.011 -0.6318 -0.4144  0.2994
15047SOL    HW248097   8.673   7.128   0.095  0.3236  0.3811  1.7140
15048SOL     OW48098  10.035   7.606   6.269 -0.1662  0.5867 -0.0602
15048SOL    HW148099  10.010   7.698   6.274  0.3395  0.6729  1.0918
15048SOL    HW248100  10.047   7.579   6.360  1.1309 -0.2193 -0.4480
15049SOL     OW48101   3.728   2.621   8.157 -0.4608 -0.3632  0.4654
15049SOL    HW148102   3.689   2.708   8.158  1.9605  0.8098  0.7290
15049SOL    HW248103   3.747   2.604   8.065 -1.3146 -0.8312  0.3642
15050SOL     OW48104   2.665   9.909   6.213 -0.6063  0.1241 -0.4642
15050SOL    HW148105   2.727   9.892   6.284 -0.1799 -0.2245 -0.9141
15050SOL    HW248106   2.674  10.003   6.195 -0.7525  0.2227 -0.0251
15051SOL     OW48107   6.349   6.193   0.740 -0.0481 -0.1418  0.1825
15051SOL    HW148108   6.337   6.135   0.665  1.2835 -0.6477  0.3459
15051SOL    HW248109   6.342   6.136   0.816 -2.7362  0.5618  0.5879
15052SOL     OW48110   2.752   9.547   8.984 -0.0151 -0.1279 -0.5665
15052SOL    HW148111   2.782   9.595   9.061  0.9435 -1.2521 -0.1932
15052SOL    HW248112   2.807   9.579   8.912 -1.0167  1.0337 -0.8296
15053SOL     OW48113   7.670   0.872   9.689 -0.0088  0.4380  0.5155
15053SOL    HW148114   7.701   0.935   9.755 -0.4688  0.4820  0.6975
15053SOL    HW248115   7.592   0.834   9.729  0.8880 -1.0681  0.8896
15054SOL     OW48116   3.658   7.281   8.752  0.2421 -0.3197 -0.2338
15054SOL    HW148117   3.693   7.229   8.824 -0.0634 -0.6243 -0.3046
15054SOL    HW248118   3.647   7.369   8.790 -1.6918 -0.8842  0.6859
15055SOL     OW48119   2.522   3.940   6.153 -0.1520  0.4997  0.3521
15055SOL    HW148120   2.478   3.919   6.235 -2.1941  1.1006 -0.5102
15055SOL    HW248121   2.560   3.857   6.123  0.9404  0.3575  2.0423
15056SOL     OW48122   6.214  10.148   1.178  0.0211  0.0700 -0.1744
15056SOL    HW148123   6.242  10.198   1.255 -0.7445 -0.0048  0.1665
15056SOL    HW248124   6.257  10.064   1.187 -1.7235 -0.7294  1.3481
15057SOL     OW48125   0.431   3.381   6.334 -0.0438  0.2398 -0.0230
15057SOL    HW148126   0.501   3.317   6.341 -1.2362 -1.2705 -1.2047
15057SOL    HW248127   0.434   3.411   6.244  0.0800  1.3964  0.3435
15058SOL     OW48128   6.510   7.699  10.191 -0.4073  0.7233  0.0993
15058SOL    HW148129   6.489   7.628  10.252 -0.6208  1.2341  0.6253
15058SOL    HW248130   6.586   7.668  10.143 -0.6583  0.0236  0.1404
15059SOL     OW48131   9.123   5.849   5.264 -0.5135  0.3862  0.1852
15059SOL    HW148132   9.143   5.770   5.214  0.2672  0.6870  0.0085
15059SOL    HW248133   9.106   5.817   5.353 -0.3001  0.0017  0.0911
15060SOL     OW48134   1.805   2.291  10.671 -0.0651 -0.1031  0.5554
15060SOL    HW148135   1.790   2.382  10.643  1.4363  0.4596  1.4587
15060SOL    HW248136   1.789   2.239  10.592  0.4870  1.0877 -0.3755
15061SOL     OW48137   6.723   0.953   8.310  0.2140  0.2552  0.5089
15061SOL    HW148138   6.714   1.040   8.348  0.1126  1.1843 -1.5619
15061SOL    HW248139   6.635   0.931   8.278  0.8068  0.6152 -1.4694
15062SOL     OW48140   9.198   8.690   6.167 -0.0066  0.0712  0.5847
15062SOL    HW148141   9.250   8.754   6.215  0.5177 -0.4641  0.7457
15062SOL    HW248142   9.125   8.740   6.130  1.1501  1.0132 -0.4773
15063SOL     OW48143   9.327   3.454   8.134 -0.2677  0.3453 -0.2957
15063SOL    HW148144   9.235   3.461   8.160  0.0753  0.8874  0.8138
15063SOL    HW248145   9.334   3.369   8.091 -0.9697 -0.3473  0.9252
15064SOL     OW48146  10.674   5.635   9.075  0.4677 -0.6263 -0.6559
15064SOL    HW148147  10.767   5.628   9.056  1.3675  0.9549  2.3945
15064SOL    HW248148  10.660   5.572   9.146 -0.3018  0.4572  0.1884
15065SOL     OW48149   7.372   5.565   2.126 -0.7372 -0.0319  0.3554
15065SOL    HW148150   7.389   5.492   2.186 -2.0867 -1.5061 -0.9545
15065SOL    HW248151   7.342   5.636   2.183 -1.4356 -1.1905  1.4981
15066SOL     OW48152   5.206   3.274   4.509  0.0666  0.3908 -0.1091
15066SOL    HW148153   5.240   3.227   4.585  1.3681  0.7812 -0.4329
15066SOL    HW248154   5.209   3.210   4.438  0.2051  0.4582 -0.1629
15067SOL     OW48155   8.681   9.495   8.875 -0.0024  0.2493  0.2649
15067SOL    HW148156   8.659   9.529   8.962  0.0300 -0.6828  0.6609
15067SOL    HW248157   8.603   9.446   8.849  0.9782 -1.8806  1.0528
15068SOL     OW48158   9.855   3.136   1.973  0.2042 -0.4319 -0.2604
15068SOL    HW148159   9.924   3.093   1.923  1.3222  0.0223  0.8294
15068SOL    HW248160   9.794   3.066   1.995  1.0714 -1.1305 -0.0296
15069SOL     OW48161   4.308   6.586  10.599 -0.7263  0.0394  0.1429
15069SOL    HW148162   4.244   6.515  10.592 -1.4001  0.6556 -0.0501
15069SOL    HW248163   4.256   6.665  10.609 -0.0192  0.6567 -0.8377
15070SOL     OW48164   2.584  10.677   7.118 -0.2565 -0.1893 -0.4149
15070SOL    HW148165   2.563  10.584   7.127 -2.2942  0.3182  0.8945
15070SOL    HW248166   2.665  10.688   7.169  1.0180 -1.5033 -2.0518
15071SOL     OW48167   9.740   7.966   9.860 -0.0122  0.7158 -0.1045
15071SOL    HW148168   9.730   7.933   9.949  0.7677 -1.3569 -0.7270
15071SOL    HW248169   9.668   8.027   9.849  0.5596  1.9377  2.3205
15072SOL     OW48170  10.419   5.483   3.157 -0.4648  0.3499  0.1213
15072SOL    HW148171  10.496   5.436   3.126 -1.6145 -0.5667 -1.4317
15072SOL    HW248172  10.361   5.415   3.191 -1.6949  0.7024 -1.1808
15073SOL     OW48173  10.013   0.821   1.118 -0.1091  0.7605  0.2907
15073SOL    HW148174  10.100   0.844   1.085 -0.2869 -0.8597 -1.4659
15073SOL    HW248175   9.991   0.892   1.179  2.8437  0.6781  1.5886
15074SOL     OW48176   2.725   2.044   4.085 -0.3352 -0.6155 -0.0043
15074SOL    HW148177   2.763   2.088   4.161  0.6566 -1.5692  0.0666
15074SOL    HW248178   2.727   1.951   4.107 -0.9855 -0.8255 -0.7802
15075SOL     OW48179   6.580   8.511   5.429 -0.1144 -0.3108 -0.0297
15075SOL    HW148180   6.564   8.543   5.517  0.8344 -0.8227  0.3436
15075SOL    HW248181   6.590   8.417   5.439  1.1274 -0.2506 -0.4998
15076SOL     OW48182   1.313   2.948   6.934  0.7025 -0.7673 -0.2421
15076SOL    HW148183   1.220   2.930   6.917  0.4703 -0.2435  0.4493
15076SOL    HW248184   1.321   2.943   7.029  1.4317 -1.0156 -0.3143
15077SOL     OW48185   8.383   2.729   9.754 -0.9776  0.2464  0.3293
15077SOL    HW148186   8.368   2.778   9.673 -0.5939  0.1553  0.2034
15077SOL    HW248187   8.405   2.796   9.819  1.0875  0.1474 -0.1918
15078SOL     OW48188   1.469   1.937   7.490  0.0345 -0.0097 -0.4830
15078SOL    HW148189   1.434   2.024   7.510 -0.9383 -1.0229  2.8593
15078SOL    HW248190   1.564   1.950   7.484 -0.1418  1.3501 -0.5662
15079SOL     OW48191   4.107   6.795   2.834  0.2377  0.1860  0.0547
15079SOL    HW148192   4.070   6.883   2.844 -1.9987 -0.5586 -0.9641
15079SOL    HW248193   4.117   6.784   2.739  1.7060 -0.2155  0.2374
15080SOL     OW48194   5.242   3.345  10.214  0.7331 -0.0366  0.8852
15080SOL    HW148195   5.223   3.438  10.229  2.1317  0.7166 -1.5407
15080SOL    HW248196   5.335   3.336  10.235  1.1735 -0.3205 -1.0292
15081SOL     OW48197   2.725   8.275  10.621  0.8467  0.4068  0.1788
15081SOL    HW148198   2.699   8.229  10.541  0.8544 -0.4369  0.6527
15081SOL    HW248199   2.691   8.364  10.609 -2.2971 -0.6018  0.7511
15082SOL     OW48200   0.915   7.110  10.513 -0.5663  0.6454  0.0020
15082SOL    HW148201   0.939   7.136  10.424 -1.6424 -0.4929 -0.6418
15082SOL    HW248202   0.905   7.193  10.561  0.7654  1.2505 -0.7112
15083SOL     OW48203   8.650   7.339   8.369 -0.6194  0.5344 -0.2543
15083SOL    HW148204   8.712   7.389   8.423  3.9059 -2.1513 -2.3483
15083SOL    HW248205   8.638   7.393   8.291  0.0230  0.6465 -0.2862
15084SOL     OW48206   5.368   2.001   0.694 -0.2366  0.1475  0.4031
15084SOL    HW148207   5.295   1.992   0.633  0.6013  0.1339 -0.6360
15084SOL    HW248208   5.362   2.090   0.727 -0.9622  0.0115  0.6711
15085SOL     OW48209   1.424   7.139   5.233 -0.4684 -0.8273 -0.2251
15085SOL    HW148210   1.370   7.166   5.158  0.8314  0.1154 -0.8635
15085SOL    HW248211   1.504   7.192   5.225 -0.6083 -0.1067  2.2767
15086SOL     OW48212   4.439   5.683   2.439 -0.0670  0.2012  0.1793
15086SOL    HW148213   4.459   5.602   2.486 -2.4867 -0.8718 -0.4604
15086SOL    HW248214   4.438   5.750   2.507  0.2128 -0.6378  1.0369
15087SOL     OW48215   0.112   9.228   2.851  0.2695 -0.1591 -0.4727
15087SOL    HW148216   0.053   9.246   2.778  0.7058 -2.8155 -1.5841
15087SOL    HW248217   0.056   9.193   2.920 -0.0755  1.9223  0.3732
15088SOL     OW48218  10.182   7.613   0.527 -0.2976 -0.4124  0.3923
15088SOL    HW148219  10.252   7.667   0.563 -0.0361 -1.5134  1.6193
15088SOL    HW248220  10.112   7.616   0.592 -0.9235 -0.2758 -0.2708
15089SOL     OW48221   4.864   3.110   6.769  0.3764  0.4520  0.1831
15089SOL    HW148222   4.822   3.187   6.731 -2.5528 -1.1612 -0.1371
15089SOL    HW248223   4.893   3.138   6.855 -0.3634  1.9804 -0.0299
15090SOL     OW48224   5.982   6.707   4.053  0.0583 -0.0728 -0.2981
15090SOL    HW148225   5.950   6.795   4.037  2.8440  1.1865  0.4113
15090SOL    HW248226   5.904   6.655   4.071 -1.6277  2.3038 -0.3824
15091SOL     OW48227   3.540   5.017   9.651 -0.2879 -0.0167  0.2130
15091SOL    HW148228   3.587   5.074   9.711 -1.2144  0.5019  0.4635
15091SOL    HW248229   3.455   5.059   9.640  0.0204  0.1759 -1.8471
15092SOL     OW48230   1.607   6.362   8.548  0.0883  0.8401 -0.1223
15092SOL    HW148231   1.684   6.417   8.555 -0.2297  1.3434 -0.5193
15092SOL    HW248232   1.576   6.375   8.458  0.3687 -0.4760 -0.4409
15093SOL     OW48233   7.523   4.103   7.662 -0.5672 -0.1489  0.4236
15093SOL    HW148234   7.452   4.041   7.682 -0.8164  0.2518  0.8090
15093SOL    HW248235   7.531   4.156   7.741 -0.4363  0.3856  0.0555
15094SOL     OW48236   2.192   6.014   6.990  0.1492  0.1047  0.3872
15094SOL    HW148237   2.250   6.040   7.061 -0.0729  0.5376  0.4127
15094SOL    HW248238   2.105   6.007   7.030  0.4403 -2.2461  0.7341
15095SOL     OW48239   3.968   7.480   9.317 -0.7101 -0.5190 -0.5167
15095SOL    HW148240   3.923   7.559   9.288 -0.4656 -0.5841 -1.0881
15095SOL    HW248241   3.963   7.483   9.412 -0.2787  0.4399 -0.5082
15096SOL     OW48242  10.598   3.548   0.983 -0.8728 -0.0589 -0.7118
15096SOL    HW148243  10.526   3.561   1.045 -1.2100  0.8614 -1.2778
15096SOL    HW248244  10.591   3.456   0.958 -0.2636 -0.6524  1.1615
15097SOL     OW48245   9.917   6.512   0.323 -0.1869  0.1667  0.3110
15097SOL    HW148246   9.896   6.589   0.270 -0.1631 -0.3793 -0.5171
15097SOL    HW248247   9.979   6.462   0.270 -0.9130 -0.8907  0.4086
15098SOL     OW48248   0.066   6.414  10.488 -0.0289 -0.1700 -0.4577
15098SOL    HW148249   0.050   6.501  10.452  0.0581  0.1206  0.2004
15098SOL    HW248250   0.030   6.354  10.422  1.2891  0.3065 -1.6610
15099SOL     OW48251  10.402   1.711   7.371 -0.3767 -0.2498 -0.4488
15099SOL    HW148252  10.416   1.617   7.359 -1.5268 -0.6283  0.9271
15099SOL    HW248253  10.448   1.751   7.297 -0.0541 -1.8932 -1.1988
15100SOL     OW48254   3.499   4.457   4.276 -0.2997 -0.6920  0.2894
15100SOL    HW148255   3.460   4.390   4.332  0.7857 -1.0470  0.6318
15100SOL    HW248256   3.547   4.514   4.336  0.4625 -0.7900 -0.2198
15101SOL     OW48257   1.707   0.337   6.087  0.3394  0.2943 -0.2398
15101SOL    HW148258   1.633   0.338   6.026  1.5632  0.2308 -1.7774
15101SOL    HW248259   1.727   0.244   6.099  0.2206  0.3143  0.1224
15102SOL     OW48260   5.296   1.544   4.171  0.0797 -0.3619 -0.1246
15102SOL    HW148261   5.295   1.591   4.254 -0.4777  0.4146 -0.5668
15102SOL    HW248262   5.301   1.612   4.104 -0.1747 -0.9480 -0.7573
15103SOL     OW48263   3.782   0.551   2.595 -0.6542 -0.8184 -0.0463
15103SOL    HW148264   3.803   0.637   2.632 -1.0511 -1.1823  1.0570
15103SOL    HW248265   3.716   0.515   2.654 -1.8024 -1.1536 -1.4807
15104SOL     OW48266   1.020   9.008   1.237 -0.4716 -0.3041  0.0702
15104SOL    HW148267   1.095   9.061   1.264 -0.7130 -0.5925  1.3577
15104SOL    HW248268   1.014   8.939   1.303 -0.5905 -1.5415 -1.1899
15105SOL     OW48269   5.687   1.892   3.062  0.6418 -0.3864 -0.2382
15105SOL    HW148270   5.653   1.981   3.074 -0.0209 -0.4604 -1.3751
15105SOL    HW248271   5.673   1.873   2.969 -0.8169 -2.2913  0.2744
15106SOL     OW48272   4.578   3.984   6.504  0.2437  0.5187  0.2590
15106SOL    HW148273   4.674   3.983   6.500  0.2960 -1.4215  1.0080
15106SOL    HW248274   4.550   3.967   6.415  0.6577 -0.8131  0.3603
15107SOL     OW48275   3.246   6.243   9.041 -0.0379  0.3022  0.2684
15107SOL    HW148276   3.332   6.235   9.001  0.4616 -0.6338  1.4832
15107SOL    HW248277   3.189   6.186   8.989  0.5732 -0.7901  0.7620
15108SOL     OW48278   3.759   4.251   2.635  0.1858  0.1535  0.0081
15108SOL    HW148279   3.812   4.211   2.703  0.1575  1.0483  0.5674
15108SOL    HW248280   3.689   4.187   2.619  1.1469 -0.8233 -0.4171
15109SOL     OW48281  10.010   4.419   7.210 -0.4770  0.1792  0.3136
15109SOL    HW148282   9.950   4.388   7.278  0.9252 -3.5984  0.0505
15109SOL    HW248283   9.986   4.368   7.132 -0.0724  2.2112 -1.2150
15110SOL     OW48284   8.117   5.493  10.386  0.1700 -0.1247  0.0274
15110SOL    HW148285   8.040   5.443  10.413  0.1195  0.4522  0.9814
15110SOL    HW248286   8.155   5.525  10.467  1.9407 -1.1222 -0.3549
15111SOL     OW48287   5.281   3.338   5.772  0.1672 -0.1138 -0.5471
15111SOL    HW148288   5.187   3.325   5.762 -0.0376  1.6970 -1.4898
15111SOL    HW248289   5.292   3.367   5.862 -0.4136  1.2338 -0.8880
15112SOL     OW48290   5.393   2.783   5.101  0.4446 -0.0102 -0.3401
15112SOL    HW148291   5.470   2.778   5.044 -0.5784  0.2327 -1.7782
15112SOL    HW248292   5.323   2.743   5.050 -0.0887 -1.5400  1.5136
15113SOL     OW48293   4.810   5.283   9.506  0.0164  0.4229 -0.4829
15113SOL    HW148294   4.754   5.280   9.584  0.7973 -1.2490  0.0590
15113SOL    HW248295   4.759   5.240   9.438 -0.3176  1.1137 -0.6837
15114SOL     OW48296  10.424   8.660   7.919 -0.1700 -0.0326 -0.0212
15114SOL    HW148297  10.344   8.664   7.866  0.1240 -0.4979 -0.5117
15114SOL    HW248298  10.437   8.567   7.937  1.5910 -0.2635 -2.0656
15115SOL     OW48299   7.534   2.034   6.926 -0.0145 -0.0626  0.3279
15115SOL    HW148300   7.562   2.104   6.868 -1.2082 -0.0645 -0.2809
15115SOL    HW248301   7.472   2.076   6.986 -0.3017 -0.4737  0.3215
15116SOL     OW48302   2.618   9.691   8.740 -0.0763  1.0112 -0.2218
15116SOL    HW148303   2.696   9.644   8.769  0.2201  1.0545 -0.9375
15116SOL    HW248304   2.620   9.773   8.788 -0.6371  0.2904  1.0982
15117SOL     OW48305   0.469   9.605   8.259 -0.6412 -0.2548 -0.4117
15117SOL    HW148306   0.453   9.648   8.343  0.2779  0.7223 -0.7178
15117SOL    HW248307   0.564   9.600   8.252 -0.7154 -1.5838 -0.7856
15118SOL     OW48308   0.341   6.958   8.864  0.0353  0.0326 -0.1698
15118SOL    HW148309   0.383   7.044   8.860  1.2037 -0.5625 -2.2405
15118SOL    HW248310   0.252   6.977   8.894  0.0080  2.0866 -1.3217
15119SOL     OW48311  10.574   5.299   6.650  0.3949  0.0026  0.4379
15119SOL    HW148312  10.532   5.215   6.669  1.4593 -1.1117 -1.8391
15119SOL    HW248313  10.667   5.280   6.649  0.5655  0.4417 -3.0777
15120SOL     OW48314   6.170   3.571   2.980 -0.0898  0.4498  0.1671
15120SOL    HW148315   6.243   3.610   2.931  0.1480  0.6416  0.6740
15120SOL    HW248316   6.208   3.547   3.064 -0.2552 -0.7740 -0.0776
15121SOL     OW48317   2.137   3.230   3.612 -0.3914 -0.6725 -0.5197
15121SOL    HW148318   2.145   3.178   3.532  1.0596 -1.1200 -0.1141
15121SOL    HW248319   2.151   3.320   3.583 -0.6891 -0.7359 -0.8804
15122SOL     OW48320   6.103   3.146   3.927 -0.0886  0.1472  0.3173
15122SOL    HW148321   6.112   3.228   3.975 -1.3926 -0.4308  1.6038
15122SOL    HW248322   6.013   3.147   3.895  0.4149 -0.0002 -1.1975
15123SOL     OW48323   6.710  10.470   9.737  0.1670  0.0397 -0.2699
15123SOL    HW148324   6.646  10.426   9.681 -0.0129 -0.4084  0.2848
15123SOL    HW248325   6.785  10.411   9.738 -0.0537 -0.2291  0.4329
15124SOL     OW48326  10.023   0.440   3.283 -0.0556 -0.2348  0.4101
15124SOL    HW148327  10.065   0.382   3.346 -0.2151 -1.3771 -0.5143
15124SOL    HW248328  10.093   0.497   3.252  0.1899 -0.2044  1.0235
15125SOL     OW48329   6.607   7.664   8.373  0.3805  0.1118  0.8353
15125SOL    HW148330   6.693   7.695   8.347 -0.6902  1.3857 -1.5156
15125SOL    HW248331   6.578   7.609   8.301 -1.5817  1.4177  0.5393
15126SOL     OW48332   5.752   4.337  10.320  0.1916 -0.1777 -0.0586
15126SOL    HW148333   5.743   4.258  10.373  2.0377  1.0815  2.3194
15126SOL    HW248334   5.667   4.346  10.276 -0.5260 -2.6997  0.6548
15127SOL     OW48335   4.202   2.045   0.737 -0.3877 -0.3243 -0.4131
15127SOL    HW148336   4.177   2.137   0.740  0.3658 -0.0952  3.1615
15127SOL    HW248337   4.293   2.046   0.705 -0.1659  0.2607  0.2166
15128SOL     OW48338   6.543   2.642   9.440 -0.2167 -0.5088 -0.0581
15128SOL    HW148339   6.633   2.613   9.453  0.5492  2.1075  1.2248
15128SOL    HW248340   6.531   2.643   9.345  0.8285 -1.6083 -0.2214
15129SOL     OW48341   1.490   2.335   3.671  0.1832 -0.6122 -0.0613
15129SOL    HW148342   1.460   2.345   3.762 -1.2499  0.4616 -0.6130
15129SOL    HW248343   1.585   2.332   3.678  0.0829 -1.3085  1.5390
15130SOL     OW48344   0.590   5.103   5.085  0.0610  0.4440 -0.6366
15130SOL    HW148345   0.630   5.190   5.087  1.0976 -0.0274  0.0381
15130SOL    HW248346   0.558   5.089   5.175 -0.6536  0.3738 -0.8976
15131SOL     OW48347   6.252  10.303   1.403  0.3618 -0.5587 -0.2121
15131SOL    HW148348   6.216  10.259   1.480  1.7557  0.7063  1.2276
15131SOL    HW248349   6.189  10.372   1.384  0.3727 -0.4182  0.2524
15132SOL     OW48350   3.949   1.298  10.293  0.0979  0.4577 -0.6024
15132SOL    HW148351   4.026   1.242  10.284  0.2235  0.8910 -2.8197
15132SOL    HW248352   3.984   1.380  10.328  0.5436  0.4070 -0.9090
15133SOL     OW48353   2.525   1.915   5.486 -0.9115  0.2928 -0.8676
15133SOL    HW148354   2.503   2.003   5.518  0.2225 -0.2186  1.5483
15133SOL    HW248355   2.441   1.872   5.474 -1.4599  1.4289 -1.3258
15134SOL     OW48356   5.369   3.179   1.865  0.0097  0.0387  0.1270
15134SOL    HW148357   5.279   3.207   1.882 -0.3051 -1.3186  0.8365
15134SOL    HW248358   5.373   3.089   1.898  1.9541  0.4610  1.1671
15135SOL     OW48359   8.126   0.532   2.186  0.8243  0.6898  0.2622
15135SOL    HW148360   8.060   0.591   2.150  0.1897  0.2577  0.6951
15135SOL    HW248361   8.209   0.578   2.173  0.4204  1.3244 -0.1151
15136SOL     OW48362   6.218   3.714   3.386  0.0928 -0.0757  0.2363
15136SOL    HW148363   6.126   3.694   3.367  0.1524  0.9029 -1.3179
15136SOL    HW248364   6.243   3.651   3.454 -1.7334 -0.3174  0.7440
15137SOL     OW48365   4.255   9.007   2.668 -0.1544  0.3226  0.2633
15137SOL    HW148366   4.165   9.001   2.700 -0.5503  0.0327 -0.8573
15137SOL    HW248367   4.247   9.051   2.583  0.6546 -0.5795 -0.2919
15138SOL     OW48368   2.686   0.609   3.251 -0.1006 -0.0597 -0.2712
15138SOL    HW148369   2.624   0.547   3.290  2.3826 -3.3938 -1.1638
15138SOL    HW248370   2.738   0.640   3.325  0.5357 -1.4676 -0.0838
15139SOL     OW48371   1.197   2.598   1.002  0.1708  0.0947  0.0087
15139SOL    HW148372   1.129   2.549   0.956  2.4547 -2.2306 -1.1740
15139SOL    HW248373   1.160   2.614   1.089 -1.1677 -2.9550  0.1401
15140SOL     OW48374   7.210   2.815   7.016 -0.2178 -0.2149  0.1578
15140SOL    HW148375   7.120   2.810   6.984 -0.6640 -0.9956  1.4678
15140SOL    HW248376   7.264   2.797   6.939 -1.2260 -1.3965 -0.3112
15141SOL     OW48377   9.751   6.092   8.418 -0.0031  0.5395 -0.0305
15141SOL    HW148378   9.688   6.162   8.435 -0.0596  0.3841  0.4083
15141SOL    HW248379   9.759   6.045   8.501  0.4959  0.3977 -0.1517
15142SOL     OW48380   7.880   8.508   4.386 -0.4169 -0.5398 -0.0450
15142SOL    HW148381   7.952   8.566   4.410  0.2526 -0.7086 -1.5392
15142SOL    HW248382   7.921   8.439   4.334 -1.5475 -1.0636 -0.2835
15143SOL     OW48383   3.730   3.867   6.888 -0.2132  0.4184 -0.1825
15143SOL    HW148384   3.788   3.942   6.873 -0.9114  1.5249  2.1625
15143SOL    HW248385   3.644   3.897   6.859 -0.3657  0.2834  0.1251
15144SOL     OW48386   9.987   0.612   4.820 -0.2114  0.3554  0.2508
15144SOL    HW148387   9.900   0.623   4.859 -1.0190 -1.9937 -0.6782
15144SOL    HW248388  10.000   0.517   4.818  1.6328  0.5811 -1.2108
15145SOL     OW48389   5.094   6.295   9.914  0.3422 -0.3298  0.6944
15145SOL    HW148390   5.121   6.343   9.992 -1.0436  0.9938  0.4165
15145SOL    HW248391   5.055   6.214   9.948  0.7556 -0.2710  1.3141
15146SOL     OW48392   2.813   0.591   6.971  1.3045 -0.1594  0.4093
15146SOL    HW148393   2.760   0.625   7.044  4.2791  1.1424  2.1182
15146SOL    HW248394   2.773   0.628   6.893 -0.2518  0.7979  1.6035
15147SOL     OW48395   1.856   8.352   9.594 -0.1349  0.1498 -0.5635
15147SOL    HW148396   1.799   8.414   9.550  1.4505  3.5731  1.7160
15147SOL    HW248397   1.944   8.387   9.581  1.0055 -2.3574 -0.1353
15148SOL     OW48398   7.504   7.048   6.133 -0.5867  0.1584  0.3842
15148SOL    HW148399   7.419   7.024   6.170 -0.3644  0.7265  1.3058
15148SOL    HW248400   7.550   7.091   6.205  0.5393 -0.2677 -0.0496
15149SOL     OW48401   6.717   8.859  10.579 -0.0971  0.2420  0.3039
15149SOL    HW148402   6.743   8.836  10.490  0.1089 -0.5585  0.5619
15149SOL    HW248403   6.636   8.810  10.594 -0.3172  0.6402  0.4401
15150SOL     OW48404   2.003   8.321  10.228  0.0252 -0.0235 -0.0290
15150SOL    HW148405   1.941   8.389  10.254  0.0245 -0.6301  1.6283
15150SOL    HW248406   1.955   8.267  10.165 -0.7545  0.1620  0.3957
15151SOL     OW48407   4.599   3.672   4.110  0.3402  0.1018  0.0595
15151SOL    HW148408   4.628   3.749   4.160 -0.3503 -0.3809  1.2542
15151SOL    HW248409   4.578   3.707   4.023 -1.0405  1.5148  0.9042
15152SOL     OW48410   0.129   7.400   2.462 -0.0349 -0.1504 -0.8357
15152SOL    HW148411   0.149   7.419   2.553  2.1929  1.8390 -1.6202
15152SOL    HW248412   0.064   7.467   2.438 -1.5197 -1.4044 -0.4647
15153SOL     OW48413   2.984   6.423   6.237  0.0421 -0.9967  0.2861
15153SOL    HW148414   2.992   6.501   6.292  1.7427 -1.6700  1.0818
15153SOL    HW248415   2.973   6.457   6.148  2.0801  0.2202  0.4361
15154SOL     OW48416   0.012   2.921   7.078  0.5581  0.5234  0.2512
15154SOL    HW148417   0.084   2.960   7.028  1.3191 -1.6059 -0.4085
15154SOL    HW248418   0.051   2.897   7.162  1.2669 -2.3777 -0.7744
15155SOL     OW48419   7.934   6.588   5.619 -0.3249 -0.4736 -0.3943
15155SOL    HW148420   7.911   6.622   5.532  0.2231 -0.5615 -0.5760
15155SOL    HW248421   7.878   6.636   5.679 -0.5708 -0.2715 -0.7791
15156SOL     OW48422   1.998   3.071   1.930  0.1044  0.0627  0.3358
15156SOL    HW148423   1.933   3.124   1.975  1.0469 -0.1855  2.0673
15156SOL    HW248424   1.970   2.981   1.942  0.0866  0.0183 -0.0243
15157SOL     OW48425   2.932   0.353   3.241  0.0658  0.1399  0.2600
15157SOL    HW148426   2.915   0.444   3.219  0.8540  0.5485  1.2051
15157SOL    HW248427   2.871   0.333   3.312 -1.7784 -0.8535 -1.5158
15158SOL     OW48428  10.569   5.077   6.341 -0.5527  0.0073  0.0359
15158SOL    HW148429  10.619   5.006   6.381  0.3047  0.4778 -0.1952
15158SOL    HW248430  10.478   5.046   6.345 -0.3698 -0.4536  1.3040
15159SOL     OW48431   2.559   5.893   2.776  0.8131 -0.2002  0.2435
15159SOL    HW148432   2.562   5.852   2.689 -1.4015  0.4505 -0.1983
15159SOL    HW248433   2.538   5.820   2.835 -0.9168 -0.1194 -0.2379
15160SOL     OW48434   0.112   4.844   2.986 -0.1806  0.2442  0.1107
15160SOL    HW148435   0.098   4.784   2.913  0.0263 -0.1590  0.3962
15160SOL    HW248436   0.169   4.795   3.045 -1.8242 -0.1684  1.4345
15161SOL     OW48437   2.214   1.990   6.825  0.4978  0.1124  0.5291
15161SOL    HW148438   2.157   1.925   6.785 -1.1517  0.8911  1.4999
15161SOL    HW248439   2.193   1.986   6.918  2.6317 -0.1074  1.0561
15162SOL     OW48440   1.728   9.926   7.004  0.3288  0.2472 -0.5764
15162SOL    HW148441   1.645   9.943   7.048  0.4598  0.6362 -0.4822
15162SOL    HW248442   1.777   9.870   7.065  0.7927  1.3527  0.0959
15163SOL     OW48443   9.575   7.138   6.660 -0.2939 -0.4472  0.5393
15163SOL    HW148444   9.642   7.173   6.718 -0.1308  0.1350  0.0022
15163SOL    HW248445   9.577   7.043   6.676 -0.7281 -0.2416  1.9839
15164SOL     OW48446   3.022  10.434   4.447  0.2771 -0.3072  0.1412
15164SOL    HW148447   3.095  10.477   4.403  0.7231 -1.2765 -0.1081
15164SOL    HW248448   2.991  10.369   4.384 -0.3599 -0.3675  0.5044
15165SOL     OW48449   6.307   1.816   4.608  0.1239 -0.2568  0.0750
15165SOL    HW148450   6.340   1.797   4.696  0.8549  0.7698  0.0419
15165SOL    HW248451   6.375   1.780   4.550  0.7863  1.0829 -0.0113
15166SOL     OW48452   9.312   7.392   9.060  0.0193  0.8602 -0.2082
15166SOL    HW148453   9.310   7.488   9.061 -0.2576  0.9275 -2.2699
15166SOL    HW248454   9.288   7.367   9.149  0.4009  2.6991  0.4664
15167SOL     OW48455   7.965   4.603   2.888 -0.0048  0.6402 -0.1855
15167SOL    HW148456   8.052   4.572   2.866  0.6434  0.5063  2.2654
15167SOL    HW248457   7.906   4.540   2.848  1.1545 -1.0998  0.7386
15168SOL     OW48458  10.301   9.292   8.800  0.5033  0.3247  0.7021
15168SOL    HW148459  10.276   9.213   8.848  0.0699 -0.2177 -0.3574
15168SOL    HW248460  10.280   9.271   8.708  0.1858  1.7472  0.4207
15169SOL     OW48461   4.669   3.038   2.015 -0.3096 -0.3721  0.2518
15169SOL    HW148462   4.585   3.013   2.054  0.2651 -0.4366  1.5264
15169SOL    HW248463   4.676   3.132   2.033  0.1322 -0.4774  0.6544
15170SOL     OW48464   6.977   2.039   5.921 -0.0807  0.7074  0.6501
15170SOL    HW148465   6.982   2.000   6.008 -0.9921  0.7190  0.7182
15170SOL    HW248466   7.066   2.068   5.903  0.3839 -0.4102  1.0542
15171SOL     OW48467   7.296   9.744   4.683  0.0143 -0.1414 -0.4469
15171SOL    HW148468   7.296   9.648   4.672 -0.8507 -0.3649  1.1959
15171SOL    HW248469   7.206   9.770   4.662  0.6329  0.5747 -2.4910
15172SOL     OW48470   0.540   9.130   8.278  0.1831  0.2852 -0.0025
15172SOL    HW148471   0.582   9.165   8.357 -1.8973  1.1120  0.7974
15172SOL    HW248472   0.447   9.132   8.298 -0.4926  1.4336 -2.8368
15173SOL     OW48473   0.519   8.268   4.471 -0.2690 -0.2447  0.1145
15173SOL    HW148474   0.601   8.221   4.487  0.3770  1.0565  0.6910
15173SOL    HW248475   0.460   8.238   4.541  0.6432  0.9553  1.4394
15174SOL     OW48476   5.137   6.759   6.059 -0.1194  0.2673 -0.1015
15174SOL    HW148477   5.067   6.693   6.052  0.5677 -0.5826  0.6891
15174SOL    HW248478   5.215   6.708   6.082  0.5486  1.3161  0.0045
15175SOL     OW48479   6.621   4.277   4.734 -0.2062 -0.2186 -0.3084
15175SOL    HW148480   6.617   4.336   4.810 -0.5087  0.9882 -1.2377
15175SOL    HW248481   6.532   4.241   4.727  0.2701 -1.7972  0.9896
15176SOL     OW48482   0.119   6.265   3.210  0.3887 -0.1722  0.0886
15176SOL    HW148483   0.120   6.323   3.134  1.5481  1.2762  1.1603
15176SOL    HW248484   0.102   6.323   3.285  2.5658 -0.9968  1.3209
15177SOL     OW48485   7.217   9.764  10.348 -0.0833 -0.2329 -0.6945
15177SOL    HW148486   7.233   9.688  10.293  0.4649  0.4521 -1.5263
15177SOL    HW248487   7.129   9.793  10.325 -0.1587 -0.4086 -0.6281
15178SOL     OW48488   5.057  10.422   1.086  0.2211 -0.3142  0.5998
15178SOL    HW148489   5.011  10.475   1.022  2.8761  1.2299 -0.2133
15178SOL    HW248490   5.097  10.485   1.146  0.3484 -1.5989  1.9391
15179SOL     OW48491   9.309   7.222   3.968 -0.2759  0.3708  0.2282
15179SOL    HW148492   9.334   7.152   4.028  1.7437 -0.8098 -1.8548
15179SOL    HW248493   9.250   7.179   3.905  1.0738  0.4143 -1.1359
15180SOL     OW48494   4.356   7.237   3.481  0.3820  0.4796  0.3031
15180SOL    HW148495   4.404   7.176   3.425 -1.7016  0.5022 -1.6178
15180SOL    HW248496   4.403   7.320   3.473  0.9349  0.1205 -0.2322
15181SOL     OW48497  10.419   9.469   0.956  0.5589  0.1636  0.4357
15181SOL    HW148498  10.455   9.541   0.904  1.1272 -0.3203  0.1629
15181SOL    HW248499  10.391   9.404   0.892 -3.0910  1.4757  0.4097
15182SOL     OW48500   3.148  10.470   9.524 -0.2331  0.2547 -0.3359
15182SOL    HW148501   3.206  10.470   9.600  2.0847 -1.0691 -1.9508
15182SOL    HW248502   3.196  10.519   9.457 -2.0789  1.1454 -1.0765
15183SOL     OW48503  10.695   4.008   9.016  0.0793  0.3917  0.4425
15183SOL    HW148504  10.705   3.924   9.061  2.2353  0.8385  0.9149
15183SOL    HW248505  10.714   3.989   8.925  2.7866  0.6614  0.8654
15184SOL     OW48506   4.304   4.718   0.087 -0.5202  0.3555 -0.0306
15184SOL    HW148507   4.349   4.721   0.003  1.5994  0.1568  1.0338
15184SOL    HW248508   4.339   4.641   0.131 -1.0104  0.8723  1.3349
15185SOL     OW48509  10.626   4.194   6.209  0.1950  0.3407  0.2820
15185SOL    HW148510  10.609   4.266   6.148  0.8032 -0.5455 -0.9848
15185SOL    HW248511  10.619   4.234   6.296 -0.5629  1.6763 -0.3522
15186SOL     OW48512   0.323   1.043   0.006  0.1359 -0.8703  0.0464
15186SOL    HW148513   0.381   1.086   0.068 -0.2929 -1.8844  1.1747
15186SOL    HW248514   0.353   0.952   0.004 -1.4277 -1.4213  0.6853
15187SOL     OW48515   9.460   3.120   5.808 -0.2092  0.0339  0.4163
15187SOL    HW148516   9.388   3.183   5.819 -1.4681 -1.4329  0.8630
15187SOL    HW248517   9.470   3.110   5.714 -0.8472 -0.0148  0.3489
15188SOL     OW48518   8.815   3.948   0.040  0.1119 -0.3040  0.0679
15188SOL    HW148519   8.893   3.971  -0.011 -0.7119  1.4491 -0.5093
15188SOL    HW248520   8.746   3.939  -0.026 -0.6420  0.4454  0.7290
15189SOL     OW48521   3.338   6.737   5.195 -0.0359  0.5519  0.1118
15189SOL    HW148522   3.262   6.794   5.178  0.4559  0.9218 -0.9591
15189SOL    HW248523   3.383   6.733   5.111  1.3805  0.6826  0.8398
15190SOL     OW48524   0.552   4.455   2.401 -0.0820 -0.3172 -0.7625
15190SOL    HW148525   0.529   4.482   2.312 -0.7005 -2.3605 -1.2712
15190SOL    HW248526   0.588   4.534   2.441  0.3337  0.6291 -2.8611
15191SOL     OW48527   9.396   8.981   3.169  0.3851  0.6190 -0.0510
15191SOL    HW148528   9.365   8.891   3.183 -0.8043  1.0811  0.4158
15191SOL    HW248529   9.378   9.025   3.252 -0.8591  1.7901 -0.9154
15192SOL     OW48530   2.925   9.577   4.673  0.1897 -0.2265  0.2806
15192SOL    HW148531   2.972   9.526   4.738 -0.6791 -1.8927 -0.3226
15192SOL    HW248532   2.990   9.594   4.604  0.5915 -0.1350  0.6754
15193SOL     OW48533   1.017   7.718   7.917 -0.0958 -0.3151 -0.2461
15193SOL    HW148534   1.028   7.624   7.903 -0.1024 -0.3914  0.2800
15193SOL    HW248535   1.079   7.758   7.855  1.1754 -0.6988  0.7266
15194SOL     OW48536   5.162   1.948  10.554 -0.0351 -0.3707  0.0723
15194SOL    HW148537   5.136   1.967  10.645 -1.4279 -1.5896 -0.0234
15194SOL    HW248538   5.105   2.003  10.501  0.3290 -0.1377 -0.0788
15195SOL     OW48539   1.698  10.439   2.059  0.2693 -0.4619 -0.3695
15195SOL    HW148540   1.619  10.434   2.113  0.6036  1.6334  0.4006
15195SOL    HW248541   1.764  10.392   2.110  0.2568  0.3945  0.4660
15196SOL     OW48542   1.839   2.529  10.271 -0.3035  0.0166  0.1233
15196SOL    HW148543   1.755   2.575  10.264 -1.0310 -0.7798  2.6757
15196SOL    HW248544   1.892   2.585  10.328  1.2463  0.8736 -2.0193
15197SOL     OW48545   4.969   9.810   9.216 -0.2597  0.0971  0.2390
15197SOL    HW148546   4.943   9.869   9.145 -0.2322  1.7184  1.5044
15197SOL    HW248547   4.893   9.754   9.230 -0.1240 -0.5369 -1.2918
15198SOL     OW48548   7.008   3.827   0.556 -0.2353  0.4892 -0.5262
15198SOL    HW148549   6.956   3.760   0.511  1.0090 -1.0849  0.2383
15198SOL    HW248550   7.098   3.795   0.549  0.6100  2.8298 -1.3270
15199SOL     OW48551   4.661   9.152   6.298 -0.1339 -0.2819  0.0014
15199SOL    HW148552   4.717   9.080   6.269 -3.3558 -2.9705 -0.1250
15199SOL    HW248553   4.637   9.198   6.218  1.5536  0.7579  0.0345
15200SOL     OW48554   4.931   1.674   7.922  0.0011  0.0710 -0.0292
15200SOL    HW148555   4.869   1.728   7.971 -1.4660 -2.0028  0.5756
15200SOL    HW248556   4.980   1.736   7.869 -0.2597  2.1431  1.9839
15201SOL     OW48557   7.299   1.801   1.966 -0.0947 -0.2277  0.3067
15201SOL    HW148558   7.386   1.775   1.935  0.5031  1.4461  0.4972
15201SOL    HW248559   7.239   1.770   1.898  0.7048 -0.8847 -0.1160
15202SOL     OW48560   8.205   5.043   3.827 -0.1834 -0.3809 -0.6557
15202SOL    HW148561   8.122   5.056   3.873  1.0129  0.7708  1.3564
15202SOL    HW248562   8.214   5.121   3.773 -0.2357 -0.3242 -0.5837
15203SOL     OW48563   4.416   9.287   6.505 -0.4596 -0.0904 -0.2592
15203SOL    HW148564   4.426   9.256   6.595 -2.2298 -1.1289 -0.3929
15203SOL    HW248565   4.342   9.238   6.470 -0.5746  1.1723 -1.9053
15204SOL     OW48566   3.860   4.381  10.216 -0.0943 -0.2130 -0.2451
15204SOL    HW148567   3.855   4.293  10.177 -2.2986 -0.3495  0.1995
15204SOL    HW248568   3.831   4.369  10.306  1.2856  0.7275  0.3647
15205SOL     OW48569   6.025   3.688   8.091 -0.2199  0.4449  0.2560
15205SOL    HW148570   5.973   3.619   8.133 -0.6389  1.8542  2.1525
15205SOL    HW248571   6.108   3.688   8.139 -0.7784  2.2130  1.3114
15206SOL     OW48572   7.435   7.081   0.928  0.0627  0.0612  0.0433
15206SOL    HW148573   7.359   7.139   0.923  0.5717  1.0152  2.1708
15206SOL    HW248574   7.505   7.130   0.884 -0.6199 -1.1339 -2.5989
15207SOL     OW48575   9.694   0.052   7.273 -0.0746  0.0017 -0.3614
15207SOL    HW148576   9.644  -0.028   7.293  0.5836 -1.2602 -3.2735
15207SOL    HW248577   9.777   0.041   7.319 -0.1428 -0.8294 -0.4239
15208SOL     OW48578   3.858   9.456   0.672 -0.1253  0.2790 -0.3695
15208SOL    HW148579   3.861   9.551   0.684  0.1037  0.6495 -2.9592
15208SOL    HW248580   3.949   9.427   0.682 -0.3225  0.1246  1.4095
15209SOL     OW48581   7.130   8.957   7.324  0.1125 -0.3212 -0.0416
15209SOL    HW148582   7.144   8.981   7.232  0.1181  0.4411  0.1536
15209SOL    HW248583   7.212   8.981   7.367  0.0234 -0.4666  0.2076
15210SOL     OW48584   5.119   7.071   1.713  0.3668 -0.3220  0.4510
15210SOL    HW148585   5.056   7.081   1.642  2.0144 -1.0996 -1.1810
15210SOL    HW248586   5.118   7.156   1.758 -1.1474 -0.0326 -0.0926
15211SOL     OW48587   9.631   0.101  10.105 -0.0569  0.4016 -0.1188
15211SOL    HW148588   9.622   0.079  10.012  2.6275  0.4854 -0.4839
15211SOL    HW248589   9.552   0.150  10.126 -2.0023 -1.8383 -1.6330
15212SOL     OW48590   6.857   7.123   3.369 -0.1872 -0.5644 -0.0529
15212SOL    HW148591   6.915   7.051   3.395  1.2274  0.1354 -1.1389
15212SOL    HW248592   6.773   7.102   3.410  0.6975 -1.8578  1.1886
15213SOL     OW48593   2.341   7.259   5.083  0.2162  0.7041  0.2401
15213SOL    HW148594   2.361   7.204   5.160  0.2161  0.1494 -0.1491
15213SOL    HW248595   2.427   7.287   5.051  0.1735  1.8444  1.0838
15214SOL     OW48596   0.289   4.173   4.909 -0.0788  0.0994 -0.1999
15214SOL    HW148597   0.349   4.181   4.834 -0.3967  0.5365 -0.4120
15214SOL    HW248598   0.346   4.177   4.986  0.2819 -0.6319 -0.4201
15215SOL     OW48599  10.145   2.429   9.800 -0.0104  0.2157 -0.2305
15215SOL    HW148600  10.071   2.455   9.855  1.3609  1.9057  0.9075
15215SOL    HW248601  10.125   2.339   9.775 -2.5148  0.6453 -0.1020
15216SOL     OW48602  10.333   2.862   8.879 -0.2564  0.3781  0.2292
15216SOL    HW148603  10.375   2.944   8.903  1.3077 -0.6521  1.1976
15216SOL    HW248604  10.281   2.883   8.801  3.5569  1.3888 -2.3389
15217SOL     OW48605   3.554   2.842   3.765 -0.6160  0.0447  0.4504
15217SOL    HW148606   3.522   2.753   3.780 -1.5375 -0.0658 -1.7202
15217SOL    HW248607   3.477   2.890   3.733  0.0171  1.4722  0.9580
15218SOL     OW48608   8.326  10.139   8.652  0.3689  0.3343  0.1072
15218SOL    HW148609   8.282  10.053   8.651 -1.3506  1.1648 -0.5991
15218SOL    HW248610   8.303  10.178   8.568  0.5110  1.7808  0.7168
15219SOL     OW48611   8.172   7.246   2.002 -0.1084 -0.2036 -0.4724
15219SOL    HW148612   8.253   7.296   1.995  0.5239 -1.2787 -1.2247
15219SOL    HW248613   8.148   7.251   2.094  1.0403 -0.1903 -0.1603
15220SOL     OW48614   6.709   2.865   4.570  0.6907  0.3718  0.1583
15220SOL    HW148615   6.646   2.880   4.500 -0.3199  0.3494  1.0412
15220SOL    HW248616   6.793   2.892   4.533  0.3025 -0.3200 -1.2965
15221SOL     OW48617   1.880   4.915   1.477  0.1607 -0.3186 -0.7967
15221SOL    HW148618   1.935   4.871   1.542 -0.4681 -0.4999 -0.3725
15221SOL    HW248619   1.867   4.849   1.408 -0.7748 -0.8251 -0.1658
15222SOL     OW48620  10.667   2.756   3.420  0.2105 -0.1822 -0.3182
15222SOL    HW148621  10.749   2.735   3.374  0.8882  0.1297  0.7138
15222SOL    HW248622  10.687   2.836   3.468 -1.5789  1.5568 -2.2715
15223SOL     OW48623   5.197   2.710   4.927  0.3942 -0.4248  0.3477
15223SOL    HW148624   5.159   2.654   4.860  1.3385 -2.7373  1.6397
15223SOL    HW248625   5.143   2.789   4.926 -0.3899 -0.9175 -2.2133
15224SOL     OW48626   7.637   9.616   2.053 -0.3835 -0.0380 -0.0961
15224SOL    HW148627   7.681   9.646   1.973 -0.4535 -2.1079 -0.9827
15224SOL    HW248628   7.703   9.627   2.122  1.0234 -1.6086 -1.1163
15225SOL     OW48629   7.928   1.777   8.046 -0.4297 -0.1083  0.7169
15225SOL    HW148630   7.905   1.695   8.004  2.6283 -0.2785 -0.9338
15225SOL    HW248631   7.897   1.845   7.986  0.9246 -0.2501 -0.1818
15226SOL     OW48632   1.070   1.198  10.112  0.0996 -0.0979 -0.2437
15226SOL    HW148633   1.070   1.286  10.150 -1.4679  0.6819 -1.8527
15226SOL    HW248634   1.161   1.182  10.089  0.5180  0.8249  0.6890
15227SOL     OW48635   5.359   2.398   3.334  0.5742  0.2776  0.6586
15227SOL    HW148636   5.336   2.391   3.242 -1.2513 -4.7043  1.1909
15227SOL    HW248637   5.290   2.453   3.372  0.9895  1.8490 -0.7451
15228SOL     OW48638  10.434   2.300   2.503 -0.0602 -0.1204 -0.2114
15228SOL    HW148639  10.518   2.340   2.525  0.9118 -1.8705 -0.5632
15228SOL    HW248640  10.370   2.349   2.556  1.1050  1.4460 -0.1686
15229SOL     OW48641   6.555  10.168   0.838  0.5886  0.6296  0.1065
15229SOL    HW148642   6.617  10.102   0.808  0.7385  0.2981  1.1224
15229SOL    HW248643   6.478  10.155   0.783  1.2133  0.7064 -0.8135
15230SOL     OW48644   0.693   4.296   6.768  0.0673 -0.2068 -0.2160
15230SOL    HW148645   0.687   4.390   6.755 -0.3102 -0.5107 -2.6780
15230SOL    HW248646   0.772   4.283   6.820  0.5730  1.4002 -0.5605
15231SOL     OW48647   4.563   7.913   9.143  0.1786 -0.0692  0.3822
15231SOL    HW148648   4.548   7.852   9.215 -1.1265 -1.0261 -0.6605
15231SOL    HW248649   4.623   7.867   9.085  1.2204  0.6985  0.8006
15232SOL     OW48650   9.775   7.669   4.387  0.1034  0.1174  0.0173
15232SOL    HW148651   9.780   7.639   4.477  1.6868 -1.2590 -0.4831
15232SOL    HW248652   9.771   7.765   4.394 -0.0215  0.0291  1.5346
15233SOL     OW48653   1.180   7.973   1.631  0.4810 -0.3614  0.3335
15233SOL    HW148654   1.169   8.005   1.542  2.0522 -0.5849  0.0228
15233SOL    HW248655   1.093   7.978   1.670  0.0583  1.1694 -0.7239
15234SOL     OW48656   3.437   5.412   0.194  0.1024  0.4036 -0.0022
15234SOL    HW148657   3.349   5.433   0.163  0.2701  1.7736  0.4037
15234SOL    HW248658   3.491   5.484   0.163  1.1518 -0.5396 -0.4632
15235SOL     OW48659   5.471   1.546   8.842 -0.5590  0.0067 -0.1335
15235SOL    HW148660   5.545   1.606   8.844 -0.9162  0.4327  0.6916
15235SOL    HW248661   5.467   1.509   8.931 -0.5379 -0.9998 -0.5360
15236SOL     OW48662   9.667   3.195   0.499  0.8759 -0.2342  0.5504
15236SOL    HW148663   9.608   3.271   0.495 -0.7611 -1.4873 -0.0185
15236SOL    HW248664   9.703   3.188   0.411 -0.9150 -1.5474 -0.1341
15237SOL     OW48665   1.706   1.546   1.225  0.0148 -0.2143  0.4206
15237SOL    HW148666   1.721   1.636   1.196 -1.8130 -0.2326 -0.7206
15237SOL    HW248667   1.754   1.493   1.162 -0.6698 -0.0985 -0.2150
15238SOL     OW48668   8.988   0.309   8.657 -0.3393 -0.0541 -0.5187
15238SOL    HW148669   9.014   0.335   8.569 -0.7543  0.6721 -0.4335
15238SOL    HW248670   9.069   0.307   8.707  0.0434 -1.4311 -1.1380
15239SOL     OW48671   9.070   4.179   4.734  0.1702  0.4791 -0.1231
15239SOL    HW148672   9.136   4.228   4.685 -0.4514  1.9272  0.4432
15239SOL    HW248673   9.002   4.243   4.754  0.7327  0.1896  3.3207
15240SOL     OW48674   9.661   7.053   2.186  0.3727 -0.2165  0.0921
15240SOL    HW148675   9.662   6.966   2.146  2.5986  0.0724 -0.5984
15240SOL    HW248676   9.585   7.096   2.147  1.1494 -0.7390 -2.1705
15241SOL     OW48677   5.206   3.384   7.014  0.7030  0.6532  0.2100
15241SOL    HW148678   5.141   3.318   6.991 -0.1540  0.9865  1.5498
15241SOL    HW248679   5.290   3.342   6.995  0.1396 -0.3047 -0.2415
15242SOL     OW48680   6.099   7.327   8.019  0.2375 -0.4469 -0.6122
15242SOL    HW148681   6.195   7.330   8.016  0.2602 -0.5597 -0.1384
15242SOL    HW248682   6.076   7.253   7.963  0.3568  0.3660 -1.7566
15243SOL     OW48683   3.427   3.405   8.488 -0.6088  0.2898  0.1957
15243SOL    HW148684   3.443   3.311   8.480 -0.8140  0.2474  0.2739
15243SOL    HW248685   3.503   3.439   8.535 -0.3557  0.2219 -0.1595
15244SOL     OW48686   5.943   4.119   6.535 -0.4969 -0.0178 -0.0978
15244SOL    HW148687   5.907   4.179   6.469 -0.6438 -1.1079 -1.0472
15244SOL    HW248688   6.007   4.067   6.487  0.3054  0.0005  0.9344
15245SOL     OW48689   2.553   1.168   1.483 -0.0474  0.0379  0.0351
15245SOL    HW148690   2.580   1.237   1.543 -2.0879  1.0277 -0.0875
15245SOL    HW248691   2.633   1.146   1.434  1.2667  0.3668  1.9150
15246SOL     OW48692  10.255   6.151   6.595 -0.6115 -0.3183 -0.6180
15246SOL    HW148693  10.317   6.224   6.590 -0.3262  0.0650  3.9571
15246SOL    HW248694  10.169   6.192   6.588 -0.4333  0.5185  1.3536
15247SOL     OW48695  10.521   5.150   9.589  0.6119  0.2312  0.2435
15247SOL    HW148696  10.520   5.137   9.683  1.2223 -0.2498  0.1881
15247SOL    HW248697  10.513   5.061   9.552  0.6594  0.3880 -0.1521
15248SOL     OW48698   2.424   3.098   6.608 -0.6770  0.2206  0.0616
15248SOL    HW148699   2.440   3.014   6.566 -0.4110  1.5374 -2.6750
15248SOL    HW248700   2.338   3.125   6.577 -0.3897  1.3494  0.2058
15249SOL     OW48701   0.382   8.057  10.586 -0.0522  0.0851 -0.2395
15249SOL    HW148702   0.327   8.133  10.568 -0.1562 -0.3666 -2.0162
15249SOL    HW248703   0.322   7.983  10.581 -0.0787 -0.1343  2.0899
15250SOL     OW48704   4.496   3.180   4.284 -0.1705  0.0950 -0.8120
15250SOL    HW148705   4.499   3.188   4.188  0.1570 -2.2982 -1.0612
15250SOL    HW248706   4.533   3.262   4.316  0.9354  0.4257 -2.7692
15251SOL     OW48707   1.226   3.278   2.984 -0.3665  0.0920  0.5196
15251SOL    HW148708   1.302   3.315   3.029 -1.9383  1.9365  1.8748
15251SOL    HW248709   1.261   3.206   2.932  2.3239  1.0427  0.8435
15252SOL     OW48710   1.068   9.024   3.649  0.5446  0.0425  0.6575
15252SOL    HW148711   1.003   9.090   3.624 -0.6720 -1.4494 -0.2654
15252SOL    HW248712   1.027   8.977   3.722  0.0026 -1.7091 -0.7211
15253SOL     OW48713   6.576   0.225   2.690  0.0952 -0.1141  0.6595
15253SOL    HW148714   6.506   0.216   2.755 -1.0466 -2.7761 -0.7577
15253SOL    HW248715   6.654   0.193   2.735  0.0153  1.0231  1.6489
15254SOL     OW48716   9.892   3.971   9.235 -0.1173  0.0575 -0.6030
15254SOL    HW148717   9.914   3.998   9.324 -0.3092 -1.3005 -0.1133
15254SOL    HW248718   9.818   3.911   9.246 -1.0124  0.9060 -1.8064
15255SOL     OW48719   3.001   6.847   6.731 -0.1923 -0.0367  0.3179
15255SOL    HW148720   3.093   6.838   6.707 -0.0685 -1.9100  1.3129
15255SOL    HW248721   2.996   6.933   6.773  1.0704  0.1567  0.1066
15256SOL     OW48722   6.860   4.627   6.641  0.5976 -0.9145 -0.5281
15256SOL    HW148723   6.924   4.605   6.574 -0.1765  0.3234 -1.7260
15256SOL    HW248724   6.912   4.653   6.717  1.4817 -1.7405 -0.8364
15257SOL     OW48725   2.629   1.378   2.699  0.0816  0.5072 -0.2548
15257SOL    HW148726   2.584   1.453   2.738 -1.5144 -0.9142  0.7672
15257SOL    HW248727   2.671   1.334   2.772 -0.3360 -0.4574 -0.5748
15258SOL     OW48728   7.487   1.946   0.428  0.2651 -0.4189 -0.0559
15258SOL    HW148729   7.401   1.979   0.455  0.6712  0.0757  0.6381
15258SOL    HW248730   7.550   1.999   0.476  1.0028  0.0502 -1.4636
15259SOL     OW48731   8.327   2.849   4.494  0.7015  0.2014 -0.3601
15259SOL    HW148732   8.412   2.822   4.527 -0.5477 -4.5140 -0.2901
15259SOL    HW248733   8.266   2.826   4.565 -0.8694  1.0714 -1.3823
15260SOL     OW48734   3.773  10.602   0.163  0.1781  0.1235 -0.4377
15260SOL    HW148735   3.782  10.578   0.255  0.4950 -2.1934 -1.0106
15260SOL    HW248736   3.690  10.563   0.135  0.1384  0.7006 -1.1914
15261SOL     OW48737   8.622   2.553   9.634  0.2600 -0.1331  0.0637
15261SOL    HW148738   8.571   2.500   9.572  0.5098  0.4183 -0.6254
15261SOL    HW248739   8.606   2.512   9.719 -1.0951 -0.1615 -0.1810
15262SOL     OW48740   8.655   5.379   7.355 -0.4199 -0.3089  0.0091
15262SOL    HW148741   8.697   5.460   7.383 -1.6061  0.5738 -0.6559
15262SOL    HW248742   8.704   5.352   7.278  0.0578 -0.3043  0.3053
15263SOL     OW48743   7.678   1.839   9.496  0.1436 -0.2289  0.1964
15263SOL    HW148744   7.755   1.864   9.546 -0.9084 -0.5264  2.0414
15263SOL    HW248745   7.656   1.751   9.527 -1.1072 -0.0318 -0.0683
15264SOL     OW48746  10.246   4.759   2.517  0.1831 -0.2730  0.0599
15264SOL    HW148747  10.231   4.677   2.470 -1.8377 -0.3567  0.7425
15264SOL    HW248748  10.286   4.731   2.599  0.2807 -0.5060 -0.0644
15265SOL     OW48749   6.187   9.388   1.243 -0.2171 -0.2033 -0.0642
15265SOL    HW148750   6.274   9.376   1.204  0.6331  2.8635  0.6329
15265SOL    HW248751   6.183   9.323   1.314  0.3877 -2.1254 -1.6899
15266SOL     OW48752   6.052   4.906   4.229  0.3767 -0.1439 -0.1168
15266SOL    HW148753   6.035   4.876   4.140  1.5259 -1.0812 -0.0276
15266SOL    HW248754   5.964   4.914   4.268 -0.0493 -2.0456 -0.5819
15267SOL     OW48755   5.092   5.597   6.183  0.2912  0.4184 -0.2159
15267SOL    HW148756   5.017   5.630   6.134  1.1326 -0.6237 -2.3517
15267SOL    HW248757   5.096   5.504   6.162  2.1557  0.4359 -0.1785
15268SOL     OW48758   3.890   7.348   5.919  0.1919  0.1502 -0.2698
15268SOL    HW148759   3.894   7.312   6.008  0.7592  0.4025 -0.1929
15268SOL    HW248760   3.981   7.352   5.890  0.3616  2.9868  0.3179
15269SOL     OW48761   9.095   6.746   3.255  1.0449  0.0197 -0.5125
15269SOL    HW148762   9.008   6.779   3.231 -0.3583 -3.7428 -1.3022
15269SOL    HW248763   9.098   6.755   3.350 -0.0082  0.6562 -0.5171
15270SOL     OW48764   6.329   4.650   4.030  0.4304  0.4345  0.3794
15270SOL    HW148765   6.399   4.586   4.024 -0.1545 -0.0586 -1.8150
15270SOL    HW248766   6.359   4.725   3.979 -0.4066  0.4376 -0.1247
15271SOL     OW48767   1.377   3.301   0.174  0.4699 -0.2550 -0.2202
15271SOL    HW148768   1.423   3.244   0.235 -0.1323 -1.0051 -0.4586
15271SOL    HW248769   1.317   3.243   0.126  0.3884  0.4444 -0.9924
15272SOL     OW48770   1.068   3.547   2.254 -0.2912 -0.0573 -0.0059
15272SOL    HW148771   1.072   3.514   2.164 -0.7266  1.5226 -0.6480
15272SOL    HW248772   1.031   3.475   2.305 -0.1937 -0.9207 -1.1160
15273SOL     OW48773   1.801   8.392   3.582 -0.0752 -0.1948 -0.4619
15273SOL    HW148774   1.720   8.378   3.533 -0.9117  1.3868  0.3845
15273SOL    HW248775   1.863   8.424   3.517 -0.0865 -1.4708 -1.1296
15274SOL     OW48776   3.516   2.261   8.629 -0.0641  0.3369 -0.1956
15274SOL    HW148777   3.478   2.326   8.569  1.0353  0.9733 -0.2247
15274SOL    HW248778   3.454   2.187   8.626 -2.7014  2.2656  1.7234
15275SOL     OW48779   4.117   4.390   4.617 -0.6094 -0.5091  0.2449
15275SOL    HW148780   4.082   4.459   4.673 -1.2947 -0.3516 -0.3614
15275SOL    HW248781   4.098   4.309   4.664 -0.1405 -0.3168  0.7817
15276SOL     OW48782   8.119   5.331   5.379 -0.0475 -0.1985 -0.3840
15276SOL    HW148783   8.185   5.287   5.327  0.5771 -1.2579  1.2129
15276SOL    HW248784   8.043   5.273   5.375  0.1208 -0.4668  0.1303
15277SOL     OW48785   5.618   6.610   9.153 -0.4680  0.0155  0.0072
15277SOL    HW148786   5.641   6.684   9.209  0.1181 -0.4628  0.4081
15277SOL    HW248787   5.571   6.550   9.210 -0.6662 -0.0672 -0.2406
15278SOL     OW48788   8.265   3.641   1.222 -0.4668  0.1225  0.0387
15278SOL    HW148789   8.230   3.695   1.293 -0.0833  0.0439  0.2942
15278SOL    HW248790   8.324   3.579   1.266 -0.0058  0.2571 -0.3819
15279SOL     OW48791   1.577   1.998   5.616  0.2445  0.2992 -0.0774
15279SOL    HW148792   1.647   2.032   5.560  0.2754 -0.5569 -0.5745
15279SOL    HW248793   1.500   1.994   5.559  0.3944 -1.0289 -0.2093
15280SOL     OW48794   2.872   2.137   4.828  0.1547  0.4159  0.1359
15280SOL    HW148795   2.841   2.063   4.880  1.7083 -0.4509 -0.1081
15280SOL    HW248796   2.960   2.154   4.862  0.6171  0.8103 -1.1989
15281SOL     OW48797   4.757   0.197   1.783 -0.1910 -0.4150  0.2117
15281SOL    HW148798   4.698   0.136   1.739  0.4888 -0.8270 -0.1458
15281SOL    HW248799   4.743   0.281   1.738 -0.3750 -0.5513  0.0145
15282SOL     OW48800   1.684   7.090   3.038 -0.3093  0.3815  0.1578
15282SOL    HW148801   1.616   7.126   2.981 -1.1166  1.2929  1.6295
15282SOL    HW248802   1.763   7.137   3.016 -0.7396  1.1063  0.1410
15283SOL     OW48803   0.091   5.857   7.541  0.0484  0.1346 -0.0967
15283SOL    HW148804   0.185   5.871   7.527 -0.2572  0.5811 -1.9845
15283SOL    HW248805   0.085   5.823   7.630  1.9180  0.8927  0.3637
15284SOL     OW48806   3.187   9.730  10.477  0.4436  0.0821 -0.6051
15284SOL    HW148807   3.204   9.714  10.569  0.5053 -2.0602 -0.9260
15284SOL    HW248808   3.184   9.825  10.469  0.0936  0.3112  1.6420
15285SOL     OW48809   4.209   6.463   1.261  0.2356 -0.3589  0.8991
15285SOL    HW148810   4.285   6.504   1.301  1.2107 -0.3150 -0.8970
15285SOL    HW248811   4.236   6.443   1.171 -2.5633  1.8617 -0.6532
15286SOL     OW48812   4.810   2.853   1.737 -0.7274  0.4100 -0.2018
15286SOL    HW148813   4.735   2.813   1.780 -1.4041  1.0627 -0.7646
15286SOL    HW248814   4.773   2.906   1.667  0.3744 -1.1092 -2.0414
15287SOL     OW48815   4.031   4.221   9.327 -0.2366  0.3844 -0.0361
15287SOL    HW148816   4.055   4.129   9.320 -1.7595  0.0923 -3.1907
15287SOL    HW248817   4.113   4.266   9.348  1.3871 -1.3618 -2.1154
15288SOL     OW48818   8.886   0.105   3.124  0.4208 -0.7102  0.6439
15288SOL    HW148819   8.836   0.186   3.115 -0.4903 -1.3552 -0.4157
15288SOL    HW248820   8.958   0.127   3.183  0.4214  0.9738  0.0664
15289SOL     OW48821   6.740   3.300   3.057 -0.0735 -0.0405 -0.3699
15289SOL    HW148822   6.692   3.364   3.110 -1.1264 -0.4152 -0.8326
15289SOL    HW248823   6.739   3.220   3.109 -1.0735 -0.3981 -0.9069
15290SOL     OW48824   8.497   0.498   9.599 -0.1617 -0.5059  0.0191
15290SOL    HW148825   8.589   0.495   9.575 -0.0742  0.3527  0.1919
15290SOL    HW248826   8.450   0.499   9.516 -0.0517 -1.5311 -0.0666
15291SOL     OW48827   0.579   2.852   2.367 -0.7015 -0.2414  0.3000
15291SOL    HW148828   0.491   2.816   2.372  0.3786 -3.0507  0.8019
15291SOL    HW248829   0.622   2.824   2.448  0.2148  2.5555  0.9039
15292SOL     OW48830   2.664   5.382   9.285 -0.0478 -0.3717  0.2507
15292SOL    HW148831   2.737   5.430   9.325 -0.0629 -0.4752  0.4032
15292SOL    HW248832   2.592   5.391   9.347 -0.0920 -0.4756  0.2146
15293SOL     OW48833   8.150   9.192   2.333 -0.3800 -0.8002  0.2798
15293SOL    HW148834   8.129   9.100   2.313  1.2748 -1.3076  0.7260
15293SOL    HW248835   8.075   9.224   2.382 -1.4779 -1.5723 -0.8243
15294SOL     OW48836   6.097   7.324   3.524 -0.2227 -0.2558  0.1382
15294SOL    HW148837   6.127   7.345   3.436  0.7694 -0.2982  0.4471
15294SOL    HW248838   6.005   7.351   3.526 -0.1179  0.1956 -0.7473
15295SOL     OW48839   2.114   5.294   6.259  0.2802 -0.5452 -0.1256
15295SOL    HW148840   2.164   5.369   6.225 -0.9857  1.3148  1.8527
15295SOL    HW248841   2.158   5.271   6.340  1.0295 -2.4517 -1.0178
15296SOL     OW48842   6.855   6.145   5.277 -0.4299 -0.0409  0.1378
15296SOL    HW148843   6.763   6.133   5.299 -0.8005 -0.8000 -1.6414
15296SOL    HW248844   6.898   6.066   5.309 -0.6525 -0.3309 -0.2734
15297SOL     OW48845   3.819   2.825  10.438  0.2992 -0.0073  0.3378
15297SOL    HW148846   3.904   2.862  10.414  0.4082  0.4531  1.4051
15297SOL    HW248847   3.801   2.761  10.369  2.4602 -1.5980  1.1480
15298SOL     OW48848  10.261   4.687   4.287 -0.0585 -0.0292  0.0139
15298SOL    HW148849  10.248   4.741   4.209  0.7204 -1.8585 -1.4556
15298SOL    HW248850  10.350   4.709   4.317 -0.9949  1.9810  1.5208
15299SOL     OW48851   4.714   2.612   2.788  0.6533  0.2453  0.7555
15299SOL    HW148852   4.735   2.705   2.795 -0.4702  0.5671  0.2053
15299SOL    HW248853   4.660   2.606   2.709 -0.5028 -0.6291  1.5731
15300SOL     OW48854  10.008   9.255   3.650  0.7326  0.2828 -0.2876
15300SOL    HW148855   9.949   9.199   3.600 -0.4454  1.4370 -0.2381
15300SOL    HW248856  10.095   9.234   3.616  0.1285 -0.1909 -1.6029
15301SOL     OW48857   7.683   3.161   0.105 -0.1777 -0.2444  0.0697
15301SOL    HW148858   7.702   3.111   0.184  1.0964  2.5855  1.6944
15301SOL    HW248859   7.765   3.161   0.056  0.0249  0.7819  0.4049
15302SOL     OW48860   4.739   3.613   8.431  0.3763 -0.5326 -0.0767
15302SOL    HW148861   4.709   3.633   8.519  0.8684 -0.8042  0.1581
15302SOL    HW248862   4.811   3.674   8.415  0.0806 -0.2685 -0.4140
15303SOL     OW48863   9.818   7.611   1.594  0.0674 -0.3235  0.1160
15303SOL    HW148864   9.817   7.655   1.509  0.7443 -1.2023 -0.3632
15303SOL    HW248865   9.779   7.526   1.578  0.3311 -0.5504  0.6517
15304SOL     OW48866   1.528   0.041   8.506  0.9154 -0.5393  0.4713
15304SOL    HW148867   1.586   0.105   8.464 -0.6805  0.7258  0.0940
15304SOL    HW248868   1.580   0.005   8.578  2.7840 -0.8129 -0.9432
15305SOL     OW48869   7.636   2.999   3.777  0.1163  0.5127 -0.0572
15305SOL    HW148870   7.549   2.961   3.765  0.3201  0.0626 -0.1004
15305SOL    HW248871   7.677   2.994   3.691 -0.5355  2.5533 -0.5501
15306SOL     OW48872   1.245   4.324   1.867 -0.0836 -0.0070 -0.0712
15306SOL    HW148873   1.207   4.390   1.926  0.0657  0.9216 -0.9779
15306SOL    HW248874   1.211   4.346   1.781  0.0863 -1.0507 -0.4186
15307SOL     OW48875  10.306   2.904   2.343  0.1953 -0.1290 -1.0014
15307SOL    HW148876  10.318   2.822   2.296  0.0267 -1.9763  1.9573
15307SOL    HW248877  10.228   2.944   2.302 -0.3369 -1.9352 -1.8420
15308SOL     OW48878   5.674   1.315   5.454  0.1814 -0.0621 -0.2210
15308SOL    HW148879   5.635   1.298   5.540 -0.5360  3.9872  0.4667
15308SOL    HW248880   5.610   1.281   5.391 -0.2713 -1.1935  0.8114
15309SOL     OW48881   4.877   6.376   4.461  0.1528 -0.3952  0.1427
15309SOL    HW148882   4.845   6.368   4.371  3.1796  2.4299 -1.3920
15309SOL    HW248883   4.961   6.330   4.460 -0.5385 -1.8798  2.1578
15310SOL     OW48884   6.663   3.113   4.993  1.0909 -0.3879 -0.3137
15310SOL    HW148885   6.756   3.119   5.015  1.4381  1.7373 -2.0233
15310SOL    HW248886   6.662   3.100   4.898 -0.3359  1.0922 -0.5419
15311SOL     OW48887   5.588   3.259   4.921 -0.3113 -0.0786 -0.5092
15311SOL    HW148888   5.662   3.298   4.966  0.0836 -2.2966  0.9395
15311SOL    HW248889   5.574   3.175   4.966 -1.3849 -1.3858 -3.0721
15312SOL     OW48890   5.421  10.230   3.551  0.6065 -0.6026  0.1551
15312SOL    HW148891   5.370  10.300   3.591 -0.8049  0.4546 -3.1205
15312SOL    HW248892   5.360  10.157   3.543  0.6378 -0.5608 -0.5870
15313SOL     OW48893   1.828   8.436   1.751 -0.0080  0.5092  0.0347
15313SOL    HW148894   1.855   8.506   1.811 -0.0185  0.4018  0.1665
15313SOL    HW248895   1.838   8.473   1.664  1.0596  0.2927  0.0574
15314SOL     OW48896   7.562   9.869   4.635 -0.2906  0.0327  0.0969
15314SOL    HW148897   7.495   9.807   4.664 -1.6469  1.3140 -0.1954
15314SOL    HW248898   7.597   9.830   4.555 -2.4287  0.4674 -1.1258
15315SOL     OW48899   2.876   9.261   6.267  0.5951 -0.2872  0.0023
15315SOL    HW148900   2.803   9.315   6.237  1.1481  0.7371  0.4367
15315SOL    HW248901   2.953   9.319   6.260  0.9682 -0.4656  1.9880
15316SOL     OW48902   5.413   7.302   4.004 -0.5009  0.3652  0.5455
15316SOL    HW148903   5.334   7.330   3.957  0.6024  1.3903 -0.7947
15316SOL    HW248904   5.392   7.214   4.034 -1.1081 -0.6587 -2.4479
15317SOL     OW48905   3.637   9.623   6.460 -0.0976  0.5881 -0.0492
15317SOL    HW148906   3.725   9.651   6.434 -1.0532  1.7028 -2.4103
15317SOL    HW248907   3.620   9.545   6.408 -1.0314  1.2643 -0.8108
15318SOL     OW48908   2.562   9.323   0.069 -0.2226  0.1027 -0.0587
15318SOL    HW148909   2.559   9.388   0.140  2.6439  0.4457 -0.1222
15318SOL    HW248910   2.485   9.342   0.016 -0.7817  1.8588  1.2790
15319SOL     OW48911   6.736   6.622   1.512  0.1713 -0.5109 -0.7527
15319SOL    HW148912   6.723   6.667   1.429 -0.3124 -1.1081 -1.0161
15319SOL    HW248913   6.778   6.539   1.489  2.2929  0.3483 -0.1381
15320SOL     OW48914   1.937   7.314   6.130 -0.0349  0.4535 -0.6415
15320SOL    HW148915   1.903   7.230   6.099  2.0212 -1.3139  1.4222
15320SOL    HW248916   1.916   7.315   6.224  1.0415  1.6403 -0.3829
15321SOL     OW48917   7.434   1.682   6.048  0.4453  0.1975  0.1076
15321SOL    HW148918   7.450   1.608   5.988  2.1400  1.1337 -0.6612
15321SOL    HW248919   7.396   1.641   6.126  2.4625 -1.7074  0.2106
15322SOL     OW48920   9.000   4.902  10.463 -0.9673 -0.1111  0.3815
15322SOL    HW148921   8.941   4.970  10.430 -1.8928 -0.0521  2.0176
15322SOL    HW248922   9.085   4.946  10.472 -1.3580  0.6162  0.6516
15323SOL     OW48923   5.142   2.755   5.380  0.1367  0.0714  0.1979
15323SOL    HW148924   5.217   2.813   5.396  1.0403 -0.5160 -1.5649
15323SOL    HW248925   5.065   2.809   5.394  0.9310  1.2462  0.1328
15324SOL     OW48926   0.628   2.100  10.468 -0.1075  0.0251  0.0016
15324SOL    HW148927   0.670   2.185  10.479 -1.2924  0.9752 -2.1557
15324SOL    HW248928   0.690   2.038  10.507  1.6389  1.6849  0.0471
15325SOL     OW48929   7.797   5.711  10.309  0.0442 -0.6098 -0.2249
15325SOL    HW148930   7.728   5.735  10.370 -0.9388 -2.1539 -0.6645
15325SOL    HW248931   7.818   5.792  10.262 -1.7795 -0.1860 -0.3842
15326SOL     OW48932   2.316   9.694   5.556  0.7199 -0.2946 -0.7440
15326SOL    HW148933   2.224   9.667   5.557  0.0610  1.7246  0.9504
15326SOL    HW248934   2.363   9.619   5.593 -0.6036 -0.4546  0.7536
15327SOL     OW48935   5.101   6.562   6.448  0.5392  0.3173 -0.5639
15327SOL    HW148936   5.155   6.610   6.511 -0.4825  2.4180 -1.1839
15327SOL    HW248937   5.049   6.630   6.404 -2.6107 -1.5113 -0.0332
15328SOL     OW48938   0.061   8.685   1.619 -0.0509  0.2938 -0.4167
15328SOL    HW148939   0.039   8.665   1.710  1.9767 -0.7996 -0.1143
15328SOL    HW248940   0.002   8.757   1.595 -0.1337  1.1082  1.9789
15329SOL     OW48941   0.081   9.231   8.900 -0.4195 -0.3662 -0.2765
15329SOL    HW148942   0.172   9.203   8.887 -1.2629 -2.5442 -2.1147
15329SOL    HW248943   0.084   9.284   8.980  2.2816 -1.2180  0.3134
15330SOL     OW48944   4.586   1.683   9.710  0.7375 -0.2038  0.3002
15330SOL    HW148945   4.562   1.707   9.800  0.5494 -0.1262  0.2288
15330SOL    HW248946   4.584   1.765   9.661  0.7826 -0.2552  0.2110
15331SOL     OW48947   0.858   0.617   6.910  0.3799  0.0377 -0.6807
15331SOL    HW148948   0.941   0.574   6.932 -0.6135 -1.4033  0.4434
15331SOL    HW248949   0.826   0.571   6.832  0.5267  0.4497 -0.9873
15332SOL     OW48950   9.159   7.995   1.492 -0.0145  0.1749 -0.3354
15332SOL    HW148951   9.133   8.030   1.407 -2.0019 -0.0575  0.1444
15332SOL    HW248952   9.186   8.072   1.542  1.5809  0.2707 -1.2693
15333SOL     OW48953   7.457   0.537   1.604  0.3447 -0.6963  0.4702
15333SOL    HW148954   7.484   0.563   1.693  1.8570  1.4773 -0.5490
15333SOL    HW248955   7.384   0.594   1.583 -0.2572 -1.4663  0.4285
15334SOL     OW48956   4.147   2.470   9.737  0.6291  0.0505  0.1281
15334SOL    HW148957   4.146   2.529   9.662  0.8506 -1.8420 -1.4493
15334SOL    HW248958   4.073   2.499   9.791 -0.0497  0.9712 -1.2374
15335SOL     OW48959   4.866   4.092   0.086 -0.7386 -0.1459 -0.0574
15335SOL    HW148960   4.775   4.063   0.098 -0.4000 -1.2375 -0.0504
15335SOL    HW248961   4.914   4.012   0.067  0.3917  0.3029  0.8251
15336SOL     OW48962   9.609   9.983   1.662  0.3425 -0.7436  0.4005
15336SOL    HW148963   9.657  10.057   1.627  0.5379 -0.7034  0.7484
15336SOL    HW248964   9.677   9.918   1.682  0.0203 -1.9974 -2.1508
15337SOL     OW48965   6.545   7.738   6.336  0.4891  0.0373  0.5026
15337SOL    HW148966   6.633   7.706   6.317  0.2545  0.1016 -0.7193
15337SOL    HW248967   6.498   7.661   6.368 -0.2176 -1.0609 -2.8764
15338SOL     OW48968   9.466   4.619   7.249 -0.5260 -0.4634  0.6425
15338SOL    HW148969   9.439   4.609   7.158 -1.3022  0.3394  0.7721
15338SOL    HW248970   9.555   4.583   7.252 -0.1988  0.1833 -0.5985
15339SOL     OW48971   0.310   7.580   9.031  0.0979  0.5836 -0.1219
15339SOL    HW148972   0.347   7.495   9.053 -1.2155  0.0307  0.0928
15339SOL    HW248973   0.219   7.560   9.006 -0.3185  1.9423  0.2264
15340SOL     OW48974   5.653  10.250   4.143  0.3692  0.1450  0.5007
15340SOL    HW148975   5.690  10.275   4.058 -0.3301  0.0442  0.1593
15340SOL    HW248976   5.633  10.157   4.134  0.8685 -0.0214  1.0000
15341SOL     OW48977   7.015   1.108   0.190 -0.3498 -0.3226 -0.5309
15341SOL    HW148978   7.090   1.124   0.134 -0.2592  0.1542 -0.2804
15341SOL    HW248979   7.011   1.185   0.247 -0.2501 -0.9402  0.3257
15342SOL     OW48980   4.498   5.816   5.850 -0.3049  0.2952  0.8270
15342SOL    HW148981   4.584   5.832   5.813 -1.1620 -0.9199 -1.9212
15342SOL    HW248982   4.446   5.893   5.827 -0.0566  0.9465  2.3249
15343SOL     OW48983   8.679   0.773   8.073  0.8523  0.1738  0.5965
15343SOL    HW148984   8.719   0.817   7.998 -0.5227  1.1682  0.4107
15343SOL    HW248985   8.751   0.727   8.115  1.7273 -0.1401 -1.1465
15344SOL     OW48986   8.253   5.739   6.598 -0.6267  0.4972  0.4332
15344SOL    HW148987   8.223   5.828   6.580  0.7641  1.1937  1.3694
15344SOL    HW248988   8.175   5.692   6.627 -1.9504  0.6274 -2.5348
15345SOL     OW48989   0.382   2.009   6.298 -0.1603 -0.3902  0.2944
15345SOL    HW148990   0.428   1.925   6.293 -1.9713 -1.3960 -0.2454
15345SOL    HW248991   0.415   2.049   6.378 -0.0185 -2.0819  1.1310
15346SOL     OW48992   0.782   3.925   9.260 -0.2785  0.1606 -0.1371
15346SOL    HW148993   0.865   3.962   9.288  0.2595 -1.1916  0.1181
15346SOL    HW248994   0.764   3.855   9.323 -1.5379  0.3264 -0.2810
15347SOL     OW48995   3.783   4.861   8.203 -0.0912 -0.2561  0.0684
15347SOL    HW148996   3.844   4.827   8.139  0.0546 -1.6788  0.9335
15347SOL    HW248997   3.808   4.820   8.286 -0.7550  0.9346  0.9084
15348SOL     OW48998   6.350   4.858   4.961  0.6159 -0.4285 -0.1645
15348SOL    HW148999   6.299   4.849   5.042 -0.0702  0.6023 -0.4616
15348SOL    HW249000   6.291   4.903   4.901  1.1887 -1.0084 -1.1856
15349SOL     OW49001   0.609   6.383   1.942  0.4914 -0.2180 -0.0862
15349SOL    HW149002   0.687   6.329   1.934 -0.0533 -1.0010 -0.2200
15349SOL    HW249003   0.578   6.368   2.032 -0.4577 -1.2503 -0.5678
15350SOL     OW49004   3.921   9.957   0.676  0.5871 -0.4937  0.2439
15350SOL    HW149005   3.893  10.008   0.752  0.8886 -1.3468  0.9383
15350SOL    HW249006   4.016   9.963   0.676  0.5670 -0.1415 -0.3203
15351SOL     OW49007   2.696   2.075   0.724  0.0636 -0.2402  0.1305
15351SOL    HW149008   2.611   2.095   0.685  0.1260 -0.1231  0.0552
15351SOL    HW249009   2.688   1.983   0.752 -0.2058 -0.1300  0.4295
15352SOL     OW49010   4.333   8.343   3.719  0.1271 -0.2062 -0.1078
15352SOL    HW149011   4.277   8.393   3.777  1.1500 -0.6232  1.2880
15352SOL    HW249012   4.411   8.324   3.771 -0.0327 -2.8720 -0.7042
15353SOL     OW49013   4.441   8.798   6.632  0.2080 -0.0649 -0.0717
15353SOL    HW149014   4.348   8.813   6.619  0.5428  1.9899 -0.5220
15353SOL    HW249015   4.448   8.705   6.654 -2.1482  0.1203  1.9411
15354SOL     OW49016   7.565   9.552   5.254 -0.1000  0.0886  0.1920
15354SOL    HW149017   7.611   9.607   5.191 -1.5803  0.6865 -0.4098
15354SOL    HW249018   7.525   9.483   5.202 -1.2320  0.5151  0.4645
15355SOL     OW49019   9.397   5.828   6.349 -0.9083 -0.0915 -0.0781
15355SOL    HW149020   9.408   5.741   6.387  2.8676 -0.5264 -1.7318
15355SOL    HW249021   9.434   5.887   6.414  1.0099 -0.3165 -0.9092
15356SOL     OW49022   1.746   1.878   9.566  0.2802  0.7241 -0.3452
15356SOL    HW149023   1.732   1.848   9.656  2.8770  0.0461 -0.1111
15356SOL    HW249024   1.686   1.952   9.557  0.4178  1.2482  2.1836
15357SOL     OW49025   0.722   0.302  10.021  0.0719  0.3685  0.0039
15357SOL    HW149026   0.717   0.208  10.001  0.5164  0.5236 -0.8760
15357SOL    HW249027   0.771   0.306  10.103 -1.4394 -0.2601  0.9860
15358SOL     OW49028   5.149   1.162   8.094 -0.0066 -0.0243  0.2906
15358SOL    HW149029   5.086   1.167   8.023 -1.0467  0.2503  1.2070
15358SOL    HW249030   5.235   1.169   8.051 -0.5895 -0.3802 -0.9649
15359SOL     OW49031   9.203   6.535   1.958 -0.6166 -0.2273  0.2405
15359SOL    HW149032   9.174   6.446   1.937  2.1814 -1.1623 -0.0472
15359SOL    HW249033   9.237   6.569   1.875  0.3825  0.2297  0.8122
15360SOL     OW49034   4.490   7.973   1.748  0.2647  0.0272 -0.3403
15360SOL    HW149035   4.578   7.952   1.717  1.3809  0.4002  2.3302
15360SOL    HW249036   4.444   7.889   1.749  0.2569 -0.0425 -2.5641
15361SOL     OW49037   2.678   8.517  10.555 -0.0054  0.2364  0.3073
15361SOL    HW149038   2.676   8.577  10.629  0.5649  0.9519 -0.2423
15361SOL    HW249039   2.762   8.534  10.512  0.8933 -2.0319  1.0005
15362SOL     OW49040   4.001  10.419   5.727 -0.0956 -0.3516  0.1625
15362SOL    HW149041   4.070  10.485   5.717  0.6008 -1.0528  0.2580
15362SOL    HW249042   3.920  10.469   5.729  0.3938  0.4713 -0.2095
15363SOL     OW49043   5.896   1.668  10.361  0.3239 -0.1075  0.1418
15363SOL    HW149044   5.943   1.712  10.290  1.1125 -0.5182  0.3931
15363SOL    HW249045   5.945   1.692  10.440 -0.5742  0.3861  0.5566
15364SOL     OW49046   3.353   1.544   3.769  0.2382  0.4234  0.4045
15364SOL    HW149047   3.329   1.633   3.796  0.0595  0.3895  0.3574
15364SOL    HW249048   3.448   1.546   3.765  0.2300  0.6556  0.2617
15365SOL     OW49049   8.143   6.298   9.726 -0.2686 -0.0544 -0.4565
15365SOL    HW149050   8.066   6.245   9.707 -1.5469  1.3487  0.6162
15365SOL    HW249051   8.139   6.370   9.662 -0.7637  0.8915  0.6055
15366SOL     OW49052  10.286   3.079   1.018 -0.0467  0.0651 -0.3841
15366SOL    HW149053  10.285   3.147   0.951  0.3804  0.6380  0.1829
15366SOL    HW249054  10.377   3.049   1.020 -0.0479  0.0796 -0.0333
15367SOL     OW49055   6.580   8.998   3.397  0.3501 -0.6843  0.5173
15367SOL    HW149056   6.551   9.033   3.481  1.0685  0.6243  0.2442
15367SOL    HW249057   6.622   9.072   3.353 -2.0079 -0.6756 -1.9709
15368SOL     OW49058   1.566   9.817   1.789  0.3449 -0.3395 -0.0820
15368SOL    HW149059   1.623   9.740   1.799  0.3047 -0.3950 -0.2920
15368SOL    HW249060   1.482   9.781   1.762 -0.2453 -0.4134  1.6869
15369SOL     OW49061   5.336   2.425   2.471  0.4887  0.6467 -0.1197
15369SOL    HW149062   5.333   2.336   2.507 -0.5678  0.6079 -0.2753
15369SOL    HW249063   5.290   2.419   2.387  1.4692  1.0916 -0.7046
15370SOL     OW49064   4.066  10.316   9.897 -0.5560  0.4540  0.0643
15370SOL    HW149065   4.055  10.389   9.836 -1.1665 -0.4819 -1.0007
15370SOL    HW249066   4.087  10.357   9.981 -1.8707  1.8978 -0.2637
15371SOL     OW49067   5.703   7.031   7.565  0.8777  0.4710 -0.2252
15371SOL    HW149068   5.725   7.119   7.534  0.1972  1.3136  1.5407
15371SOL    HW249069   5.742   7.025   7.652 -0.3564 -0.4029  0.3039
15372SOL     OW49070   3.825   3.347   4.104 -0.1064  0.9412  0.6266
15372SOL    HW149071   3.746   3.294   4.113  1.4349 -1.1722  3.0244
15372SOL    HW249072   3.798   3.435   4.128 -1.6442  0.1542  1.9276
15373SOL     OW49073   0.416   6.640   4.991 -0.3063 -0.5568 -0.0864
15373SOL    HW149074   0.493   6.697   4.981  0.3727 -1.5083 -0.3417
15373SOL    HW249075   0.346   6.700   5.019  0.4560  0.3629 -0.0949
15374SOL     OW49076   5.834   5.704   8.666  0.3664  1.1619  0.0886
15374SOL    HW149077   5.774   5.760   8.616  0.2355  1.1916  0.2781
15374SOL    HW249078   5.776   5.643   8.712  0.5670 -1.1353 -2.4269
15375SOL     OW49079   2.341   0.236   4.324 -0.2773 -0.3757  0.0979
15375SOL    HW149080   2.399   0.187   4.265  0.8170  1.8131 -0.7618
15375SOL    HW249081   2.345   0.188   4.406  3.9125  0.2869  0.5058
15376SOL     OW49082   6.455   4.908   6.306 -0.4593 -0.2864 -0.3746
15376SOL    HW149083   6.451   4.980   6.369  2.3419 -0.8673  0.6143
15376SOL    HW249084   6.384   4.849   6.332 -0.4641  0.3366  1.1258
15377SOL     OW49085   3.471   1.333  10.222  0.0065  0.2541  0.1716
15377SOL    HW149086   3.430   1.376  10.147 -0.3370  0.3988  0.4350
15377SOL    HW249087   3.407   1.343  10.293  2.0276  3.8892  1.7348
15378SOL     OW49088   6.380   6.890   3.457 -0.7301 -0.0291  0.7472
15378SOL    HW149089   6.463   6.865   3.417 -0.7757 -1.2520  1.3901
15378SOL    HW249090   6.313   6.862   3.394 -0.6775  1.0942  0.1577
15379SOL     OW49091   0.463   8.281   3.356  0.1205 -0.6538  0.1551
15379SOL    HW149092   0.550   8.242   3.351  0.2231 -0.4522  0.3454
15379SOL    HW249093   0.404   8.206   3.368  0.1367 -0.8982 -1.1639
15380SOL     OW49094   3.507   8.252   9.042 -0.1801  0.0438 -0.1699
15380SOL    HW149095   3.493   8.190   9.114  0.0296 -0.2686 -0.3980
15380SOL    HW249096   3.448   8.324   9.061  0.3803  0.2862  0.7011
15381SOL     OW49097   0.953  10.297   0.521  0.3753  0.0889  0.1455
15381SOL    HW149098   0.906  10.354   0.460 -0.5964 -0.8206  0.0033
15381SOL    HW249099   1.022  10.257   0.468 -1.3174 -1.7758 -0.8181
15382SOL     OW49100   8.972  10.691   2.767 -0.9321 -0.1352  0.3647
15382SOL    HW149101   9.006  10.776   2.794  2.5156 -0.4277 -2.3479
15382SOL    HW249102   9.021  10.628   2.821 -0.5508 -0.4623 -0.3503
15383SOL     OW49103   4.038   5.965   0.928  0.3992 -0.3588 -0.1456
15383SOL    HW149104   4.103   5.902   0.896  1.6049 -0.1238  1.7132
15383SOL    HW249105   4.089   6.037   0.963 -0.8447 -0.1804  1.4163
15384SOL     OW49106   1.303  10.107   0.721 -0.6566 -0.0518  0.5025
15384SOL    HW149107   1.312  10.196   0.756 -0.0143  0.9307 -1.9016
15384SOL    HW249108   1.389  10.067   0.737 -0.1976  0.5629 -0.2828
15385SOL     OW49109   4.260   3.027   4.395  0.0571 -0.0624 -0.4678
15385SOL    HW149110   4.262   2.940   4.355  0.9395 -0.4631  0.4081
15385SOL    HW249111   4.334   3.073   4.356 -1.0685  0.7138 -1.7763
15386SOL     OW49112   7.328  10.072   8.143 -0.7931 -0.6238  0.2313
15386SOL    HW149113   7.274  10.042   8.070 -0.6367 -0.3030 -0.0185
15386SOL    HW249114   7.291  10.157   8.168 -0.2088 -0.2485 -0.1560
15387SOL     OW49115   4.204   8.927   5.537  0.0709 -0.4305  0.1303
15387SOL    HW149116   4.150   9.003   5.559  0.9434  0.5252 -0.8954
15387SOL    HW249117   4.143   8.854   5.536 -0.3946 -0.2952  3.7123
15388SOL     OW49118   2.820   5.945   3.691 -0.5572  0.0659  0.0214
15388SOL    HW149119   2.890   5.987   3.741 -0.0608 -0.6766 -0.0301
15388SOL    HW249120   2.786   6.014   3.634 -0.7997  0.7988  1.0301
15389SOL     OW49121   3.637   8.482   0.565  0.0132  0.5357 -0.3007
15389SOL    HW149122   3.599   8.466   0.651 -0.7352 -0.1277 -0.7425
15389SOL    HW249123   3.726   8.512   0.584 -0.6044  1.8202  0.7349
15390SOL     OW49124   1.262   3.457   7.283  0.1210  0.2282  0.0416
15390SOL    HW149125   1.298   3.369   7.272  0.2590  0.1587  0.9681
15390SOL    HW249126   1.331   3.515   7.253  0.0691  0.0286 -0.4767
15391SOL     OW49127   8.806   7.184   2.397 -0.3484 -0.2514  0.0270
15391SOL    HW149128   8.780   7.113   2.455  0.1461 -0.1033  0.4281
15391SOL    HW249129   8.893   7.159   2.365  0.1564  0.5214  0.7526
15392SOL     OW49130   9.755   4.098   4.760 -0.0122  0.2851 -0.4838
15392SOL    HW149131   9.704   4.018   4.747 -1.0836  0.6940  1.0441
15392SOL    HW249132   9.728   4.131   4.845  0.7547  2.0485 -0.8751
15393SOL     OW49133  10.575   7.247   8.651  0.2317 -0.1635 -0.0496
15393SOL    HW149134  10.485   7.243   8.620  0.3223  1.9906 -0.7656
15393SOL    HW249135  10.626   7.273   8.574  1.1640  0.6652  0.8205
15394SOL     OW49136   5.369   7.776   8.317 -0.5489 -0.1186  0.3033
15394SOL    HW149137   5.440   7.829   8.352 -0.6093  0.5518 -0.5625
15394SOL    HW249138   5.412   7.701   8.276 -0.2323  0.8574 -1.2275
15395SOL     OW49139   3.349   0.973   4.926 -0.2990  0.1214  0.0426
15395SOL    HW149140   3.392   0.895   4.892 -0.9224 -0.7780  1.2163
15395SOL    HW249141   3.421   1.034   4.944  0.2350 -0.3402 -0.4887
15396SOL     OW49142   0.367   1.627   7.700  0.2519  0.7578  0.2569
15396SOL    HW149143   0.288   1.676   7.725 -0.6632 -0.5800  0.1170
15396SOL    HW249144   0.375   1.560   7.768  1.3824  0.9793  0.3519
15397SOL     OW49145   6.961   4.636   0.758 -0.5748  0.1857  0.1729
15397SOL    HW149146   6.870   4.663   0.749 -0.9128 -0.3757  1.6685
15397SOL    HW249147   6.994   4.633   0.668 -1.6008  1.7902 -0.2917
15398SOL     OW49148   3.474  10.245   6.426 -0.8266  0.4200 -0.3311
15398SOL    HW149149   3.513  10.236   6.513 -1.1095 -0.5693 -0.2876
15398SOL    HW249150   3.544  10.280   6.372 -0.8394  1.6642  0.4228
15399SOL     OW49151   2.511   6.228   0.952  0.2480  0.1652  0.2910
15399SOL    HW149152   2.590   6.280   0.966 -0.1547  0.5120  1.4069
15399SOL    HW249153   2.543   6.140   0.934  0.9493  0.8483 -2.0849
15400SOL     OW49154   5.601   7.195   2.812  0.6401 -0.1532  0.6447
15400SOL    HW149155   5.688   7.191   2.852  0.1967  0.0184  1.6578
15400SOL    HW249156   5.560   7.111   2.836 -0.9949  1.3797  3.8755
15401SOL     OW49157  10.384   1.249   1.216 -0.1344  0.1388  0.3267
15401SOL    HW149158  10.397   1.207   1.131  1.0091  0.8441  0.1234
15401SOL    HW249159  10.389   1.343   1.197  1.4278  0.2876  1.3409
15402SOL     OW49160   2.519   9.214   8.108 -0.1054  0.0238 -0.0335
15402SOL    HW149161   2.569   9.275   8.162  0.9328  0.7612 -1.7329
15402SOL    HW249162   2.501   9.263   8.028  0.4083 -1.7336 -1.2964
15403SOL     OW49163   6.620   2.053   3.673  0.1968  0.7508 -0.8351
15403SOL    HW149164   6.657   2.138   3.697 -0.0287  0.7478 -0.4811
15403SOL    HW249165   6.533   2.053   3.712  0.4358  0.0960 -0.2958
15404SOL     OW49166   3.444   8.834   0.633 -0.5012  0.0546  0.0964
15404SOL    HW149167   3.487   8.782   0.566 -2.8647 -0.1527 -1.3724
15404SOL    HW249168   3.449   8.924   0.600 -1.3743 -0.0051 -0.2201
15405SOL     OW49169   6.465   0.504   7.988 -0.7851 -0.0389 -0.6680
15405SOL    HW149170   6.490   0.415   8.014 -1.7657  0.0430  0.6709
15405SOL    HW249171   6.392   0.492   7.928 -0.5409 -0.1471 -0.9467
15406SOL     OW49172   3.179   1.140   4.028 -0.6868  0.3010  0.3215
15406SOL    HW149173   3.119   1.131   4.102  0.1102 -0.1733  0.9236
15406SOL    HW249174   3.195   1.050   3.999 -1.2177  0.5028 -0.6165
15407SOL     OW49175   8.922   8.104   6.009  0.0802  0.2505 -0.0562
15407SOL    HW149176   8.959   8.017   5.996  1.5450  0.7148  0.8296
15407SOL    HW249177   8.837   8.089   6.051  0.5107 -0.7313  0.4774
15408SOL     OW49178   9.000   6.311   5.228 -0.2501  0.0929 -0.2128
15408SOL    HW149179   9.071   6.366   5.195 -1.9262  2.4317 -0.1889
15408SOL    HW249180   8.996   6.238   5.166  1.6149  0.3252 -0.6800
15409SOL     OW49181   7.536   2.228  10.157  0.0884 -0.2301  0.4865
15409SOL    HW149182   7.554   2.142  10.118 -0.9211  0.1378 -0.8837
15409SOL    HW249183   7.459   2.213  10.212 -0.4312 -0.1285 -0.1843
15410SOL     OW49184   7.488   5.096   7.669 -0.1995  0.2404  0.3249
15410SOL    HW149185   7.483   5.043   7.749 -0.0225  2.8543  2.2319
15410SOL    HW249186   7.423   5.165   7.682 -0.2282  0.6924 -1.8804
15411SOL     OW49187   4.670   3.994   3.051 -0.3004 -0.0076 -0.0173
15411SOL    HW149188   4.673   4.068   3.112  2.1188 -0.2433  0.2394
15411SOL    HW249189   4.678   4.033   2.964  0.5480  0.0873  0.0936
15412SOL     OW49190   3.976   1.606   3.766 -0.1015 -0.2325  0.3080
15412SOL    HW149191   3.951   1.617   3.857  0.1494  1.0585  0.2441
15412SOL    HW249192   3.961   1.513   3.747 -2.2477 -0.0773  1.0354
15413SOL     OW49193   1.211  10.515   5.746 -0.0730  0.2860  0.0862
15413SOL    HW149194   1.164  10.448   5.697 -0.6510  0.8483 -0.1383
15413SOL    HW249195   1.162  10.526   5.827  0.9142 -0.6846  0.8510
15414SOL     OW49196   1.140   9.502   1.580  0.1689  0.4176  0.3165
15414SOL    HW149197   1.179   9.415   1.580 -1.3263 -0.3121 -0.8254
15414SOL    HW249198   1.136   9.526   1.487 -2.1702  0.3487  0.3442
15415SOL     OW49199   1.124   9.880   3.462 -0.4354  0.2219  0.4288
15415SOL    HW149200   1.203   9.925   3.492 -1.2620  1.4388  0.8340
15415SOL    HW249201   1.058   9.901   3.528 -0.9691 -1.2595  0.4118
15416SOL     OW49202   4.737   5.429   5.249  0.2274  0.5206 -0.5035
15416SOL    HW149203   4.679   5.491   5.293 -0.9804  0.1070 -1.4655
15416SOL    HW249204   4.767   5.475   5.171  0.3090  0.3306 -0.5854
15417SOL     OW49205   5.717   8.092   1.176 -0.0631  0.0311  0.3022
15417SOL    HW149206   5.664   8.059   1.248 -0.0540  0.8325  0.6871
15417SOL    HW249207   5.683   8.048   1.098  0.6799 -1.7311  0.9237
15418SOL     OW49208   3.523   7.472   1.902 -0.1370  0.6441  0.0621
15418SOL    HW149209   3.515   7.434   1.989 -1.9761 -1.5300 -0.9292
15418SOL    HW249210   3.534   7.396   1.844  1.3023  2.0385 -1.5907
15419SOL     OW49211   0.004   5.119   4.163 -0.1182  0.0477 -0.4534
15419SOL    HW149212  -0.016   5.178   4.236 -0.3634 -1.5549  0.8381
15419SOL    HW249213   0.036   5.039   4.205  0.8142 -0.5344 -2.1717
15420SOL     OW49214   4.623   2.716   3.321 -0.3577  1.0640 -0.2369
15420SOL    HW149215   4.684   2.771   3.273  2.8830 -0.7214  1.5173
15420SOL    HW249216   4.657   2.713   3.410 -1.1837 -2.4699  0.1225
15421SOL     OW49217   8.586   1.310   2.557  0.2120  0.3102 -0.4049
15421SOL    HW149218   8.584   1.371   2.631 -0.3838 -1.4246  1.0900
15421SOL    HW249219   8.495   1.284   2.545  0.6585 -1.9936  0.5648
15422SOL     OW49220   8.637   2.317   0.790 -0.2843 -0.1841 -0.2427
15422SOL    HW149221   8.620   2.226   0.813 -2.2378 -0.5269 -2.6300
15422SOL    HW249222   8.566   2.366   0.831 -0.5746 -0.0842 -0.8421
15423SOL     OW49223   6.843   6.518   8.067  0.5393 -0.3090 -0.7904
15423SOL    HW149224   6.918   6.550   8.017  0.9270 -0.1101 -0.0946
15423SOL    HW249225   6.878   6.500   8.154 -0.0346 -1.0621 -0.7040
15424SOL     OW49226  10.365   8.384   9.229 -0.0562  0.3661  0.0148
15424SOL    HW149227  10.430   8.452   9.214  1.0523 -0.5189  0.7186
15424SOL    HW249228  10.283   8.432   9.243  0.2642  1.4686 -1.6021
15425SOL     OW49229   3.073   4.444   5.562 -0.0686 -0.2381  0.0765
15425SOL    HW149230   3.001   4.507   5.564 -0.2118 -0.3842 -0.3880
15425SOL    HW249231   3.139   4.484   5.505 -0.1366 -0.4811 -0.1767
15426SOL     OW49232  10.466  10.381  10.270  0.3545  0.4397  0.9802
15426SOL    HW149233  10.397  10.445  10.253 -1.5726 -2.0382 -1.4886
15426SOL    HW249234  10.422  10.296  10.265  3.1913 -1.1991  1.6287
15427SOL     OW49235   0.136   8.217  10.245 -0.4014  0.2968 -0.5227
15427SOL    HW149236   0.087   8.142  10.278 -0.3715  0.5921  0.1952
15427SOL    HW249237   0.227   8.198  10.270 -0.3521  0.4332 -0.6001
15428SOL     OW49238  10.617   7.169   8.210 -0.1822 -0.6387  0.1531
15428SOL    HW149239  10.592   7.079   8.228  0.0072 -0.3354  2.2703
15428SOL    HW249240  10.608   7.179   8.115 -0.8682 -2.6584 -0.0354
15429SOL     OW49241   1.161   7.356   4.752  0.2323 -0.1746  0.1936
15429SOL    HW149242   1.250   7.321   4.755  0.2452 -0.1151  2.9965
15429SOL    HW249243   1.165   7.438   4.801 -1.3722 -0.2057  0.4322
15430SOL     OW49244   1.889   5.430   4.433  0.3741  0.5950 -0.9038
15430SOL    HW149245   1.904   5.337   4.417 -0.8757  0.2666 -0.3329
15430SOL    HW249246   1.799   5.434   4.466  0.3345  2.0332 -1.1264
15431SOL     OW49247   1.122   4.495   4.470 -0.1643  0.4648 -0.3336
15431SOL    HW149248   1.188   4.508   4.402 -0.8143 -0.2969 -1.1183
15431SOL    HW249249   1.170   4.455   4.543  0.6343  1.7166 -0.1237
15432SOL     OW49250   0.433   1.666   1.480 -0.0108  0.2337 -0.3272
15432SOL    HW149251   0.483   1.585   1.486 -0.1365  0.1845  0.0791
15432SOL    HW249252   0.377   1.666   1.558 -0.6573  0.2794 -0.7831
15433SOL     OW49253   3.438   5.064   7.720 -0.0682 -0.4034 -0.0348
15433SOL    HW149254   3.409   5.035   7.634 -2.0469 -2.3719  1.1928
15433SOL    HW249255   3.363   5.112   7.756  0.8125  0.5910  0.5226
15434SOL     OW49256   4.886   9.280   3.405 -0.1676 -0.2787  0.2031
15434SOL    HW149257   4.977   9.259   3.384 -0.5501 -0.7876 -1.0551
15434SOL    HW249258   4.855   9.205   3.456 -0.1343 -0.5385 -0.1521
15435SOL     OW49259   9.948   9.128   4.689 -0.3084  0.5888 -0.0852
15435SOL    HW149260   9.908   9.193   4.632 -0.1367 -0.6855 -1.7102
15435SOL    HW249261   9.881   9.061   4.701  0.9716 -1.2542 -2.3283
15436SOL     OW49262   6.555   8.191   7.792 -0.6313 -0.1608 -0.1253
15436SOL    HW149263   6.616   8.261   7.816 -0.0875 -0.6350 -0.1130
15436SOL    HW249264   6.610   8.113   7.782 -1.3422 -0.8201  0.8318
15437SOL     OW49265   4.778   3.143   6.300  0.0535  0.5934 -0.1083
15437SOL    HW149266   4.710   3.106   6.356 -0.2152  0.3061 -0.6210
15437SOL    HW249267   4.858   3.134   6.351 -0.0581 -0.4126 -0.0895
15438SOL     OW49268   6.961   4.152   4.562 -0.0081 -0.3525  0.4304
15438SOL    HW149269   6.971   4.123   4.472 -1.1666 -1.0973  0.5275
15438SOL    HW249270   7.039   4.116   4.607 -0.4912 -1.8175  0.1643
15439SOL     OW49271   7.829   7.046   8.104 -0.3630 -0.1613  0.2899
15439SOL    HW149272   7.896   7.087   8.050 -0.8519  1.3812  0.8034
15439SOL    HW249273   7.760   7.112   8.112 -1.5017 -1.3347  0.6119
15440SOL     OW49274   3.135   1.898   6.258 -0.1835  0.4017 -0.1359
15440SOL    HW149275   3.064   1.919   6.319  1.2471  0.5761  1.5874
15440SOL    HW249276   3.095   1.901   6.172 -2.1357  1.0080  0.7302
15441SOL     OW49277   6.751   5.765   8.834 -0.0807 -0.0315  0.3095
15441SOL    HW149278   6.760   5.850   8.790  0.2076 -1.5382 -2.8703
15441SOL    HW249279   6.661   5.738   8.815  0.5166 -1.3883 -0.7362
15442SOL     OW49280   9.649   8.973   1.330 -0.2260 -0.4882 -0.0757
15442SOL    HW149281   9.674   8.885   1.301  0.6805 -0.3284  0.1950
15442SOL    HW249282   9.587   9.004   1.264  0.3727 -0.8646 -0.8238
15443SOL     OW49283   4.265   6.029   4.766 -0.2547  0.3278  0.0034
15443SOL    HW149284   4.184   5.981   4.784  0.2607  0.4283  3.0145
15443SOL    HW249285   4.333   5.962   4.765 -0.0591  0.5282 -0.1008
15444SOL     OW49286   6.192   7.445   4.313  1.2768  0.4049 -0.4556
15444SOL    HW149287   6.238   7.478   4.390  1.4318 -2.0590  0.6069
15444SOL    HW249288   6.105   7.483   4.319  1.3272  0.3585  0.8945
15445SOL     OW49289   2.408   2.106   7.918  0.3997  0.1485 -0.1831
15445SOL    HW149290   2.499   2.133   7.929  1.6604 -3.5107 -0.1222
15445SOL    HW249291   2.397   2.032   7.978 -2.2854 -0.2252 -0.9874
15446SOL     OW49292   7.256  10.234   5.276 -0.2609  0.6794  0.8190
15446SOL    HW149293   7.257  10.328   5.259 -1.0320  0.3034 -1.7405
15446SOL    HW249294   7.246  10.194   5.189  1.9138 -1.8403  1.5927
15447SOL     OW49295  10.035   7.481   4.365 -0.3840 -0.1048  0.0203
15447SOL    HW149296  10.109   7.437   4.325  1.0250  0.5485  1.7764
15447SOL    HW249297  10.007   7.422   4.435 -1.3248 -0.1934 -0.4167
15448SOL     OW49298  10.378   4.610   2.053  0.0507  0.1450 -0.0035
15448SOL    HW149299  10.338   4.524   2.035 -0.8231  0.4421  0.4815
15448SOL    HW249300  10.453   4.590   2.109 -0.2471 -0.2954  0.2479
15449SOL     OW49301   2.187   3.502   5.762  0.0308  0.0762  0.4365
15449SOL    HW149302   2.148   3.494   5.849 -0.4290 -1.2938  0.1351
15449SOL    HW249303   2.275   3.537   5.778 -0.3978  0.7738  1.3554
15450SOL     OW49304   5.713   1.074   3.476 -0.3562 -0.3550 -0.0201
15450SOL    HW149305   5.766   0.994   3.475 -0.6943 -0.5851 -0.9156
15450SOL    HW249306   5.726   1.112   3.389 -2.7840 -1.1950 -0.8242
15451SOL     OW49307   0.681   7.439   5.315  0.6720 -0.2983  0.0114
15451SOL    HW149308   0.744   7.367   5.318 -0.0019 -0.8946  0.1241
15451SOL    HW249309   0.712   7.494   5.242  1.4710 -0.4278  0.2397
15452SOL     OW49310   4.511   5.442  10.461 -0.4691  0.6177 -0.3418
15452SOL    HW149311   4.592   5.478  10.426 -0.0404  2.3393  2.1204
15452SOL    HW249312   4.443   5.503  10.431 -0.3060  1.2362  0.4919
15453SOL     OW49313   8.895   8.459   8.453 -0.0007 -0.0768 -0.0525
15453SOL    HW149314   8.818   8.516   8.457 -0.1223 -0.0552 -1.8536
15453SOL    HW249315   8.860   8.373   8.427  0.5494 -0.0966 -0.7718
15454SOL     OW49316   3.682   9.731   6.104 -1.1261  1.1650  0.2203
15454SOL    HW149317   3.769   9.769   6.089 -0.0044 -1.0205  0.8459
15454SOL    HW249318   3.664   9.747   6.196 -0.8507  0.6017  0.3759
15455SOL     OW49319   4.521   6.418   0.033 -0.4765 -0.1795  0.2859
15455SOL    HW149320   4.487   6.456  -0.048 -1.4250 -1.7429 -0.0914
15455SOL    HW249321   4.601   6.372   0.006 -0.0047  0.4871  0.5188
15456SOL     OW49322   3.677   2.904   8.010  0.1863 -0.2536 -0.3815
15456SOL    HW149323   3.728   2.973   7.969  0.5780 -0.9609 -1.1242
15456SOL    HW249324   3.718   2.823   7.980  1.2292 -0.8218  2.3497
15457SOL     OW49325   8.645   2.843   9.620  0.1409 -0.2541  0.1200
15457SOL    HW149326   8.567   2.854   9.565  0.4095 -1.7690 -0.6238
15457SOL    HW249327   8.636   2.756   9.658 -1.0935  1.4599  4.3324
15458SOL     OW49328   9.568   9.241   0.501  0.1793 -0.5102  0.1557
15458SOL    HW149329   9.504   9.170   0.500  1.0253 -1.2902  0.0805
15458SOL    HW249330   9.555   9.288   0.419 -0.2725 -0.6837  0.1294
15459SOL     OW49331   2.036   0.259   2.298  0.5517  0.4964  0.1713
15459SOL    HW149332   2.047   0.242   2.391 -2.3447  0.4676  0.6035
15459SOL    HW249333   1.970   0.196   2.270  1.0954  0.7491 -1.8409
15460SOL     OW49334   6.064   0.180   8.417 -0.1761  0.4250 -0.4175
15460SOL    HW149335   6.009   0.190   8.339 -0.0368 -0.0718 -0.5829
15460SOL    HW249336   6.142   0.232   8.398  0.0235  0.0021 -0.7702
15461SOL     OW49337  10.452   1.265   7.082 -0.3961  0.3990  0.5363
15461SOL    HW149338  10.375   1.209   7.081 -0.3461  0.3264 -0.3898
15461SOL    HW249339  10.417   1.354   7.085 -0.4766  0.3393  1.8694
15462SOL     OW49340   7.503   0.299   2.406 -0.4401  0.7076 -0.2094
15462SOL    HW149341   7.568   0.369   2.411  1.6693 -1.2145  1.1815
15462SOL    HW249342   7.468   0.305   2.317  3.1569  0.6161 -1.7944
15463SOL     OW49343   1.763   1.817   8.420 -0.5944  0.2440  0.1650
15463SOL    HW149344   1.832   1.872   8.384 -1.1665  2.4846  2.2337
15463SOL    HW249345   1.731   1.766   8.346  0.9407  1.6666 -1.5588
15464SOL     OW49346   0.034   7.491   8.764  0.3575 -0.9149 -0.5210
15464SOL    HW149347  -0.045   7.439   8.777  0.7149 -1.3128  0.1344
15464SOL    HW249348   0.105   7.426   8.761  1.0441 -0.4101  2.1616
15465SOL     OW49349   6.252   6.002   4.841 -0.2360 -0.2018  0.2108
15465SOL    HW149350   6.316   6.037   4.778 -0.7071 -0.5055 -0.4548
15465SOL    HW249351   6.296   5.928   4.881 -0.2493 -0.5664 -0.4303
15466SOL     OW49352   2.731   1.622   9.398  0.6219  0.1825  0.0956
15466SOL    HW149353   2.682   1.652   9.321 -1.4088 -2.7551  0.0853
15466SOL    HW249354   2.694   1.673   9.471  1.1848  1.5812 -0.5581
15467SOL     OW49355   7.538   0.616   3.709  1.0411  0.0394  0.0554
15467SOL    HW149356   7.513   0.707   3.701 -0.0413 -0.3284 -1.0007
15467SOL    HW249357   7.567   0.606   3.800  3.7199  2.0310 -0.4689
15468SOL     OW49358   4.096   9.357   8.197 -0.4969 -0.0414  0.0333
15468SOL    HW149359   4.148   9.383   8.121  0.7446  0.0312  0.8884
15468SOL    HW249360   4.110   9.263   8.205 -0.6701 -0.0577  0.1580
15469SOL     OW49361   8.868   6.951   1.720 -0.2297 -0.5256 -0.5435
15469SOL    HW149362   8.904   7.040   1.716 -1.8616  0.1650 -0.8010
15469SOL    HW249363   8.781   6.963   1.758 -0.9297 -1.8568 -1.6396
15470SOL     OW49364  10.540   7.751   7.518  0.0845 -0.2708 -0.7202
15470SOL    HW149365  10.532   7.756   7.423 -0.6860 -0.3588 -0.6685
15470SOL    HW249366  10.597   7.824   7.542  1.0139 -0.7802 -1.3286
15471SOL     OW49367   1.868   2.179   3.884  0.1648 -0.1742  0.4997
15471SOL    HW149368   1.834   2.237   3.817 -0.0044 -0.9514 -0.1054
15471SOL    HW249369   1.906   2.105   3.836 -1.7899 -1.7699  1.2562
15472SOL     OW49370   1.547   4.330   9.979  0.1346  0.0367 -0.3571
15472SOL    HW149371   1.616   4.366   9.922  0.8550 -1.9970 -0.8485
15472SOL    HW249372   1.467   4.371   9.948  0.9643  1.6428 -0.4912
15473SOL     OW49373  10.160   1.157   2.201  0.0414  0.4305  0.0190
15473SOL    HW149374  10.252   1.161   2.227 -0.1632 -0.2334  0.8790
15473SOL    HW249375  10.144   1.243   2.161  0.6866  1.0695  1.0509
15474SOL     OW49376   7.968   7.137   1.384 -0.3944 -0.1584  0.2280
15474SOL    HW149377   7.947   7.102   1.470 -1.3868 -0.3994 -0.1025
15474SOL    HW249378   7.945   7.067   1.323  0.4238 -0.0430 -0.2260
15475SOL     OW49379   9.854   0.580   0.638  0.0331  0.1506 -0.0343
15475SOL    HW149380   9.923   0.531   0.683 -0.2953  0.6511  1.0748
15475SOL    HW249381   9.791   0.602   0.708 -0.7656  0.5137 -0.8477
15476SOL     OW49382   7.899   7.576   1.880  0.8756  0.3166 -0.3989
15476SOL    HW149383   7.858   7.497   1.915 -0.2696  1.4016  0.8644
15476SOL    HW249384   7.925   7.626   1.958 -0.3764  2.1203 -1.0606
15477SOL     OW49385   5.711   3.599   0.150  0.2358 -0.0153 -0.5424
15477SOL    HW149386   5.621   3.620   0.125  1.1669  1.7366 -2.8274
15477SOL    HW249387   5.726   3.648   0.230 -0.3686  1.0027 -1.0303
15478SOL     OW49388   6.324   9.867   6.762  0.2186  0.1269 -0.8015
15478SOL    HW149389   6.313   9.811   6.685  0.6286 -1.6351  0.3437
15478SOL    HW249390   6.273   9.822   6.830  2.0698  0.1165  0.6421
15479SOL     OW49391   3.574   7.208   6.337 -0.3118  0.1591 -0.1069
15479SOL    HW149392   3.526   7.243   6.412  0.8956  0.2745  0.6366
15479SOL    HW249393   3.521   7.232   6.261 -1.5288  0.0886  0.6907
15480SOL     OW49394   2.796   1.431   5.819 -0.5691  0.2687 -0.3670
15480SOL    HW149395   2.841   1.504   5.777 -0.8913  0.5890 -0.1576
15480SOL    HW249396   2.846   1.414   5.898 -0.2719  0.0091 -0.6049
15481SOL     OW49397   8.699   7.011   5.887  0.1427 -0.2625 -1.0533
15481SOL    HW149398   8.675   6.946   5.822 -0.1750 -0.1107 -1.0895
15481SOL    HW249399   8.729   6.960   5.963  0.5708 -0.4392 -1.3352
15482SOL     OW49400   7.643   3.550   4.198  0.4162  0.3634  0.0442
15482SOL    HW149401   7.638   3.606   4.275  1.4955  1.5108 -0.6855
15482SOL    HW249402   7.683   3.605   4.130 -1.7951 -0.1379 -1.7856
15483SOL     OW49403   4.441   3.183   6.504 -0.6238 -0.3428  0.0659
15483SOL    HW149404   4.421   3.194   6.411  0.9730 -2.4332 -0.6006
15483SOL    HW249405   4.477   3.268   6.531 -2.5725  0.8251 -0.7393
15484SOL     OW49406   0.751   1.087   0.371  0.1358 -0.3804 -0.2870
15484SOL    HW149407   0.700   1.140   0.432  0.3747 -0.5474  0.0623
15484SOL    HW249408   0.842   1.107   0.391  0.2201 -0.5656 -0.4730
15485SOL     OW49409   8.520   6.373   8.584  0.1336  0.0936 -0.0709
15485SOL    HW149410   8.436   6.327   8.593  0.4038 -0.5136 -0.5769
15485SOL    HW249411   8.537   6.375   8.490  0.5641  0.4432  0.0087
15486SOL     OW49412   8.331   9.867   8.152  0.3579 -0.3969 -0.0068
15486SOL    HW149413   8.389   9.903   8.220 -0.7920  0.4792  0.5353
15486SOL    HW249414   8.381   9.794   8.115  1.0518 -0.8574  1.7377
15487SOL     OW49415   3.815   9.955   2.256 -0.7335 -0.0718  0.0866
15487SOL    HW149416   3.831  10.042   2.218  0.9467  0.0253  0.9369
15487SOL    HW249417   3.881   9.899   2.216  0.3891 -0.1986  2.0022
15488SOL     OW49418   3.509   7.545   6.218  0.1062 -0.0807 -0.1450
15488SOL    HW149419   3.445   7.481   6.188 -0.3507  0.6272 -0.7173
15488SOL    HW249420   3.536   7.591   6.138  1.1375 -0.1980  0.1255
15489SOL     OW49421  10.296   8.443  10.647 -0.3905  0.0495 -0.2206
15489SOL    HW149422  10.276   8.353  10.622 -0.0407 -0.1637  0.2504
15489SOL    HW249423  10.374   8.466  10.595  0.1164 -0.2668  0.3855
15490SOL     OW49424   2.590   1.424   7.631  0.2955  0.4357 -0.2079
15490SOL    HW149425   2.517   1.380   7.586 -0.0616 -0.5934  1.2898
15490SOL    HW249426   2.630   1.356   7.684  1.4354  1.3406  0.1426
15491SOL     OW49427   9.222   7.569   5.380  0.4270 -0.3480  0.2720
15491SOL    HW149428   9.204   7.491   5.432 -1.4848  0.0859  0.3478
15491SOL    HW249429   9.281   7.622   5.434  0.5630 -1.0659  0.8436
15492SOL     OW49430   3.531   5.477   9.376  0.0261  0.4178 -0.0288
15492SOL    HW149431   3.594   5.539   9.413  1.3144 -0.6458 -0.3518
15492SOL    HW249432   3.533   5.494   9.282  0.4040 -0.1186 -0.1217
15493SOL     OW49433   8.191   6.061   6.917 -0.2755  0.0681 -0.5689
15493SOL    HW149434   8.104   6.043   6.882 -0.0211 -4.6062  0.5104
15493SOL    HW249435   8.251   6.024   6.852  0.6153 -0.5498  0.5561
15494SOL     OW49436   0.733   2.753   1.303  0.3076 -0.6134  0.0561
15494SOL    HW149437   0.658   2.787   1.352  0.2774 -1.4871  0.6310
15494SOL    HW249438   0.777   2.832   1.270 -1.1591 -0.1004 -0.7733
15495SOL     OW49439   6.609   3.323   6.095  0.7923 -0.1364 -0.1362
15495SOL    HW149440   6.583   3.376   6.171  0.6874 -0.8681  0.3436
15495SOL    HW249441   6.686   3.275   6.126  0.4108 -0.8603 -0.3102
15496SOL     OW49442   2.502   3.454   7.951  0.1313 -0.2878 -0.1434
15496SOL    HW149443   2.515   3.525   7.889 -0.1789 -0.9957 -1.0421
15496SOL    HW249444   2.407   3.449   7.962  0.1835 -0.1332  0.4450
15497SOL     OW49445   8.211   7.151   4.118  0.0876  0.0940 -0.4467
15497SOL    HW149446   8.289   7.131   4.169  0.8670 -1.5103 -2.1133
15497SOL    HW249447   8.240   7.216   4.054 -0.0809 -0.1199 -0.7417
15498SOL     OW49448   0.459   6.527   8.445  0.1945 -0.0540 -0.1494
15498SOL    HW149449   0.528   6.592   8.430 -0.2247  0.3562 -0.3164
15498SOL    HW249450   0.502   6.457   8.494  0.8342  0.0062 -0.6166
15499SOL     OW49451   5.709   6.820  10.454  0.1031 -0.2029  0.2190
15499SOL    HW149452   5.718   6.734  10.495  1.7354 -0.0741  0.1803
15499SOL    HW249453   5.667   6.802  10.370 -0.4934 -0.8195  0.6295
15500SOL     OW49454   7.182   9.711   9.839  0.0197  0.1483  0.2388
15500SOL    HW149455   7.198   9.651   9.765  1.8090  0.9564 -0.0882
15500SOL    HW249456   7.107   9.764   9.811 -0.1426 -0.4156 -0.4318
15501SOL     OW49457   8.967   9.536   2.893  0.6545  0.2821  0.1165
15501SOL    HW149458   8.963   9.442   2.875 -1.8226  0.5674 -1.2149
15501SOL    HW249459   8.911   9.549   2.969  1.2317  0.6742  0.4896
15502SOL     OW49460   6.972   9.744   5.659 -0.2215  0.0305  0.4321
15502SOL    HW149461   6.940   9.655   5.643 -1.0475  0.7232 -2.4275
15502SOL    HW249462   7.059   9.745   5.620 -0.5030  0.6283 -0.2092
15503SOL     OW49463   7.131   9.433   2.511  0.1633 -0.1301 -0.5802
15503SOL    HW149464   7.208   9.485   2.535 -0.9797  1.5971 -0.5253
15503SOL    HW249465   7.107   9.387   2.591  1.8876 -1.7556 -0.9257
15504SOL     OW49466   4.903   8.164   1.730  0.0797  0.3527 -0.6043
15504SOL    HW149467   4.930   8.127   1.646 -0.2332 -1.8206  0.1877
15504SOL    HW249468   4.923   8.096   1.794 -1.8331  0.9960  0.7813
15505SOL     OW49469   2.604   9.415   8.336  0.0925  0.6924 -0.2515
15505SOL    HW149470   2.699   9.409   8.340  0.0894  1.2461  1.5299
15505SOL    HW249471   2.576   9.416   8.427 -1.8096 -1.8045 -0.6928
15506SOL     OW49472   9.205   7.582   9.517  0.3461 -0.0654  0.0539
15506SOL    HW149473   9.218   7.510   9.455  1.4254  0.4585 -0.3643
15506SOL    HW249474   9.138   7.637   9.476 -0.4448 -0.7805  0.3502
15507SOL     OW49475   0.912  10.689   7.479  0.3212  0.0045  0.2981
15507SOL    HW149476   1.000  10.663   7.451  0.6480 -0.1719  1.4336
15507SOL    HW249477   0.905  10.781   7.454  0.6926 -0.0808 -0.1330
15508SOL     OW49478   6.749   7.313   8.842  0.5083 -0.8566 -0.5592
15508SOL    HW149479   6.704   7.397   8.834  0.8563 -0.6834 -0.7214
15508SOL    HW249480   6.747   7.294   8.936  0.7802 -0.4738 -0.4740
15509SOL     OW49481   5.807   9.496   3.996  0.0394 -0.0208 -0.1578
15509SOL    HW149482   5.877   9.555   4.024  0.1112 -0.3702  0.4091
15509SOL    HW249483   5.773   9.536   3.915  2.2468 -0.9269 -1.6346
15510SOL     OW49484   7.763   0.225   1.515 -0.5637 -0.3585 -0.5946
15510SOL    HW149485   7.764   0.204   1.609  1.2107  1.3083 -0.1781
15510SOL    HW249486   7.675   0.261   1.500 -0.5702  0.2230  0.6697
15511SOL     OW49487   8.972   4.055   6.453  0.4837 -0.4001  0.0455
15511SOL    HW149488   8.996   4.127   6.395 -0.2709  0.7754  1.1361
15511SOL    HW249489   8.877   4.065   6.464 -0.0045 -2.7622 -1.3230
15512SOL     OW49490   0.786   1.857   4.260 -0.0458  0.1792  0.4109
15512SOL    HW149491   0.770   1.904   4.342 -0.0371  1.0679 -0.0804
15512SOL    HW249492   0.773   1.765   4.282  0.4049  0.3622  1.5161
15513SOL     OW49493   6.497   0.779   5.617 -0.1087 -0.1938 -0.1804
15513SOL    HW149494   6.555   0.717   5.661  2.0951  0.0388 -2.5587
15513SOL    HW249495   6.460   0.730   5.544 -0.1263  0.6403 -0.7492
15514SOL     OW49496   8.900   3.469   6.594  0.0247 -0.6357 -0.8698
15514SOL    HW149497   8.858   3.551   6.567 -0.3200  0.1862  1.8413
15514SOL    HW249498   8.994   3.485   6.584  0.0580  0.7746  1.1398
15515SOL     OW49499   6.032   9.406   5.305 -0.4442 -0.5357  0.0063
15515SOL    HW149500   5.989   9.460   5.239  0.9690  0.6189 -0.0078
15515SOL    HW249501   6.097   9.464   5.345  1.4656 -2.3331 -0.3237
15516SOL     OW49502   8.705   2.701   1.807 -0.0038  0.3473 -0.1999
15516SOL    HW149503   8.702   2.755   1.886 -0.3205  0.8251 -0.5329
15516SOL    HW249504   8.672   2.758   1.738  2.1170  0.6198 -1.0854
15517SOL     OW49505   3.092   9.929   2.665  0.0162 -0.6213  0.2982
15517SOL    HW149506   3.036   9.854   2.648  0.6421 -1.0109 -0.1083
15517SOL    HW249507   3.092   9.978   2.583  0.9619 -1.0990 -0.0043
15518SOL     OW49508   3.533   9.777   8.408  0.5028 -0.7386  0.0356
15518SOL    HW149509   3.558   9.820   8.326 -0.9098  1.8732  0.8512
15518SOL    HW249510   3.552   9.842   8.475 -1.8707 -1.3241  1.3735
15519SOL     OW49511  10.283   7.340   5.688 -0.9418 -0.3111 -0.6415
15519SOL    HW149512  10.353   7.316   5.628  0.2950 -0.1797  0.6949
15519SOL    HW249513  10.303   7.430   5.714  0.4057 -1.3604  2.3652
15520SOL     OW49514   2.799   5.730   0.392  0.1287 -0.5082 -0.1644
15520SOL    HW149515   2.859   5.799   0.419 -0.9706  0.2821  0.3298
15520SOL    HW249516   2.721   5.777   0.362 -0.3987 -1.5207 -0.4190
15521SOL     OW49517  10.279   1.214   7.813  0.2831  0.1688 -0.9684
15521SOL    HW149518  10.186   1.229   7.799 -0.0351 -1.6172 -0.9276
15521SOL    HW249519  10.309   1.169   7.733  1.0831  0.5936 -0.9212
15522SOL     OW49520   2.029  10.133   8.430 -0.1573  0.0948  0.1767
15522SOL    HW149521   2.061  10.105   8.344 -2.6018 -0.1061 -0.7398
15522SOL    HW249522   2.091  10.094   8.492  2.6523  1.5910 -1.4551
15523SOL     OW49523   3.248   8.703   6.915  0.0363 -0.3028  0.1869
15523SOL    HW149524   3.323   8.730   6.862  1.4272 -1.9277  1.2314
15523SOL    HW249525   3.180   8.681   6.851 -0.8029  4.0818 -0.7890
15524SOL     OW49526   6.781   1.579   2.799 -0.0288  0.5506  0.1564
15524SOL    HW149527   6.738   1.661   2.777 -1.6616 -0.6882 -1.5819
15524SOL    HW249528   6.852   1.604   2.858 -0.8999  3.0986  0.2345
15525SOL     OW49529   3.547   7.218   1.684  0.2189  0.0784 -0.1747
15525SOL    HW149530   3.603   7.194   1.758  0.1076 -0.3173 -0.2169
15525SOL    HW249531   3.533   7.136   1.637  0.9550  0.4761 -1.1072
15526SOL     OW49532   7.970   3.313   0.544 -0.4808 -0.2717 -0.1025
15526SOL    HW149533   7.954   3.297   0.451  1.5591  0.8967 -0.7112
15526SOL    HW249534   8.017   3.234   0.574 -0.2407 -0.2143 -0.3239
15527SOL     OW49535   0.679  10.665   1.897  0.0508 -0.0957 -0.4201
15527SOL    HW149536   0.733  10.711   1.832 -3.2613 -0.4832 -3.8061
15527SOL    HW249537   0.619  10.732   1.929  1.1165 -0.1130  1.7853
15528SOL     OW49538   1.129   8.532   2.682  0.2812 -0.0159  0.0400
15528SOL    HW149539   1.126   8.445   2.641 -1.6530 -0.0958  0.2297
15528SOL    HW249540   1.152   8.514   2.773  0.4070 -0.2857 -0.0447
15529SOL     OW49541   6.607   8.465   3.350 -0.0404 -0.2618 -0.1987
15529SOL    HW149542   6.655   8.517   3.414  0.6219  2.8971 -2.9898
15529SOL    HW249543   6.517   8.499   3.353 -0.2787 -0.8755 -0.2076
15530SOL     OW49544   2.306   0.580  10.634 -0.3374  0.2353 -0.2865
15530SOL    HW149545   2.301   0.658  10.579  0.7063 -0.2681 -1.1400
15530SOL    HW249546   2.218   0.544  10.634 -0.5091  0.6502 -1.0279
15531SOL     OW49547   5.989   0.721   5.894  0.3273 -0.9507  0.1239
15531SOL    HW149548   5.898   0.724   5.864  0.4573  0.7360 -0.2268
15531SOL    HW249549   5.984   0.687   5.983 -0.7754  0.0815  0.4813
15532SOL     OW49550   1.884   2.605   1.721  0.6297  0.3215  0.0565
15532SOL    HW149551   1.894   2.537   1.788  0.8179  0.6293  0.3396
15532SOL    HW249552   1.839   2.560   1.649 -0.3393  0.2019  0.7217
15533SOL     OW49553   7.649   5.691   8.016 -0.1161  0.4311 -0.2663
15533SOL    HW149554   7.691   5.771   7.985 -0.1841  0.8299  0.6200
15533SOL    HW249555   7.719   5.626   8.016 -0.1679  0.3529 -1.4336
15534SOL     OW49556  10.044   8.049   7.377 -0.1812 -0.0565 -0.0551
15534SOL    HW149557  10.106   7.979   7.355 -0.1100  0.2537 -0.8501
15534SOL    HW249558   9.974   8.040   7.313 -1.4770 -1.0123  1.4209
15535SOL     OW49559   8.182   3.806   9.959 -0.1526  0.5385 -0.3311
15535SOL    HW149560   8.252   3.849   9.910  0.1941  0.6103  0.2172
15535SOL    HW249561   8.225   3.772  10.037 -0.3514 -1.0366 -0.8650
15536SOL     OW49562   9.264   6.875   7.119  0.2453 -0.0100  0.4223
15536SOL    HW149563   9.340   6.934   7.113 -0.1919  0.6195  0.8510
15536SOL    HW249564   9.214   6.910   7.193  0.4981 -1.5545  1.3599
15537SOL     OW49565   3.484   3.159   0.782  0.2879  0.1348 -0.6997
15537SOL    HW149566   3.500   3.068   0.759 -2.4383 -0.2519 -1.5282
15537SOL    HW249567   3.517   3.209   0.706  1.6400 -0.1406 -0.3117
15538SOL     OW49568   8.144   6.247   8.104  0.4444 -0.1572 -0.5621
15538SOL    HW149569   8.114   6.285   8.187  1.6407  0.3491 -0.3466
15538SOL    HW249570   8.112   6.307   8.037  1.8412  0.9551 -0.2619
15539SOL     OW49571   6.591   8.618   3.114 -0.1458 -0.1905 -0.0232
15539SOL    HW149572   6.508   8.645   3.152 -1.0523 -0.0089 -2.0210
15539SOL    HW249573   6.595   8.523   3.128 -0.5127 -0.1434  0.4045
15540SOL     OW49574   3.293   8.720   5.146  0.0274  0.1278 -0.3351
15540SOL    HW149575   3.291   8.799   5.200  1.5525 -0.0073 -0.0245
15540SOL    HW249576   3.376   8.726   5.098  0.8355 -1.8714  0.6723
15541SOL     OW49577   9.990   1.494   5.098  0.0496 -0.3681  0.3635
15541SOL    HW149578  10.010   1.483   5.191 -0.5210  2.5160  0.9266
15541SOL    HW249579   9.992   1.588   5.085 -0.3607 -0.6849 -2.4806
15542SOL     OW49580   6.629   1.723  10.046  0.0648  0.6456  0.5757
15542SOL    HW149581   6.569   1.776   9.994 -1.1410 -0.0320  1.2272
15542SOL    HW249582   6.677   1.671   9.982 -0.0294  1.2159  0.0372
15543SOL     OW49583   2.153   3.399  10.128 -0.1378  0.2677  0.2693
15543SOL    HW149584   2.066   3.381  10.163  0.4441 -0.9818  1.1301
15543SOL    HW249585   2.191   3.313  10.111  0.1432  0.8144 -2.1647
15544SOL     OW49586   0.903   5.201   7.413  0.0964  0.2245  0.3301
15544SOL    HW149587   0.812   5.230   7.416  0.1339  0.5647 -1.0775
15544SOL    HW249588   0.897   5.109   7.388  0.1157  0.0940  0.8112
15545SOL     OW49589   8.408   6.931   7.043  0.1372 -0.0789  0.3243
15545SOL    HW149590   8.413   6.970   7.131 -2.0716 -2.3419  1.5740
15545SOL    HW249591   8.376   7.002   6.988  0.9138  1.2064  1.4481
15546SOL     OW49592   1.923   3.138  10.611  0.1037  0.2454 -0.1723
15546SOL    HW149593   2.005   3.154  10.564 -0.8220 -0.9043 -2.3203
15546SOL    HW249594   1.951   3.106  10.697  1.8871  0.9494 -0.4451
15547SOL     OW49595   3.285   2.334   0.537  0.3191 -0.0750 -1.1425
15547SOL    HW149596   3.260   2.271   0.604  1.5631  0.2519 -0.3435
15547SOL    HW249597   3.267   2.290   0.454 -4.1190  0.5570 -0.7821
15548SOL     OW49598   4.422   9.925   7.145  0.3775 -0.3961 -0.2899
15548SOL    HW149599   4.340   9.944   7.099 -0.1290  1.8121  1.3724
15548SOL    HW249600   4.397   9.916   7.236  1.6458 -2.5794 -0.0931
15549SOL     OW49601   2.893   4.306   7.534 -0.3642 -0.2694 -0.2522
15549SOL    HW149602   2.924   4.217   7.519 -0.5733 -0.2794 -0.6134
15549SOL    HW249603   2.964   4.362   7.503  0.2144 -0.3138  0.9294
15550SOL     OW49604   0.599   2.014   6.831  0.1318  0.1716 -0.2817
15550SOL    HW149605   0.689   2.032   6.804 -0.3272  1.2590 -1.1523
15550SOL    HW249606   0.552   2.095   6.815 -0.7393  0.0576  1.4425
15551SOL     OW49607   2.491   4.990   1.866 -0.0957 -0.6063  0.1264
15551SOL    HW149608   2.477   4.930   1.939 -0.8037  0.1668  0.6327
15551SOL    HW249609   2.500   4.932   1.790 -2.2888 -1.3380  0.3455
15552SOL     OW49610   5.954   1.487   1.610  0.1105  0.0172 -0.3260
15552SOL    HW149611   5.885   1.431   1.646  0.0789 -0.2943 -0.8594
15552SOL    HW249612   6.000   1.431   1.547  1.2994 -0.0105  0.5270
15553SOL     OW49613   6.298   6.254   4.171 -0.2749 -0.1203  0.5776
15553SOL    HW149614   6.346   6.256   4.089 -0.9609  1.1265  0.1835
15553SOL    HW249615   6.213   6.217   4.148 -0.3637 -0.0467  0.7864
15554SOL     OW49616   3.526   9.480   8.959 -0.2017 -0.2124  0.0621
15554SOL    HW149617   3.479   9.440   8.885 -0.0278 -0.9577  0.3413
15554SOL    HW249618   3.458   9.497   9.024 -0.3028  0.0989 -0.1279
15555SOL     OW49619   5.153   0.166   0.944  0.4323  0.6005 -0.5663
15555SOL    HW149620   5.135   0.202   0.857 -0.6828  1.2138 -0.1108
15555SOL    HW249621   5.067   0.156   0.984  0.8035 -1.2982 -0.1384
15556SOL     OW49622   1.624  10.284   5.591  0.0330  0.7242  0.0308
15556SOL    HW149623   1.645  10.310   5.680  0.1539  1.6297 -0.2529
15556SOL    HW249624   1.555  10.218   5.601  1.3742 -0.6109  0.8585
15557SOL     OW49625  10.690   8.176   5.218  0.1815  0.4061  0.5114
15557SOL    HW149626  10.612   8.230   5.208  0.7544  1.1772  0.0478
15557SOL    HW249627  10.657   8.088   5.234 -0.8306  0.3158 -1.7179
15558SOL     OW49628   8.598   3.834   5.603 -0.1715 -0.2888 -0.3641
15558SOL    HW149629   8.603   3.765   5.669  0.7615 -1.0984 -1.2527
15558SOL    HW249630   8.551   3.906   5.647 -1.0672 -1.4249  0.6140
15559SOL     OW49631   3.251   1.715  10.291  0.3537 -0.2896  0.2250
15559SOL    HW149632   3.199   1.718  10.371 -2.2555 -2.4246 -1.2458
15559SOL    HW249633   3.215   1.785  10.237  1.4639  0.5068  0.4582
15560SOL     OW49634   9.085   4.678   4.870  0.0254  0.5966 -0.4177
15560SOL    HW149635   9.160   4.730   4.840  1.5669 -2.4885 -2.5392
15560SOL    HW249636   9.010   4.716   4.824  0.0758  3.8645  1.8759
15561SOL     OW49637   8.716   8.376   0.657  0.0500 -0.0059 -0.5065
15561SOL    HW149638   8.657   8.429   0.604 -0.5771 -0.5518 -0.3746
15561SOL    HW249639   8.682   8.287   0.648 -0.4438 -0.0260  1.3008
15562SOL     OW49640   9.688   3.636   2.514  0.5674  0.2378 -0.2272
15562SOL    HW149641   9.622   3.656   2.448 -0.1473  3.5628  1.2674
15562SOL    HW249642   9.771   3.664   2.475  0.1483  2.1984  0.1801
15563SOL     OW49643  10.362   2.789   2.804 -0.0322 -0.1454 -0.0358
15563SOL    HW149644  10.314   2.778   2.722 -1.6925  1.2985  0.6610
15563SOL    HW249645  10.324   2.869   2.843 -0.0970 -1.3663  2.6354
15564SOL     OW49646  10.382   8.301   3.826  0.6032  0.0080 -0.8733
15564SOL    HW149647  10.338   8.375   3.784 -1.7425 -0.6205  0.2620
15564SOL    HW249648  10.474   8.310   3.801  0.6190  3.8014 -0.0660
15565SOL     OW49649   6.454   6.570   9.678 -0.0148  0.0213  0.4022
15565SOL    HW149650   6.519   6.640   9.684  1.0964 -0.9075 -0.3466
15565SOL    HW249651   6.436   6.545   9.769  0.4044  0.5368  0.6298
15566SOL     OW49652   5.263   5.204   2.711  0.2371 -0.5331 -0.1687
15566SOL    HW149653   5.168   5.203   2.708  0.2456  0.0543 -1.3072
15566SOL    HW249654   5.287   5.295   2.693  1.0234 -0.8061 -0.5584
15567SOL     OW49655   5.115   4.507   5.239 -0.5261  0.3346 -0.6111
15567SOL    HW149656   5.147   4.552   5.318 -2.0294  0.0722  0.1853
15567SOL    HW249657   5.060   4.572   5.195  2.4649  1.4900 -3.0575
15568SOL     OW49658   2.427   3.647   4.818  0.4313 -0.0942 -0.2619
15568SOL    HW149659   2.394   3.731   4.850  0.5780  1.3937 -3.6330
15568SOL    HW249660   2.519   3.646   4.845  0.7138  1.3743 -1.0699
15569SOL     OW49661   3.826   7.136   8.546  0.0857 -0.4196 -0.2203
15569SOL    HW149662   3.814   7.214   8.601 -2.5253 -0.1778 -0.9848
15569SOL    HW249663   3.765   7.072   8.583  1.5299 -1.8264 -0.1704
15570SOL     OW49664   4.766   5.806   0.345  0.3010 -0.3630  0.0289
15570SOL    HW149665   4.855   5.841   0.341 -0.0252  0.6032  0.7363
15570SOL    HW249666   4.719   5.866   0.403 -0.9268 -0.6117 -0.6574
15571SOL     OW49667   2.737   2.832   0.055 -0.0976 -0.2592 -0.3672
15571SOL    HW149668   2.660   2.889   0.057  0.2001  0.1938 -1.1872
15571SOL    HW249669   2.730   2.779   0.135 -1.7847 -0.9487 -0.9388
15572SOL     OW49670   7.534   4.525   1.157 -0.3094 -0.2145  0.3359
15572SOL    HW149671   7.574   4.438   1.159 -0.9750 -0.5368 -0.0773
15572SOL    HW249672   7.602   4.581   1.119  1.0236 -0.0427  2.7705
15573SOL     OW49673   1.693   9.061  10.632  0.5609  0.1207  0.1337
15573SOL    HW149674   1.746   8.994  10.675  0.8103 -1.1644 -2.0798
15573SOL    HW249675   1.605   9.023  10.625  0.0280  1.0935  1.1822
15574SOL     OW49676   7.112   8.379   7.702  0.2094  0.4758  0.6464
15574SOL    HW149677   7.053   8.452   7.722  0.6274  0.6295  1.3334
15574SOL    HW249678   7.200   8.416   7.708  0.4073  0.0533  0.4292
15575SOL     OW49679   0.681   6.411   1.545 -0.3132 -0.2135  0.3673
15575SOL    HW149680   0.610   6.473   1.563  1.3525  1.6450  0.8801
15575SOL    HW249681   0.666   6.339   1.606 -1.6645  0.2062  0.5638
15576SOL     OW49682   2.931   1.419   9.576  0.8634 -0.3324 -0.2388
15576SOL    HW149683   3.007   1.389   9.526  0.2099  0.4834 -1.7968
15576SOL    HW249684   2.856   1.404   9.518 -0.2397 -1.3695  1.3570
15577SOL     OW49685   4.400  10.671   0.824 -0.0990 -0.3797 -0.5330
15577SOL    HW149686   4.416  10.740   0.760  2.1494  0.5511  0.8964
15577SOL    HW249687   4.334  10.615   0.784 -1.9288  2.4858 -1.8425
15578SOL     OW49688   7.753   1.389   4.260 -0.3039  0.6163 -0.1923
15578SOL    HW149689   7.774   1.482   4.251  2.0090  0.2177  0.4352
15578SOL    HW249690   7.790   1.349   4.181  0.0978  0.0560  0.2663
15579SOL     OW49691   1.068   4.969   2.346 -0.1107  0.3370 -0.6430
15579SOL    HW149692   1.057   4.954   2.440  1.2855  0.6616 -0.3946
15579SOL    HW249693   0.984   5.004   2.317 -0.0278  1.8934  0.8511
15580SOL     OW49694   9.781   4.708  10.076 -0.0447  0.2187  0.5230
15580SOL    HW149695   9.817   4.674   9.994 -0.7731  0.8508 -0.0648
15580SOL    HW249696   9.697   4.663  10.086  0.2749 -0.2454  1.2023
15581SOL     OW49697   7.801  10.309   5.235 -0.3713 -0.4830 -0.0140
15581SOL    HW149698   7.863  10.379   5.254 -0.5079 -0.7881  1.7087
15581SOL    HW249699   7.855  10.236   5.206 -0.0555 -0.2756  0.0507
15582SOL     OW49700   6.429   5.323   8.223 -0.1785 -0.3810 -0.2999
15582SOL    HW149701   6.522   5.347   8.231 -0.1750 -0.9520  2.2777
15582SOL    HW249702   6.382   5.399   8.258 -0.7442 -0.1157 -1.5521
15583SOL     OW49703   2.978   8.825   7.901  0.0675 -0.2342  0.3992
15583SOL    HW149704   3.050   8.800   7.842 -0.9382  0.1177 -1.0237
15583SOL    HW249705   3.019   8.886   7.962  0.5992  1.6397 -1.6728
15584SOL     OW49706   4.706   4.939   8.040 -0.5359  0.1341 -0.2020
15584SOL    HW149707   4.782   4.930   7.982  0.2742  0.8847  0.7253
15584SOL    HW249708   4.668   5.024   8.018  0.8328  1.2565  1.5568
15585SOL     OW49709   4.437   7.803   5.185  0.6381  0.4835  0.0400
15585SOL    HW149710   4.372   7.748   5.227 -0.8075  1.5007 -0.7933
15585SOL    HW249711   4.494   7.742   5.138 -0.1438 -0.3795  0.1803
15586SOL     OW49712   4.559   2.594  10.491 -0.1251  0.0931 -0.0049
15586SOL    HW149713   4.621   2.522  10.502  0.2815  0.5562  0.8275
15586SOL    HW249714   4.563   2.614  10.398  0.0746 -0.6734 -0.1733
15587SOL     OW49715   6.860   9.982   9.104  0.2316  0.3713 -0.0328
15587SOL    HW149716   6.891   9.962   9.016 -0.4737 -1.9844  0.1863
15587SOL    HW249717   6.765   9.991   9.095  0.2075  0.6040  0.4060
15588SOL     OW49718   2.811   9.097   8.006  0.1381  0.5448 -0.3344
15588SOL    HW149719   2.794   9.188   8.028 -1.1136  0.2555  0.0199
15588SOL    HW249720   2.882   9.071   8.064 -0.5747  0.8637  0.7121
15589SOL     OW49721   8.639   1.207   8.187 -0.3364 -0.6182 -0.4201
15589SOL    HW149722   8.660   1.185   8.278  2.7216  0.9289 -0.6138
15589SOL    HW249723   8.636   1.122   8.143 -2.3941 -1.4396  1.1204
15590SOL     OW49724   7.179   6.280   9.923  0.0404 -0.0057  0.3677
15590SOL    HW149725   7.249   6.346   9.929  0.3708 -0.4015  0.8793
15590SOL    HW249726   7.201   6.229   9.845  2.1729 -2.2037  2.2381
15591SOL     OW49727   1.468   0.257   8.042  0.3393  0.3338 -0.8947
15591SOL    HW149728   1.420   0.200   8.103 -2.3883  1.8349 -1.4801
15591SOL    HW249729   1.557   0.224   8.044 -0.6653 -2.6638  0.3202
15592SOL     OW49730   4.279   9.136   1.323 -0.3657  0.1952 -0.3118
15592SOL    HW149731   4.198   9.090   1.343  0.1248 -0.5539  0.0141
15592SOL    HW249732   4.257   9.229   1.329 -1.1579 -0.0046 -0.0808
15593SOL     OW49733   1.285   3.819   0.942 -0.1303  0.3115 -0.0427
15593SOL    HW149734   1.259   3.744   0.996  0.2183  0.1936 -0.0359
15593SOL    HW249735   1.292   3.784   0.854  0.2142  0.2961 -0.0086
15594SOL     OW49736   6.805   8.095   1.777  0.1852 -0.1233 -0.2556
15594SOL    HW149737   6.844   8.023   1.827  0.6828  1.0065  1.0353
15594SOL    HW249738   6.877   8.154   1.760 -0.7820  1.7765  1.7590
15595SOL     OW49739   1.898   6.715   2.707  0.0685 -0.3663 -0.1277
15595SOL    HW149740   1.944   6.669   2.778 -0.6863  1.1335  1.4019
15595SOL    HW249741   1.812   6.675   2.704 -0.7382  1.1033  1.4928
15596SOL     OW49742   0.829   7.396   2.630 -0.5369  0.9479 -0.2146
15596SOL    HW149743   0.737   7.396   2.602 -0.2100  0.6419 -1.3351
15596SOL    HW249744   0.873   7.453   2.568  0.4398 -0.7560 -1.1610
15597SOL     OW49745  10.106   3.683   0.591 -0.3834  0.2237  0.1764
15597SOL    HW149746  10.059   3.692   0.673  2.1591  0.3327  1.7189
15597SOL    HW249747  10.166   3.610   0.605 -1.6385 -1.5177 -2.5455
15598SOL     OW49748   6.634   4.582   5.419  0.2356 -0.1787 -0.5082
15598SOL    HW149749   6.674   4.582   5.506  1.4934  1.0402 -1.0487
15598SOL    HW249750   6.675   4.508   5.373 -0.9229 -1.2416  0.1174
15599SOL     OW49751   9.031   8.590   9.613  0.5749 -0.5185  0.2201
15599SOL    HW149752   9.090   8.639   9.669 -2.1891 -1.0704  3.9760
15599SOL    HW249753   8.983   8.658   9.564  1.3885  0.1236  0.2887
15600SOL     OW49754   8.859   4.939   3.614  0.0434 -0.5753  0.1865
15600SOL    HW149755   8.768   4.967   3.627 -0.9219 -2.9243 -0.8154
15600SOL    HW249756   8.892   4.922   3.702  0.3451  2.4294  0.7509
15601SOL     OW49757   0.813   6.197   1.907  0.0760 -0.3183  0.7099
15601SOL    HW149758   0.839   6.106   1.891  1.7674  0.0735  1.0654
15601SOL    HW249759   0.883   6.233   1.962 -0.6889  1.1416  0.7801
15602SOL     OW49760   6.133   2.351   6.218  0.0720 -0.2710 -0.5455
15602SOL    HW149761   6.124   2.446   6.211 -0.8209 -0.4169 -1.7752
15602SOL    HW249762   6.063   2.325   6.278  0.9059 -0.0904  0.5502
15603SOL     OW49763   2.154   8.177  10.600 -0.1028  0.7816  0.0733
15603SOL    HW149764   2.192   8.262  10.578  0.4303  0.6660  0.5474
15603SOL    HW249765   2.095   8.196  10.673 -0.3841  0.8305 -0.1641
15604SOL     OW49766   6.095   4.364   7.098 -0.2219  0.8725 -0.3969
15604SOL    HW149767   6.142   4.370   7.015  0.3781 -2.8183 -0.4769
15604SOL    HW249768   6.163   4.343   7.162 -1.3609 -2.9766 -0.2266
15605SOL     OW49769   9.797   0.001   5.834  0.2267 -0.1858 -0.2063
15605SOL    HW149770   9.827   0.077   5.784  0.3803 -0.2982 -0.2847
15605SOL    HW249771   9.857  -0.004   5.908  0.3753 -0.3838 -0.3389
15606SOL     OW49772  10.311   9.514   8.305 -0.4145  0.2277  0.2939
15606SOL    HW149773  10.263   9.468   8.373 -1.6415  0.4454 -0.3911
15606SOL    HW249774  10.392   9.464   8.294 -0.4474 -0.1163  1.5150
15607SOL     OW49775   5.285   8.976   9.233 -0.7191  0.1567 -0.7589
15607SOL    HW149776   5.379   8.986   9.245 -0.7972  0.2902 -0.2338
15607SOL    HW249777   5.273   8.969   9.138 -0.2455  0.7424 -0.8670
15608SOL     OW49778   7.020   7.470   3.520  0.0995  0.2658 -0.3493
15608SOL    HW149779   7.052   7.558   3.499 -0.0569  0.1768 -0.9981
15608SOL    HW249780   7.063   7.413   3.456 -1.4071  0.1637 -1.3422
15609SOL     OW49781   5.556   1.340   6.317 -0.2515  0.5320  0.2061
15609SOL    HW149782   5.602   1.417   6.284  0.9438  0.4734  1.6318
15609SOL    HW249783   5.464   1.356   6.297  0.1548  1.6075 -0.8793
15610SOL     OW49784   9.595   5.692   1.571  0.1891 -0.8165 -0.6152
15610SOL    HW149785   9.656   5.619   1.577 -1.1053 -1.9177 -0.2399
15610SOL    HW249786   9.509   5.653   1.586 -0.5718  0.7610 -0.5959
15611SOL     OW49787   7.834   4.745   9.489 -0.1868 -0.0562 -0.3176
15611SOL    HW149788   7.930   4.743   9.482 -0.1976 -1.4558 -0.5207
15611SOL    HW249789   7.806   4.790   9.409  0.3184  1.8608  0.5208
15612SOL     OW49790   0.034   0.379   5.806  0.1278  0.2004 -0.4657
15612SOL    HW149791   0.007   0.346   5.891 -1.3926  2.6193  0.0821
15612SOL    HW249792   0.117   0.424   5.822 -0.3598  1.0081 -0.1271
15613SOL     OW49793   4.386   0.406   1.759  0.9422  0.1011  0.3375
15613SOL    HW149794   4.356   0.477   1.701  2.1494 -0.2398 -0.7427
15613SOL    HW249795   4.404   0.450   1.842 -1.3795  0.5069  0.6965
15614SOL     OW49796   6.038  10.381   8.178 -0.1721 -0.6280  0.0408
15614SOL    HW149797   6.126  10.417   8.189 -0.2060 -0.4672 -0.2026
15614SOL    HW249798   6.047  10.288   8.199  0.4817 -1.0518 -1.8697
15615SOL     OW49799   3.757   1.853   5.476 -0.4178 -0.0783 -0.0859
15615SOL    HW149800   3.799   1.767   5.476  0.7356  0.4721  0.3090
15615SOL    HW249801   3.681   1.843   5.534 -0.1691 -0.7607  0.1224
15616SOL     OW49802   1.901   2.304   4.851 -0.5937  0.8501 -0.0083
15616SOL    HW149803   1.901   2.386   4.802  1.4254 -0.0164 -1.5911
15616SOL    HW249804   1.989   2.269   4.840 -1.1058 -1.0707  1.4482
15617SOL     OW49805  10.158   6.191   6.962  0.0130  0.7018  0.3408
15617SOL    HW149806  10.191   6.109   6.925  0.0145  0.5854  0.6004
15617SOL    HW249807  10.131   6.242   6.886  0.8388  0.8236  0.1240
15618SOL     OW49808   3.674   8.822   8.394 -0.2968 -0.2687 -0.4171
15618SOL    HW149809   3.708   8.895   8.343 -0.7534 -0.4365 -0.9620
15618SOL    HW249810   3.746   8.799   8.453  0.3503 -0.2821 -1.1969
15619SOL     OW49811  10.322   5.859   5.170  0.0138 -0.0087 -0.1171
15619SOL    HW149812  10.237   5.816   5.159  0.1115 -0.3998  0.6133
15619SOL    HW249813  10.359   5.820   5.249  1.6076 -1.0801 -1.3042
15620SOL     OW49814   6.058   5.119   6.182  0.0836  0.5875  0.5051
15620SOL    HW149815   6.006   5.087   6.255  0.8967 -0.9459  0.4470
15620SOL    HW249816   6.006   5.190   6.144 -2.0242 -0.9860  0.3387
15621SOL     OW49817   1.818   6.334   6.090  0.4551  0.1481 -0.0163
15621SOL    HW149818   1.748   6.319   6.153  0.0000  0.1448 -0.5117
15621SOL    HW249819   1.782   6.302   6.007  1.4802 -0.9858 -0.0639
15622SOL     OW49820   3.061   1.449   4.542  0.3329 -0.4303 -0.1152
15622SOL    HW149821   3.095   1.519   4.486  1.0168  0.7174  1.6426
15622SOL    HW249822   3.100   1.369   4.508  1.1860  0.3040 -0.9152
15623SOL     OW49823   3.211   0.854   1.738 -0.3352  0.0010 -0.1198
15623SOL    HW149824   3.167   0.770   1.748  2.7554 -1.6107  1.7627
15623SOL    HW249825   3.210   0.892   1.826  0.0704  0.9428 -0.5110
15624SOL     OW49826   9.722  10.063   8.992  0.4464  0.1890  0.4130
15624SOL    HW149827   9.814  10.059   9.018  0.7583  0.9277 -0.5162
15624SOL    HW249828   9.708   9.983   8.942  0.6696  0.2275  0.2872
15625SOL     OW49829   4.685   7.608   6.429  0.0531 -0.1046  0.0613
15625SOL    HW149830   4.689   7.702   6.412 -1.8051 -0.0357 -0.2556
15625SOL    HW249831   4.704   7.600   6.523  0.4575  0.5609  0.0407
15626SOL     OW49832  10.017   1.431   3.072 -0.1049 -0.1097 -0.2230
15626SOL    HW149833   9.994   1.383   3.152  1.5733 -2.6739 -1.1444
15626SOL    HW249834  10.111   1.447   3.080 -0.4491  2.4640 -0.3436
15627SOL     OW49835   9.591   3.375   8.522 -0.0882  0.6774 -0.3482
15627SOL    HW149836   9.654   3.375   8.449 -0.9386 -0.0519 -1.1025
15627SOL    HW249837   9.579   3.467   8.543  0.8037  0.8530 -0.5709
15628SOL     OW49838   0.320   2.525   2.538 -0.1128  0.1164  0.4256
15628SOL    HW149839   0.234   2.494   2.509  0.1896 -0.4140  0.0822
15628SOL    HW249840   0.340   2.472   2.615  0.2377 -0.3056  0.0569
15629SOL     OW49841   7.484   7.473   6.452 -0.5676 -0.0242  0.6224
15629SOL    HW149842   7.542   7.474   6.529  0.6680  0.3126 -0.2680
15629SOL    HW249843   7.453   7.563   6.444  0.0555  0.1682  0.2170
15630SOL     OW49844   3.735   8.932   5.072  0.7042  0.7014 -0.1362
15630SOL    HW149845   3.708   8.843   5.052 -0.7720  0.3748  2.7205
15630SOL    HW249846   3.799   8.924   5.142 -0.9034  1.8410  1.5760
15631SOL     OW49847   1.794   5.128   9.990  0.1089  0.4092 -0.0535
15631SOL    HW149848   1.711   5.175   9.999  0.5645  0.9521  1.5842
15631SOL    HW249849   1.858   5.183  10.034  0.9028 -1.1082  0.7612
15632SOL     OW49850  10.304  10.303   2.369 -0.1914 -0.0862 -0.2825
15632SOL    HW149851  10.330  10.213   2.386 -1.2324 -0.7739 -2.0941
15632SOL    HW249852  10.270  10.335   2.453 -0.0021 -1.4300  0.3259
15633SOL     OW49853   2.814   2.300   3.378 -0.4483  0.4434  0.1132
15633SOL    HW149854   2.775   2.283   3.293 -1.0567  0.2378  0.4258
15633SOL    HW249855   2.878   2.370   3.362  2.0671 -1.9603 -1.2001
15634SOL     OW49856   0.568   6.369  10.010 -0.0054 -0.0499 -0.2702
15634SOL    HW149857   0.589   6.281  10.042 -1.1386 -0.1409  0.2393
15634SOL    HW249858   0.485   6.391  10.051 -0.0939  0.9771 -0.9648
15635SOL     OW49859   3.360   7.123   5.391 -0.1893  0.4724  0.1577
15635SOL    HW149860   3.424   7.108   5.461 -1.2691 -0.6627  0.9595
15635SOL    HW249861   3.407   7.102   5.311  0.4571 -0.3501  0.7274
15636SOL     OW49862   0.503   5.279   9.674  0.2009  0.0006  0.4064
15636SOL    HW149863   0.550   5.283   9.757  0.5252  1.0190  0.1924
15636SOL    HW249864   0.545   5.345   9.619 -2.1998  1.8169  0.5931
15637SOL     OW49865  10.178   0.681   5.070  0.5890 -0.4369  0.0216
15637SOL    HW149866  10.259   0.702   5.025  0.5563  2.3598  1.0583
15637SOL    HW249867  10.114   0.667   5.000  0.7412  2.8632 -0.9097
15638SOL     OW49868   2.349   7.835   5.010 -0.3564 -0.7550  0.0766
15638SOL    HW149869   2.320   7.842   4.919 -1.1554 -0.8415  0.3182
15638SOL    HW249870   2.294   7.766   5.047 -1.0013  0.2204  0.9953
15639SOL     OW49871   3.636   4.645   4.434 -0.0749 -0.5858  0.2659
15639SOL    HW149872   3.696   4.594   4.488  2.1675  1.4748 -0.1034
15639SOL    HW249873   3.611   4.719   4.489 -0.4972 -0.2489 -0.3651
15640SOL     OW49874   9.149   6.000   3.984  0.3002  0.5775 -0.0585
15640SOL    HW149875   9.106   5.933   3.931  0.4747 -0.2023  0.7450
15640SOL    HW249876   9.230   6.020   3.938  0.5847 -0.2947  0.0453
15641SOL     OW49877   9.006   0.087   2.042  0.1383 -0.3412  0.5022
15641SOL    HW149878   9.068   0.127   2.103 -0.7456  3.1030 -0.6123
15641SOL    HW249879   9.048   0.093   1.956 -0.5972 -0.5876  0.1128
15642SOL     OW49880   7.895   7.273   8.768 -0.3842 -0.1099 -0.1257
15642SOL    HW149881   7.858   7.288   8.681  0.6967  1.0575 -0.4177
15642SOL    HW249882   7.959   7.343   8.779  0.4246 -0.9949  1.0847
15643SOL     OW49883   3.708   5.926   0.538  0.1849  0.1865  0.5096
15643SOL    HW149884   3.799   5.948   0.559  1.0562 -0.5747 -2.0562
15643SOL    HW249885   3.662   6.010   0.539  0.4802  0.4125  3.3270
15644SOL     OW49886   9.613   2.290   6.360  0.3632 -0.0291  0.2758
15644SOL    HW149887   9.622   2.243   6.443  1.1644 -0.8931 -0.2858
15644SOL    HW249888   9.686   2.259   6.307  0.8446  1.7498 -0.1816
15645SOL     OW49889   7.243   1.986   8.534 -0.0772  0.7507 -0.8934
15645SOL    HW149890   7.284   2.059   8.581  1.1133 -0.8798  0.7556
15645SOL    HW249891   7.281   1.990   8.446 -0.2363  2.2544 -0.9223
15646SOL     OW49892   8.035   0.367  10.144 -0.3002 -0.2929  0.2817
15646SOL    HW149893   8.024   0.276  10.117  0.0443 -0.0922 -0.5577
15646SOL    HW249894   7.946   0.399  10.158 -0.7490  0.3443 -3.1959
15647SOL     OW49895   6.318   0.947   3.853 -0.0864 -0.3591 -0.0118
15647SOL    HW149896   6.369   0.921   3.929 -0.0792  0.5699  0.3238
15647SOL    HW249897   6.373   1.013   3.809 -1.1278  0.9655  0.5850
15648SOL     OW49898   4.849  10.135   0.806 -0.0053 -0.0652  0.1754
15648SOL    HW149899   4.855  10.220   0.762 -0.8188 -0.1793 -0.1873
15648SOL    HW249900   4.901  10.076   0.752  0.3661  0.1488  0.2962
15649SOL     OW49901   3.265   2.009   1.855  0.5874  0.0951  0.0306
15649SOL    HW149902   3.278   1.984   1.947  2.1966 -1.5372 -0.5966
15649SOL    HW249903   3.170   2.005   1.843  0.3924 -0.2572  1.4498
15650SOL     OW49904   7.953   5.092   4.361 -0.1468 -0.1065 -0.0717
15650SOL    HW149905   8.019   5.090   4.431 -1.5199  0.7146  1.3378
15650SOL    HW249906   7.873   5.120   4.406 -0.8490  1.5286 -2.1793
15651SOL     OW49907   0.530   9.865   1.518 -0.5127 -0.3015  0.2449
15651SOL    HW149908   0.464   9.873   1.449  0.1561 -0.6032 -0.4379
15651SOL    HW249909   0.553   9.772   1.518 -0.6506 -0.3457  1.0213
15652SOL     OW49910   9.566   9.712   6.587  0.3026  0.1237  0.0548
15652SOL    HW149911   9.539   9.674   6.670  1.1759  1.3614  0.9457
15652SOL    HW249912   9.649   9.756   6.606  0.1571  1.0695 -1.2850
15653SOL     OW49913   7.473  10.683   0.194 -0.1469 -0.2032 -0.3819
15653SOL    HW149914   7.566  10.681   0.215 -0.4305 -2.0345  0.9544
15653SOL    HW249915   7.467  10.646   0.106  0.3787  0.0099 -0.5112
15654SOL     OW49916   5.014   7.459   5.564  0.0506  0.7612 -0.8198
15654SOL    HW149917   5.103   7.487   5.584  0.3137 -0.7649  0.3489
15654SOL    HW249918   4.983   7.418   5.645 -0.6449 -1.3263 -2.0556
15655SOL     OW49919   2.250   7.090   8.524 -0.4127 -0.2330  0.0797
15655SOL    HW149920   2.289   7.177   8.528 -0.8500  0.0746 -1.5649
15655SOL    HW249921   2.285   7.052   8.443  0.6473 -2.0532  1.3119
15656SOL     OW49922   1.865   3.348   8.517 -0.8010 -0.2989 -0.1606
15656SOL    HW149923   1.791   3.308   8.562 -0.9843 -1.2603 -1.2779
15656SOL    HW249924   1.942   3.301   8.550 -0.8457 -0.3617 -0.1462
15657SOL     OW49925   9.182   1.255   7.799 -0.2824 -0.3784  0.1861
15657SOL    HW149926   9.237   1.231   7.725 -1.2655  2.4309 -1.6366
15657SOL    HW249927   9.244   1.281   7.867  0.6283 -2.1269  0.0911
15658SOL     OW49928   4.866  10.040   3.029 -0.0023  0.3167 -0.4447
15658SOL    HW149929   4.829  10.001   3.108 -1.4908 -0.6154 -1.5518
15658SOL    HW249930   4.836  10.131   3.030 -0.9557  0.0117 -0.4760
15659SOL     OW49931  10.144   2.978  10.449 -0.6312 -0.2064  0.4417
15659SOL    HW149932  10.146   3.057  10.503 -2.2511 -0.0803  0.3689
15659SOL    HW249933  10.114   2.909  10.509 -3.0956  0.0631 -0.3506
15660SOL     OW49934   5.728  10.072   2.623 -0.3291 -0.0043  0.1864
15660SOL    HW149935   5.806  10.060   2.569  0.4715  2.4676  0.6672
15660SOL    HW249936   5.663  10.110   2.564 -1.2639 -2.0883 -0.2225
15661SOL     OW49937   6.385   0.349   9.441  0.3693  0.6102  0.1625
15661SOL    HW149938   6.366   0.292   9.366  0.3421  2.2646 -1.1520
15661SOL    HW249939   6.449   0.411   9.407  1.9065  0.1909  2.1318
15662SOL     OW49940   3.413   8.523   4.758 -0.5207 -0.2149  0.9181
15662SOL    HW149941   3.437   8.577   4.833  1.3753  0.7511 -0.3250
15662SOL    HW249942   3.375   8.585   4.695  0.6986 -0.4787 -0.1035
15663SOL     OW49943   2.158   6.407   8.710 -0.7097  0.3177 -0.0268
15663SOL    HW149944   2.092   6.339   8.727 -1.1122  0.6654 -0.1695
15663SOL    HW249945   2.242   6.362   8.720 -0.9710 -0.5321 -1.4095
15664SOL     OW49946   0.058   8.025  10.428  0.1867 -0.2795 -0.6183
15664SOL    HW149947   0.089   7.960  10.491  1.3418 -0.6080 -1.4776
15664SOL    HW249948  -0.013   7.983  10.382 -0.1545 -0.3174 -0.0690
15665SOL     OW49949   9.613   7.645   9.006  0.2676 -0.3683 -0.0489
15665SOL    HW149950   9.662   7.725   9.021  0.0634  0.2046 -2.1275
15665SOL    HW249951   9.523   7.667   9.029  0.6369 -0.8828  2.0492
15666SOL     OW49952   2.207   8.193   9.974  0.3448  0.0428 -0.2668
15666SOL    HW149953   2.254   8.234  10.047 -0.2185  2.1968 -1.0132
15666SOL    HW249954   2.158   8.122  10.013 -2.1547  2.7876  2.0847
15667SOL     OW49955  10.633   0.930   7.962  0.2476 -0.2347  0.3696
15667SOL    HW149956  10.548   0.974   7.958 -0.1320 -0.8127  1.5827
15667SOL    HW249957  10.638   0.896   8.052  2.5558  1.3825  0.9289
15668SOL     OW49958   1.824   8.236   0.700  0.0302  0.4387  0.3065
15668SOL    HW149959   1.896   8.180   0.729 -0.4355 -0.1789  0.2895
15668SOL    HW249960   1.753   8.217   0.762 -0.2993  0.6325 -0.0090
15669SOL     OW49961   9.805   2.834   3.702  0.2122  0.0862  0.0724
15669SOL    HW149962   9.795   2.764   3.637 -0.8937 -0.0788  0.3890
15669SOL    HW249963   9.899   2.852   3.705  0.3037 -0.0717 -1.3902
15670SOL     OW49964   2.897   4.358  10.679  0.0238  0.3805 -0.9947
15670SOL    HW149965   2.936   4.414  10.612  0.1353  1.3079 -0.1609
15670SOL    HW249966   2.938   4.272  10.665  0.6547  0.7680 -1.5807
15671SOL     OW49967   2.397   0.543   7.468  0.4698  0.7372 -0.0871
15671SOL    HW149968   2.424   0.557   7.377 -1.2240  1.2273 -0.5488
15671SOL    HW249969   2.308   0.576   7.472  0.4446  0.5491  1.7291
15672SOL     OW49970   7.281   5.561   2.872 -0.0532  0.1383 -0.2469
15672SOL    HW149971   7.230   5.494   2.827  0.6696  0.4740 -1.6379
15672SOL    HW249972   7.217   5.611   2.922 -0.9899  0.0941 -1.3596
15673SOL     OW49973   2.573   6.468   2.669  0.1981 -0.1535 -0.5965
15673SOL    HW149974   2.615   6.461   2.584 -0.6654  0.7558 -1.1195
15673SOL    HW249975   2.642   6.498   2.728  0.4546  0.6315 -1.2835
15674SOL     OW49976   1.055   8.211   5.961  0.1872 -0.0962 -0.5211
15674SOL    HW149977   1.095   8.262   6.032  0.1030 -0.8425  0.0773
15674SOL    HW249978   1.029   8.129   6.003  2.2422 -1.5332 -1.8871
15675SOL     OW49979   0.376   4.859   2.005 -0.0178 -0.0174 -0.2335
15675SOL    HW149980   0.310   4.919   1.971  1.1809  1.2186 -0.4659
15675SOL    HW249981   0.326   4.783   2.036 -1.3214 -0.2556 -2.7291
15676SOL     OW49982   8.237   7.104   0.419  0.2485  0.0990 -0.2993
15676SOL    HW149983   8.259   7.193   0.393  1.8241 -0.1334  0.1544
15676SOL    HW249984   8.322   7.059   0.425 -0.5419 -1.6702 -1.3697
15677SOL     OW49985   6.217   6.427   9.619 -0.1679 -0.4842  0.1665
15677SOL    HW149986   6.281   6.493   9.646 -1.9133  1.4840 -0.2491
15677SOL    HW249987   6.267   6.368   9.563  1.2607  1.0826 -0.3062
15678SOL     OW49988   4.304   2.112   1.807 -0.2907  0.1841 -0.5628
15678SOL    HW149989   4.285   2.069   1.723  0.9560 -0.8999 -0.3263
15678SOL    HW249990   4.394   2.146   1.796  0.2803 -0.8834  0.6789
15679SOL     OW49991   8.916   2.954   0.628  0.0933 -0.5191 -0.0358
15679SOL    HW149992   8.850   3.020   0.647  0.8071  0.3277 -0.4519
15679SOL    HW249993   8.915   2.896   0.704 -1.1087 -0.5148 -0.0324
15680SOL     OW49994   7.727   7.775   2.863 -0.9265 -0.0186  0.2784
15680SOL    HW149995   7.796   7.781   2.929 -0.6445  1.2925 -0.1152
15680SOL    HW249996   7.687   7.689   2.879 -0.5539  0.0534  1.8423
15681SOL     OW49997   3.459   2.389   9.390 -0.1926  0.2700 -0.1928
15681SOL    HW149998   3.432   2.330   9.320 -0.6921  0.0550  0.1743
15681SOL    HW249999   3.412   2.471   9.371  1.7474  1.1264 -1.6287
15682SOL     OW50000  10.127   7.810   5.181 -0.5249 -0.2013 -0.6014
15682SOL    HW150001  10.081   7.764   5.110 -2.9676 -0.5343  1.0636
15682SOL    HW250002  10.080   7.893   5.190  0.0901  0.0682  0.2779
15683SOL     OW50003   8.650   7.861   5.310 -0.1595  0.4863  0.2511
15683SOL    HW150004   8.660   7.766   5.319  0.2819  0.4276 -0.7061
15683SOL    HW250005   8.714   7.885   5.242 -1.7268  1.1558 -1.0598
15684SOL     OW50006   9.463   9.251   0.765 -0.7442  0.0902 -0.1526
15684SOL    HW150007   9.527   9.254   0.695 -0.5926  1.0545  0.0042
15684SOL    HW250008   9.497   9.311   0.831 -0.1849 -1.8313  1.3825
15685SOL     OW50009   8.132   0.223   2.523 -0.0404 -0.1431 -0.0577
15685SOL    HW150010   8.063   0.282   2.492  0.9136  1.3407  0.4909
15685SOL    HW250011   8.204   0.235   2.460  1.0661  1.1866  1.3598
15686SOL     OW50012   5.835   2.849   8.127 -0.6233 -0.5395 -0.2271
15686SOL    HW150013   5.824   2.822   8.218 -0.9921 -0.0643 -0.1283
15686SOL    HW250014   5.930   2.855   8.115 -0.5657 -0.8287  0.0551
15687SOL     OW50015   6.764   9.068   1.669 -0.5325 -0.7053 -0.4879
15687SOL    HW150016   6.844   9.065   1.617 -1.1187 -0.9281 -1.4012
15687SOL    HW250017   6.776   9.145   1.726  0.1125 -0.4418 -0.9605
15688SOL     OW50018   3.781  10.648   2.877 -0.0606 -0.1076 -0.0385
15688SOL    HW150019   3.849  10.702   2.916 -0.6797  0.9545 -0.4034
15688SOL    HW250020   3.708  10.653   2.940 -0.6606  0.7201 -0.7771
15689SOL     OW50021   2.672   4.637   5.828  0.1422  0.1085 -0.4836
15689SOL    HW150022   2.678   4.729   5.803  1.3552  0.2780  0.3243
15689SOL    HW250023   2.760   4.615   5.859 -0.5589 -0.8454  0.9292
15690SOL     OW50024  10.107   3.210   5.449  0.6810  0.5234 -0.0859
15690SOL    HW150025  10.012   3.222   5.445  1.0082  4.1027 -3.2694
15690SOL    HW250026  10.124   3.138   5.388  0.0802 -0.0481  0.3956
15691SOL     OW50027   0.237   1.381   0.334  0.0418  0.7220 -0.0396
15691SOL    HW150028   0.315   1.352   0.383 -0.4127  0.6001  0.6194
15691SOL    HW250029   0.238   1.476   0.343 -0.3413  0.6645  0.6817
15692SOL     OW50030   9.944   4.359   6.484  0.3649 -0.7029  0.1322
15692SOL    HW150031  10.020   4.397   6.440 -0.0259  0.1390  0.1616
15692SOL    HW250032   9.874   4.423   6.470 -0.2203 -1.2491  0.4957
15693SOL     OW50033  10.232   2.930   6.595 -0.1375  0.3862  0.4427
15693SOL    HW150034  10.320   2.957   6.621  0.3061  0.6475 -1.2060
15693SOL    HW250035  10.182   3.012   6.588 -0.7804  0.1840  2.1590
15694SOL     OW50036   6.594   2.907   5.821  0.1749 -0.5586  0.0545
15694SOL    HW150037   6.530   2.963   5.864 -1.0130 -1.9244  0.1324
15694SOL    HW250038   6.671   2.963   5.809 -1.4957  1.5913 -1.3841
15695SOL     OW50039   5.789   3.933   9.273 -0.0913 -0.1949  0.9400
15695SOL    HW150040   5.774   3.876   9.348 -0.8456 -0.7436  0.3857
15695SOL    HW250041   5.725   4.003   9.282 -1.0036 -0.9059  0.1888
15696SOL     OW50042   5.066   1.665   2.152 -0.1261 -0.5926  0.4726
15696SOL    HW150043   5.123   1.634   2.082  0.7581 -0.9077  1.3049
15696SOL    HW250044   5.118   1.654   2.232  0.4372  3.3502  0.8514
15697SOL     OW50045   7.135   3.819   2.193 -0.1196 -0.2138 -0.4846
15697SOL    HW150046   7.161   3.865   2.274 -0.6498 -1.1341  0.2278
15697SOL    HW250047   7.215   3.775   2.164  0.4786  1.3773 -1.3490
15698SOL     OW50048   6.953   0.286   6.587 -0.2587 -0.1247 -0.3502
15698SOL    HW150049   7.025   0.307   6.529 -0.4177  1.8474  0.1172
15698SOL    HW250050   6.877   0.277   6.529 -0.5723  2.5609 -0.4636
15699SOL     OW50051   3.550   3.068   8.206 -0.0096 -0.7068 -0.0624
15699SOL    HW150052   3.562   2.991   8.261 -0.5933 -0.5806  0.2515
15699SOL    HW250053   3.557   3.035   8.116 -1.2715 -1.3140  0.0413
15700SOL     OW50054   8.780   7.539  10.252  0.3161  0.1727 -0.5716
15700SOL    HW150055   8.761   7.457  10.297 -2.1788  0.4142 -1.0204
15700SOL    HW250056   8.777   7.606  10.321  1.3877  0.0126 -0.3590
15701SOL     OW50057   7.912   9.110   1.462 -0.2682  0.0026 -0.5150
15701SOL    HW150058   7.934   9.120   1.370  2.0638  0.5268  0.0328
15701SOL    HW250059   7.886   9.018   1.471  1.4937 -0.6240 -1.3557
15702SOL     OW50060  10.022   9.213   7.036  0.4277 -0.2457  0.3979
15702SOL    HW150061  10.050   9.302   7.057  1.1634 -0.5127  0.5948
15702SOL    HW250062   9.927   9.216   7.038  0.4325  0.6546 -0.0963
15703SOL     OW50063   9.722   3.166   7.626 -0.5277  0.5933  0.6452
15703SOL    HW150064   9.813   3.139   7.611 -0.7599  1.3104 -2.8291
15703SOL    HW250065   9.719   3.187   7.719  2.2033 -1.6992  1.4051
15704SOL     OW50066   0.404   8.984   4.316  0.5457 -0.4475  0.1701
15704SOL    HW150067   0.316   8.960   4.344  0.5230  1.6810  2.2357
15704SOL    HW250068   0.460   8.916   4.354  0.0838  0.1409  2.0358
15705SOL     OW50069   9.408   1.771   6.438  0.0542 -0.1617  0.0263
15705SOL    HW150070   9.362   1.853   6.424  0.3751  0.0873  0.4249
15705SOL    HW250071   9.479   1.793   6.498  0.9808 -0.4370 -0.9447
15706SOL     OW50072   1.704   8.266   5.513 -0.3496 -0.5281  0.2876
15706SOL    HW150073   1.743   8.352   5.502  1.2520 -1.3392 -0.7465
15706SOL    HW250074   1.620   8.271   5.468  1.1402 -0.4141 -2.6878
15707SOL     OW50075   2.839   5.554   1.953 -0.4091  0.5467 -0.5050
15707SOL    HW150076   2.917   5.583   2.001  0.7960 -1.7933 -0.9214
15707SOL    HW250077   2.838   5.609   1.874  0.5988  0.8883 -0.2973
15708SOL     OW50078   5.337   4.280   5.415 -0.1027 -0.0907  0.3859
15708SOL    HW150079   5.381   4.362   5.440 -2.1123  1.3313 -0.4150
15708SOL    HW250080   5.322   4.288   5.321 -0.6911 -1.2064  0.3649
15709SOL     OW50081   2.108   6.957   4.061  0.0986 -0.8872 -0.1836
15709SOL    HW150082   2.138   7.005   3.984  2.0304 -1.2397  0.3009
15709SOL    HW250083   2.056   6.885   4.025  1.0074 -1.0741 -1.1777
15710SOL     OW50084   9.613   9.732   0.503 -0.3412 -0.1339 -0.1769
15710SOL    HW150085   9.679   9.664   0.520 -0.0073  0.4947  1.1598
15710SOL    HW250086   9.642   9.773   0.421  1.3903  0.6117  0.7403
15711SOL     OW50087   0.727   3.857   0.540 -0.5702 -0.2812  0.4162
15711SOL    HW150088   0.773   3.934   0.508  0.4520 -1.2154 -0.4543
15711SOL    HW250089   0.786   3.820   0.607 -0.1066 -1.3728 -0.5585
15712SOL     OW50090   9.454   5.209   7.364 -0.1926 -0.4102 -0.1461
15712SOL    HW150091   9.388   5.161   7.314 -1.5400 -0.5787  1.6922
15712SOL    HW250092   9.505   5.141   7.409  0.0088 -0.2266 -0.0920
15713SOL     OW50093   5.900   6.431   6.297  0.1895 -1.0366 -0.2525
15713SOL    HW150094   5.879   6.469   6.382 -0.3484 -1.0715 -0.3597
15713SOL    HW250095   5.889   6.503   6.235  2.4089 -0.5165 -0.1085
15714SOL     OW50096   3.761   5.560   1.268 -0.0572 -0.1041  0.4533
15714SOL    HW150097   3.689   5.604   1.313 -0.3875 -1.8829  1.7397
15714SOL    HW250098   3.725   5.476   1.241  1.9188 -1.7484  2.5728
15715SOL     OW50099   0.717   4.478   7.539  0.6315  0.8192  0.3639
15715SOL    HW150100   0.706   4.392   7.498  2.6730  1.1780 -1.1327
15715SOL    HW250101   0.760   4.460   7.622  0.2693  0.3374  0.4497
15716SOL     OW50102   1.579   9.702   9.359 -0.5860  0.4003 -0.5136
15716SOL    HW150103   1.637   9.720   9.285 -2.0362  0.7088 -1.6039
15716SOL    HW250104   1.626   9.636   9.410  0.5505  0.3588 -1.5751
15717SOL     OW50105   4.589   9.211   7.390 -0.2850 -0.6078  0.0668
15717SOL    HW150106   4.637   9.245   7.315 -1.2948 -0.2719 -0.4450
15717SOL    HW250107   4.604   9.274   7.460  0.9656 -1.1114  0.2793
15718SOL     OW50108   9.348  10.246   7.355  0.4356  0.4551  0.1012
15718SOL    HW150109   9.372  10.170   7.409  0.7624  1.1922  1.0277
15718SOL    HW250110   9.336  10.210   7.267  2.5039 -0.3832  0.0872
15719SOL     OW50111   6.701   4.973   3.860  0.1976 -0.0749 -0.2392
15719SOL    HW150112   6.763   4.908   3.891  0.9125  0.6507 -0.1111
15719SOL    HW250113   6.735   5.056   3.893 -1.1219  0.2834  0.2590
15720SOL     OW50114   2.245   2.080   2.849 -0.0173  0.1041  0.1244
15720SOL    HW150115   2.219   2.148   2.786 -0.1186  1.1352  1.2549
15720SOL    HW250116   2.162   2.043   2.880 -0.0239  0.7068  0.8376
15721SOL     OW50117   2.974   9.877   4.387 -0.2844 -0.0089 -0.4662
15721SOL    HW150118   2.887   9.859   4.350  0.2804 -1.5698 -1.1460
15721SOL    HW250119   2.989   9.804   4.448  1.1610 -0.6419 -1.5310
15722SOL     OW50120   1.491   2.619   8.321  0.1162  0.5955 -0.4138
15722SOL    HW150121   1.494   2.556   8.248  0.5731  1.0459 -0.7941
15722SOL    HW250122   1.581   2.648   8.331  0.0479  0.5564  0.3239
15723SOL     OW50123   9.100   9.547  10.445 -0.1548  0.4670  0.7275
15723SOL    HW150124   9.171   9.529  10.383 -0.2036 -1.6458  1.1889
15723SOL    HW250125   9.036   9.597  10.395  1.1164  1.3683 -0.0468
15724SOL     OW50126  10.643   3.227   4.115  0.4190  0.1167  0.5902
15724SOL    HW150127  10.659   3.151   4.171 -0.6799 -0.1104  0.6065
15724SOL    HW250128  10.718   3.284   4.132  1.8878 -1.4303 -0.2743
15725SOL     OW50129   4.429   7.148   8.340  0.0239 -0.3009  0.0408
15725SOL    HW150130   4.351   7.106   8.304 -1.3731  2.2448 -0.1619
15725SOL    HW250131   4.429   7.123   8.433 -1.0001 -0.3897  0.0298
15726SOL     OW50132   9.806   6.304   6.128  0.0055  0.0193  0.4401
15726SOL    HW150133   9.751   6.229   6.107 -0.7133  0.3387  1.1398
15726SOL    HW250134   9.842   6.285   6.214 -0.2069  0.4892  0.6370
15727SOL     OW50135   8.387   4.532  10.409  0.3569 -0.3993 -0.6629
15727SOL    HW150136   8.313   4.513  10.467 -0.8323 -0.8865 -2.2452
15727SOL    HW250137   8.459   4.481  10.445 -0.3100 -0.6210  0.4206
15728SOL     OW50138   6.773   0.753   3.585  0.0411 -0.6716 -0.7716
15728SOL    HW150139   6.827   0.751   3.506  0.6114  1.0934 -0.4716
15728SOL    HW250140   6.684   0.764   3.552  0.3864  1.3043 -1.2093
15729SOL     OW50141   5.474   0.524   3.126 -0.0702  0.0120 -0.0299
15729SOL    HW150142   5.563   0.558   3.141 -0.7700  1.2433  1.6244
15729SOL    HW250143   5.486   0.456   3.060  2.4149 -1.3030  1.6133
15730SOL     OW50144   7.943  10.625   6.184 -0.1904 -0.0900 -0.2057
15730SOL    HW150145   7.958  10.538   6.222 -1.2048  0.0062  0.4417
15730SOL    HW250146   7.854  10.621   6.148 -0.0932  0.5570 -0.5388
15731SOL     OW50147   4.543   4.397   1.978 -0.0521  0.0564  0.0997
15731SOL    HW150148   4.587   4.361   1.901 -0.7828 -2.4635  0.7841
15731SOL    HW250149   4.451   4.378   1.964 -0.4637  1.5575  0.6124
15732SOL     OW50150   8.120   7.172   4.586 -0.5707  0.4621  0.2897
15732SOL    HW150151   8.083   7.172   4.498  0.5401 -1.0941 -0.2338
15732SOL    HW250152   8.209   7.205   4.575 -0.2581 -0.1929  0.7329
15733SOL     OW50153   5.083   8.380   1.247 -0.8539 -0.4497 -0.4591
15733SOL    HW150154   5.049   8.329   1.174 -0.5679 -0.5410 -0.5311
15733SOL    HW250155   5.059   8.470   1.227 -2.3601 -0.6737  0.2281
15734SOL     OW50156   9.066   4.625   3.206 -0.0237 -0.8402  0.6493
15734SOL    HW150157   9.042   4.708   3.164  0.8611 -0.7712  0.2673
15734SOL    HW250158   9.024   4.630   3.292 -0.2500 -0.1415  0.5105
15735SOL     OW50159   0.828   4.893   2.651  0.4663 -0.2227 -0.1020
15735SOL    HW150160   0.872   4.908   2.735 -0.3450 -0.4952  0.3827
15735SOL    HW250161   0.885   4.832   2.605  1.3014  0.5153 -0.0691
15736SOL     OW50162   0.539   5.190   9.990  0.2719 -0.3447 -0.4629
15736SOL    HW150163   0.487   5.149  10.059 -1.6958  0.8073 -1.1845
15736SOL    HW250164   0.543   5.283  10.014 -1.2051  0.2466 -2.2720
15737SOL     OW50165   9.806   1.235   0.955  0.1863 -0.5421 -0.4192
15737SOL    HW150166   9.837   1.306   0.899 -0.8030 -0.7612 -1.2758
15737SOL    HW250167   9.859   1.160   0.930 -1.1199 -0.9781 -2.0483
15738SOL     OW50168   7.034   4.591   5.301  0.1536  0.1872  0.0329
15738SOL    HW150169   7.070   4.645   5.230  0.6996  1.3972  1.1943
15738SOL    HW250170   7.038   4.502   5.267  0.0650  0.7677 -1.5960
15739SOL     OW50171   1.363   3.167   9.720 -0.0529 -0.0243 -0.0182
15739SOL    HW150172   1.433   3.149   9.782  0.5411  1.7340 -0.1299
15739SOL    HW250173   1.377   3.258   9.693 -1.3252 -0.1945 -1.4020
15740SOL     OW50174   3.628   5.518   0.445 -0.5299  0.8167  0.6715
15740SOL    HW150175   3.622   5.577   0.370  0.5809  0.1351  0.0149
15740SOL    HW250176   3.670   5.571   0.514 -0.9799  1.2560  0.6150
15741SOL     OW50177   3.482   7.305   2.585 -0.1680 -0.2035  0.4331
15741SOL    HW150178   3.500   7.215   2.613 -0.4093 -0.9631 -1.6725
15741SOL    HW250179   3.558   7.355   2.617  0.2512 -1.2420  1.1428
15742SOL     OW50180   3.411   9.011   5.959  0.4787  0.0813  0.1878
15742SOL    HW150181   3.320   9.023   5.987 -0.3151 -0.5263 -1.9467
15742SOL    HW250182   3.431   8.920   5.981  0.8687  0.4330  1.3641
15743SOL     OW50183   2.396  10.203   3.734 -0.1532  0.1746  0.4173
15743SOL    HW150184   2.404  10.242   3.820 -0.3552  0.9946  0.0757
15743SOL    HW250185   2.308  10.228   3.704 -0.9657 -1.9107  0.8334
15744SOL     OW50186   0.963   2.772   3.899 -0.7435 -0.0590 -0.0300
15744SOL    HW150187   0.951   2.857   3.940  1.6049  0.3360 -0.0049
15744SOL    HW250188   0.920   2.780   3.814  0.7849  1.7760 -0.7127
15745SOL     OW50189   2.093   0.643   4.246 -0.2326  0.5052  0.0181
15745SOL    HW150190   2.166   0.698   4.218 -1.0999  2.2720  1.0310
15745SOL    HW250191   2.051   0.694   4.315 -2.2919 -0.5544 -0.3963
15746SOL     OW50192   9.672   5.578   7.516  0.0544  0.0108  0.0897
15746SOL    HW150193   9.621   5.536   7.446  0.2208  0.2753 -0.1942
15746SOL    HW250194   9.641   5.669   7.517  0.6145  0.2055 -0.1746
15747SOL     OW50195   0.878   7.357  10.628 -0.0607 -0.3882 -0.0922
15747SOL    HW150196   0.957   7.401  10.599  0.5162 -1.2782  0.0865
15747SOL    HW250197   0.809   7.393  10.572  0.2107  1.3888  0.6568
15748SOL     OW50198   1.180   8.819   5.672 -0.4289  0.1302  0.5709
15748SOL    HW150199   1.223   8.848   5.753 -0.5191  1.2062  0.2414
15748SOL    HW250200   1.132   8.740   5.698  0.5398 -0.2474  1.2794
15749SOL     OW50201   5.919   1.310   3.416  0.1765  0.5301 -0.6294
15749SOL    HW150202   5.888   1.253   3.346 -0.1457 -0.8944  0.6308
15749SOL    HW250203   5.859   1.385   3.414  0.7146  0.9747 -2.4200
15750SOL     OW50204   6.449   4.390  10.029 -0.1814 -0.2994 -0.3665
15750SOL    HW150205   6.490   4.428   9.952 -1.3012 -0.3909 -1.0289
15750SOL    HW250206   6.447   4.296  10.012 -0.5617 -0.3066 -0.2986
15751SOL     OW50207   2.048   6.269  10.686  0.0560 -0.0133  0.3518
15751SOL    HW150208   2.138   6.272  10.653 -0.3832  1.4775 -0.8352
15751SOL    HW250209   2.013   6.356  10.667 -1.7181 -0.6449  0.5690
15752SOL     OW50210   4.344   2.733   6.596  0.6282 -0.0159 -0.4786
15752SOL    HW150211   4.306   2.819   6.614 -0.0135 -0.6927  1.7345
15752SOL    HW250212   4.291   2.698   6.525  0.3610  1.0788 -0.8378
15753SOL     OW50213   7.470   2.387   3.985  1.0498  0.0921 -0.1097
15753SOL    HW150214   7.410   2.326   3.942 -0.3207  0.4192  1.2598
15753SOL    HW250215   7.466   2.364   4.077 -0.3001  2.8257  0.6315
15754SOL     OW50216   4.174   7.253   9.324 -0.8370  0.2054  0.7506
15754SOL    HW150217   4.181   7.239   9.419 -2.0099  0.4526  0.8871
15754SOL    HW250218   4.103   7.317   9.315 -1.0569 -0.1831 -0.3259
15755SOL     OW50219   0.465   9.983   8.260 -0.1859 -0.7636 -0.3474
15755SOL    HW150220   0.388   9.963   8.312  0.5124 -0.9682  0.6435
15755SOL    HW250221   0.483   9.903   8.210 -0.9049 -0.5387 -0.9938
15756SOL     OW50222   2.228   3.807  10.513  0.1952  0.4964  0.4129
15756SOL    HW150223   2.184   3.744  10.570  0.0307  0.2286 -0.0031
15756SOL    HW250224   2.251   3.757  10.435  0.2958  0.8895  0.1869
15757SOL     OW50225   5.346   8.649   6.291 -0.0028  0.0243  0.4065
15757SOL    HW150226   5.255   8.646   6.262  0.5866 -3.5071 -1.7154
15757SOL    HW250227   5.349   8.590   6.366  0.9101 -2.6506 -1.5395
15758SOL     OW50228   1.808   5.413   7.076  0.0742  0.1548 -0.9113
15758SOL    HW150229   1.843   5.400   7.164  1.6678 -1.2195 -1.6791
15758SOL    HW250230   1.873   5.467   7.032 -1.0343  1.3869 -1.0853
15759SOL     OW50231   6.850   1.599   7.593 -0.2326  0.0277 -0.1168
15759SOL    HW150232   6.857   1.504   7.586  0.1444 -0.3846  3.6891
15759SOL    HW250233   6.911   1.633   7.528 -0.4411 -2.2806 -1.6229
15760SOL     OW50234   0.510   1.959   8.258  0.1062 -0.3856  0.1097
15760SOL    HW150235   0.470   1.881   8.221 -0.1907 -0.1515 -0.0768
15760SOL    HW250236   0.595   1.931   8.290  0.1860 -0.6863 -0.3663
15761SOL     OW50237   5.107  10.299   2.125 -0.0576  0.2874  0.0292
15761SOL    HW150238   5.187  10.346   2.104  0.2360 -1.0228 -1.9771
15761SOL    HW250239   5.131  10.241   2.198  0.2090  1.4123  0.8684
15762SOL     OW50240   2.886  10.509   2.080  0.1566  0.1492  0.5498
15762SOL    HW150241   2.858  10.581   2.135  1.5015  0.8777  0.3297
15762SOL    HW250242   2.915  10.441   2.141  2.3090  1.2184  0.8128
15763SOL     OW50243   8.642   2.437   0.298  0.7447 -0.2943  0.0314
15763SOL    HW150244   8.638   2.379   0.374  0.2446  0.5929  0.6861
15763SOL    HW250245   8.698   2.509   0.325  0.7964 -0.1091 -0.5479
15764SOL     OW50246   2.240   8.591   4.531 -0.4338 -0.3970 -0.3670
15764SOL    HW150247   2.215   8.558   4.618  1.0204 -2.3789 -0.6223
15764SOL    HW250248   2.292   8.669   4.549  0.3454 -1.1046  0.6366
15765SOL     OW50249   1.636   9.999   7.643 -0.1594  0.7253 -0.2086
15765SOL    HW150250   1.713   9.958   7.682  0.1637  0.1374 -1.4142
15765SOL    HW250251   1.583   9.925   7.612 -0.8650  1.1518 -0.0527
15766SOL     OW50252   5.555   1.962   1.502 -0.0887  0.7601  0.1905
15766SOL    HW150253   5.588   1.873   1.505 -1.6717  0.1659  2.2530
15766SOL    HW250254   5.483   1.960   1.439 -0.5436  0.3817  0.7061
15767SOL     OW50255   8.386   5.555   4.519 -0.2365  0.3926  0.2306
15767SOL    HW150256   8.429   5.634   4.487  0.4739 -0.0008  0.1901
15767SOL    HW250257   8.362   5.507   4.440  0.7309 -0.1625  0.2604
15768SOL     OW50258   9.798   1.819   9.626 -0.4152 -0.1626 -0.5039
15768SOL    HW150259   9.738   1.838   9.699  0.5039  2.1025 -0.2491
15768SOL    HW250260   9.782   1.726   9.606 -0.4337 -1.0354  2.8424
15769SOL     OW50261   7.232   9.961  10.075 -0.7538 -0.3470  0.2427
15769SOL    HW150262   7.171   9.924  10.011 -0.4075  0.9580 -0.8583
15769SOL    HW250263   7.300   9.894  10.085 -0.4628 -0.2889 -1.2494
15770SOL     OW50264   5.185   7.901  10.079 -0.2785 -0.1070 -0.2850
15770SOL    HW150265   5.245   7.975  10.076 -0.9588  0.4814  0.3534
15770SOL    HW250266   5.230   7.831  10.031  1.6108 -0.2136  1.5307
15771SOL     OW50267   8.977   0.670   3.575 -0.1769 -0.9645 -0.2169
15771SOL    HW150268   9.060   0.622   3.585  1.0569  1.1590  0.5836
15771SOL    HW250269   8.991   0.725   3.498 -1.4330 -1.6039 -0.9289
15772SOL     OW50270   4.113   1.016   8.909 -0.0776 -0.0486  0.0858
15772SOL    HW150271   4.132   0.972   8.826 -1.8698 -1.5690  0.4119
15772SOL    HW250272   4.101   0.945   8.972  1.2522  1.0698  1.7066
15773SOL     OW50273   5.289   0.565   0.479  0.0806 -1.2912  0.5019
15773SOL    HW150274   5.237   0.524   0.410  1.2999 -2.2832  0.1351
15773SOL    HW250275   5.237   0.641   0.506 -0.5024 -0.9487 -1.4133
15774SOL     OW50276   2.053   1.475   5.164  0.2189 -0.0244 -0.2101
15774SOL    HW150277   2.056   1.379   5.168  0.1331  0.0182  3.0059
15774SOL    HW250278   1.971   1.494   5.118  0.3566 -1.4491 -1.1211
15775SOL     OW50279   8.452   5.101   9.957  0.3631  0.4477  0.1652
15775SOL    HW150280   8.369   5.102   9.910 -0.1148 -0.4425  0.9714
15775SOL    HW250281   8.429   5.087  10.049  1.3224  1.5627  0.6097
15776SOL     OW50282  10.418   2.758   3.838  0.4831  0.0128  0.4123
15776SOL    HW150283  10.505   2.792   3.816 -0.5032  1.5517 -1.3350
15776SOL    HW250284  10.392   2.707   3.762 -0.7119  0.7300  0.3240
15777SOL     OW50285   2.634   2.096  10.027 -0.0171 -0.0166 -0.1099
15777SOL    HW150286   2.625   2.152  10.104  3.4794 -0.6941  0.9640
15777SOL    HW250287   2.565   2.030  10.037 -1.4924  1.5738  0.8155
15778SOL     OW50288   1.637   2.803   6.468 -0.0922  0.1488 -0.2999
15778SOL    HW150289   1.595   2.724   6.501  0.1039 -0.7040 -1.9659
15778SOL    HW250290   1.721   2.773   6.433 -0.2749  0.9724 -1.5102
15779SOL     OW50291   0.206   2.168   0.965  0.5203  0.6075 -0.4300
15779SOL    HW150292   0.160   2.169   1.049  0.5869 -1.3733 -0.3108
15779SOL    HW250293   0.298   2.180   0.988  0.4071  1.3431 -0.3505
15780SOL     OW50294  10.508   6.924   8.240 -0.6865 -0.2966 -0.5310
15780SOL    HW150295  10.478   6.938   8.330  0.1055 -1.4242 -0.0540
15780SOL    HW250296  10.428   6.912   8.189 -1.1402  0.1300  0.0703
15781SOL     OW50297   2.806   4.571   1.984 -0.3444  0.3126 -0.1209
15781SOL    HW150298   2.785   4.631   1.913 -1.8137  0.6013  0.5042
15781SOL    HW250299   2.723   4.560   2.031  0.9124  1.6687  2.7002
15782SOL     OW50300   4.431   4.487   3.024  0.1039  0.0710 -0.4208
15782SOL    HW150301   4.357   4.497   3.084  0.4724 -0.9993  0.2435
15782SOL    HW250302   4.445   4.574   2.988 -0.6309  0.5682  0.4658
15783SOL     OW50303   5.317   8.596   2.953  0.0639 -0.0964 -0.5216
15783SOL    HW150304   5.330   8.664   3.020 -0.4899 -0.2054 -0.2998
15783SOL    HW250305   5.242   8.625   2.903  1.1536  0.5578 -1.8454
15784SOL     OW50306   2.655   0.704  10.254 -1.1850  0.1917  0.3364
15784SOL    HW150307   2.710   0.762  10.201  0.1053  0.0922  1.4952
15784SOL    HW250308   2.601   0.763  10.307 -1.8301  0.2959 -0.4280
15785SOL     OW50309   2.165   3.428   1.491  0.0897 -0.0021 -0.1751
15785SOL    HW150310   2.159   3.521   1.515  0.5038  0.2882 -1.1769
15785SOL    HW250311   2.083   3.391   1.523  0.4721  0.4242  1.3954
15786SOL     OW50312   7.003   6.095   5.773  0.0731  0.0467  0.5895
15786SOL    HW150313   6.923   6.132   5.736  0.6743  0.1864 -0.6292
15786SOL    HW250314   7.043   6.047   5.700  0.8028 -0.5051  1.3366
15787SOL     OW50315   9.054   3.864   1.078  0.1313  0.2274 -0.0703
15787SOL    HW150316   8.972   3.830   1.114 -0.4484  0.6758 -0.9250
15787SOL    HW250317   9.082   3.929   1.142 -0.4516  0.4377 -0.0160
15788SOL     OW50318   4.149   7.658   8.662  0.2494  0.8067  0.8292
15788SOL    HW150319   4.093   7.679   8.738 -0.7116  1.7641 -0.1008
15788SOL    HW250320   4.088   7.631   8.594  0.9916  1.1283  0.0188
15789SOL     OW50321   5.163   9.980  10.591  0.3624  0.3238  0.1072
15789SOL    HW150322   5.231  10.018  10.646  0.2127  1.4160 -0.4342
15789SOL    HW250323   5.209   9.949  10.513  0.1902  1.6761 -0.5669
15790SOL     OW50324   7.843   3.490   0.295 -0.2647 -0.7253 -0.0022
15790SOL    HW150325   7.931   3.519   0.268  0.5729 -1.9178  1.2793
15790SOL    HW250326   7.796   3.477   0.213 -0.0349  2.1344 -0.6990
15791SOL     OW50327   3.676   5.754   3.133 -0.0378  0.2086  0.5149
15791SOL    HW150328   3.654   5.792   3.048 -0.3045  1.4075  1.1030
15791SOL    HW250329   3.642   5.665   3.129  0.4536  0.0622 -0.8415
15792SOL     OW50330   0.394   3.852   5.846 -0.2162 -0.3708  0.1504
15792SOL    HW150331   0.350   3.921   5.896 -0.7253 -1.9093  1.9639
15792SOL    HW250332   0.322   3.806   5.802  0.0913  0.0263 -0.7941
15793SOL     OW50333   1.440   2.492   5.198  0.0044 -0.2400  1.0379
15793SOL    HW150334   1.519   2.505   5.145  0.5828 -0.6421  1.7798
15793SOL    HW250335   1.374   2.547   5.157  0.1854 -1.2044 -0.6234
15794SOL     OW50336   2.727   7.841   4.335 -0.4490  0.1335  0.9343
15794SOL    HW150337   2.775   7.873   4.258  0.2315 -1.8302  0.5009
15794SOL    HW250338   2.762   7.892   4.408  0.7752  0.2276  0.3110
15795SOL     OW50339  10.240   3.565   3.998 -0.1455  0.0377 -0.0336
15795SOL    HW150340  10.213   3.605   4.081  1.2288  0.0357  0.4387
15795SOL    HW250341  10.316   3.512   4.021 -0.8337 -1.4264 -0.9797
15796SOL     OW50342   5.315   9.636   4.614 -0.7760 -0.1428  0.4552
15796SOL    HW150343   5.347   9.691   4.543 -1.0555 -0.0305  0.4149
15796SOL    HW250344   5.394   9.607   4.659 -0.6003 -0.1886  0.1179
15797SOL     OW50345   7.340   1.947   5.007  0.1891  0.3446 -1.1301
15797SOL    HW150346   7.332   1.942   4.912 -0.5267  0.4075 -1.0778
15797SOL    HW250347   7.305   1.864   5.038  0.6853  0.2066 -0.9310
15798SOL     OW50348   7.277   6.090   5.098 -0.1344  0.2173  0.3188
15798SOL    HW150349   7.327   6.171   5.090  1.5688 -0.8958 -1.1240
15798SOL    HW250350   7.223   6.087   5.020  0.5951 -0.4967 -0.1811
15799SOL     OW50351   0.679   6.978  10.240  0.0146 -0.2724  0.1173
15799SOL    HW150352   0.605   6.948  10.186  0.4814 -0.0251 -0.6875
15799SOL    HW250353   0.747   6.913  10.226  0.0080 -0.4168  0.7357
15800SOL     OW50354   3.413   0.543   9.634  0.1153  0.2757 -0.4455
15800SOL    HW150355   3.499   0.583   9.625  0.0507  0.5390  0.0563
15800SOL    HW250356   3.360   0.610   9.678 -0.3265  0.0956 -0.6987
15801SOL     OW50357   7.626   2.130   4.675 -0.0003  0.0631 -0.1156
15801SOL    HW150358   7.701   2.185   4.698 -0.9887  1.3640  0.1695
15801SOL    HW250359   7.640   2.048   4.722  1.0563  0.4210  0.2190
15802SOL     OW50360   1.915  10.537   3.033  0.0456 -0.4148  0.3197
15802SOL    HW150361   1.933  10.621   2.989  2.1089 -1.7490 -1.5900
15802SOL    HW250362   1.820  10.526   3.024 -0.1373  1.2438 -0.2352
15803SOL     OW50363   6.564   1.519   1.456 -0.5377 -0.2150  0.4979
15803SOL    HW150364   6.567   1.610   1.425 -0.0904 -0.2611  0.3979
15803SOL    HW250365   6.613   1.520   1.539  1.4021 -0.7747 -0.5837
15804SOL     OW50366   5.613   4.300   2.199  0.4917 -0.1278  0.2145
15804SOL    HW150367   5.691   4.258   2.162 -0.8072 -1.3886 -1.1646
15804SOL    HW250368   5.553   4.228   2.218 -0.0682  0.7583  2.0071
15805SOL     OW50369   1.880   0.995   5.850  0.1525 -0.7039  0.3071
15805SOL    HW150370   1.972   0.971   5.853  0.0358 -1.0795  1.3016
15805SOL    HW250371   1.840   0.949   5.924 -0.3442  1.3724  1.4349
15806SOL     OW50372   2.707   6.445   5.171  0.5042  0.0104  0.2930
15806SOL    HW150373   2.722   6.539   5.167  0.2447  0.1684  2.1047
15806SOL    HW250374   2.794   6.406   5.164  0.8560  0.5020  1.6069
15807SOL     OW50375   7.676   8.470   7.758 -0.7499  0.0177  0.1129
15807SOL    HW150376   7.741   8.411   7.797 -0.9962  0.3936  1.1343
15807SOL    HW250377   7.728   8.539   7.716 -0.4676  0.4455  1.1277
15808SOL     OW50378   3.375   8.275   8.177 -0.0025 -0.1665 -0.5902
15808SOL    HW150379   3.348   8.272   8.085 -0.1242  0.2579 -0.5712
15808SOL    HW250380   3.303   8.320   8.222  0.6905  0.9361 -0.5281
15809SOL     OW50381   6.390   3.114   2.132  0.6442  0.0369 -0.2870
15809SOL    HW150382   6.429   3.163   2.205  1.4321  0.8788 -1.2300
15809SOL    HW250383   6.298   3.106   2.154  0.5672  1.6337  0.1084
15810SOL     OW50384   9.474   8.237   2.913 -0.2408 -0.2355  0.3860
15810SOL    HW150385   9.406   8.276   2.967 -0.0915  0.9320 -0.2258
15810SOL    HW250386   9.430   8.165   2.867 -1.7165  1.8400 -1.6670
15811SOL     OW50387   6.772   2.642   4.773  0.1329  0.1758  0.2295
15811SOL    HW150388   6.806   2.657   4.861 -0.4365 -0.3082  0.5341
15811SOL    HW250389   6.751   2.730   4.741  1.3059  0.4472  0.1746
15812SOL     OW50390   2.965   5.303   5.554 -0.3875 -0.2501  0.0534
15812SOL    HW150391   3.049   5.303   5.601 -0.5700 -0.5046  0.3869
15812SOL    HW250392   2.989   5.294   5.462  0.0652  1.9699 -0.0846
15813SOL     OW50393   8.120   6.944   1.756  0.2156  0.1191 -0.0280
15813SOL    HW150394   8.029   6.939   1.728  0.2364 -0.1568 -0.0533
15813SOL    HW250395   8.142   7.037   1.751 -0.6535  0.4708  1.8557
15814SOL     OW50396   7.942   9.351   4.548  0.3398  0.3577  0.3532
15814SOL    HW150397   8.029   9.389   4.543  0.1717  1.1117  2.2318
15814SOL    HW250398   7.931   9.328   4.640 -2.1141  2.0172  0.5849
15815SOL     OW50399   3.213   1.774   8.872 -0.6215 -0.6257 -0.3775
15815SOL    HW150400   3.264   1.792   8.793 -0.7813  1.7321 -0.0042
15815SOL    HW250401   3.278   1.755   8.939 -0.2900  0.6071 -0.3292
15816SOL     OW50402   0.583   2.698   6.155  0.1239  0.1828 -0.0233
15816SOL    HW150403   0.516   2.711   6.223 -0.2048 -0.2283 -0.2570
15816SOL    HW250404   0.652   2.649   6.200 -0.3460 -0.5862 -0.1198
15817SOL     OW50405   9.355   2.789   6.077  0.4922  0.4565  0.3281
15817SOL    HW150406   9.377   2.696   6.079  1.4113  0.6677  2.7586
15817SOL    HW250407   9.378   2.817   5.988  2.0148 -1.2306  0.1416
15818SOL     OW50408   5.874   7.877   8.385 -0.1473 -0.5914 -0.1313
15818SOL    HW150409   5.918   7.957   8.357  0.5846 -1.0504 -0.3105
15818SOL    HW250410   5.945   7.818   8.412 -0.6503 -1.3192 -0.3544
15819SOL     OW50411   2.665   0.359   2.083  0.1243 -0.2869 -0.0261
15819SOL    HW150412   2.669   0.382   1.990 -1.7699 -1.7905 -0.5582
15819SOL    HW250413   2.585   0.401   2.115  0.1151 -0.7687  0.6186
15820SOL     OW50414   9.051   1.541   3.615  0.0222  0.6918 -0.3737
15820SOL    HW150415   9.121   1.606   3.618  0.6359  0.0225  0.9809
15820SOL    HW250416   9.095   1.458   3.634 -0.5348 -0.3528 -3.2054
15821SOL     OW50417   6.234   3.361   0.039  0.1232  0.0223  0.7500
15821SOL    HW150418   6.145   3.325   0.046  0.7018 -1.5781  0.2940
15821SOL    HW250419   6.220   3.455   0.028 -1.5340 -0.2104  0.5017
15822SOL     OW50420   5.073   4.581  10.619 -0.6344  0.0417 -0.2882
15822SOL    HW150421   5.076   4.505  10.560 -0.2781  0.2673 -0.5604
15822SOL    HW250422   5.039   4.652  10.564  0.3408  0.4231 -0.4123
15823SOL     OW50423   2.776   3.723   8.840 -0.0434 -0.2476 -0.2473
15823SOL    HW150424   2.758   3.672   8.761  3.9408 -0.7816 -1.0250
15823SOL    HW250425   2.872   3.720   8.849  0.2056  4.4718  1.4458
15824SOL     OW50426   9.203   9.560   4.024  0.0826  0.0502 -0.7360
15824SOL    HW150427   9.182   9.651   4.043 -0.9696 -0.1802 -0.7286
15824SOL    HW250428   9.119   9.518   4.008  0.4601 -1.1364  0.1843
15825SOL     OW50429   0.392   4.762   9.292  0.2529  0.4697  0.1673
15825SOL    HW150430   0.360   4.760   9.202 -0.1755 -0.1852  0.3278
15825SOL    HW250431   0.375   4.852   9.322 -0.5797  0.3875 -0.0526
15826SOL     OW50432   3.429   0.527   8.573 -0.5660 -0.2739 -0.1660
15826SOL    HW150433   3.398   0.610   8.535 -0.5705 -0.0039  0.4218
15826SOL    HW250434   3.438   0.469   8.498  1.0329  0.7532 -0.8252
15827SOL     OW50435   8.598   6.075   9.169 -0.0233  0.2398 -0.0165
15827SOL    HW150436   8.591   6.119   9.084 -1.9853 -0.3027 -0.1772
15827SOL    HW250437   8.591   6.146   9.233  1.1085  0.6070 -0.2671
15828SOL     OW50438   5.810   8.925   7.886  0.0920 -0.1266 -0.3542
15828SOL    HW150439   5.724   8.898   7.856  0.9856 -1.4316 -1.9253
15828SOL    HW250440   5.870   8.858   7.851  1.5864 -0.0777  1.9182
15829SOL     OW50441   3.040   4.101   3.455 -0.0050  0.6620  0.7949
15829SOL    HW150442   2.968   4.038   3.467 -0.3792  1.1981  1.3807
15829SOL    HW250443   3.110   4.067   3.510  0.1600  0.1968  0.3073
15830SOL     OW50444   6.871   8.590   4.984 -0.1908  0.0180  0.0787
15830SOL    HW150445   6.821   8.530   5.039  0.3938  0.0225  0.6317
15830SOL    HW250446   6.908   8.654   5.045  0.6457 -0.1073 -0.2812
15831SOL     OW50447   2.343   6.919   0.084 -0.3306 -0.6451 -0.0821
15831SOL    HW150448   2.259   6.965   0.089 -1.6267 -2.9500  0.7155
15831SOL    HW250449   2.387   6.940   0.167 -1.6641 -2.0721  1.0650
15832SOL     OW50450   3.610   4.796   5.858 -0.1549 -0.1855 -0.1111
15832SOL    HW150451   3.686   4.793   5.916 -0.8093 -0.8303  0.7477
15832SOL    HW250452   3.536   4.811   5.917 -0.8569 -0.9990 -0.7622
15833SOL     OW50453   4.039   9.140   4.825 -0.5430 -0.4066 -0.1546
15833SOL    HW150454   4.028   9.054   4.785 -3.1535 -1.0540  1.6891
15833SOL    HW250455   4.091   9.125   4.904 -0.8819 -0.2977  0.0959
15834SOL     OW50456   2.439  10.355   0.914  0.8242  0.4530  0.2389
15834SOL    HW150457   2.501  10.323   0.848  0.2755  3.2070 -1.8123
15834SOL    HW250458   2.367  10.293   0.912  1.5403 -0.3875 -0.5951
15835SOL     OW50459   3.180   0.186   9.064 -0.2260 -0.8731 -0.0042
15835SOL    HW150460   3.147   0.124   8.998  0.6851 -1.9116  0.4840
15835SOL    HW250461   3.106   0.200   9.123 -1.2308  0.4854 -1.5099
15836SOL     OW50462   7.479   8.648   7.572  0.1594 -0.0813  0.0962
15836SOL    HW150463   7.464   8.653   7.478  0.4885  3.5851  0.1159
15836SOL    HW250464   7.559   8.596   7.582  1.0839  0.8939 -1.8052
15837SOL     OW50465   6.409   2.959   7.850  0.1617 -0.0455  0.1372
15837SOL    HW150466   6.385   2.963   7.943 -0.8127 -2.2179  0.0426
15837SOL    HW250467   6.368   2.878   7.818  2.1395 -0.4054 -1.7092
15838SOL     OW50468   2.575  10.332   5.085 -0.3739  0.3030  0.0253
15838SOL    HW150469   2.651  10.327   5.028 -0.6905  1.8248 -0.5790
15838SOL    HW250470   2.538  10.244   5.084  0.1844  0.0581 -1.3514
15839SOL     OW50471   4.806   4.582   7.125  0.1082  0.8268 -0.0099
15839SOL    HW150472   4.758   4.609   7.204  0.7117 -0.2364  0.7569
15839SOL    HW250473   4.798   4.486   7.124 -0.6627  0.8748 -1.7667
15840SOL     OW50474   4.758   4.562   6.269 -0.0708  0.2914  0.1018
15840SOL    HW150475   4.737   4.566   6.362 -0.2962 -1.5688  0.1755
15840SOL    HW250476   4.675   4.546   6.226  0.2319 -0.3621 -0.2580
15841SOL     OW50477   7.945   4.120   3.536  0.6045  0.2211 -0.4025
15841SOL    HW150478   8.014   4.061   3.505 -0.1511 -0.4847 -0.7868
15841SOL    HW250479   7.914   4.165   3.458  0.5386  0.4307 -0.2572
15842SOL     OW50480   2.846   9.386   2.996  0.2485 -0.9606 -0.0242
15842SOL    HW150481   2.761   9.344   3.003  1.1552 -2.8187  0.5350
15842SOL    HW250482   2.868   9.383   2.903  0.0875 -1.2796 -0.0503
15843SOL     OW50483   4.325   6.941   7.205  0.1335 -0.0297 -0.3898
15843SOL    HW150484   4.288   6.866   7.158  1.2113 -1.4475  0.9402
15843SOL    HW250485   4.257   6.966   7.268  0.8688 -1.8727  1.2311
15844SOL     OW50486   5.636   7.084   2.346 -0.1633  0.3677  0.0120
15844SOL    HW150487   5.658   7.033   2.424  1.2224 -1.0072 -1.2006
15844SOL    HW250488   5.540   7.090   2.347 -0.1623  0.5431  1.8759
15845SOL     OW50489   8.488   3.839   8.194  0.2615  0.1842  0.4903
15845SOL    HW150490   8.467   3.753   8.157 -0.4302  0.1410  0.9598
15845SOL    HW250491   8.583   3.840   8.200  0.2296 -1.1045  1.7437
15846SOL     OW50492   5.013   9.902   0.275  0.0322  0.5201 -0.2597
15846SOL    HW150493   5.077   9.910   0.345 -0.1464  1.2163 -0.1689
15846SOL    HW250494   4.965   9.823   0.295  0.0478  0.6654  0.3526
15847SOL     OW50495   5.472   9.371   8.524  0.5674 -0.3577 -0.6639
15847SOL    HW150496   5.541   9.413   8.576 -0.3974 -0.1310  0.4614
15847SOL    HW250497   5.463   9.284   8.563 -1.3920  0.4254  0.7700
15848SOL     OW50498   5.054   6.240   3.131  0.7141 -0.0307 -0.9175
15848SOL    HW150499   5.084   6.172   3.192  0.9079  0.8914  0.0318
15848SOL    HW250500   5.132   6.266   3.083  0.5777 -0.6963 -1.5183
15849SOL     OW50501   1.885   2.350   3.059 -0.1590  0.1148 -0.9222
15849SOL    HW150502   1.934   2.349   2.977  0.3288 -0.8853 -0.6271
15849SOL    HW250503   1.831   2.271   3.056 -0.4521  0.2918 -0.4611
15850SOL     OW50504   0.306   2.826   4.914 -0.2510  0.1870 -0.6197
15850SOL    HW150505   0.232   2.851   4.970 -0.3672  0.4232 -0.8760
15850SOL    HW250506   0.275   2.749   4.866 -0.1425 -0.0305 -0.3421
15851SOL     OW50507   6.456   7.092  10.578  0.3863 -0.4565 -0.5452
15851SOL    HW150508   6.465   7.128  10.490 -1.7776 -0.8112 -0.9727
15851SOL    HW250509   6.434   6.999  10.564 -0.1538 -0.4807  0.3509
15852SOL     OW50510   1.594   0.298  10.260 -0.0122 -0.2987  0.1599
15852SOL    HW150511   1.499   0.294  10.252 -0.2541  2.0132  1.1324
15852SOL    HW250512   1.612   0.263  10.347  0.0743 -0.9656 -0.1192
15853SOL     OW50513   1.611   1.622  10.257 -0.1087 -0.1025  0.4278
15853SOL    HW150514   1.697   1.656  10.232 -0.5437 -0.2762 -1.3898
15853SOL    HW250515   1.631   1.550  10.317  1.0149 -0.2028 -0.0358
15854SOL     OW50516   3.556   7.824   4.452  0.1861  0.1920  0.1837
15854SOL    HW150517   3.520   7.901   4.408  1.1594  0.4830 -0.1329
15854SOL    HW250518   3.523   7.750   4.402  3.1049  0.5524 -2.6032
15855SOL     OW50519   2.998   2.451   4.374  0.4585 -0.1190 -0.3553
15855SOL    HW150520   2.906   2.445   4.347  0.5836  2.1987 -1.6087
15855SOL    HW250521   2.994   2.466   4.468 -0.2549 -3.0504  0.1742
15856SOL     OW50522   2.737  10.331   7.820 -0.0712 -0.1225 -0.2062
15856SOL    HW150523   2.691  10.249   7.803 -0.9953  0.4972 -0.7984
15856SOL    HW250524   2.794  10.343   7.744  2.0013 -1.4442  1.0195
15857SOL     OW50525   0.232   2.061   2.992  0.3214  0.5445 -0.0825
15857SOL    HW150526   0.244   1.977   2.947  2.8644  0.3068  0.8757
15857SOL    HW250527   0.298   2.118   2.953  0.9861  1.0203  1.6866
15858SOL     OW50528   1.597   8.932   9.151  0.4231  0.0967  0.0777
15858SOL    HW150529   1.560   9.018   9.169  0.4840  0.3958 -1.1247
15858SOL    HW250530   1.559   8.907   9.067  1.4914 -0.4297 -0.2617
15859SOL     OW50531  10.451   2.472   3.840  0.0802  0.2064 -0.2695
15859SOL    HW150532  10.391   2.456   3.913  0.4370 -2.7274 -0.5235
15859SOL    HW250533  10.483   2.561   3.855 -2.6239  1.0806  1.0665
15860SOL     OW50534   8.357   0.283   0.528  0.0048  0.4038 -0.0042
15860SOL    HW150535   8.412   0.207   0.545 -2.6133 -1.9798 -1.3510
15860SOL    HW250536   8.330   0.313   0.614  0.4490 -0.7062  0.5428
15861SOL     OW50537   0.185   1.411   2.115  0.0847  0.0355 -0.4745
15861SOL    HW150538   0.159   1.418   2.023  0.8811  1.7814 -0.5989
15861SOL    HW250539   0.102   1.404   2.163 -0.3202 -1.4574 -1.3380
15862SOL     OW50540   2.312   0.758   3.915  0.1604 -0.3855 -0.2963
15862SOL    HW150541   2.406   0.739   3.922  0.1235 -0.3835  0.2591
15862SOL    HW250542   2.270   0.678   3.946 -0.0285 -0.4685 -0.7564
15863SOL     OW50543   7.013   9.242   5.048  0.2417  0.3013  0.0767
15863SOL    HW150544   6.952   9.295   5.100 -0.0929 -1.2449  1.3353
15863SOL    HW250545   7.094   9.241   5.098  0.8899  1.2088 -0.9134
15864SOL     OW50546   8.864   7.904   8.181  0.3135  0.0558  0.3993
15864SOL    HW150547   8.851   7.989   8.223 -0.2294 -0.3275  1.0381
15864SOL    HW250548   8.886   7.845   8.253  0.9354 -0.2986 -0.0699
15865SOL     OW50549   1.832   0.531   7.381 -0.2547 -0.0333  0.2097
15865SOL    HW150550   1.839   0.589   7.457 -2.9394 -0.3144  0.7701
15865SOL    HW250551   1.843   0.589   7.306 -0.8026  0.8584  0.7962
15866SOL     OW50552   9.241   8.669   1.751  0.0317 -0.2481  0.2186
15866SOL    HW150553   9.321   8.616   1.761  0.3313  0.4357  1.7651
15866SOL    HW250554   9.171   8.613   1.784  0.3310  0.2335  1.7370
15867SOL     OW50555   6.960   5.925   7.400  0.0309 -0.0729  0.1798
15867SOL    HW150556   6.898   5.918   7.473 -1.4802  4.5392 -0.2998
15867SOL    HW250557   7.034   5.973   7.437 -0.2044  1.2017 -0.9169
15868SOL     OW50558   3.224   6.114   2.095 -0.6353  0.4913 -0.1920
15868SOL    HW150559   3.139   6.085   2.064  0.0325 -1.1997 -0.5646
15868SOL    HW250560   3.232   6.204   2.063 -1.6079  0.1262 -1.5403
15869SOL     OW50561   5.159   9.389   9.564  0.1553 -0.0804  0.1604
15869SOL    HW150562   5.085   9.408   9.506  1.0257  0.0773 -0.9443
15869SOL    HW250563   5.123   9.331   9.631 -1.1792  0.7603  0.2045
15870SOL     OW50564   7.803   4.748   8.795 -0.1860  0.0620 -0.0503
15870SOL    HW150565   7.814   4.721   8.703 -0.4620  0.4411 -0.2003
15870SOL    HW250566   7.891   4.747   8.831  0.0850  0.9449 -0.6251
15871SOL     OW50567   5.556   0.127   5.189 -0.0354  0.0291  0.3046
15871SOL    HW150568   5.614   0.150   5.117  0.5945  0.2488  0.8749
15871SOL    HW250569   5.573   0.034   5.204  1.1834  0.3903  1.3509
15872SOL     OW50570   0.241   5.052   1.873  0.1536  0.1036 -0.0616
15872SOL    HW150571   0.268   5.084   1.787  1.1481 -1.7891 -0.4938
15872SOL    HW250572   0.258   5.126   1.932 -0.5220  1.4257 -1.4419
15873SOL     OW50573   0.228   8.518   8.971 -0.1293 -0.7947 -0.0500
15873SOL    HW150574   0.255   8.551   8.885  0.1295  0.3824  0.4682
15873SOL    HW250575   0.134   8.504   8.963 -0.4930  1.3160  0.0752
15874SOL     OW50576   8.384   5.566   3.542  0.6498  0.1072 -0.3672
15874SOL    HW150577   8.302   5.564   3.494  0.2574  0.4435  0.2733
15874SOL    HW250578   8.359   5.551   3.634  1.2564  0.5465 -0.1217
15875SOL     OW50579   7.731   6.229   7.049 -0.1619 -0.5020 -0.6264
15875SOL    HW150580   7.639   6.245   7.029  0.5702  2.4142 -2.0828
15875SOL    HW250581   7.749   6.143   7.011 -1.9191 -0.4913 -1.5889
15876SOL     OW50582  10.624   7.307   6.030 -0.2819 -0.1159 -0.2644
15876SOL    HW150583  10.644   7.331   5.940  0.0434  1.4360  0.1873
15876SOL    HW250584  10.706   7.269   6.064 -0.0799  0.2550 -0.3298
15877SOL     OW50585   6.303   8.584   8.066 -0.3245 -0.3899 -0.1932
15877SOL    HW150586   6.214   8.617   8.080  0.2706  0.9409  0.6212
15877SOL    HW250587   6.304   8.557   7.974 -1.7174 -0.9416 -0.0726
15878SOL     OW50588   0.184   7.512   2.729  0.1854  0.1076 -0.3088
15878SOL    HW150589   0.278   7.523   2.743  0.5512 -1.0174 -1.6587
15878SOL    HW250590   0.150   7.488   2.816  1.4121 -0.9744 -0.0908
15879SOL     OW50591   1.652   1.935   2.612  0.0672  0.5117  0.6135
15879SOL    HW150592   1.603   1.889   2.543  0.7191  0.5496  0.1175
15879SOL    HW250593   1.679   1.865   2.671  0.7742  0.2867  0.0353
15880SOL     OW50594   7.649   8.015  10.621  0.1948 -0.4220  0.2079
15880SOL    HW150595   7.698   8.091  10.588  1.0645 -0.2685  1.7522
15880SOL    HW250596   7.579   8.052  10.674 -0.0207 -0.6819  0.1064
15881SOL     OW50597   4.007   5.906   3.967  0.1442 -0.3696 -0.0982
15881SOL    HW150598   3.975   5.996   3.970  0.3567 -0.3094  1.5215
15881SOL    HW250599   3.929   5.852   3.977 -0.3777 -0.5343 -3.8894
15882SOL     OW50600   3.804   5.397   5.682  0.3807  0.1228  0.2080
15882SOL    HW150601   3.888   5.388   5.636  0.8404 -0.1887  1.0816
15882SOL    HW250602   3.747   5.334   5.640  1.0022 -0.6547  0.5070
15883SOL     OW50603   8.391   0.056   2.998  0.0660 -0.5967  0.3265
15883SOL    HW150604   8.356   0.089   3.081 -0.1754 -2.7233  1.1233
15883SOL    HW250605   8.417  -0.034   3.017  0.3211 -1.0240 -1.8406
15884SOL     OW50606   5.690   1.278   2.994  1.0345 -0.1655  0.2207
15884SOL    HW150607   5.748   1.301   2.921 -0.3725  0.0588 -0.8727
15884SOL    HW250608   5.659   1.362   3.027 -0.9378 -0.2880 -1.1411
15885SOL     OW50609   6.163   4.606   6.728 -0.2342  0.0280 -0.3892
15885SOL    HW150610   6.138   4.545   6.658  0.3121 -0.4337 -0.2001
15885SOL    HW250611   6.095   4.673   6.728 -2.1298 -1.7667  0.8828
15886SOL     OW50612   6.609   8.147   3.724  0.3417 -0.8291 -0.1606
15886SOL    HW150613   6.572   8.234   3.710  0.6141 -0.6033  0.4897
15886SOL    HW250614   6.606   8.106   3.637  0.4039 -0.0966 -0.5195
15887SOL     OW50615   9.701   1.284   2.519 -0.1919 -0.2783 -0.4615
15887SOL    HW150616   9.779   1.253   2.472 -1.0635 -0.6500 -1.7320
15887SOL    HW250617   9.664   1.351   2.462  0.8142  2.1493  1.5403
15888SOL     OW50618   8.686   9.096   8.242  0.2723 -0.0298 -0.4697
15888SOL    HW150619   8.757   9.088   8.179 -2.3814 -1.2021 -3.6466
15888SOL    HW250620   8.674   9.190   8.254  0.8750  0.2316 -1.7541
15889SOL     OW50621   8.809   2.136   8.212 -0.6476  0.2500  0.6150
15889SOL    HW150622   8.776   2.226   8.220  0.7571  0.9957 -1.2767
15889SOL    HW250623   8.736   2.087   8.176 -0.9646  0.9806  0.2368
15890SOL     OW50624   0.607   5.176   6.334 -0.1524  0.5628  0.6179
15890SOL    HW150625   0.676   5.240   6.354  0.2309  0.6239 -0.8151
15890SOL    HW250626   0.654   5.095   6.317 -0.5049  0.3804  0.5224
15891SOL     OW50627   1.978   8.956   9.705 -0.7276  0.0304  0.1899
15891SOL    HW150628   2.066   8.958   9.741 -0.7833 -0.9836  0.4272
15891SOL    HW250629   1.971   9.035   9.652 -0.0542  0.6849  1.0435
15892SOL     OW50630   9.564   4.490   4.470  0.4332 -0.4454  0.0994
15892SOL    HW150631   9.555   4.438   4.390  1.4758  1.6382 -1.4696
15892SOL    HW250632   9.638   4.449   4.517 -0.1435 -1.6383 -0.0049
15893SOL     OW50633   3.614   5.537   0.902  0.1564  0.3400 -0.2819
15893SOL    HW150634   3.560   5.496   0.835  0.0754 -1.4299  0.8042
15893SOL    HW250635   3.560   5.609   0.936 -0.3970  0.2981 -1.0479
15894SOL     OW50636   3.342   3.118  10.024  0.4321  0.2198  0.7611
15894SOL    HW150637   3.421   3.063  10.021  1.0601  1.1119  0.5213
15894SOL    HW250638   3.325   3.129  10.118 -0.3703 -1.2852  0.8278
15895SOL     OW50639   5.030   4.845   0.277  0.2717  0.5318 -0.4220
15895SOL    HW150640   4.972   4.826   0.350 -1.0368  0.9348 -1.3062
15895SOL    HW250641   5.116   4.857   0.316 -0.6423  2.1726  1.2365
15896SOL     OW50642   5.236   4.321   0.006  0.3479 -0.8095 -0.0025
15896SOL    HW150643   5.205   4.362  -0.074  0.0487  0.0405  0.5287
15896SOL    HW250644   5.314   4.273  -0.020  1.2952  0.9142 -0.4880
15897SOL     OW50645   2.540   4.251   1.503 -0.6964  0.1912  0.0868
15897SOL    HW150646   2.541   4.281   1.594 -0.1083 -0.5308  0.3375
15897SOL    HW250647   2.581   4.321   1.453 -0.1175  0.1752  0.5328
15898SOL     OW50648   5.991   4.007   7.416  0.3939  0.3736 -0.0227
15898SOL    HW150649   5.957   4.076   7.358  1.6716  0.8247 -0.2634
15898SOL    HW250650   5.913   3.958   7.442 -0.1896 -0.3452 -2.7548
15899SOL     OW50651   3.073   6.020   9.775 -1.0093  0.2580 -0.2476
15899SOL    HW150652   3.079   5.971   9.857  1.2377 -0.2544 -0.6448
15899SOL    HW250653   3.071   6.112   9.802 -0.9839  0.0724  0.3980
15900SOL     OW50654   9.170   8.166   9.708 -0.0732 -0.1919 -0.0770
15900SOL    HW150655   9.166   8.213   9.625 -1.3778  0.5440  0.3700
15900SOL    HW250656   9.174   8.073   9.684  0.0752  0.0383 -0.9490
15901SOL     OW50657   0.814   3.661   2.244  0.0555 -0.3450  0.1906
15901SOL    HW150658   0.907   3.637   2.246  0.2904  0.5404  0.4420
15901SOL    HW250659   0.794   3.684   2.335 -0.1204  0.4947 -0.0497
15902SOL     OW50660   0.397   1.902   2.324  0.2348  0.2156  0.0057
15902SOL    HW150661   0.317   1.902   2.376 -0.1852  0.2517 -0.6346
15902SOL    HW250662   0.455   1.841   2.370 -0.1837  0.1299  0.4275
15903SOL     OW50663   2.272  10.634   8.094  0.9421  0.2837  0.0814
15903SOL    HW150664   2.243  10.555   8.048  0.4955  0.6006 -0.1954
15903SOL    HW250665   2.282  10.607   8.185 -0.9885  0.3217  0.3515
15904SOL     OW50666   2.578   7.717   9.877  0.3451 -0.1926  0.0924
15904SOL    HW150667   2.544   7.693   9.963 -0.4273 -2.0245 -0.6733
15904SOL    HW250668   2.626   7.639   9.847 -1.0681 -0.3650 -1.9295
15905SOL     OW50669   0.625   4.182   8.142  0.4455  0.1291 -0.0960
15905SOL    HW150670   0.586   4.231   8.070 -0.1455 -1.9168 -1.2576
15905SOL    HW250671   0.629   4.092   8.110 -0.6638 -1.0489  2.7656
15906SOL     OW50672   0.907   5.381   2.874 -0.9717  0.9603  0.1419
15906SOL    HW150673   0.941   5.296   2.903  1.0675  2.3678  2.1702
15906SOL    HW250674   0.817   5.383   2.907 -1.4349 -0.7622 -0.8375
15907SOL     OW50675   8.979   2.741   4.089  0.2069 -0.4434 -0.0362
15907SOL    HW150676   8.960   2.807   4.156  2.2925  0.2394 -0.0475
15907SOL    HW250677   8.918   2.670   4.108 -0.2352  0.3378  1.7130
15908SOL     OW50678   3.620   2.668   0.158  0.1621  0.1451  0.0071
15908SOL    HW150679   3.596   2.575   0.154  0.5356  0.0820 -1.4431
15908SOL    HW250680   3.536   2.714   0.160 -0.0251 -0.2094  0.5116
15909SOL     OW50681   8.736   6.655   4.153 -0.1966 -0.3050  0.0590
15909SOL    HW150682   8.812   6.644   4.210 -0.4453  3.2068  1.3351
15909SOL    HW250683   8.768   6.710   4.081 -1.3367  0.6617  0.2593
15910SOL     OW50684   0.569   1.188   4.230 -0.0043 -0.1209 -0.1883
15910SOL    HW150685   0.509   1.243   4.180 -0.6148 -0.0736  0.5883
15910SOL    HW250686   0.588   1.239   4.309  0.3787 -0.5054 -0.0283
15911SOL     OW50687   7.428   6.604   1.533 -0.0415  0.1881 -0.3131
15911SOL    HW150688   7.443   6.529   1.475 -1.7435  0.2047 -0.8274
15911SOL    HW250689   7.361   6.656   1.488 -1.5717  0.1159  1.7200
15912SOL     OW50690   1.722   8.665   0.515 -0.2662 -0.4686 -0.2933
15912SOL    HW150691   1.675   8.720   0.578 -0.0279 -1.8352  1.1267
15912SOL    HW250692   1.665   8.589   0.502  0.6553 -1.2127 -0.0653
15913SOL     OW50693   3.119   5.694   8.363  0.2912  0.2565  0.1519
15913SOL    HW150694   3.053   5.624   8.367  0.6935 -0.1359  3.4861
15913SOL    HW250695   3.104   5.738   8.280 -2.2947 -1.6125 -0.4777
15914SOL     OW50696   4.782   5.933   3.291  0.3615 -1.0551 -0.0408
15914SOL    HW150697   4.800   5.927   3.197 -0.0812  0.3338 -0.2460
15914SOL    HW250698   4.686   5.940   3.296  0.4780  2.0998  0.2010
15915SOL     OW50699   1.121  10.011   9.661 -0.4440  0.1831 -0.5847
15915SOL    HW150700   1.207  10.051   9.649  0.7341 -1.4582  1.5746
15915SOL    HW250701   1.135   9.917   9.649 -1.4957 -0.3063  1.4675
15916SOL     OW50702   9.119   1.868   2.131  0.1396  0.3004 -0.3990
15916SOL    HW150703   9.032   1.837   2.107 -1.3049  2.6769  1.3188
15916SOL    HW250704   9.155   1.799   2.187 -1.4442  0.0776  0.4026
15917SOL     OW50705   2.825   5.904   5.026 -0.3574  0.0143 -0.1321
15917SOL    HW150706   2.897   5.959   4.997  0.2570 -1.9313 -2.6677
15917SOL    HW250707   2.746   5.949   4.996  0.1974 -1.1122 -3.7233
15918SOL     OW50708   4.468   2.750   2.917 -0.0666  0.0684 -0.4469
15918SOL    HW150709   4.390   2.757   2.972  0.0053  2.9718 -0.5590
15918SOL    HW250710   4.526   2.692   2.966 -1.3146 -0.1710  0.8401
15919SOL     OW50711   7.124   4.324   6.317 -0.0267 -0.4621 -0.8694
15919SOL    HW150712   7.081   4.285   6.241  1.8128 -1.0911 -1.6458
15919SOL    HW250713   7.101   4.265   6.390 -1.1449 -0.3011 -1.0730
15920SOL     OW50714   5.825   4.335   2.429 -0.9397 -0.5251  0.6596
15920SOL    HW150715   5.828   4.388   2.509 -0.9137 -1.5679  1.3869
15920SOL    HW250716   5.732   4.310   2.421 -0.9736 -0.2714  0.2548
15921SOL     OW50717   9.076   2.418   8.253  0.4240  0.1765 -0.8657
15921SOL    HW150718   9.140   2.468   8.201  0.9653 -2.1613 -2.6416
15921SOL    HW250719   9.128   2.352   8.298 -0.2975  0.9602  1.2244
15922SOL     OW50720   4.289  10.583   1.745 -0.3858 -0.0520 -0.2990
15922SOL    HW150721   4.328  10.574   1.832  2.5009 -0.6768 -1.5174
15922SOL    HW250722   4.257  10.673   1.742  0.1381  0.2092  1.1654
15923SOL     OW50723   0.346   6.622   8.215 -0.1573  0.8935  0.3480
15923SOL    HW150724   0.308   6.706   8.242  1.2172  1.1998  1.4567
15923SOL    HW250725   0.354   6.573   8.297  0.3770  0.2386 -0.0890
15924SOL     OW50726   4.726   4.206   3.628  0.2663  0.2426 -0.1374
15924SOL    HW150727   4.800   4.158   3.593  1.7925  1.6171  1.0246
15924SOL    HW250728   4.758   4.296   3.637 -1.5262  0.8699  0.4367
15925SOL     OW50729   0.069   2.473   8.162 -0.3022  0.4494 -0.1783
15925SOL    HW150730   0.055   2.506   8.251  0.2923  1.6042 -0.5021
15925SOL    HW250731   0.053   2.379   8.169  0.5583  0.3861  1.3375
15926SOL     OW50732   6.943   4.118   9.139 -0.5984  0.4661  0.4955
15926SOL    HW150733   6.912   4.208   9.151  0.6983  0.9036  0.7777
15926SOL    HW250734   6.975   4.116   9.048 -0.9676  0.1782  0.3707
15927SOL     OW50735   0.557   3.918   6.098 -0.2159  0.0924 -0.0997
15927SOL    HW150736   0.473   3.963   6.088  0.3165  1.0359 -0.4458
15927SOL    HW250737   0.534   3.825   6.100 -1.2129  0.2975 -0.8641
15928SOL     OW50738   5.601   9.396   7.985  0.2502  0.3278 -0.0127
15928SOL    HW150739   5.661   9.329   7.952 -1.3991 -1.4773  0.4261
15928SOL    HW250740   5.529   9.396   7.923 -0.7432  0.1665  1.0996
15929SOL     OW50741   1.922   6.955   3.454 -0.2610 -0.0247  0.3272
15929SOL    HW150742   1.966   7.029   3.497 -1.3899  0.2146  1.1144
15929SOL    HW250743   1.879   6.909   3.526 -1.3879 -0.1889 -0.4377
15930SOL     OW50744   5.492   2.673   6.878 -0.5026  0.0269 -0.1219
15930SOL    HW150745   5.412   2.634   6.914  0.6070 -0.5099  1.9789
15930SOL    HW250746   5.524   2.609   6.814 -1.4666  0.0064 -0.5920
15931SOL     OW50747   2.799   4.280   8.231 -0.6439  0.1945 -0.2254
15931SOL    HW150748   2.818   4.215   8.163  1.1062 -0.8661  1.1929
15931SOL    HW250749   2.765   4.356   8.183 -1.8102 -1.3842 -2.0304
15932SOL     OW50750   8.847   0.262   6.639 -0.0668 -0.1286  0.0532
15932SOL    HW150751   8.795   0.342   6.643 -0.9189 -0.6822  0.3282
15932SOL    HW250752   8.910   0.270   6.710  0.4988  0.7334 -0.5360
15933SOL     OW50753   0.866   8.278   6.659  0.6120  0.0014 -0.0946
15933SOL    HW150754   0.875   8.348   6.724  0.1978  1.0571 -1.1475
15933SOL    HW250755   0.801   8.219   6.697  2.7764 -1.2068  1.9672
15934SOL     OW50756  10.457   4.516   7.316 -0.5959  0.5209  0.1530
15934SOL    HW150757  10.400   4.500   7.392  0.1497 -0.7290  0.4727
15934SOL    HW250758  10.420   4.595   7.276 -0.9560  1.2871  1.8669
15935SOL     OW50759   4.391   9.744  10.085 -0.1391  0.0328 -0.1156
15935SOL    HW150760   4.422   9.706  10.167 -3.2851  0.2783  1.3505
15935SOL    HW250761   4.448   9.818  10.070  1.5219 -0.9641  0.9567
15936SOL     OW50762   0.656   9.997   9.502  0.5371  0.2277  0.5931
15936SOL    HW150763   0.695  10.042   9.426  1.9694 -1.8927 -0.0091
15936SOL    HW250764   0.574   9.961   9.468  1.3739 -1.0793 -0.1407
15937SOL     OW50765   6.160  10.634   0.260  0.0582 -0.5711 -0.6067
15937SOL    HW150766   6.125  10.712   0.304 -0.6567 -0.6520 -1.0029
15937SOL    HW250767   6.243  10.662   0.222  0.5286 -0.4146  0.5087
15938SOL     OW50768   0.706   9.007   3.178  0.7693  0.1378 -0.0728
15938SOL    HW150769   0.655   8.927   3.179  2.1970 -0.8042  0.0019
15938SOL    HW250770   0.671   9.059   3.250 -0.4121 -0.2402 -0.3573
15939SOL     OW50771   7.892   4.106   6.430 -0.3767  0.2859  0.3690
15939SOL    HW150772   7.946   4.154   6.367 -0.8360  0.4556  0.0975
15939SOL    HW250773   7.933   4.122   6.514  0.9173 -0.8683  0.0008
15940SOL     OW50774   1.113   6.485   4.272  0.3543 -0.2924  0.0810
15940SOL    HW150775   1.104   6.524   4.359  1.0938  1.8481 -0.7496
15940SOL    HW250776   1.117   6.559   4.212 -0.5201 -1.7042 -1.8609
15941SOL     OW50777  10.546   1.184   2.712 -0.5049  0.0427 -0.2449
15941SOL    HW150778  10.532   1.271   2.674  0.0407  1.2778  2.1285
15941SOL    HW250779  10.496   1.187   2.794 -0.1057 -1.7454  0.0962
15942SOL     OW50780   4.201   6.854  10.556  0.6436 -0.2929 -0.4247
15942SOL    HW150781   4.202   6.825  10.464 -1.3238  0.3267 -0.6922
15942SOL    HW250782   4.234   6.944  10.553  1.5684 -0.6207 -0.3606
15943SOL     OW50783   0.814   4.033   5.949  0.0176 -0.3023 -0.1563
15943SOL    HW150784   0.731   4.069   5.981 -0.0155  1.1882 -1.8105
15943SOL    HW250785   0.866   4.021   6.029 -1.0834  0.5750  0.7375
15944SOL     OW50786   8.628   8.269   9.795 -0.0740  0.5401  0.3446
15944SOL    HW150787   8.716   8.301   9.813  0.5404 -0.5116 -0.6457
15944SOL    HW250788   8.620   8.189   9.848  1.2553 -1.8219 -2.6620
15945SOL     OW50789   1.345   6.683   0.807 -0.0786 -0.6192 -0.2389
15945SOL    HW150790   1.273   6.730   0.765  0.3969  0.1308 -0.2189
15945SOL    HW250791   1.419   6.694   0.748  0.2340 -0.7245  0.1287
15946SOL     OW50792   7.776   2.119   3.544  0.2177  0.1419 -0.3294
15946SOL    HW150793   7.753   2.210   3.526  1.0519  0.2272 -1.0010
15946SOL    HW250794   7.871   2.120   3.557  0.1388 -0.5257  0.3731
15947SOL     OW50795   3.516   1.014   2.271  0.0987  0.1474 -0.1022
15947SOL    HW150796   3.459   1.014   2.347  0.5436  1.3934  0.2480
15947SOL    HW250797   3.499   1.097   2.227  1.3743  0.3882 -0.1784
15948SOL     OW50798   9.708   4.765   9.413  0.1126  0.2098 -0.3989
15948SOL    HW150799   9.658   4.828   9.360  0.6189  0.5279 -0.5050
15948SOL    HW250800   9.641   4.706   9.447 -0.9141  2.8510  2.6761
15949SOL     OW50801   7.218   1.613   9.816 -0.8524  0.1105  0.0034
15949SOL    HW150802   7.305   1.586   9.848 -1.1083  0.4787  1.0641
15949SOL    HW250803   7.157   1.576   9.880 -1.4370  0.3863 -0.3887
15950SOL     OW50804   1.014   7.263   1.921  0.0871  0.7223  0.5286
15950SOL    HW150805   1.036   7.313   1.843 -4.2184  1.5465 -0.4040
15950SOL    HW250806   1.052   7.177   1.906  2.8636  2.0058 -0.4426
15951SOL     OW50807   7.918   9.322   4.925  0.4392 -0.0982 -0.3317
15951SOL    HW150808   7.847   9.268   4.890 -0.0808 -0.7172  1.5611
15951SOL    HW250809   7.970   9.261   4.977  0.2853  1.0317  1.2166
15952SOL     OW50810   5.207   1.264   6.847  0.2980  0.1967  0.0767
15952SOL    HW150811   5.153   1.311   6.785 -1.4224 -1.0790  0.5219
15952SOL    HW250812   5.179   1.172   6.839  2.1010 -0.4526  0.6436
15953SOL     OW50813   6.147   9.437   4.958  0.0544 -0.4537  0.4922
15953SOL    HW150814   6.053   9.427   4.971  0.3385 -1.2518  2.3582
15953SOL    HW250815   6.175   9.353   4.923 -0.2775  0.7727 -3.1929
15954SOL     OW50816   8.342   7.469   7.935 -0.3077  0.5091  0.2241
15954SOL    HW150817   8.281   7.512   7.875  0.7697  0.9143 -0.6020
15954SOL    HW250818   8.292   7.460   8.017 -1.2840  1.3195 -0.2591
15955SOL     OW50819   7.360   4.717   6.936  0.1338  0.1326  0.2444
15955SOL    HW150820   7.319   4.766   6.864  0.4910 -1.0448 -0.8180
15955SOL    HW250821   7.348   4.625   6.911  0.2377 -0.3023  1.7333
15956SOL     OW50822   7.412   3.308   7.283  0.4130 -0.6898  0.2539
15956SOL    HW150823   7.417   3.357   7.200  1.0948  0.7019  1.0639
15956SOL    HW250824   7.503   3.305   7.314  0.1351 -0.9763  1.0664
15957SOL     OW50825   9.713   3.716   4.531 -0.2327 -0.2900  0.3104
15957SOL    HW150826   9.715   3.686   4.622  0.4056  1.0315  0.7548
15957SOL    HW250827   9.803   3.705   4.501  0.0035  1.1053  0.4699
15958SOL     OW50828   9.546  10.365   3.413 -0.3507 -0.2911 -0.1806
15958SOL    HW150829   9.509  10.374   3.325 -0.7893  1.6824  0.1421
15958SOL    HW250830   9.560  10.456   3.442  1.6944 -0.9177  1.0060
15959SOL     OW50831   5.451  10.031   2.666 -0.1068  0.1357 -0.0153
15959SOL    HW150832   5.543  10.042   2.689  0.1630 -1.4345 -0.2348
15959SOL    HW250833   5.418   9.969   2.730 -0.9230  0.3915 -0.1833
15960SOL     OW50834   8.873   3.534   7.818  0.1533  0.0360  0.3280
15960SOL    HW150835   8.818   3.521   7.741 -0.7294  2.1298  0.5315
15960SOL    HW250836   8.836   3.477   7.885 -1.4021  0.8972  0.2522
15961SOL     OW50837   5.131   9.811   8.292  0.3294 -0.0820  0.9721
15961SOL    HW150838   5.156   9.903   8.302 -0.0120  0.0029  1.1018
15961SOL    HW250839   5.099   9.804   8.202  0.8741 -0.2052  0.7873
15962SOL     OW50840   4.911  10.238   7.746 -0.0195  0.5093  0.3110
15962SOL    HW150841   4.849  10.306   7.773 -2.4854 -1.1980 -0.6807
15962SOL    HW250842   4.908  10.174   7.818  1.2638  0.7745  0.6244
15963SOL     OW50843   0.479   6.448   8.043  0.2190 -0.2577 -0.1640
15963SOL    HW150844   0.431   6.426   7.964  0.6392 -0.6758 -0.3095
15963SOL    HW250845   0.432   6.522   8.081 -0.8785 -1.0131  0.0049
15964SOL     OW50846   2.572   9.867   8.182 -0.1060 -1.1946 -0.0445
15964SOL    HW150847   2.559   9.850   8.276  0.3244  0.3745  0.3304
15964SOL    HW250848   2.489   9.844   8.142 -0.5413 -1.2116  0.8322
15965SOL     OW50849   0.219   6.958   0.208  0.0495  0.4672 -0.0405
15965SOL    HW150850   0.171   6.882   0.239  0.3596 -0.0298 -0.7463
15965SOL    HW250851   0.304   6.952   0.252  0.3949 -0.0938 -0.7607
15966SOL     OW50852   0.923   4.802   4.643 -0.2843 -0.2351 -0.1445
15966SOL    HW150853   0.996   4.842   4.596  1.8883 -1.4313  1.9980
15966SOL    HW250854   0.898   4.727   4.590 -0.5107  0.6144 -1.2805
15967SOL     OW50855   4.524   9.559  10.282  0.5856  0.0650  0.0270
15967SOL    HW150856   4.542   9.514  10.199  1.2374  0.1201  0.1321
15967SOL    HW250857   4.599   9.538  10.338 -0.0590 -0.3306  0.7600
15968SOL     OW50858   2.591   1.559   4.648  0.5522 -0.0797  0.5395
15968SOL    HW150859   2.560   1.487   4.593 -0.9394  1.3730 -0.6351
15968SOL    HW250860   2.578   1.637   4.594  3.1754  0.9907  1.3314
15969SOL     OW50861   8.636   1.026   1.929  0.3971  0.0320  0.0667
15969SOL    HW150862   8.663   0.935   1.942  1.2158  0.2881  0.2076
15969SOL    HW250863   8.572   1.042   1.998 -1.1709 -0.9884 -1.0830
15970SOL     OW50864   7.351   8.521   7.770  0.5040 -0.6614 -0.0982
15970SOL    HW150865   7.391   8.556   7.849  0.1762 -1.3826  0.3932
15970SOL    HW250866   7.396   8.566   7.699  0.7858  0.0120  0.4925
15971SOL     OW50867   7.665   5.966   0.984  0.0899  0.2592  0.5021
15971SOL    HW150868   7.721   6.036   1.017  1.5014 -0.8110  0.4265
15971SOL    HW250869   7.609   6.009   0.919 -0.1924  1.6263  1.5930
15972SOL     OW50870   4.297   4.137   8.131  0.7958 -0.2051 -0.2367
15972SOL    HW150871   4.224   4.183   8.090  0.1543 -0.5183  0.5113
15972SOL    HW250872   4.371   4.196   8.122  1.2003 -1.0537 -3.5189
15973SOL     OW50873   0.121   6.870   1.744 -0.3144  0.2608  0.2284
15973SOL    HW150874   0.192   6.929   1.771 -0.3139  0.6645 -0.6305
15973SOL    HW250875   0.155   6.826   1.667 -0.5044 -0.5182  0.5858
15974SOL     OW50876   4.378   3.946   8.835  0.5377  0.7377 -0.4507
15974SOL    HW150877   4.324   4.010   8.882  0.9446  1.5622 -1.0664
15974SOL    HW250878   4.431   3.905   8.903  0.9063  1.6954 -0.1390
15975SOL     OW50879  10.325   5.789   3.476 -0.2721  0.3956  0.1370
15975SOL    HW150880  10.414   5.761   3.498 -1.0157 -0.7040  2.0137
15975SOL    HW250881  10.320   5.879   3.509 -0.8823 -0.7219  3.4160
15976SOL     OW50882   3.247   8.340   7.124 -0.1686  0.2558 -0.5133
15976SOL    HW150883   3.237   8.383   7.209 -1.2871  1.3612 -1.1661
15976SOL    HW250884   3.327   8.378   7.088  0.3157 -0.2221  0.0224
15977SOL     OW50885   4.413   1.708  10.279  0.0478  0.1671 -0.1305
15977SOL    HW150886   4.404   1.648  10.353  2.0507  1.8880  1.6787
15977SOL    HW250887   4.499   1.687  10.241  0.4155  1.2713  0.0286
15978SOL     OW50888   3.206   7.060   3.187 -0.5932 -0.0016 -0.8769
15978SOL    HW150889   3.120   7.030   3.156 -1.5176  1.7659 -0.2044
15978SOL    HW250890   3.214   7.023   3.275 -0.8444  0.1159 -0.8027
15979SOL     OW50891   2.974  10.062   2.903 -0.2427 -0.9061  0.0094
15979SOL    HW150892   2.986   9.999   2.975  0.5023 -0.2333  0.4953
15979SOL    HW250893   3.026  10.026   2.831 -0.2064 -1.0875  0.1244
15980SOL     OW50894   8.626  10.148   0.411 -0.4063 -0.0692  0.1013
15980SOL    HW150895   8.574  10.121   0.335 -0.6171  3.2580 -1.0829
15980SOL    HW250896   8.575  10.117   0.487 -1.0383 -2.0036 -1.0452
15981SOL     OW50897   0.785   5.148   9.898 -0.4735  0.0672 -0.0624
15981SOL    HW150898   0.854   5.179   9.956  0.4094 -0.4526 -0.8135
15981SOL    HW250899   0.704   5.171   9.944  0.1706  1.1987  0.5724
15982SOL     OW50900   0.023   0.711   4.026  0.0956  0.1022  0.1668
15982SOL    HW150901   0.023   0.695   4.120 -1.3403  0.1933  0.1979
15982SOL    HW250902   0.067   0.635   3.988 -1.6005 -1.2084  0.7314
15983SOL     OW50903   3.218   7.618   9.418  0.4339  0.2196 -0.1737
15983SOL    HW150904   3.295   7.625   9.473 -0.6950 -0.9409  1.6427
15983SOL    HW250905   3.243   7.557   9.349  1.8279  1.6077 -0.9761
15984SOL     OW50906   1.163   7.488   7.230  0.0125 -0.9451 -0.2830
15984SOL    HW150907   1.142   7.473   7.137 -0.5147  2.4455 -0.8600
15984SOL    HW250908   1.099   7.554   7.258  1.8238  0.0779  1.7120
15985SOL     OW50909  10.640   4.166   0.017  0.5256  0.5139 -0.1677
15985SOL    HW150910  10.669   4.141   0.104  0.5238 -2.9367 -1.0154
15985SOL    HW250911  10.545   4.161   0.020  0.5102  0.6934 -0.2987
15986SOL     OW50912   1.888   7.640  10.238  0.1125 -0.2703 -0.2034
15986SOL    HW150913   1.829   7.711  10.267 -0.3097 -0.7851  0.2152
15986SOL    HW250914   1.876   7.571  10.303 -0.2115 -1.1165 -1.1472
15987SOL     OW50915   6.476   3.316   4.203 -0.1226 -0.3512  0.2716
15987SOL    HW150916   6.567   3.300   4.178 -0.1991 -0.1025 -0.1750
15987SOL    HW250917   6.457   3.248   4.268  0.0404 -1.1008 -0.4502
15988SOL     OW50918   0.029   0.948   7.190  0.2098  0.3448 -0.0031
15988SOL    HW150919   0.009   0.885   7.120  3.6888 -0.0375 -0.8115
15988SOL    HW250920   0.062   1.025   7.144 -0.4188  1.3321  1.1442
15989SOL     OW50921   8.328  10.028   5.830 -0.2795  0.4901 -0.0263
15989SOL    HW150922   8.373  10.100   5.786  0.7205  0.1112  0.3610
15989SOL    HW250923   8.282  10.069   5.903  1.2424  0.6138  0.9067
15990SOL     OW50924   2.568   0.697   9.065  0.5173 -0.0413  0.4617
15990SOL    HW150925   2.661   0.722   9.063  0.7424 -0.8257  0.8925
15990SOL    HW250926   2.538   0.722   9.153 -0.0053  1.3069 -0.0714
15991SOL     OW50927   3.706   4.443   9.094 -0.0564 -0.3341 -0.7109
15991SOL    HW150928   3.637   4.377   9.091  0.1002 -0.5722  0.6297
15991SOL    HW250929   3.787   4.394   9.081 -0.0206 -0.2481 -0.8191
15992SOL     OW50930   8.154  10.291   3.505 -0.6954 -0.0874  0.0038
15992SOL    HW150931   8.146  10.359   3.439  1.7670  0.9013  0.6058
15992SOL    HW250932   8.227  10.237   3.476  0.2138  0.1517  1.6790
15993SOL     OW50933   3.762   4.096   5.730  0.6058  0.6485 -0.4717
15993SOL    HW150934   3.749   4.014   5.681 -1.4793 -0.3450  1.5200
15993SOL    HW250935   3.831   4.075   5.793 -1.5216 -0.5184  1.6456
15994SOL     OW50936   2.661   8.620   7.013  0.3522 -0.0634 -0.1959
15994SOL    HW150937   2.642   8.667   7.093  0.8492 -1.0931  0.5572
15994SOL    HW250938   2.745   8.655   6.983 -0.1783  0.8251 -0.6774
15995SOL     OW50939   9.520   7.788   0.426  0.2853  0.0246  0.0047
15995SOL    HW150940   9.480   7.728   0.489 -1.2608  0.2570 -0.7011
15995SOL    HW250941   9.559   7.857   0.481  0.7708 -0.8232  0.7614
15996SOL     OW50942   2.100   5.546   9.855  0.2605  0.0351 -0.6469
15996SOL    HW150943   2.106   5.601   9.933  1.0940 -1.0240  0.0596
15996SOL    HW250944   2.019   5.495   9.867  0.2335  0.0843 -0.6196
15997SOL     OW50945   7.479  10.339  10.659  0.2463  0.1244  0.4666
15997SOL    HW150946   7.429  10.410  10.699 -1.1306 -1.2570  1.3071
15997SOL    HW250947   7.414  10.273  10.636  1.6107 -1.5146  1.0662
15998SOL     OW50948   6.077   1.806   3.582  0.4660 -0.0155 -0.3468
15998SOL    HW150949   6.128   1.725   3.573 -0.5789 -0.8227  0.6799
15998SOL    HW250950   6.030   1.813   3.499  0.9199 -0.2085 -0.6259
15999SOL     OW50951   7.846   0.837   3.557  0.4034 -0.7393 -0.0409
15999SOL    HW150952   7.887   0.881   3.631 -0.2990 -0.6691  0.3167
15999SOL    HW250953   7.915   0.782   3.520  1.3152  0.6843 -0.5234
16000SOL     OW50954   0.706   1.796   3.710  0.0226  0.1904 -0.2927
16000SOL    HW150955   0.800   1.801   3.696  0.1675 -1.6436 -0.1434
16000SOL    HW250956   0.692   1.834   3.797  0.6208  0.4897 -0.3288
16001SOL     OW50957   3.299   4.821   4.101  0.3178  0.1490  0.6694
16001SOL    HW150958   3.366   4.855   4.160 -0.9054  0.0725  2.1869
16001SOL    HW250959   3.231   4.888   4.101  0.8381  0.7386 -1.7265
16002SOL     OW50960   7.761   9.520   5.891  0.3371  0.1909  0.4748
16002SOL    HW150961   7.853   9.544   5.903  0.0876  2.7929 -1.8637
16002SOL    HW250962   7.755   9.491   5.800 -1.2152  0.2693  0.5210
16003SOL     OW50963   7.645   2.859   6.090 -0.0480 -0.1418  0.3200
16003SOL    HW150964   7.663   2.820   6.004 -1.2531 -0.6295  0.2654
16003SOL    HW250965   7.616   2.948   6.070 -0.2137 -0.2158  0.2261
16004SOL     OW50966   7.144   7.992   3.820 -0.1729 -0.2986 -0.7001
16004SOL    HW150967   7.189   8.047   3.756 -0.1664 -0.4072 -0.7877
16004SOL    HW250968   7.062   7.966   3.778  0.5673 -1.7351 -1.3137
16005SOL     OW50969   3.434   8.544   0.081 -0.2137  0.2810 -0.1885
16005SOL    HW150970   3.429   8.571   0.173  0.4473 -1.4356  0.3807
16005SOL    HW250971   3.376   8.468   0.075  0.2411 -0.0120 -1.0484
16006SOL     OW50972   6.470   2.549   4.992  0.0371  0.3485  0.0189
16006SOL    HW150973   6.416   2.601   5.051  1.8998  0.8625  1.3748
16006SOL    HW250974   6.449   2.581   4.904 -1.3527  0.9460  0.5417
16007SOL     OW50975   0.598   4.238   5.960  0.4051  0.0732 -0.0300
16007SOL    HW150976   0.644   4.227   5.877 -1.3280 -0.1642 -0.9988
16007SOL    HW250977   0.600   4.332   5.976  1.3951  0.0507  0.0729
16008SOL     OW50978   3.774   8.591   7.237  0.2249  0.1758  0.2744
16008SOL    HW150979   3.822   8.590   7.154  0.3672  2.8550  0.2680
16008SOL    HW250980   3.836   8.626   7.300 -0.1305 -1.1436  1.4174
16009SOL     OW50981   2.810   6.004  10.270 -0.2499 -0.1699 -0.2623
16009SOL    HW150982   2.808   6.030  10.178  1.2565  0.4758 -0.1462
16009SOL    HW250983   2.899   6.024  10.298 -0.5321 -0.8600  1.2004
16010SOL     OW50984   7.394   4.348   9.196  0.1612  0.2577 -0.0743
16010SOL    HW150985   7.316   4.362   9.250 -0.1413 -2.0484  0.1794
16010SOL    HW250986   7.431   4.436   9.184 -1.7350  1.2464  0.8857
16011SOL     OW50987  10.557   0.084   0.955  0.0062 -0.4718 -0.0063
16011SOL    HW150988  10.650   0.085   0.932  0.0996  3.5554 -0.1025
16011SOL    HW250989  10.515   0.140   0.890 -1.9088  0.4750  1.9248
16012SOL     OW50990   7.046   2.205   0.849  0.0290  0.3180 -0.6373
16012SOL    HW150991   6.981   2.135   0.839  0.6482 -0.0713 -2.3317
16012SOL    HW250992   7.122   2.161   0.888 -0.0783  0.3653 -0.3734
16013SOL     OW50993   1.765   2.318   3.675 -0.0553 -0.0348  0.2230
16013SOL    HW150994   1.786   2.341   3.584  1.3890 -1.0405  0.2594
16013SOL    HW250995   1.770   2.400   3.723  1.3650  0.1936 -0.2597
16014SOL     OW50996   8.122   6.181   3.445 -0.0084  0.1643  0.0745
16014SOL    HW150997   8.190   6.120   3.474 -0.0551 -0.2649 -0.6861
16014SOL    HW250998   8.047   6.163   3.501 -0.0110 -0.4712 -0.1238
16015SOL     OW50999   8.014   8.155   7.431  0.4050  0.4361 -0.3932
16015SOL    HW151000   8.053   8.119   7.351  0.1222  2.3074 -1.4324
16015SOL    HW251001   8.084   8.151   7.496 -0.0192 -3.2395  0.0409
16016SOL     OW51002   2.353   1.994   3.919  0.4012  0.2575  0.3273
16016SOL    HW151003   2.385   1.921   3.971  0.6661  1.0017  1.2408
16016SOL    HW251004   2.426   2.017   3.861 -0.2876 -1.3126 -1.2486
16017SOL     OW51005  10.336   8.922   7.255 -0.5672  0.6815 -0.2903
16017SOL    HW151006  10.409   8.951   7.201  0.4083  3.4367  2.2348
16017SOL    HW251007  10.267   8.986   7.238 -0.6306  0.9415  0.8508
16018SOL     OW51008   8.347  10.557   3.533  0.1481  0.3467  0.4718
16018SOL    HW151009   8.361  10.471   3.493  0.5439  0.2318  0.8454
16018SOL    HW251010   8.409  10.615   3.488  0.8995  0.1277  1.1889
16019SOL     OW51011   0.863   3.170   3.423  0.1865 -0.1089 -0.2168
16019SOL    HW151012   0.945   3.152   3.468  0.4785  0.1508 -0.6356
16019SOL    HW251013   0.890   3.202   3.337 -0.3303  0.7703 -0.0616
16020SOL     OW51014   0.818   5.996   3.453 -0.1961  0.0770 -0.7684
16020SOL    HW151015   0.864   6.054   3.513 -1.2315  0.4642 -0.3209
16020SOL    HW251016   0.757   6.053   3.406 -1.0944 -0.6014 -0.4521
16021SOL     OW51017   0.832   3.455   4.913  0.5757  0.0440  0.3455
16021SOL    HW151018   0.837   3.531   4.971 -0.0078 -1.1005  1.9884
16021SOL    HW251019   0.803   3.384   4.971  2.2746 -1.7046 -0.8478
16022SOL     OW51020   1.849   2.219   9.555 -0.2814  0.4161  0.3855
16022SOL    HW151021   1.927   2.274   9.540  0.7023 -0.7502  1.0226
16022SOL    HW251022   1.818   2.245   9.641 -0.5813  0.8443  0.1534
16023SOL     OW51023   2.726   6.514   3.421 -0.2332 -0.6521  0.5392
16023SOL    HW151024   2.712   6.602   3.455 -1.3349 -0.9848  0.9811
16023SOL    HW251025   2.693   6.456   3.489 -2.7476 -1.3305 -1.1401
16024SOL     OW51026   8.188   4.038   1.068  0.2384  0.6590 -0.4752
16024SOL    HW151027   8.094   4.026   1.087  0.8500 -1.2726  2.0254
16024SOL    HW251028   8.211   3.961   1.016  0.3897  1.2697 -1.3129
16025SOL     OW51029   4.442   1.696  10.595 -0.2757  0.2086  0.1424
16025SOL    HW151030   4.385   1.620  10.590  0.5399 -0.3657 -0.8136
16025SOL    HW251031   4.504   1.676  10.665 -1.1195  0.7734  1.0872
16026SOL     OW51032   5.599   6.073   5.749 -0.2053 -0.1020  0.7614
16026SOL    HW151033   5.538   6.147   5.751 -0.4323 -0.1990 -0.7854
16026SOL    HW251034   5.627   6.062   5.839  0.2312  2.2076  0.9708
16027SOL     OW51035   3.049   1.833   7.767 -0.4205 -0.3571 -0.0018
16027SOL    HW151036   3.118   1.891   7.735 -2.2957  1.8129 -0.3822
16027SOL    HW251037   3.063   1.751   7.720  1.8351 -0.0132 -0.0763
16028SOL     OW51038   2.358   1.784   6.039  0.4152 -0.5064 -0.2738
16028SOL    HW151039   2.328   1.875   6.037 -2.0034 -1.1267  1.9844
16028SOL    HW251040   2.393   1.768   5.952 -1.5081  1.8388 -1.5853
16029SOL     OW51041  10.156   6.880   0.571 -0.0675 -0.0883  0.5407
16029SOL    HW151042  10.180   6.962   0.615  1.2769 -1.1290  1.8530
16029SOL    HW251043  10.076   6.901   0.523 -0.0302  1.8576  1.2362
16030SOL     OW51044   3.292   0.999   0.662  0.4806  0.3198 -0.5803
16030SOL    HW151045   3.291   0.990   0.567 -2.1435 -2.6646 -0.4540
16030SOL    HW251046   3.364   0.942   0.690  0.3196  0.0427 -0.7259
16031SOL     OW51047   1.087   7.993   3.416  0.1879  0.2802  0.0726
16031SOL    HW151048   1.109   8.074   3.370 -1.8001  0.3810 -0.8120
16031SOL    HW251049   1.109   7.923   3.354 -0.1184  0.2775 -0.0362
16032SOL     OW51050   2.040   8.960   4.453  0.0087 -0.0441 -0.3319
16032SOL    HW151051   1.963   9.017   4.452 -0.6137 -0.8023 -2.7703
16032SOL    HW251052   2.010   8.881   4.498 -0.6108 -0.2537 -1.0865
16033SOL     OW51053   2.930  10.105   9.115  0.6302  0.5043 -0.3662
16033SOL    HW151054   2.967  10.061   9.191  2.4077  3.0519  0.3996
16033SOL    HW251055   2.980  10.186   9.108 -2.7322  2.7294 -1.2909
16034SOL     OW51056  10.171  10.260   4.987  0.5160 -0.4039 -0.2844
16034SOL    HW151057  10.264  10.238   4.995  0.1607 -1.8915  0.0995
16034SOL    HW251058  10.152  10.248   4.894  0.5247 -0.9525 -0.2207
16035SOL     OW51059   4.555   0.648   5.272 -0.0935 -0.4835 -0.0021
16035SOL    HW151060   4.496   0.707   5.319 -0.1108  0.5305 -1.2375
16035SOL    HW251061   4.507   0.565   5.267 -1.5299  0.3655 -1.1212
16036SOL     OW51062   1.205   8.781   7.795 -0.4205  0.1354 -0.4178
16036SOL    HW151063   1.222   8.720   7.724  1.0121  1.9265 -1.7201
16036SOL    HW251064   1.292   8.800   7.831 -1.0436 -0.1251  1.3038
16037SOL     OW51065   9.519   9.402   6.991 -0.4319  0.0276  0.1829
16037SOL    HW151066   9.584   9.422   6.923  0.8266  1.6832  1.7713
16037SOL    HW251067   9.442   9.372   6.943  1.4422 -1.9623 -1.7921
16038SOL     OW51068   5.366   9.902   3.392 -0.1592  0.2210  0.3363
16038SOL    HW151069   5.344   9.861   3.308 -2.2310 -0.8000  1.3005
16038SOL    HW251070   5.445   9.954   3.374  1.3497 -2.4738 -1.4648
16039SOL     OW51071   2.011   4.041   9.329 -0.2318 -0.0887  0.1180
16039SOL    HW151072   1.951   4.110   9.356  0.0745  0.0775  0.3775
16039SOL    HW251073   2.037   4.066   9.240  1.7611  1.4813  1.0404
16040SOL     OW51074   5.408   9.216   2.570  0.0862 -0.0665 -0.4132
16040SOL    HW151075   5.452   9.300   2.571 -0.4326  0.2283 -1.3813
16040SOL    HW251076   5.349   9.220   2.495 -2.3779 -0.0316  1.3848
16041SOL     OW51077   6.956   2.233   2.131  0.4452  0.4169  0.2590
16041SOL    HW151078   6.923   2.202   2.215 -1.2421  3.4203  0.8598
16041SOL    HW251079   7.051   2.219   2.136  0.2920 -0.2438  2.3291
16042SOL     OW51080   4.130   9.166   9.707  0.4148 -0.1906 -0.2679
16042SOL    HW151081   4.117   9.141   9.799 -2.5145  2.1333  0.1115
16042SOL    HW251082   4.074   9.243   9.695  2.3605  0.9253 -3.4665
16043SOL     OW51083   9.590   2.324   1.904  0.8578 -0.2954  0.0317
16043SOL    HW151084   9.671   2.320   1.956  0.9335 -0.7892 -0.1218
16043SOL    HW251085   9.522   2.290   1.963  0.7468  0.1907  0.1864
16044SOL     OW51086   6.560   8.343   7.519  0.0121  0.1644 -0.5122
16044SOL    HW151087   6.629   8.348   7.585  0.0115 -0.0608 -0.4912
16044SOL    HW251088   6.603   8.367   7.437  0.0605  0.2513 -0.4606
16045SOL     OW51089   2.013   1.309   0.699  0.5172 -0.2114  0.6056
16045SOL    HW151090   1.926   1.277   0.724 -0.6996  0.8958 -1.8169
16045SOL    HW251091   2.039   1.252   0.626  2.3816 -1.2168  1.9779
16046SOL     OW51092   8.736   5.161   9.103  0.5186 -0.3272  0.1817
16046SOL    HW151093   8.762   5.244   9.144 -1.0347 -0.0748  0.7206
16046SOL    HW251094   8.694   5.188   9.021 -0.2841 -0.5476  0.5112
16047SOL     OW51095   3.386   5.677   8.343 -0.2843 -0.1526 -0.0643
16047SOL    HW151096   3.400   5.602   8.399  2.5192  0.5847  0.3777
16047SOL    HW251097   3.292   5.696   8.350 -0.3592 -1.1753  2.9509
16048SOL     OW51098   1.418   4.970   9.936 -0.4312  0.1238  0.3338
16048SOL    HW151099   1.327   5.000   9.929 -0.8599 -1.0593  0.5396
16048SOL    HW251100   1.411   4.882   9.974  0.8576  0.3312  1.0945
16049SOL     OW51101   0.921   5.857   2.974  0.9273  0.1099 -0.0073
16049SOL    HW151102   0.888   5.822   3.056  1.9499 -2.7675 -0.6868
16049SOL    HW251103   0.961   5.941   2.998 -0.5659  0.3130  2.0137
16050SOL     OW51104   0.714  10.219   0.862 -0.5329 -0.0738  0.3721
16050SOL    HW151105   0.800  10.252   0.888  0.0455  0.9131 -2.4656
16050SOL    HW251106   0.733  10.140   0.811 -1.1373  0.9260 -1.4858
16051SOL     OW51107   4.742   1.127   7.614  0.2476  0.1792  0.0421
16051SOL    HW151108   4.759   1.055   7.553  0.9954  0.7933 -0.4955
16051SOL    HW251109   4.736   1.204   7.558  2.1175  0.9517  0.8018
16052SOL     OW51110   5.328   4.891   3.457  0.0336  0.2855 -0.0079
16052SOL    HW151111   5.246   4.869   3.413  0.1725 -0.8959  0.2959
16052SOL    HW251112   5.363   4.965   3.407  0.3187 -1.1559 -2.0676
16053SOL     OW51113   3.048   0.154   7.829  0.5016 -0.3916 -0.2592
16053SOL    HW151114   2.965   0.196   7.805  0.0771 -1.4909 -0.8085
16053SOL    HW251115   3.079   0.115   7.747  1.9592  0.6434 -0.2260
16054SOL     OW51116   7.087   9.095   2.087 -0.6524  0.2438  0.1082
16054SOL    HW151117   7.181   9.085   2.101 -0.6079  0.3105 -0.1272
16054SOL    HW251118   7.055   9.138   2.166 -0.8607 -1.7830  1.1834
16055SOL     OW51119   5.863   4.986   4.396  0.0337  0.0644 -0.3648
16055SOL    HW151120   5.875   4.903   4.442  1.2235  0.6283  0.3832
16055SOL    HW251121   5.769   5.004   4.402 -0.0908 -0.7647  0.2685
16056SOL     OW51122  10.415   3.195   2.520  0.2064  0.5594 -0.4900
16056SOL    HW151123  10.407   3.194   2.424 -2.1644 -0.6042 -0.3503
16056SOL    HW251124  10.446   3.107   2.542 -0.9145  0.2472 -0.1148
16057SOL     OW51125   4.670   7.870   5.402  0.2269 -0.2469  0.3094
16057SOL    HW151126   4.711   7.952   5.374 -0.3957  0.2656  0.8791
16057SOL    HW251127   4.722   7.802   5.359 -0.6747  0.4846 -2.1249
16058SOL     OW51128   6.695   2.750   1.460  0.6642 -0.3522 -0.1556
16058SOL    HW151129   6.716   2.820   1.398  2.2488 -0.4154  0.2580
16058SOL    HW251130   6.625   2.700   1.418 -1.0003  1.8672 -0.1463
16059SOL     OW51131   1.399   3.963   5.392 -0.0595  0.7798 -0.5184
16059SOL    HW151132   1.459   3.898   5.355  0.3719  0.0452  1.3713
16059SOL    HW251133   1.318   3.914   5.408 -1.3966  1.8291 -3.3417
16060SOL     OW51134   7.607   2.706   4.958  0.4399  0.2132  0.1303
16060SOL    HW151135   7.614   2.695   5.053  2.4188  0.5783  0.0664
16060SOL    HW251136   7.666   2.640   4.922  1.8901  1.8783 -0.7107
16061SOL     OW51137   3.121   4.798   5.275  0.2337 -0.7913 -0.3262
16061SOL    HW151138   3.080   4.749   5.203 -0.9036 -2.0507  1.0955
16061SOL    HW251139   3.070   4.879   5.280  0.7108 -0.4116 -1.2943
16062SOL     OW51140  10.534  10.448   2.677 -0.0429 -0.1629 -0.2213
16062SOL    HW151141  10.604  10.506   2.706 -0.4312 -0.3579  1.1738
16062SOL    HW251142  10.511  10.480   2.590  0.5718  1.0134  0.0245
16063SOL     OW51143  10.676   6.920   7.999 -0.6293 -0.3167  0.4852
16063SOL    HW151144  10.764   6.884   8.004 -0.7218 -0.5415  0.5228
16063SOL    HW251145  10.632   6.888   8.078 -1.6499 -2.6887 -0.9272
16064SOL     OW51146   7.659   5.202   5.458  0.0713 -0.2948  0.0911
16064SOL    HW151147   7.691   5.289   5.481  0.6252 -0.6753  0.8193
16064SOL    HW251148   7.737   5.146   5.460 -0.4278 -0.9988  0.6653
16065SOL     OW51149   4.674   0.739   5.036 -0.6615  0.1069  0.5203
16065SOL    HW151150   4.610   0.710   5.102 -0.0702  0.0990  1.0988
16065SOL    HW251151   4.745   0.675   5.043 -1.3899 -0.9865 -1.4102
16066SOL     OW51152   0.619   6.145   3.362  0.0796  0.6608 -0.7973
16066SOL    HW151153   0.636   6.225   3.314 -0.3881  1.1164 -0.2223
16066SOL    HW251154   0.612   6.172   3.453  1.8401 -0.3154 -0.3224
16067SOL     OW51155   2.559   1.505   5.702  0.2239  0.5014 -0.2430
16067SOL    HW151156   2.633   1.488   5.760  0.1857 -1.1924 -0.6448
16067SOL    HW251157   2.592   1.490   5.614 -0.6800 -0.7627 -0.4014
16068SOL     OW51158   9.555   9.767   1.943 -0.2326 -0.0788 -0.3834
16068SOL    HW151159   9.562   9.737   1.852  0.3381 -1.3354  0.0530
16068SOL    HW251160   9.638   9.742   1.983 -0.7749 -0.2194  0.6760
16069SOL     OW51161  10.091   6.069   2.174  0.1002  0.0234 -0.0880
16069SOL    HW151162  10.032   6.034   2.107 -0.2537 -1.4163  0.9313
16069SOL    HW251163  10.041   6.140   2.214  0.3138  0.9009 -1.3000
16070SOL     OW51164   7.547   1.696   2.733  0.6222  0.6253 -0.0752
16070SOL    HW151165   7.467   1.728   2.773  1.4271  1.2891  1.0599
16070SOL    HW251166   7.538   1.600   2.734  1.0631  0.5249  2.7638
16071SOL     OW51167   8.667  10.332   9.593  0.2305 -0.9798  0.1592
16071SOL    HW151168   8.681  10.238   9.593 -1.3254 -1.2271  0.5885
16071SOL    HW251169   8.637  10.353   9.505  1.6863 -0.6856 -0.2905
16072SOL     OW51170   1.931   0.863   4.408  0.1452  0.0860 -0.0841
16072SOL    HW151171   1.930   0.870   4.313 -0.8188  0.6761 -0.0370
16072SOL    HW251172   1.875   0.934   4.439 -0.5273 -0.8363  0.8874
16073SOL     OW51173   1.211   3.674   1.198  0.5532 -0.4686 -0.3057
16073SOL    HW151174   1.278   3.743   1.197  1.0555 -0.9596 -0.8575
16073SOL    HW251175   1.256   3.597   1.233  0.5312 -1.0509 -1.5347
16074SOL     OW51176   0.778   5.236   7.073 -0.7147 -0.4464 -0.0067
16074SOL    HW151177   0.759   5.319   7.030  1.8775  0.4447  0.3654
16074SOL    HW251178   0.692   5.199   7.093 -1.9637  1.8069 -0.7905
16075SOL     OW51179   2.479   8.801   1.078 -0.1463  0.5102 -0.1195
16075SOL    HW151180   2.553   8.791   1.138 -0.4397  0.0503  0.1732
16075SOL    HW251181   2.474   8.716   1.033 -0.4262  0.5817 -0.2211
16076SOL     OW51182   0.076   9.473   5.558 -0.0167  0.2281 -0.0478
16076SOL    HW151183   0.137   9.546   5.546 -0.6133  0.6529 -0.5630
16076SOL    HW251184   0.022   9.499   5.632 -0.2953  0.3578 -0.2956
16077SOL     OW51185   3.930   1.831   6.119  0.3655  0.2086  0.1495
16077SOL    HW151186   3.922   1.739   6.143  1.1410  0.1235  0.0894
16077SOL    HW251187   4.017   1.856   6.148 -0.4618  1.3956  1.7241
16078SOL     OW51188   3.728   0.195   3.512 -0.2331  0.5588 -0.7576
16078SOL    HW151189   3.653   0.154   3.555 -1.6611  2.4772 -1.2515
16078SOL    HW251190   3.734   0.282   3.551  1.2385  0.7395 -1.3120
16079SOL     OW51191   9.196   3.493   3.903 -0.2082 -0.6651  0.0200
16079SOL    HW151192   9.148   3.575   3.920  0.2906  0.2555 -2.6702
16079SOL    HW251193   9.148   3.452   3.831 -0.9322 -3.2399  1.8306
16080SOL     OW51194   0.704   8.786   5.184  0.0986  0.3662 -0.1896
16080SOL    HW151195   0.757   8.733   5.125 -1.6889  0.8943 -2.4143
16080SOL    HW251196   0.664   8.723   5.244  1.3936 -0.2704  0.0351
16081SOL     OW51197  10.114   9.123   2.876  0.3976  1.0263 -0.6505
16081SOL    HW151198  10.043   9.074   2.918  1.4593 -0.7626 -0.8314
16081SOL    HW251199  10.081   9.213   2.871 -1.3948  0.4797  0.2663
16082SOL     OW51200   0.339   2.549   9.538  0.5046 -0.1470  0.4838
16082SOL    HW151201   0.334   2.563   9.632 -0.3022 -0.3726  0.4785
16082SOL    HW251202   0.322   2.636   9.500 -0.1319 -0.2477  0.5320
16083SOL     OW51203   1.481   1.766   3.463  0.4041  0.0771  0.0876
16083SOL    HW151204   1.429   1.713   3.523 -0.7328  1.3856  0.3310
16083SOL    HW251205   1.521   1.833   3.519 -1.7123  2.1286 -0.6563
16084SOL     OW51206   3.969   5.650   1.476 -0.6205  0.1357 -0.1764
16084SOL    HW151207   3.940   5.580   1.418 -0.5605 -0.4345  0.4638
16084SOL    HW251208   3.973   5.610   1.563 -1.2875  1.1207  0.3318
16085SOL     OW51209   1.828   7.222   9.138 -0.9450 -0.5319 -0.0257
16085SOL    HW151210   1.739   7.257   9.139 -1.4199 -1.7276  0.8360
16085SOL    HW251211   1.826   7.149   9.199  0.9315  0.1410  0.9158
16086SOL     OW51212   1.252   2.697   5.141  0.0344  0.8706  0.4878
16086SOL    HW151213   1.306   2.759   5.190  1.8500  1.0157 -1.5559
16086SOL    HW251214   1.237   2.739   5.057  0.1646 -0.8505 -0.4512
16087SOL     OW51215   8.182   5.251  10.001  0.6298 -0.3574 -0.2431
16087SOL    HW151216   8.112   5.294  10.051  1.0292  0.7337 -0.5784
16087SOL    HW251217   8.261   5.268  10.052  0.5358 -2.5540  0.7215
16088SOL     OW51218   5.643   2.371   3.383 -0.4096 -0.5862  0.4760
16088SOL    HW151219   5.706   2.414   3.325 -0.3427 -0.7613  0.4166
16088SOL    HW251220   5.558   2.405   3.356 -0.3244 -0.2082  0.6809
16089SOL     OW51221   2.386   6.120   9.962 -0.0817 -0.2793 -0.5230
16089SOL    HW151222   2.407   6.030   9.936  1.4768 -0.3278  0.7504
16089SOL    HW251223   2.463   6.149  10.011 -1.7028  0.7203  1.6342
16090SOL     OW51224   5.060   3.823   2.017 -0.4442 -0.0193  0.5716
16090SOL    HW151225   5.132   3.880   1.990 -1.7216  0.2081 -2.8195
16090SOL    HW251226   5.098   3.735   2.013  0.3374  0.2535  1.5151
16091SOL     OW51227   2.828   8.478   5.143 -0.5370  0.0771 -0.3085
16091SOL    HW151228   2.923   8.487   5.143 -0.3131 -1.8403 -0.9379
16091SOL    HW251229   2.796   8.562   5.109  0.8371  1.1514  0.9174
16092SOL     OW51230   4.107   8.665   0.644  0.4739 -0.7880  0.6758
16092SOL    HW151231   4.069   8.587   0.604 -0.4531  0.0346 -0.1210
16092SOL    HW251232   4.035   8.729   0.644  0.4060 -0.7231  3.7278
16093SOL     OW51233   7.140   3.493   6.561 -0.9855  0.6914 -0.3139
16093SOL    HW151234   7.150   3.466   6.469 -0.8204 -0.6155  0.0743
16093SOL    HW251235   7.150   3.412   6.611  0.5876  1.6184  0.9725
16094SOL     OW51236   0.434   8.103   1.518 -0.6267 -0.4381 -0.1775
16094SOL    HW151237   0.390   8.019   1.504  1.3985 -1.6685  0.3802
16094SOL    HW251238   0.424   8.119   1.612  1.5292 -1.6651  0.3359
16095SOL     OW51239   1.998   9.248   9.646  0.3918  0.3396 -0.2334
16095SOL    HW151240   1.976   9.251   9.553 -1.0287  2.0276  0.1094
16095SOL    HW251241   2.057   9.321   9.660 -0.1964  0.7138  0.3628
16096SOL     OW51242   3.906   5.694   0.366 -0.4512 -0.1076  0.7376
16096SOL    HW151243   3.937   5.784   0.367  0.7874 -0.4917  2.7298
16096SOL    HW251244   3.917   5.666   0.275  1.2012  1.0845  0.5274
16097SOL     OW51245   4.578   9.348  10.654  1.0884  0.1948 -0.3603
16097SOL    HW151246   4.547   9.258  10.652 -0.0953  0.5579 -3.2734
16097SOL    HW251247   4.499   9.401  10.666  1.9098  0.9273  2.8681
16098SOL     OW51248  10.059   5.059   1.991  0.3421  0.2072  0.0509
16098SOL    HW151249  10.080   5.118   1.919  1.6327  0.4033  0.5520
16098SOL    HW251250  10.041   4.975   1.950 -2.6162  1.1520 -0.7747
16099SOL     OW51251   3.624   7.361   5.438  0.5931 -0.0756  0.0580
16099SOL    HW151252   3.647   7.289   5.496  1.1857 -1.9062 -2.2894
16099SOL    HW251253   3.631   7.440   5.492  0.2584 -1.7258  2.6229
16100SOL     OW51254   7.103   3.868   5.952  0.0014 -0.5466  0.1443
16100SOL    HW151255   7.155   3.809   5.897 -0.0004 -1.5459  1.1626
16100SOL    HW251256   7.066   3.932   5.891  0.5766 -1.1806 -0.9042
16101SOL     OW51257   7.337   0.024   3.031 -0.0628 -0.0866 -0.1990
16101SOL    HW151258   7.411  -0.019   3.075  0.3158 -0.7942 -1.4825
16101SOL    HW251259   7.375   0.061   2.951 -0.6802  1.4121  0.1564
16102SOL     OW51260   5.464   5.126   2.870  0.1952  0.1804  0.1097
16102SOL    HW151261   5.373   5.145   2.848 -0.1800 -0.1465  1.2762
16102SOL    HW251262   5.515   5.187   2.817 -0.6451 -0.2642 -1.2549
16103SOL     OW51263   7.180  10.541   4.489 -0.4319  0.3566  0.1263
16103SOL    HW151264   7.253  10.526   4.549 -0.6847  1.1741  0.6612
16103SOL    HW251265   7.221  10.547   4.403 -0.1283 -1.3776  0.1288
16104SOL     OW51266   3.370   3.245   2.673  0.0327 -0.4390 -0.2497
16104SOL    HW151267   3.287   3.208   2.702  0.1280 -0.6931 -0.2962
16104SOL    HW251268   3.437   3.190   2.714  0.1775 -0.2557 -0.2374
16105SOL     OW51269   5.032   3.449   9.958 -0.2698  0.5167  0.0532
16105SOL    HW151270   5.044   3.364  10.001 -1.2786  1.0336  1.4496
16105SOL    HW251271   4.979   3.429   9.881 -1.2535 -0.0475  0.8314
16106SOL     OW51272  10.151   0.569   8.348  0.2836  0.9333  0.7843
16106SOL    HW151273  10.092   0.532   8.414 -0.1160 -1.8935 -0.9692
16106SOL    HW251274  10.231   0.517   8.355  0.0800  0.2711 -1.1490
16107SOL     OW51275   2.073   2.644   6.893 -0.0806 -0.2010 -0.0624
16107SOL    HW151276   2.094   2.728   6.852  0.9775 -0.4722 -0.1192
16107SOL    HW251277   2.001   2.663   6.952 -1.1099  0.3652 -1.4480
16108SOL     OW51278   5.814   9.987   9.573  0.1319 -0.2312 -0.3047
16108SOL    HW151279   5.734   9.952   9.532  0.1575  2.3779 -2.9640
16108SOL    HW251280   5.784  10.065   9.619  0.5696 -1.6812  2.6358
16109SOL     OW51281   7.271   8.600   8.169  0.5410 -0.0252  0.0698
16109SOL    HW151282   7.263   8.575   8.261 -0.0050  0.1038  0.0633
16109SOL    HW251283   7.202   8.666   8.156  0.8420  0.2186 -0.3423
16110SOL     OW51284   2.525   1.066   9.399 -0.2566 -0.3364  0.0448
16110SOL    HW151285   2.518   1.111   9.314  1.2040  0.1515  0.1449
16110SOL    HW251286   2.457   0.999   9.397 -1.3886  0.8044 -0.7983
16111SOL     OW51287   6.871   2.520  10.191  0.1827 -0.3049  0.0277
16111SOL    HW151288   6.937   2.588  10.202  2.6236 -2.1616 -2.0395
16111SOL    HW251289   6.888   2.458  10.263  0.3901 -0.5554 -0.2363
16112SOL     OW51290   8.397   1.327   5.389  0.2000 -0.5985  0.3496
16112SOL    HW151291   8.309   1.364   5.380  0.2585 -0.6243 -0.3144
16112SOL    HW251292   8.440   1.345   5.306  0.2255 -2.1841 -0.0102
16113SOL     OW51293   0.524  10.397   2.534 -0.5796  0.0649  0.2881
16113SOL    HW151294   0.599  10.434   2.487 -0.4593  0.1316  0.5323
16113SOL    HW251295   0.561  10.329   2.590 -0.7499 -0.1486  0.1404
16114SOL     OW51296   8.633   5.418   6.461 -0.0389  0.5961  0.4798
16114SOL    HW151297   8.598   5.359   6.394 -2.1917  0.2861  1.7765
16114SOL    HW251298   8.599   5.504   6.437 -0.1023  0.6289  0.6837
16115SOL     OW51299   0.397   9.093   1.354  0.6247 -0.0990 -0.2502
16115SOL    HW151300   0.403   9.002   1.382  1.7037  0.0290  0.0026
16115SOL    HW251301   0.442   9.142   1.422 -1.4961  0.8522  0.5456
16116SOL     OW51302  10.436   7.698   2.490  0.1238  0.1136 -0.5169
16116SOL    HW151303  10.358   7.685   2.435 -0.3864 -0.9009  0.4084
16116SOL    HW251304  10.416   7.775   2.543 -1.3532 -1.5200  1.4672
16117SOL     OW51305   0.617   9.715  10.462 -0.2006 -0.2964 -0.4950
16117SOL    HW151306   0.585   9.785  10.519  1.6045  1.6540 -1.7056
16117SOL    HW251307   0.553   9.710  10.391  0.1582  0.9047 -0.9326
16118SOL     OW51308   9.334   8.484   9.884 -0.1245  0.3807  0.0292
16118SOL    HW151309   9.306   8.436   9.962 -1.3727  2.4800  0.9629
16118SOL    HW251310   9.424   8.510   9.903  0.7919 -1.9394 -0.7385
16119SOL     OW51311   4.337   3.843   4.220  0.1130 -0.0837  0.3413
16119SOL    HW151312   4.359   3.883   4.304  3.1329  1.1425 -0.9163
16119SOL    HW251313   4.397   3.769   4.211  1.3608  1.0575 -1.5654
16120SOL     OW51314  10.587   7.802  10.111  0.1190 -0.3262 -0.0699
16120SOL    HW151315  10.543   7.779  10.193 -0.3408  0.5230 -0.0740
16120SOL    HW251316  10.588   7.720  10.061  0.5360 -0.8922  0.8349
16121SOL     OW51317   5.200   5.795   0.803  0.0094 -0.0984 -0.0637
16121SOL    HW151318   5.130   5.748   0.848 -0.7412  1.4807  0.5118
16121SOL    HW251319   5.213   5.875   0.855  1.7482  0.0032 -0.5632
16122SOL     OW51320   8.743   9.570   4.170  0.1738 -0.1792  0.0974
16122SOL    HW151321   8.695   9.580   4.088  0.1756  0.9437  0.2184
16122SOL    HW251322   8.836   9.574   4.144  0.1767  1.5913  0.2881
16123SOL     OW51323   0.780   1.313   1.025 -0.6224 -0.3915  0.3367
16123SOL    HW151324   0.735   1.311   0.940  1.6665 -1.2230 -0.9588
16123SOL    HW251325   0.862   1.265   1.009  0.3256  0.3024  2.7655
16124SOL     OW51326   8.042   0.459   2.710  0.0229 -0.0682  0.1040
16124SOL    HW151327   8.099   0.382   2.700 -0.9129 -0.7716  0.1217
16124SOL    HW251328   8.063   0.514   2.635  0.6785 -0.3482  0.0752
16125SOL     OW51329   4.990   5.601   0.470 -0.2007  0.0460 -0.3173
16125SOL    HW151330   4.929   5.673   0.481 -0.2089  0.1007 -0.7208
16125SOL    HW251331   4.939   5.532   0.427  0.3449  0.5584 -1.8527
16126SOL     OW51332  10.100   0.303   5.467 -0.0931 -0.0439 -0.3679
16126SOL    HW151333  10.104   0.327   5.559  0.3639 -1.3639 -0.0210
16126SOL    HW251334  10.096   0.387   5.420  0.8922  0.6798  0.7860
16127SOL     OW51335   3.419   9.223   5.601 -0.1358 -0.0878 -0.3239
16127SOL    HW151336   3.375   9.308   5.600 -0.2841 -0.1001  1.5831
16127SOL    HW251337   3.433   9.204   5.694  0.8217 -1.6813 -0.7498
16128SOL     OW51338   6.236   2.491   5.650  0.3283 -0.1113  0.1137
16128SOL    HW151339   6.236   2.441   5.568  2.2082  0.1162 -0.0707
16128SOL    HW251340   6.243   2.424   5.719 -0.9245 -0.2828  0.0994
16129SOL     OW51341   2.509   8.432   9.185 -0.1409  0.1577 -0.2889
16129SOL    HW151342   2.497   8.361   9.123  0.9475 -1.6857  1.4943
16129SOL    HW251343   2.584   8.405   9.238 -0.2979  2.1965  1.0799
16130SOL     OW51344   4.231   5.151   4.284  0.1108  0.0549 -0.1796
16130SOL    HW151345   4.145   5.160   4.244  0.4376  0.7936 -0.7545
16130SOL    HW251346   4.218   5.175   4.376 -0.0814  1.3687 -0.5302
16131SOL     OW51347   4.120   2.595   0.563 -0.4284 -0.5060 -0.8437
16131SOL    HW151348   4.051   2.612   0.626  0.9182  0.9279  0.3247
16131SOL    HW251349   4.100   2.652   0.489  0.5429  1.4864  0.3489
16132SOL     OW51350   9.303   0.832   1.757  0.5274 -0.3428  0.1855
16132SOL    HW151351   9.279   0.919   1.726  0.8575 -0.1007  0.6096
16132SOL    HW251352   9.336   0.788   1.678 -0.8847 -0.5518 -0.3276
16133SOL     OW51353   1.638   6.686  10.068 -0.1310 -0.3423 -0.0235
16133SOL    HW151354   1.579   6.737  10.124  0.9201  1.4189 -0.4454
16133SOL    HW251355   1.722   6.688  10.112 -0.2411 -2.5462  0.3939
16134SOL     OW51356   8.502   2.837   0.458  0.3392 -0.2841 -0.4870
16134SOL    HW151357   8.467   2.766   0.404  2.1175 -2.2787  0.8365
16134SOL    HW251358   8.574   2.798   0.506  0.9342  2.2637  0.8968
16135SOL     OW51359   7.595   2.863   9.315  0.8944  0.0561 -0.2307
16135SOL    HW151360   7.641   2.836   9.235 -0.4755 -1.7726 -0.4551
16135SOL    HW251361   7.502   2.861   9.291  0.4367 -0.8735  1.4748
16136SOL     OW51362   1.445   4.323   3.363 -0.0589 -0.2117 -0.5356
16136SOL    HW151363   1.369   4.374   3.393 -1.3231 -1.3101 -1.7033
16136SOL    HW251364   1.489   4.296   3.443 -0.5197  0.9742  0.1526
16137SOL     OW51365   1.850   9.825   4.818 -0.2650  0.2626 -0.1608
16137SOL    HW151366   1.795   9.868   4.883  1.2545 -1.4027  2.3605
16137SOL    HW251367   1.787   9.788   4.755 -1.7701  1.9693  0.2507
16138SOL     OW51368   7.705   6.952   9.004 -0.0610  0.0812  0.1676
16138SOL    HW151369   7.725   6.931   8.913  1.0949  0.5852  0.2828
16138SOL    HW251370   7.609   6.952   9.008 -0.1284 -1.1532 -0.7474
16139SOL     OW51371   4.971   0.246   9.115  0.4659  0.3945 -0.4534
16139SOL    HW151372   4.908   0.185   9.077  2.2352 -0.5000 -2.0700
16139SOL    HW251373   4.991   0.209   9.201 -0.3700  0.0951 -0.3769
16140SOL     OW51374   6.461   1.239   1.115  0.7492 -1.3558 -0.2594
16140SOL    HW151375   6.509   1.321   1.103 -1.6689  0.2687  0.3597
16140SOL    HW251376   6.444   1.234   1.209 -2.2714 -0.5229 -0.6362
16141SOL     OW51377   1.105   1.077   9.637  0.3909  0.1403 -0.1678
16141SOL    HW151378   1.140   1.160   9.603  1.7112  0.2129  1.2810
16141SOL    HW251379   1.117   1.083   9.732  1.7232 -2.2432 -0.1214
16142SOL     OW51380   3.808   2.146   5.809 -0.2339  0.5788 -0.4237
16142SOL    HW151381   3.797   2.212   5.877  0.7099  0.0160  0.2970
16142SOL    HW251382   3.720   2.134   5.772 -0.3409  2.5584 -0.9096
16143SOL     OW51383   0.196   6.054   4.968  0.4721  0.2631  0.1986
16143SOL    HW151384   0.134   6.081   4.901 -1.2448 -3.4315  0.0324
16143SOL    HW251385   0.253   5.991   4.923  1.7217  0.5430  1.3407
16144SOL     OW51386   0.332   5.562   0.457  0.1347 -0.0472 -0.0851
16144SOL    HW151387   0.279   5.482   0.455  0.6143 -0.4789  1.8506
16144SOL    HW251388   0.346   5.584   0.365 -2.1734 -0.7231 -0.6652
16145SOL     OW51389   9.412   5.906   5.408  0.8759 -0.7465 -0.1315
16145SOL    HW151390   9.328   5.945   5.382  0.6532  0.2451  1.8443
16145SOL    HW251391   9.475   5.977   5.400  0.9822 -0.6959  0.9275
16146SOL     OW51392   9.273   1.337   7.022 -0.0353 -0.1438  0.1207
16146SOL    HW151393   9.361   1.351   6.987  0.3196  0.3466  1.1716
16146SOL    HW251394   9.237   1.425   7.034 -0.3984 -0.3208  0.3709
16147SOL     OW51395   0.344   0.192  10.255  0.0966  0.2844  0.2605
16147SOL    HW151396   0.306   0.187  10.167  1.5805 -2.1838 -0.3458
16147SOL    HW251397   0.276   0.157  10.312 -0.0895 -0.2159 -0.2498
16148SOL     OW51398   1.113   2.090   1.694 -0.2554  0.0009  0.1643
16148SOL    HW151399   1.203   2.073   1.721 -0.2719 -1.6476 -0.7073
16148SOL    HW251400   1.060   2.061   1.769 -0.1034  0.0573  0.2936
16149SOL     OW51401   2.429   2.116   1.040  0.6523 -0.1954  0.1581
16149SOL    HW151402   2.401   2.077   0.957 -0.2374 -0.8558  0.7518
16149SOL    HW251403   2.466   2.201   1.015 -1.9231  0.7620 -0.6808
16150SOL     OW51404   5.738   8.305   3.102 -0.4621 -0.4315 -0.3725
16150SOL    HW151405   5.798   8.302   3.028 -0.4537 -2.2014 -0.3365
16150SOL    HW251406   5.657   8.340   3.067  0.0875  0.4310 -0.7989
16151SOL     OW51407   2.940   7.325   6.759  0.0879 -0.0923  0.2106
16151SOL    HW151408   2.865   7.348   6.704 -0.0883  0.7480  0.7817
16151SOL    HW251409   2.963   7.407   6.803  4.2225  1.0383 -3.3038
16152SOL     OW51410   2.605   4.953   9.139  0.6271 -0.5879  0.0125
16152SOL    HW151411   2.620   4.858   9.136 -1.2376 -0.8945 -0.4974
16152SOL    HW251412   2.676   4.990   9.087 -0.4791 -1.9757 -2.6598
16153SOL     OW51413   6.504  10.569   2.685 -0.5257 -0.2414  0.5085
16153SOL    HW151414   6.526  10.627   2.612  0.6546  1.9975  2.4922
16153SOL    HW251415   6.569  10.499   2.680  1.4858  1.4743  1.0182
16154SOL     OW51416   6.367   3.722   5.169 -0.2483 -0.3084 -0.1511
16154SOL    HW151417   6.450   3.675   5.178  0.4015  0.9911  0.9818
16154SOL    HW251418   6.311   3.685   5.238  0.0134  0.0550  0.2617
16155SOL     OW51419   6.719   6.943   4.568 -0.1572 -0.1003 -0.1184
16155SOL    HW151420   6.784   6.873   4.575 -0.7540 -0.5883  0.8397
16155SOL    HW251421   6.770   7.022   4.552  1.2314  0.3203  4.7917
16156SOL     OW51422   5.365  10.520   4.482 -0.3136 -0.1566  0.8790
16156SOL    HW151423   5.337  10.566   4.403  1.0760  1.1546  1.1002
16156SOL    HW251424   5.396  10.435   4.451  0.2304  0.3543 -0.0148
16157SOL     OW51425   5.982   2.242   3.231 -0.1540  0.1134 -0.0876
16157SOL    HW151426   5.910   2.190   3.267  0.3801  0.4871  1.5959
16157SOL    HW251427   6.033   2.180   3.178 -0.4192 -0.6902  0.5842
16158SOL     OW51428   8.421   4.958   8.327  0.1719  0.1897 -0.5413
16158SOL    HW151429   8.369   4.909   8.391  0.2027 -1.6513 -1.8606
16158SOL    HW251430   8.358   4.987   8.261  0.4587  0.1798 -0.8230
16159SOL     OW51431  10.237   9.813   4.390  0.1474 -0.0699 -0.0612
16159SOL    HW151432  10.194   9.794   4.474  1.0853  1.1834  0.7422
16159SOL    HW251433  10.168   9.855   4.337 -0.0672  0.4717  0.6264
16160SOL     OW51434   5.926  10.152   5.188  0.2175 -0.2387  0.6854
16160SOL    HW151435   6.000  10.122   5.135 -1.0280 -0.0863 -1.2532
16160SOL    HW251436   5.894  10.072   5.231 -0.8612 -1.1123 -1.5891
16161SOL     OW51437   5.595   4.337   5.159  0.4675 -0.5694  0.5557
16161SOL    HW151438   5.616   4.326   5.066  0.7699 -0.9165  0.6642
16161SOL    HW251439   5.502   4.360   5.159  0.0926 -1.9836  0.2435
16162SOL     OW51440   7.654   9.941   2.839  0.2507 -0.2035 -0.2402
16162SOL    HW151441   7.680  10.033   2.829  0.6313 -0.1781  0.8062
16162SOL    HW251442   7.639   9.931   2.933  1.0128 -1.4150 -0.2258
16163SOL     OW51443   0.418   2.005   8.522 -0.1662 -0.0131 -0.1676
16163SOL    HW151444   0.325   1.993   8.501 -0.0704 -0.2325 -0.4691
16163SOL    HW251445   0.464   1.984   8.441  0.1544  0.0215  0.0022
16164SOL     OW51446   4.096   3.252   0.843 -0.3908  0.5396 -0.2328
16164SOL    HW151447   4.031   3.214   0.784 -2.1678  0.4082  1.7288
16164SOL    HW251448   4.147   3.178   0.874 -1.1527  0.2598  0.3798
16165SOL     OW51449   6.235   6.841   3.021  0.3302 -0.2818 -0.2601
16165SOL    HW151450   6.274   6.883   2.945 -0.5448 -0.0617 -0.5967
16165SOL    HW251451   6.235   6.747   3.000 -0.4902 -0.1697 -0.8218
16166SOL     OW51452   3.904   7.672   1.705 -0.0359  0.0324  0.0043
16166SOL    HW151453   3.947   7.758   1.708 -0.4546  0.2921 -1.1451
16166SOL    HW251454   3.835   7.678   1.772 -2.8160  2.1628 -2.7579
16167SOL     OW51455   2.147   7.924  10.016 -0.5511  0.1359 -0.6448
16167SOL    HW151456   2.203   7.869  10.071 -2.3080 -1.3301 -0.2450
16167SOL    HW251457   2.147   7.880   9.931  0.6662  1.3953 -1.3594
16168SOL     OW51458   6.324   3.188   4.940 -0.2023  0.6615 -0.1674
16168SOL    HW151459   6.389   3.253   4.964  1.5969 -0.6348 -1.3094
16168SOL    HW251460   6.349   3.109   4.988  0.3048 -0.4159 -2.0829
16169SOL     OW51461   2.366   2.269   7.709  0.1805  0.0082  0.1451
16169SOL    HW151462   2.446   2.246   7.664 -1.0683 -0.9211 -1.7240
16169SOL    HW251463   2.369   2.218   7.790  1.4128 -0.0766  0.0609
16170SOL     OW51464   5.664   6.686   3.607 -0.0720  0.0515 -0.2232
16170SOL    HW151465   5.704   6.603   3.635  1.3310  0.5394 -0.6996
16170SOL    HW251466   5.689   6.749   3.674 -1.7449 -0.0172  0.5272
16171SOL     OW51467   8.864   4.747   4.083  0.5203 -0.2009 -0.4240
16171SOL    HW151468   8.790   4.687   4.095 -0.2090  0.7893  0.1945
16171SOL    HW251469   8.918   4.733   4.161  1.6799 -1.7948 -1.4293
16172SOL     OW51470   4.006   6.717   5.532 -0.9025  0.0139  0.0447
16172SOL    HW151471   3.962   6.774   5.469 -1.5445 -0.1475  0.3323
16172SOL    HW251472   3.991   6.759   5.617 -0.0508  0.2251  0.0986
16173SOL     OW51473   7.062   0.472   3.344  0.0064  0.4185  0.3410
16173SOL    HW151474   7.133   0.429   3.390  0.2411 -0.5121 -0.8261
16173SOL    HW251475   7.078   0.565   3.355  0.6502  0.2118  1.2053
16174SOL     OW51476   9.192   7.521   0.895 -0.2913 -0.1127  0.0127
16174SOL    HW151477   9.204   7.488   0.806 -1.6013 -0.7003  0.0311
16174SOL    HW251478   9.218   7.449   0.952  0.7270  0.3271  0.1315
16175SOL     OW51479   2.099   6.490   4.944  0.5028 -0.4205  0.2382
16175SOL    HW151480   2.056   6.550   5.005  1.1148  1.7910 -1.3870
16175SOL    HW251481   2.028   6.435   4.910 -0.4117  0.6694  0.3467
16176SOL     OW51482   6.151   5.519   3.135  0.4777 -0.7130  0.2172
16176SOL    HW151483   6.100   5.547   3.059  0.8615  0.5722  0.4009
16176SOL    HW251484   6.087   5.480   3.194 -0.1194 -0.0766  0.0001
16177SOL     OW51485   4.144   7.382   5.832  0.2250 -0.1355 -0.4735
16177SOL    HW151486   4.223   7.368   5.884  0.5725 -0.1044 -0.9917
16177SOL    HW251487   4.134   7.477   5.828  1.2718 -0.0545 -2.0454
16178SOL     OW51488   0.138   8.439   4.576 -0.0005 -0.0728 -1.0092
16178SOL    HW151489   0.154   8.348   4.551 -0.4627  0.1435 -2.1448
16178SOL    HW251490   0.212   8.488   4.539  0.7601 -0.0995  0.4270
16179SOL     OW51491   8.925   8.149   6.548 -0.2334  0.2723 -0.3376
16179SOL    HW151492   9.002   8.173   6.496  0.6671 -2.1637 -0.2659
16179SOL    HW251493   8.960   8.126   6.634 -0.7895 -2.0217 -0.6401
16180SOL     OW51494   4.156   6.330   6.082  0.9037 -0.5017 -0.1079
16180SOL    HW151495   4.101   6.348   6.006  0.0716 -2.4709 -0.0420
16180SOL    HW251496   4.243   6.361   6.058  0.2349  0.6609 -1.0851
16181SOL     OW51497   7.653   7.271   0.399 -0.1344 -0.4709 -0.3830
16181SOL    HW151498   7.668   7.176   0.392 -1.4526 -0.8619  1.4560
16181SOL    HW251499   7.645   7.287   0.493 -0.0413  1.4770 -0.6655
16182SOL     OW51500   5.218   7.124   9.501 -0.5566  0.0325 -0.6179
16182SOL    HW151501   5.152   7.073   9.453  0.3733 -0.1571 -1.7540
16182SOL    HW251502   5.168   7.194   9.544 -1.6783 -0.9896 -0.1897
16183SOL     OW51503   6.742  10.317   0.000 -0.5485 -0.3697 -0.1698
16183SOL    HW151504   6.782  10.276   0.077 -0.1070  2.0906  1.0112
16183SOL    HW251505   6.662  10.267  -0.015  0.4992 -2.3251  0.4446
16184SOL     OW51506   1.882   1.366   1.090 -0.3420  0.1352 -0.3998
16184SOL    HW151507   1.933   1.288   1.109 -1.3257 -0.3409  0.3607
16184SOL    HW251508   1.940   1.420   1.036  0.3033 -1.1758 -1.0664
16185SOL     OW51509   3.653   9.827   0.234 -0.9999  0.1592 -0.0682
16185SOL    HW151510   3.673   9.900   0.176 -1.6108 -0.3972 -1.0068
16185SOL    HW251511   3.719   9.833   0.304 -1.1022  1.6483 -0.0678
16186SOL     OW51512   5.321   1.634   7.062  0.1989 -0.0855 -0.1714
16186SOL    HW151513   5.359   1.715   7.028 -1.2401  1.0141  0.7314
16186SOL    HW251514   5.357   1.625   7.150  1.4581 -1.2319 -0.7628
16187SOL     OW51515   3.803   5.339   9.580 -0.1050  0.4800  0.0284
16187SOL    HW151516   3.867   5.293   9.634 -0.3977 -0.7528 -0.6310
16187SOL    HW251517   3.809   5.296   9.494  1.3409  3.2540 -1.4079
16188SOL     OW51518   8.990   1.764   0.865 -0.0508  0.6915 -0.0118
16188SOL    HW151519   8.966   1.782   0.956 -1.0672 -1.1282  0.1265
16188SOL    HW251520   8.961   1.842   0.817  0.6244  1.7363  1.2097
16189SOL     OW51521   8.133   1.636   5.892  0.3316  0.8258  0.1996
16189SOL    HW151522   8.195   1.574   5.930 -1.6591 -0.0545  2.2580
16189SOL    HW251523   8.154   1.720   5.934  0.7441  0.7643  0.1223
16190SOL     OW51524   1.875   1.293   2.893  0.5230 -0.5130  0.3456
16190SOL    HW151525   1.841   1.204   2.895  1.4343 -0.8764  0.1288
16190SOL    HW251526   1.818   1.339   2.831  0.0935 -0.9526  0.4071
16191SOL     OW51527   9.962   0.628   7.303 -0.0719 -0.4701  0.1342
16191SOL    HW151528   9.945   0.588   7.218 -1.2790  0.1816  0.0423
16191SOL    HW251529   9.957   0.556   7.366 -0.0540 -0.8072 -0.2508
16192SOL     OW51530   6.022   1.759   0.736  0.6056  0.2810 -0.1562
16192SOL    HW151531   5.931   1.789   0.736  1.1985  2.2858 -0.1865
16192SOL    HW251532   6.036   1.723   0.824  0.1003  1.1082  0.2774
16193SOL     OW51533   3.639   1.108   6.211  0.3259 -0.0411  0.0060
16193SOL    HW151534   3.632   1.030   6.267  0.2927 -1.1084 -1.4243
16193SOL    HW251535   3.720   1.095   6.161 -0.0999  0.4236 -0.8338
16194SOL     OW51536  10.670   1.148   4.967 -0.2510 -0.1336  0.0340
16194SOL    HW151537  10.764   1.132   4.957 -0.2409 -1.2506  1.5676
16194SOL    HW251538  10.664   1.229   5.017 -0.0779 -0.5898  0.7967
16195SOL     OW51539   1.861   9.929   8.581 -0.0126  0.2324  0.4705
16195SOL    HW151540   1.897   9.849   8.543 -0.3318  0.4002 -0.1935
16195SOL    HW251541   1.907  10.000   8.537  1.7246  0.4330  2.4654
16196SOL     OW51542   6.795   6.888   9.161 -0.2396 -0.0701  0.5382
16196SOL    HW151543   6.788   6.793   9.150  0.6110 -0.5702  3.4622
16196SOL    HW251544   6.870   6.900   9.219 -1.4481  2.2540  1.7679
16197SOL     OW51545   1.373   5.409   2.361 -0.4321  0.3821  0.4588
16197SOL    HW151546   1.432   5.375   2.429  0.1186 -0.3051 -0.3387
16197SOL    HW251547   1.392   5.502   2.356  0.1942  0.2613  0.5932
16198SOL     OW51548   9.200   6.876   8.332  0.0809  0.3637  0.5461
16198SOL    HW151549   9.128   6.821   8.363  0.3595  0.9276  2.3343
16198SOL    HW251550   9.184   6.961   8.371  0.5365  1.1316 -0.8657
16199SOL     OW51551   3.069   8.640   4.503 -0.6873 -0.0182 -0.1257
16199SOL    HW151552   3.043   8.714   4.449  2.3963  1.7173  0.5248
16199SOL    HW251553   3.046   8.667   4.592  0.1589  0.0164  0.0838
16200SOL     OW51554   2.690   9.204   1.502 -0.2578  0.1680  0.4026
16200SOL    HW151555   2.719   9.121   1.539  0.8406  0.3472 -0.0164
16200SOL    HW251556   2.630   9.179   1.431  0.3332 -0.2881  0.0538
16201SOL     OW51557   1.394   3.861   4.443 -0.1967 -0.3602  0.1312
16201SOL    HW151558   1.461   3.792   4.444  0.8115  0.5895  1.0700
16201SOL    HW251559   1.421   3.919   4.372 -0.7343 -0.6194 -0.2929
16202SOL     OW51560   7.060   9.124   2.834  0.0276 -0.1813 -0.1433
16202SOL    HW151561   7.064   9.217   2.812 -1.3124  0.2787  1.3986
16202SOL    HW251562   7.136   9.110   2.891  1.1772 -0.4483 -1.6870
16203SOL     OW51563   5.526   7.307   9.260  0.8334 -0.5295  0.1206
16203SOL    HW151564   5.496   7.396   9.280 -1.1331 -0.8954 -0.9060
16203SOL    HW251565   5.573   7.316   9.177  2.1606 -0.2158  0.8797
16204SOL     OW51566   3.878   1.981   1.460 -0.2101  0.2032  0.3028
16204SOL    HW151567   3.937   2.013   1.392 -0.7911  1.2265  0.2617
16204SOL    HW251568   3.937   1.947   1.528  0.4415  1.2608  0.2975
16205SOL     OW51569   9.658   2.942   4.204 -0.0764  0.0580  0.0835
16205SOL    HW151570   9.583   2.919   4.149 -0.6685 -0.5259  1.1032
16205SOL    HW251571   9.698   3.017   4.160 -2.0337  1.2396  0.1760
16206SOL     OW51572  10.045   5.310   3.917 -0.1198  0.1955  0.0718
16206SOL    HW151573  10.098   5.390   3.920 -0.6019  0.4846  1.5483
16206SOL    HW251574   9.955   5.341   3.908 -0.3556 -0.1393  1.1023
16207SOL     OW51575   5.325   1.640   2.297  0.0861 -0.0054 -0.0652
16207SOL    HW151576   5.360   1.653   2.210  0.4176  1.2344  0.2415
16207SOL    HW251577   5.276   1.558   2.291 -2.0321  1.2751 -2.1075
16208SOL     OW51578   6.400   6.907   5.128  0.6488 -0.0087  0.0610
16208SOL    HW151579   6.370   6.980   5.182  0.0216  0.2945 -0.6798
16208SOL    HW251580   6.375   6.931   5.039  1.9153 -0.3751 -0.4152
16209SOL     OW51581   2.828   0.032   7.601  0.5938 -0.2343  0.2241
16209SOL    HW151582   2.800   0.014   7.691 -0.7018 -1.8265 -0.4359
16209SOL    HW251583   2.749   0.067   7.559  1.6660  2.1779  0.1070
16210SOL     OW51584   4.792   4.621   3.366 -0.1480 -0.2485 -0.3943
16210SOL    HW151585   4.757   4.605   3.278 -0.2938  2.0394 -0.8161
16210SOL    HW251586   4.857   4.552   3.378 -0.0031 -0.5234 -2.3577
16211SOL     OW51587   3.764   5.984  10.624  0.3744  0.2705  0.0207
16211SOL    HW151588   3.737   6.036  10.699 -4.0347 -0.0944 -1.0064
16211SOL    HW251589   3.746   6.040  10.548 -1.7724 -1.5661 -0.9621
16212SOL     OW51590   4.752   7.355   6.285 -0.2687 -0.0434 -0.1014
16212SOL    HW151591   4.727   7.445   6.307  0.6677  0.0411  0.7036
16212SOL    HW251592   4.843   7.362   6.255 -0.5025 -0.6019 -0.9847
16213SOL     OW51593   7.186   7.560   7.131 -0.2881  0.2429  0.2835
16213SOL    HW151594   7.179   7.646   7.090 -0.3157 -0.7749 -2.0137
16213SOL    HW251595   7.110   7.555   7.189  0.5940  2.3463  1.7569
16214SOL     OW51596   1.900   6.491   0.006 -0.2139  0.3781  0.4077
16214SOL    HW151597   1.940   6.550   0.070 -0.0322 -1.0411  1.6656
16214SOL    HW251598   1.806   6.494   0.026 -0.3311  0.9194 -0.1554
16215SOL     OW51599   7.740  10.595   8.507 -0.1328 -0.0940 -0.8027
16215SOL    HW151600   7.767  10.510   8.543 -0.3282  0.2285  0.1181
16215SOL    HW251601   7.656  10.613   8.549 -1.1969 -0.4667 -2.6506
16216SOL     OW51602   9.551   0.542   3.679  0.5113  0.4354  0.6520
16216SOL    HW151603   9.530   0.544   3.586  0.3758  0.6601  0.6871
16216SOL    HW251604   9.627   0.484   3.685 -1.1949 -1.9514  0.7262
16217SOL     OW51605   0.957   6.940   0.191  0.2456  0.2457 -0.4015
16217SOL    HW151606   0.941   7.027   0.155 -0.9418 -0.5891 -2.0284
16217SOL    HW251607   0.988   6.956   0.280  0.2570  2.3240 -0.7310
16218SOL     OW51608   7.315   5.873   6.737 -0.2625 -0.2984  0.3556
16218SOL    HW151609   7.308   5.780   6.715  0.3235 -0.0500 -1.0121
16218SOL    HW251610   7.384   5.878   6.803 -1.2705 -0.9581  1.5082
16219SOL     OW51611   9.513   3.891   1.242 -0.0658  0.7468  0.2243
16219SOL    HW151612   9.538   3.982   1.231 -0.2445  0.8407  0.5767
16219SOL    HW251613   9.548   3.867   1.328  0.2437  0.3934  0.0034
16220SOL     OW51614   3.943   1.036   2.804 -0.2769 -0.1858  0.0898
16220SOL    HW151615   3.942   1.105   2.870  0.7761  1.1634 -1.2299
16220SOL    HW251616   4.030   1.042   2.764 -0.2649 -2.0920 -0.2809
16221SOL     OW51617   8.347   1.009   5.904 -0.0792 -0.6497 -0.0600
16221SOL    HW151618   8.276   1.012   5.840 -1.1257 -0.5571  1.0637
16221SOL    HW251619   8.305   1.032   5.987  0.7790 -2.7385  1.0301
16222SOL     OW51620   8.119   5.412   8.224  0.1782  0.0511 -0.0344
16222SOL    HW151621   8.102   5.397   8.317 -1.3282 -0.0419 -0.3049
16222SOL    HW251622   8.195   5.471   8.222  0.8914 -0.7739  1.2127
16223SOL     OW51623   6.544   5.776   4.702 -0.1014 -0.0163  0.4966
16223SOL    HW151624   6.467   5.778   4.646  0.7501 -2.2188 -0.8902
16223SOL    HW251625   6.522   5.832   4.777 -2.3285  0.7982 -0.7030
16224SOL     OW51626   3.853   3.667   1.814  0.0924 -0.4207 -0.0771
16224SOL    HW151627   3.792   3.739   1.796  0.1381 -0.9232 -2.6347
16224SOL    HW251628   3.928   3.709   1.855 -0.3890  0.7942 -0.3759
16225SOL     OW51629   3.234   3.655   6.159 -0.1973  0.0203  0.2263
16225SOL    HW151630   3.216   3.561   6.164 -2.8694  0.5384  1.5267
16225SOL    HW251631   3.193   3.683   6.077 -0.7588  0.2932  0.5929
16226SOL     OW51632   5.921   3.001   4.428  0.1087 -0.7021  0.1811
16226SOL    HW151633   5.998   2.981   4.482  0.4978  1.6818  0.6355
16226SOL    HW251634   5.933   3.093   4.403 -1.8582 -0.7176 -0.9924
16227SOL     OW51635   0.675   3.682   7.333  0.5627  0.2565  0.1869
16227SOL    HW151636   0.724   3.662   7.253  0.4329 -0.7824  0.3425
16227SOL    HW251637   0.720   3.631   7.401  1.7385  2.4472  1.1554
16228SOL     OW51638   0.730  10.059   3.297 -0.2175 -0.4741  0.2462
16228SOL    HW151639   0.810  10.031   3.252 -0.7008 -1.4885 -0.0254
16228SOL    HW251640   0.760  10.094   3.381  0.4036 -2.9468  1.1476
16229SOL     OW51641   8.800   7.025   7.792 -0.0771 -0.8677  0.5514
16229SOL    HW151642   8.786   7.111   7.830 -0.1354 -0.6832  0.1153
16229SOL    HW251643   8.715   6.982   7.797 -0.5470 -0.1708 -1.0405
16230SOL     OW51644   8.985   2.308  10.455  1.3314 -0.1177  0.6660
16230SOL    HW151645   9.064   2.298  10.402 -0.2022 -0.1228 -1.8058
16230SOL    HW251646   9.012   2.360  10.530  3.3997  1.0692 -0.7990
16231SOL     OW51647   1.406   2.732   9.413 -0.5687  0.3697 -0.2972
16231SOL    HW151648   1.464   2.806   9.431 -1.0813  0.4774  0.9831
16231SOL    HW251649   1.358   2.758   9.334  3.1211 -0.9423 -3.2852
16232SOL     OW51650   0.864   5.802   3.234 -0.4974 -0.0240  0.0161
16232SOL    HW151651   0.875   5.707   3.232 -1.2504 -0.1703  1.3215
16232SOL    HW251652   0.842   5.821   3.326 -2.6493  1.1291 -0.6678
16233SOL     OW51653   8.601   9.843   1.279 -1.0169  0.2343  0.1808
16233SOL    HW151654   8.571   9.907   1.215 -1.3467 -0.5577 -0.4804
16233SOL    HW251655   8.554   9.865   1.360  0.8410  2.4582  0.7774
16234SOL     OW51656   7.576   7.410   9.051 -0.0580 -0.2334  0.2411
16234SOL    HW151657   7.496   7.463   9.048  1.1728  1.7126  0.0235
16234SOL    HW251658   7.557   7.335   8.994 -2.0950 -0.4170  1.0784
16235SOL     OW51659   7.930   3.851   3.911  0.0841  0.2484 -0.3122
16235SOL    HW151660   7.899   3.879   3.998  0.4413 -1.7033  0.4910
16235SOL    HW251661   8.025   3.862   3.915 -0.0437  1.9800 -1.1831
16236SOL     OW51662   3.340   3.459   1.263  0.0282  0.5804  0.1329
16236SOL    HW151663   3.389   3.422   1.337  1.5782  0.6469 -0.8317
16236SOL    HW251664   3.338   3.553   1.280  1.5353  0.7604 -0.5298
16237SOL     OW51665   8.603   9.442   5.751 -0.4583 -0.1990  0.1441
16237SOL    HW151666   8.677   9.392   5.785  0.8042  1.6742  0.2991
16237SOL    HW251667   8.553   9.468   5.829 -0.3474 -0.0822  0.1771
16238SOL     OW51668   1.778   9.823  10.094  0.4082  0.0237 -0.0944
16238SOL    HW151669   1.724   9.746  10.110 -0.7225  0.5505 -1.2121
16238SOL    HW251670   1.860   9.805  10.140 -0.2788 -1.3089  0.6604
16239SOL     OW51671   8.233   0.414   7.491 -0.8350 -0.0903 -0.0522
16239SOL    HW151672   8.219   0.392   7.583 -0.2704 -0.9860 -0.1723
16239SOL    HW251673   8.263   0.505   7.493  0.3727 -0.4750  0.7650
16240SOL     OW51674   3.602   4.098   6.550  0.2805 -0.2524  0.0808
16240SOL    HW151675   3.656   4.131   6.478 -1.4286  2.3151 -0.1811
16240SOL    HW251676   3.610   4.003   6.545  0.8160 -0.1480 -3.0617
16241SOL     OW51677   1.032   9.689   6.720  0.7146  0.3715 -0.0122
16241SOL    HW151678   1.070   9.648   6.643 -1.1390 -0.9384 -0.2883
16241SOL    HW251679   1.053   9.782   6.711  2.2338 -0.0377 -1.0327
16242SOL     OW51680   8.244  10.006   3.874  0.0162 -0.2733  0.4835
16242SOL    HW151681   8.237   9.913   3.851 -0.2441  0.0232 -0.6935
16242SOL    HW251682   8.246  10.052   3.789 -0.4056  0.8334  1.0585
16243SOL     OW51683   2.162   1.938  10.497 -0.4937  0.7193 -0.4656
16243SOL    HW151684   2.146   2.010  10.558  2.2453  0.4361  0.7171
16243SOL    HW251685   2.103   1.956  10.424 -2.4787  2.1531  1.3606
16244SOL     OW51686   2.944   3.127   8.745  0.4766  0.2897  0.4727
16244SOL    HW151687   2.926   3.033   8.752 -0.5196  0.4189 -0.1055
16244SOL    HW251688   3.003   3.134   8.671  1.5984  0.0135  1.3184
16245SOL     OW51689   7.164   6.135   0.013  0.2884  0.1091 -0.1751
16245SOL    HW151690   7.076   6.164  -0.010 -0.2921 -0.6570  1.0199
16245SOL    HW251691   7.201   6.103  -0.070 -1.2191 -1.2669 -0.3661
16246SOL     OW51692   1.014   0.884  10.054 -0.1264  0.3006  0.2812
16246SOL    HW151693   1.051   0.972  10.060  0.5349  0.0475 -0.0008
16246SOL    HW251694   1.017   0.864   9.960  0.7839 -0.4680  0.4719
16247SOL     OW51695   1.596   9.818   5.833  0.3032 -0.3666  0.0656
16247SOL    HW151696   1.658   9.748   5.852  0.4238 -0.6594 -1.3230
16247SOL    HW251697   1.520   9.774   5.796  0.5414  0.2361 -1.2149
16248SOL     OW51698  10.423   3.223   0.188  0.3015 -0.1604 -0.4618
16248SOL    HW151699  10.480   3.146   0.178 -0.2900 -0.4326 -1.9270
16248SOL    HW251700  10.345   3.202   0.137  0.6374  1.9190 -1.9517
16249SOL     OW51701   2.195   6.146   8.296  0.2441 -1.1491 -0.4479
16249SOL    HW151702   2.125   6.109   8.242  0.0981 -0.6082 -0.6416
16249SOL    HW251703   2.151   6.211   8.351  0.7645  0.2203 -1.5541
16250SOL     OW51704   8.704   7.736   3.847 -0.6460  0.3712  0.3055
16250SOL    HW151705   8.710   7.801   3.778  0.5086  0.2326  0.2427
16250SOL    HW251706   8.729   7.783   3.927 -0.6843  0.2223  0.4060
16251SOL     OW51707   5.493   8.292   0.005  0.4883 -0.3214  0.1893
16251SOL    HW151708   5.482   8.357  -0.065  2.0578 -0.6292 -0.4006
16251SOL    HW251709   5.410   8.292   0.052 -0.5340  0.0863 -1.5272
16252SOL     OW51710   9.640   7.941   6.495  0.5936  0.8495  0.1899
16252SOL    HW151711   9.607   7.950   6.406 -1.6102 -1.6774  0.6057
16252SOL    HW251712   9.733   7.922   6.484  0.2945  0.2096 -1.6326
16253SOL     OW51713   7.526  10.515   5.695  0.3095  0.2989 -0.1189
16253SOL    HW151714   7.510  10.587   5.634  0.0944 -0.4683 -0.9915
16253SOL    HW251715   7.464  10.447   5.669  0.8446 -0.3956  0.3675
16254SOL     OW51716   7.067   8.763   5.163 -0.1729  0.4267  0.0555
16254SOL    HW151717   7.032   8.733   5.247  0.9215  0.2713  0.4677
16254SOL    HW251718   7.157   8.731   5.162  0.6618  2.6119 -0.0345
16255SOL     OW51719   6.794   0.587   8.315 -0.2013 -0.0856 -0.1427
16255SOL    HW151720   6.775   0.494   8.318 -0.4683 -0.0137  0.6565
16255SOL    HW251721   6.751   0.618   8.236  0.7836 -0.8222 -0.9888
16256SOL     OW51722   0.509   2.657   4.983  0.4845  0.0445  0.3968
16256SOL    HW151723   0.448   2.689   4.916  1.0805  0.9936  0.2798
16256SOL    HW251724   0.594   2.659   4.939  0.6613 -0.8367  0.6994
16257SOL     OW51725   4.115   4.688   1.872  0.0265 -0.3152 -0.3356
16257SOL    HW151726   4.104   4.679   1.966  0.3699  0.8660 -0.1660
16257SOL    HW251727   4.042   4.745   1.845  0.5050  0.1728 -0.6146
16258SOL     OW51728   1.411   1.873   5.872  0.6094  0.4055  0.1841
16258SOL    HW151729   1.400   1.809   5.943  0.6023  1.3369  1.0384
16258SOL    HW251730   1.457   1.825   5.804 -0.5225 -0.8993  0.2818
16259SOL     OW51731   0.272   4.537   4.731 -0.0457 -0.0076 -0.2595
16259SOL    HW151732   0.188   4.526   4.686 -0.5278 -0.3456  0.7100
16259SOL    HW251733   0.332   4.482   4.681 -0.1125  1.0848 -1.6342
16260SOL     OW51734   3.447   0.028   7.073 -0.5548 -0.0167 -0.1434
16260SOL    HW151735   3.491   0.063   6.996  0.0968  0.6758  0.5192
16260SOL    HW251736   3.519  -0.003   7.129 -0.8892  1.1240  0.9597
16261SOL     OW51737   8.568   2.408   7.831  0.0722 -0.1626 -0.7621
16261SOL    HW151738   8.547   2.367   7.915 -0.1701 -0.1757 -0.8284
16261SOL    HW251739   8.490   2.458   7.809  0.7362  1.1704 -0.1800
16262SOL     OW51740   4.234  10.663   6.865 -0.3635 -0.9857  0.0698
16262SOL    HW151741   4.160  10.701   6.818 -0.4779 -0.6624  0.4961
16262SOL    HW251742   4.227  10.569   6.850 -0.4463 -0.8948 -0.4813
16263SOL     OW51743   5.612   3.532   0.605  0.0043  0.3284 -0.0404
16263SOL    HW151744   5.532   3.479   0.602  0.3470 -0.4642  2.5946
16263SOL    HW251745   5.583   3.616   0.640  0.2275  0.2254  0.3944
16264SOL     OW51746   6.827   4.730   0.180  0.3910 -0.0427 -0.0564
16264SOL    HW151747   6.774   4.806   0.203  0.0204  0.2941 -1.9025
16264SOL    HW251748   6.771   4.655   0.199 -0.3427  0.2681 -0.9274
16265SOL     OW51749   8.171   2.585   2.948  0.2465 -0.4593  0.2675
16265SOL    HW151750   8.118   2.589   2.869 -0.0397 -0.6949  0.4415
16265SOL    HW251751   8.230   2.660   2.943 -1.2475  0.7998  0.8803
16266SOL     OW51752   3.122   7.276   2.612 -0.6050 -0.4115  0.0507
16266SOL    HW151753   3.148   7.274   2.704  2.3629  1.4630 -0.6096
16266SOL    HW251754   3.082   7.363   2.600  1.1251  0.3024 -0.8456
16267SOL     OW51755   7.125   6.395   4.124  0.3567 -0.1484 -0.5611
16267SOL    HW151756   7.120   6.412   4.030  2.8643 -1.1601 -0.9420
16267SOL    HW251757   7.092   6.306   4.134 -1.7669  0.6146 -0.1378
16268SOL     OW51758  10.114   2.736   5.949 -1.3188  0.4644  0.1066
16268SOL    HW151759  10.117   2.644   5.974  0.6635  0.4238 -0.1421
16268SOL    HW251760  10.134   2.783   6.030  0.6101  0.5154 -0.3541
16269SOL     OW51761   8.151   4.380   1.378 -0.2501  0.3500 -0.1789
16269SOL    HW151762   8.233   4.332   1.365  0.2035  0.5515  1.6119
16269SOL    HW251763   8.147   4.395   1.473 -2.4159  0.2597 -0.2055
16270SOL     OW51764   3.369   1.869   5.133 -0.1733 -0.3484  0.0801
16270SOL    HW151765   3.420   1.945   5.163 -2.2103  1.8539 -1.6117
16270SOL    HW251766   3.388   1.864   5.039 -0.5729 -1.5707  0.0534
16271SOL     OW51767   8.016   2.307   5.492 -0.3970  0.3133 -0.6281
16271SOL    HW151768   8.082   2.289   5.425 -0.3526  0.3335 -0.5900
16271SOL    HW251769   7.986   2.396   5.473  1.2491  1.2317  0.7322
16272SOL     OW51770   6.934   3.924   7.966 -0.1635 -0.3859  0.0097
16272SOL    HW151771   6.966   3.883   7.885  2.1088  0.3536  0.4517
16272SOL    HW251772   6.915   3.851   8.025  0.4995 -0.8752 -0.3750
16273SOL     OW51773   8.565   4.708   9.368  0.5924 -0.1590 -0.0051
16273SOL    HW151774   8.555   4.735   9.460 -0.9880  0.9581 -0.4616
16273SOL    HW251775   8.532   4.782   9.318  0.0045 -1.3427 -1.4341
16274SOL     OW51776   3.292   7.045   3.452  0.1821  0.0265  0.1895
16274SOL    HW151777   3.342   7.111   3.499  1.0087  0.6994 -1.5284
16274SOL    HW251778   3.203   7.052   3.485  0.1415  2.3643 -0.2878
16275SOL     OW51779   9.754   2.672   2.719 -0.4245  0.1687 -0.0446
16275SOL    HW151780   9.820   2.639   2.658  0.3147  0.9306  0.3202
16275SOL    HW251781   9.778   2.633   2.803 -1.2727 -0.6552 -0.1791
16276SOL     OW51782   3.687   6.364   9.800 -0.5380  0.0952 -0.1843
16276SOL    HW151783   3.757   6.308   9.831  0.4829  0.3521 -1.8874
16276SOL    HW251784   3.728   6.450   9.790 -1.2190  0.3727 -0.6799
16277SOL     OW51785   8.142   2.377   4.992 -0.1243 -0.7108  0.2057
16277SOL    HW151786   8.151   2.452   4.933  3.6936  0.1119  1.5015
16277SOL    HW251787   8.109   2.414   5.074  1.4489 -0.3752  0.7399
16278SOL     OW51788   6.378   3.785   3.921 -0.4071 -0.5921  0.1483
16278SOL    HW151789   6.293   3.744   3.941 -0.0839 -0.7790  1.2273
16278SOL    HW251790   6.362   3.879   3.929 -0.2327 -0.6652  1.6502
16279SOL     OW51791   7.122   6.637   0.691 -0.1699 -0.3133  0.4446
16279SOL    HW151792   7.077   6.710   0.648  0.1614 -0.8928 -0.9264
16279SOL    HW251793   7.184   6.680   0.750 -0.4240  0.5043  0.1390
16280SOL     OW51794   0.096   3.484  10.510  0.0824 -0.0100 -0.1203
16280SOL    HW151795   0.005   3.478  10.482  0.2182  0.5432 -0.7123
16280SOL    HW251796   0.099   3.561  10.566 -0.1715 -1.0698  1.4115
16281SOL     OW51797   4.631   2.935   8.835 -0.6231 -0.0089 -0.2682
16281SOL    HW151798   4.631   2.848   8.874  0.7209 -0.2814 -0.8144
16281SOL    HW251799   4.681   2.989   8.896  0.5590 -0.1877 -1.0430
16282SOL     OW51800   6.793   7.528   6.009  0.5357 -0.0911  0.1255
16282SOL    HW151801   6.714   7.491   6.049  0.2644  0.9757  0.6153
16282SOL    HW251802   6.855   7.455   6.009  0.0613 -0.5321  1.1724
16283SOL     OW51803   2.387   7.544   2.027  0.1460  0.3337 -0.1158
16283SOL    HW151804   2.479   7.524   2.008  0.2503  0.4120  0.2996
16283SOL    HW251805   2.386   7.566   2.120 -0.6504 -1.8923  0.4692
16284SOL     OW51806   8.803   6.048   8.289 -0.3299 -0.5112  0.1261
16284SOL    HW151807   8.827   6.025   8.379  0.7870 -0.6837 -0.1904
16284SOL    HW251808   8.865   6.117   8.266 -0.9124 -0.1507 -0.3603
16285SOL     OW51809   6.003   7.612   8.283 -0.3002 -0.0577 -0.6280
16285SOL    HW151810   6.031   7.652   8.366 -0.9848 -0.0613 -0.3924
16285SOL    HW251811   6.084   7.606   8.232  0.2097 -0.4162  0.1871
16286SOL     OW51812   5.291   4.780   9.380  0.0747  0.1650  0.1350
16286SOL    HW151813   5.237   4.805   9.455  2.0416  0.6299  1.4875
16286SOL    HW251814   5.341   4.704   9.410  0.0173 -0.4180 -1.1583
16287SOL     OW51815   2.839   1.651   2.895 -0.2633  0.0122  0.2710
16287SOL    HW151816   2.789   1.574   2.924 -1.2111 -0.1651 -1.7110
16287SOL    HW251817   2.844   1.642   2.800 -0.1145  2.2533  0.0249
16288SOL     OW51818   0.253   2.290   0.658  0.0174  0.1760  0.2373
16288SOL    HW151819   0.217   2.247   0.736  0.0048  0.9782  0.6911
16288SOL    HW251820   0.262   2.382   0.684  0.4209  0.3736 -0.5707
16289SOL     OW51821  10.138   1.464   1.120  0.3921  0.1943 -0.4133
16289SOL    HW151822  10.207   1.472   1.186  0.8080  0.5541 -0.8827
16289SOL    HW251823  10.149   1.376   1.084  1.3084  0.6076 -1.2275
16290SOL     OW51824   2.601   6.952  10.144 -0.5318  0.5667  0.1743
16290SOL    HW151825   2.583   7.026  10.086  2.1061  1.4346  0.3385
16290SOL    HW251826   2.624   6.992  10.228  1.3772 -0.3285  0.1488
16291SOL     OW51827   5.562   7.537   3.990 -0.0580  0.1824 -0.1835
16291SOL    HW151828   5.515   7.458   4.017  2.4929 -1.0935  0.8396
16291SOL    HW251829   5.551   7.597   4.064  2.0586 -1.1459  1.3283
16292SOL     OW51830   9.806   2.191   2.032 -0.0266 -0.0266  0.2238
16292SOL    HW151831   9.872   2.164   1.968  0.8502  1.9656  0.1973
16292SOL    HW251832   9.824   2.138   2.109 -0.4429 -1.7325 -0.7979
16293SOL     OW51833   1.817  10.651   7.521 -0.0094 -0.0861  0.3818
16293SOL    HW151834   1.742  10.592   7.505 -0.1475  0.0449  0.5465
16293SOL    HW251835   1.867  10.608   7.590 -0.0173 -0.0927  0.3832
16294SOL     OW51836   5.898   3.482   0.669  0.0152  0.7681 -0.1301
16294SOL    HW151837   5.807   3.511   0.677 -0.1704 -0.0591  0.9697
16294SOL    HW251838   5.938   3.547   0.612 -0.9351  1.9157  0.4512
16295SOL     OW51839   9.846   6.595  10.554  0.0074 -0.3820  0.3715
16295SOL    HW151840   9.853   6.640  10.638  0.8534  0.5317 -0.1707
16295SOL    HW251841   9.860   6.503  10.575 -1.3789 -0.3866  1.4469
16296SOL     OW51842   5.732   4.023   4.809 -0.6447  0.2998 -0.1728
16296SOL    HW151843   5.793   4.061   4.872 -0.0549 -0.1631 -0.4577
16296SOL    HW251844   5.713   3.936   4.843  0.0934 -0.1633 -0.8868
16297SOL     OW51845  10.653   6.930   9.859 -0.4462 -0.2876  0.0706
16297SOL    HW151846  10.618   7.016   9.838 -0.6064 -0.7808 -1.9152
16297SOL    HW251847  10.576   6.873   9.860 -0.4099 -0.3619  1.8866
16298SOL     OW51848  10.164   2.709   7.167 -0.0985 -0.6795 -0.0203
16298SOL    HW151849  10.215   2.787   7.186  1.8641 -1.3269 -2.1727
16298SOL    HW251850  10.181   2.691   7.074 -2.5335 -2.2140 -0.2478
16299SOL     OW51851   8.144   1.788   2.547  0.2521 -0.0157 -0.5810
16299SOL    HW151852   8.176   1.850   2.612 -1.5177  0.2168  0.1129
16299SOL    HW251853   8.223   1.759   2.500  1.4913  0.2723  1.2403
16300SOL     OW51854   7.455   1.706   5.475 -0.1934  0.5755  0.0782
16300SOL    HW151855   7.488   1.795   5.468  0.5854  0.3145  0.2884
16300SOL    HW251856   7.369   1.708   5.433 -0.1829  1.4208  0.0923
16301SOL     OW51857   0.185   2.852   5.742 -0.3594 -0.3618  0.1230
16301SOL    HW151858   0.219   2.838   5.653  0.8463  3.4144 -0.2060
16301SOL    HW251859   0.099   2.893   5.729 -1.0075 -1.4560  0.7935
16302SOL     OW51860   2.995   4.839   4.438  0.2650  0.2099 -0.1225
16302SOL    HW151861   3.007   4.879   4.524 -1.1808 -0.9868  0.6878
16302SOL    HW251862   3.048   4.892   4.379  1.1710  1.1519  1.4737
16303SOL     OW51863   2.284   7.402   0.737 -0.4428 -0.0850  0.2664
16303SOL    HW151864   2.240   7.480   0.769 -0.9077 -0.2065 -0.0685
16303SOL    HW251865   2.214   7.344   0.708 -0.1343 -0.8388  0.9670
16304SOL     OW51866   7.516   6.455   0.966  0.0923 -0.5592  0.4504
16304SOL    HW151867   7.439   6.447   0.910 -1.3012 -1.0458  2.3074
16304SOL    HW251868   7.571   6.520   0.923 -1.4276 -0.0754 -0.8613
16305SOL     OW51869   1.972  10.317   4.469  0.1977 -0.0866  0.1536
16305SOL    HW151870   2.041  10.258   4.439  1.7052  0.9255  1.5305
16305SOL    HW251871   1.955  10.292   4.559 -0.5516  0.3259  0.1423
16306SOL     OW51872   2.550   5.278   3.946 -1.1735  0.0820 -0.7290
16306SOL    HW151873   2.505   5.210   3.896 -0.2059  0.5654 -2.3442
16306SOL    HW251874   2.579   5.341   3.880  2.2697 -0.4287  0.0768
16307SOL     OW51875   5.278   6.834   9.511 -0.4607  0.4668 -0.1331
16307SOL    HW151876   5.322   6.913   9.544 -0.7570  0.4418  0.3328
16307SOL    HW251877   5.340   6.797   9.448  1.0885 -0.6284  1.9297
16308SOL     OW51878   9.061   2.042   4.719  0.2333  0.7040 -0.2964
16308SOL    HW151879   9.061   1.971   4.656 -1.2569  0.0100  0.4384
16308SOL    HW251880   9.134   2.098   4.692 -0.5088  0.5855 -2.7938
16309SOL     OW51881  10.019   8.391   1.591 -0.0349  0.5382 -0.3919
16309SOL    HW151882  10.110   8.364   1.598 -0.2965 -0.0746  1.3149
16309SOL    HW251883   9.976   8.319   1.546  0.0165 -0.0359  0.4496
16310SOL     OW51884   8.793   9.516   2.069 -0.3067 -0.1928 -0.5772
16310SOL    HW151885   8.816   9.460   1.995  0.0067  0.3328 -0.8922
16310SOL    HW251886   8.697   9.513   2.073 -0.2930 -0.7126 -0.6146
16311SOL     OW51887   0.492   1.508   2.049  0.2752 -0.0825  0.1269
16311SOL    HW151888   0.441   1.440   2.004 -0.5720 -0.6297  1.8121
16311SOL    HW251889   0.428   1.578   2.066  0.3378 -0.2723  1.2310
16312SOL     OW51890   2.924   3.322   5.660 -0.4758  0.1438  0.0610
16312SOL    HW151891   3.020   3.328   5.657 -0.1830 -1.8516  2.3173
16312SOL    HW251892   2.905   3.230   5.645 -2.3848  0.9800 -3.6866
16313SOL     OW51893   6.633   7.954   3.519 -0.3116  0.4659 -0.2755
16313SOL    HW151894   6.701   7.887   3.529 -0.8677 -0.1033 -0.1843
16313SOL    HW251895   6.569   7.913   3.460 -0.7922  0.8149 -0.0042
16314SOL     OW51896   8.834   2.269   1.638 -0.1114  0.4777  0.5862
16314SOL    HW151897   8.748   2.293   1.672 -0.3531 -0.4919  0.6948
16314SOL    HW251898   8.853   2.335   1.571 -1.8501 -0.4192 -0.8708
16315SOL     OW51899   6.884   0.901   8.085 -0.6924 -0.3781 -0.6726
16315SOL    HW151900   6.856   0.926   8.173 -0.2329 -0.4221 -0.5122
16315SOL    HW251901   6.826   0.829   8.061  0.6144 -1.8638  0.4730
16316SOL     OW51902   0.610   7.177   9.192  0.0736 -0.6592  0.1266
16316SOL    HW151903   0.681   7.195   9.253 -0.6633 -2.8032  1.7621
16316SOL    HW251904   0.645   7.110   9.133  0.8738  1.5907 -2.1125
16317SOL     OW51905   9.640   0.096   3.976 -0.6380  0.5136  0.2455
16317SOL    HW151906   9.587   0.032   3.926 -1.3239  1.4433 -0.2493
16317SOL    HW251907   9.644   0.059   4.064 -3.6978  1.2467  0.8244
16318SOL     OW51908   9.286   1.967   1.927 -0.1537 -0.3545 -0.6893
16318SOL    HW151909   9.220   1.949   1.994  0.7135 -0.7071  0.0706
16318SOL    HW251910   9.248   1.930   1.847 -0.7524 -0.8150 -0.2060
16319SOL     OW51911   5.723   2.763   5.549 -0.0379  0.4324 -0.5425
16319SOL    HW151912   5.773   2.694   5.591  0.3201  1.0440  0.0600
16319SOL    HW251913   5.787   2.831   5.529 -0.7491  1.6720  1.1530
16320SOL     OW51914   2.915   8.584   6.391  0.3953  0.2743 -0.5249
16320SOL    HW151915   2.991   8.534   6.422 -1.0035 -0.5273  1.8503
16320SOL    HW251916   2.844   8.519   6.387 -1.1404  1.7433  1.3182
16321SOL     OW51917   7.943   5.845   2.957 -0.4232 -0.3329  0.2705
16321SOL    HW151918   7.965   5.929   2.998  1.9214 -0.7035 -0.0703
16321SOL    HW251919   7.858   5.823   2.994 -0.9307  1.9854  0.6745
16322SOL     OW51920   5.149   1.807   5.646 -0.2252  0.3051  0.2669
16322SOL    HW151921   5.108   1.866   5.584 -0.6594 -0.3055 -0.0362
16322SOL    HW251922   5.118   1.720   5.621 -1.2821  0.1385  1.9980
16323SOL     OW51923  10.412   8.233   6.674  0.5286 -0.2221  0.2679
16323SOL    HW151924  10.469   8.263   6.745 -0.4321 -0.1235  1.0167
16323SOL    HW251925  10.405   8.138   6.687  0.0572 -0.1550  0.5437
16324SOL     OW51926   3.586   5.512  10.415 -0.5863  0.2554 -0.4963
16324SOL    HW151927   3.648   5.514  10.487 -0.4163  0.6681 -0.6553
16324SOL    HW251928   3.560   5.603  10.402 -1.2575  0.0891 -0.4048
16325SOL     OW51929   2.605   8.980   6.847  0.0386 -0.3477  0.2893
16325SOL    HW151930   2.694   8.968   6.813 -0.5023 -1.6286 -0.8117
16325SOL    HW251931   2.557   9.022   6.775 -0.1717  0.6886  1.0128
16326SOL     OW51932   9.878   4.145   0.534  0.1997  0.6789  0.1547
16326SOL    HW151933   9.850   4.109   0.450 -0.5210  0.9308  0.2794
16326SOL    HW251934   9.946   4.085   0.565 -1.0555 -0.6571  0.4161
16327SOL     OW51935   3.923   0.277   5.381 -0.8021  0.7871  0.0613
16327SOL    HW151936   3.850   0.283   5.442 -0.4190 -1.4735  0.8414
16327SOL    HW251937   3.992   0.329   5.421 -1.4280  1.5957  0.1294
16328SOL     OW51938   1.033   2.368   3.533  0.2313  0.0944  0.0915
16328SOL    HW151939   0.987   2.378   3.450  2.4245  0.3308 -1.1730
16328SOL    HW251940   1.102   2.434   3.531  0.2639  0.2128  2.1933
16329SOL     OW51941   4.584   8.727   1.559  0.1792 -0.3153  0.3034
16329SOL    HW151942   4.540   8.739   1.643 -1.2675 -1.1692 -0.2913
16329SOL    HW251943   4.547   8.795   1.502  2.0435  1.0546  0.6422
16330SOL     OW51944   5.492   2.913   6.131  0.3308  0.2965 -0.1120
16330SOL    HW151945   5.411   2.963   6.139  0.3204  0.1173  1.0614
16330SOL    HW251946   5.487   2.873   6.044 -0.8589  0.2422 -0.0315
16331SOL     OW51947   3.944   5.363   7.545 -0.4018  0.1887 -0.6079
16331SOL    HW151948   3.878   5.304   7.580 -0.9099  0.3386 -1.2843
16331SOL    HW251949   3.903   5.403   7.468  0.2841  0.6827 -0.7370
16332SOL     OW51950   3.040   0.830   6.046  0.2901  0.5255 -0.3662
16332SOL    HW151951   3.090   0.906   6.074  0.5275  0.0256  0.5802
16332SOL    HW251952   2.948   0.857   6.055  0.3238  0.1107  1.7532
16333SOL     OW51953   3.475   9.931   3.492  0.6092  0.8261 -0.2766
16333SOL    HW151954   3.411   9.890   3.433  0.7878  1.5735 -0.9999
16333SOL    HW251955   3.422   9.989   3.547 -0.1382 -2.4409  2.8315
16334SOL     OW51956   8.951   4.291   4.252 -0.3919  0.2686  0.2783
16334SOL    HW151957   8.941   4.242   4.333  0.4062 -0.3113  0.0381
16334SOL    HW251958   9.043   4.315   4.249 -0.0448 -1.0356 -1.1747
16335SOL     OW51959   8.248   1.843   0.660 -0.6030 -0.3293  0.5334
16335SOL    HW151960   8.224   1.866   0.570 -1.2256 -0.8792  0.5482
16335SOL    HW251961   8.344   1.843   0.660 -0.5872  0.6426  0.1293
16336SOL     OW51962   5.828   3.080   2.266 -0.2192  0.4485  0.6795
16336SOL    HW151963   5.866   3.167   2.263 -0.1524  0.5563  2.9043
16336SOL    HW251964   5.882   3.032   2.329 -0.8792 -0.8858  0.2811
16337SOL     OW51965   6.129   8.940   0.207 -0.0124 -0.7325 -0.1352
16337SOL    HW151966   6.121   8.935   0.112 -1.1108  0.3256 -0.1288
16337SOL    HW251967   6.146   9.033   0.224  0.8322 -1.0239  0.6730
16338SOL     OW51968  10.024   2.528   6.911  0.2967 -0.5883  0.1231
16338SOL    HW151969  10.065   2.483   6.837  0.1606 -1.8097  0.7636
16338SOL    HW251970   9.963   2.464   6.947 -1.2407  0.7475 -0.0084
16339SOL     OW51971   8.121   9.340   6.186  0.3897  0.2978 -0.5257
16339SOL    HW151972   8.153   9.251   6.168  0.0821  0.5410 -2.5578
16339SOL    HW251973   8.027   9.335   6.168  0.3187  0.9814 -0.3574
16340SOL     OW51974   7.334   6.412  10.166 -0.1087 -0.8132  0.1429
16340SOL    HW151975   7.390   6.481  10.129 -1.0680  0.2669  0.6491
16340SOL    HW251976   7.358   6.333  10.117  2.5209 -0.6237  0.9717
16341SOL     OW51977   2.068   5.435   6.837  0.0554  0.2029 -0.2766
16341SOL    HW151978   2.049   5.520   6.877 -1.0094 -1.1211  2.2546
16341SOL    HW251979   1.986   5.409   6.795  0.5886  0.6889 -1.6795
16342SOL     OW51980   9.011   1.350   4.338  0.1190 -0.8091 -0.3547
16342SOL    HW151981   8.937   1.409   4.334  0.5061 -0.2729  0.2415
16342SOL    HW251982   9.047   1.362   4.426  0.6052 -1.4381 -0.4583
16343SOL     OW51983   7.403  10.031   6.811  0.0849 -0.2002 -0.3514
16343SOL    HW151984   7.377  10.005   6.723 -0.4929  0.8672 -0.5018
16343SOL    HW251985   7.408   9.948   6.860 -3.2236 -0.5663 -0.4102
16344SOL     OW51986   2.224   7.823   0.681  0.2650  0.7756 -0.2994
16344SOL    HW151987   2.213   7.863   0.767  1.2682 -0.6319  0.5333
16344SOL    HW251988   2.319   7.821   0.668  0.4053 -2.4046  0.3294
16345SOL     OW51989   8.572  10.141   2.116 -0.1633  0.0971  0.0662
16345SOL    HW151990   8.487  10.162   2.076 -2.3308 -2.2198  2.9589
16345SOL    HW251991   8.607  10.071   2.061 -0.8753  0.0539 -0.3479
16346SOL     OW51992   2.946   3.382   2.728 -0.7373  0.0952  0.2299
16346SOL    HW151993   3.028   3.416   2.764 -0.6264 -0.8824  0.9593
16346SOL    HW251994   2.954   3.395   2.633 -0.2823  1.1400  0.4063
16347SOL     OW51995   4.027   9.038   4.477 -0.3202 -0.3438  0.4114
16347SOL    HW151996   3.988   8.991   4.551 -1.1906  0.1564  0.2847
16347SOL    HW251997   4.002   8.986   4.400  1.0211 -1.1476  0.4938
16348SOL     OW51998   8.440   4.329   0.069  0.3871 -0.3726  0.1456
16348SOL    HW151999   8.415   4.422   0.076 -0.1247 -0.4426 -0.7215
16348SOL    HW252000   8.398   4.288   0.145 -0.2282 -0.0730 -0.0253
16349SOL     OW52001   2.556   5.457   6.705 -0.1680  0.2177 -0.1813
16349SOL    HW152002   2.478   5.502   6.739 -1.2746 -0.3752 -1.7948
16349SOL    HW252003   2.531   5.432   6.616  1.5204 -0.9077 -0.3631
16350SOL     OW52004   1.401   2.724   4.572  0.1935  0.3841 -0.0063
16350SOL    HW152005   1.482   2.770   4.594  0.1037  0.0465  1.1155
16350SOL    HW252006   1.348   2.789   4.528  0.0171  1.4305  1.6607
16351SOL     OW52007   9.892   4.950  10.129 -0.4001  0.0160  0.2213
16351SOL    HW152008   9.983   4.920  10.125 -0.8896 -1.6823  0.7594
16351SOL    HW252009   9.841   4.871  10.111 -1.7961  0.5490  1.6521
16352SOL     OW52010   6.008   9.152  10.234 -0.1612 -0.5912 -0.1555
16352SOL    HW152011   5.924   9.166  10.190  0.0483  1.0890 -0.0818
16352SOL    HW252012   5.993   9.179  10.324  0.4293 -0.3678 -0.1170
16353SOL     OW52013   9.448   8.894   4.849 -0.0131  0.2203 -0.3010
16353SOL    HW152014   9.505   8.961   4.886 -0.3372  0.9840 -1.1471
16353SOL    HW252015   9.386   8.942   4.795 -0.3530 -0.7464 -0.8044
16354SOL     OW52016   3.668   0.911   0.042  0.2184 -0.0594 -0.3204
16354SOL    HW152017   3.737   0.965   0.079 -0.0212  0.6896 -0.9515
16354SOL    HW252018   3.615   0.971  -0.010 -1.5086 -0.3997  0.9529
16355SOL     OW52019   2.635   6.076   8.646  0.5254 -0.3673  0.1216
16355SOL    HW152020   2.610   6.042   8.731 -0.3488 -0.4518 -0.1604
16355SOL    HW252021   2.584   6.156   8.636 -0.1246 -0.8704 -0.7280
16356SOL     OW52022   2.150   8.280   8.074 -0.7069 -0.2472 -0.1109
16356SOL    HW152023   2.235   8.263   8.034 -0.0775 -0.9736  1.4381
16356SOL    HW252024   2.165   8.357   8.129 -1.0449 -0.3636  0.1456
16357SOL     OW52025   8.958   9.996   0.628 -0.0361  0.4484 -0.3263
16357SOL    HW152026   8.977  10.009   0.721  1.0589  1.2989 -0.6494
16357SOL    HW252027   8.868   9.961   0.626  0.3213 -0.6482  1.1020
16358SOL     OW52028   3.038   1.781   0.649  0.5967  0.2745 -0.1328
16358SOL    HW152029   3.114   1.792   0.592  0.5757 -0.6769 -0.3722
16358SOL    HW252030   3.007   1.870   0.666 -0.3916  0.5825 -2.9642
16359SOL     OW52031   1.712   6.726   5.289  0.0371  0.6273  0.0067
16359SOL    HW152032   1.659   6.648   5.304  0.0172  0.6551  0.0830
16359SOL    HW252033   1.660   6.780   5.230  1.1404 -0.5636 -2.1661
16360SOL     OW52034   3.584   3.698   5.052  0.1097  0.1441 -0.3828
16360SOL    HW152035   3.668   3.744   5.051  0.0934  0.2394  0.6771
16360SOL    HW252036   3.584   3.644   4.973  0.5041  1.2997 -1.1975
16361SOL     OW52037   9.442   2.828   2.160 -0.0480  0.2684  0.5547
16361SOL    HW152038   9.430   2.917   2.194  0.0449 -0.1313  1.6785
16361SOL    HW252039   9.367   2.814   2.102  0.4690  1.4357 -0.4474
16362SOL     OW52040   4.182   5.636   3.846 -0.4852 -0.3300 -0.4776
16362SOL    HW152041   4.164   5.653   3.754 -0.8573  0.4855 -0.2699
16362SOL    HW252042   4.243   5.705   3.872 -0.8174 -0.2124  0.0197
16363SOL     OW52043   3.167   1.040   8.183  0.0600  0.1952 -0.3088
16363SOL    HW152044   3.200   1.002   8.102  0.7301 -3.2978  1.3879
16363SOL    HW252045   3.246   1.071   8.228  0.4849 -2.5480  1.0729
16364SOL     OW52046   4.269   4.352   1.971  0.0402  0.2615  0.5882
16364SOL    HW152047   4.260   4.283   2.037 -1.2840 -0.8292 -0.6776
16364SOL    HW252048   4.210   4.421   2.002 -0.8099 -0.3713  0.4401
16365SOL     OW52049   0.263   7.432   8.370 -0.1516  0.7275 -0.2645
16365SOL    HW152050   0.339   7.426   8.312 -0.6465 -0.5080 -0.8214
16365SOL    HW252051   0.253   7.526   8.386  1.0770  0.9613 -0.7169
16366SOL     OW52052   9.217   5.411   7.647  0.4738  0.4961 -0.3140
16366SOL    HW152053   9.139   5.373   7.606 -0.0803 -0.4492  1.4726
16366SOL    HW252054   9.182   5.478   7.707  0.9203 -0.5079  1.1228
16367SOL     OW52055   7.943   8.294   4.228 -0.1827 -0.0957 -0.9160
16367SOL    HW152056   7.908   8.274   4.142  3.2032 -2.1317 -2.0277
16367SOL    HW252057   7.926   8.216   4.280 -1.4299  0.7845  0.0697
16368SOL     OW52058   1.667   0.888   6.747  0.0898 -0.0587 -0.1420
16368SOL    HW152059   1.584   0.914   6.707 -0.1128  0.4602  0.5975
16368SOL    HW252060   1.653   0.797   6.773  0.7708 -0.9742 -2.6579
16369SOL     OW52061   8.338   2.219   1.220 -0.3231  0.1894  0.0355
16369SOL    HW152062   8.432   2.212   1.234 -0.3638 -0.6462 -0.0781
16369SOL    HW252063   8.301   2.222   1.308 -0.4777 -3.7020  0.2712
16370SOL     OW52064   3.172   5.248   2.793 -0.0915 -0.0168  0.4071
16370SOL    HW152065   3.136   5.287   2.873 -1.9060 -0.2823 -0.2397
16370SOL    HW252066   3.235   5.183   2.824  0.2902  0.8744  1.5705
16371SOL     OW52067   1.844   6.440   8.652  0.9398 -0.3704 -0.0633
16371SOL    HW152068   1.842   6.345   8.649  1.2974 -0.4117  0.8422
16371SOL    HW252069   1.831   6.462   8.744 -0.0935  0.4892 -0.3863
16372SOL     OW52070   1.824   6.924   0.323 -0.4466 -0.5633 -0.3015
16372SOL    HW152071   1.799   6.998   0.266  2.2117  0.9584  0.3586
16372SOL    HW252072   1.778   6.942   0.405 -0.1010  0.1794 -0.2603
16373SOL     OW52073   6.115   5.183   1.034  0.2040 -0.2898 -0.0389
16373SOL    HW152074   6.138   5.193   1.126 -0.1273  0.0359  0.0085
16373SOL    HW252075   6.194   5.210   0.987  1.0232 -2.1983  0.1648
16374SOL     OW52076   5.404   6.239  10.356  0.4633  0.3597 -0.0395
16374SOL    HW152077   5.468   6.311  10.349 -0.2592  0.8955 -1.5445
16374SOL    HW252078   5.352   6.262  10.433  1.5117  0.3614  0.7046
16375SOL     OW52079   7.826   3.376   2.371  0.4355  0.0147 -0.1039
16375SOL    HW152080   7.867   3.343   2.291  1.7130  1.5163 -0.1079
16375SOL    HW252081   7.739   3.336   2.371  0.0039  0.7168 -2.8042
16376SOL     OW52082   9.636   9.804   2.754  0.8483 -0.5752  0.6889
16376SOL    HW152083   9.657   9.854   2.833 -0.3795 -0.7431  1.1401
16376SOL    HW252084   9.646   9.712   2.781 -0.4282 -0.6563  0.9144
16377SOL     OW52085   1.922   5.750   2.233 -0.0696 -0.4235 -0.6538
16377SOL    HW152086   1.855   5.812   2.208  0.1594  0.3092  0.4702
16377SOL    HW252087   1.923   5.685   2.163 -1.3498  0.0155 -1.0979
16378SOL     OW52088   8.351   5.975   7.140 -0.1070 -0.5984  0.2555
16378SOL    HW152089   8.403   6.040   7.188  0.4864 -2.0834  1.7258
16378SOL    HW252090   8.292   6.027   7.086  1.3357  1.1600  0.2569
16379SOL     OW52091  10.297   8.969   6.828 -0.8770 -0.7077  0.2132
16379SOL    HW152092  10.327   8.937   6.913  0.7821 -0.0137 -0.0672
16379SOL    HW252093  10.206   8.940   6.822 -0.8338 -1.3182  1.9389
16380SOL     OW52094   6.667   2.638   1.722 -0.5599 -0.2898 -0.2063
16380SOL    HW152095   6.677   2.672   1.634 -1.1045 -0.3137 -0.2822
16380SOL    HW252096   6.679   2.714   1.779 -0.6494 -0.1868 -0.3233
16381SOL     OW52097   5.394   5.875   5.015 -0.2616 -0.3541 -0.3008
16381SOL    HW152098   5.341   5.954   5.027 -2.0140 -1.7480  1.7579
16381SOL    HW252099   5.336   5.815   4.968  0.5335 -0.9280 -0.5530
16382SOL     OW52100   1.862   8.232   1.947 -0.0472 -0.0083  0.5185
16382SOL    HW152101   1.889   8.155   1.898 -1.0564 -1.3488  1.9810
16382SOL    HW252102   1.861   8.303   1.882 -0.2835 -1.4653 -1.1287
16383SOL     OW52103   5.049   0.102   7.270 -0.6923  0.1073 -0.0468
16383SOL    HW152104   5.099   0.021   7.276  0.1590  0.7397  2.5353
16383SOL    HW252105   5.064   0.133   7.181  3.5818  0.2517  0.5143
16384SOL     OW52106   4.056   6.996   6.486 -0.4636  0.1640 -0.2210
16384SOL    HW152107   4.103   6.945   6.552  0.8890  0.8698 -0.5904
16384SOL    HW252108   4.088   6.962   6.402 -1.8564 -0.4408 -0.5474
16385SOL     OW52109   8.528   5.576  10.653 -0.3157  0.8185 -0.9109
16385SOL    HW152110   8.531   5.671  10.647 -0.0981  0.8562 -0.2138
16385SOL    HW252111   8.570   5.555  10.736 -1.3444  0.1759 -0.5342
16386SOL     OW52112   6.170   1.277   1.155  0.6134  0.2036  0.3140
16386SOL    HW152113   6.264   1.271   1.136  0.4587  0.8185 -0.7140
16386SOL    HW252114   6.130   1.295   1.070 -0.4044  0.2815  0.8033
16387SOL     OW52115   1.999   3.899   2.473  0.3476  0.0283 -0.2852
16387SOL    HW152116   1.961   3.818   2.442  0.5527  0.1216 -0.7839
16387SOL    HW252117   1.959   3.914   2.559 -1.6753  0.7682 -1.3087
16388SOL     OW52118   3.268   3.413   1.690  0.0447 -0.4768 -0.2384
16388SOL    HW152119   3.358   3.420   1.719 -0.2503 -1.3056  0.9140
16388SOL    HW252120   3.227   3.350   1.749 -0.7550 -1.7704 -2.0481
16389SOL     OW52121   1.906  10.274   1.880 -0.5706  0.4294  0.3533
16389SOL    HW152122   1.954  10.356   1.891  0.5628 -0.1844  0.1402
16389SOL    HW252123   1.817  10.294   1.908  0.1487  1.2256  2.2384
16390SOL     OW52124   2.577   0.722   3.901  0.3021 -0.7134 -0.4362
16390SOL    HW152125   2.636   0.797   3.904  0.9665 -1.1250 -2.1191
16390SOL    HW252126   2.625   0.656   3.851 -1.0792 -1.5275 -0.7276
16391SOL     OW52127   7.763   4.559   8.167 -0.1703  0.1669  0.3028
16391SOL    HW152128   7.754   4.635   8.224  2.0775  1.0847 -0.4534
16391SOL    HW252129   7.842   4.514   8.199  0.0824 -0.3075 -0.9298
16392SOL     OW52130   1.925   3.136   3.931  0.1082  0.0979  0.1980
16392SOL    HW152131   2.010   3.096   3.946  0.4222  0.4268 -0.6572
16392SOL    HW252132   1.943   3.230   3.930 -0.4768  0.2359  1.2947
16393SOL     OW52133   4.394   5.443   3.727  0.7233 -0.0677 -0.5307
16393SOL    HW152134   4.397   5.530   3.768 -0.0285 -0.2586 -0.0485
16393SOL    HW252135   4.341   5.390   3.787  0.1360 -0.5256 -1.4290
16394SOL     OW52136   7.295   7.573   4.600  0.2481 -0.9997 -0.4530
16394SOL    HW152137   7.329   7.661   4.613  2.3858 -1.6293 -1.3601
16394SOL    HW252138   7.227   7.583   4.533 -1.3358  0.2555  1.2391
16395SOL     OW52139   8.949   2.589   1.915 -0.2932  0.4178 -0.4491
16395SOL    HW152140   8.954   2.495   1.900  1.0161  0.5165 -0.7196
16395SOL    HW252141   8.856   2.609   1.913 -0.6058 -0.9258 -0.0511
16396SOL     OW52142  10.309   3.053   2.962 -0.3301 -0.3315 -0.0693
16396SOL    HW152143  10.270   3.102   3.035 -1.5298 -2.1167  0.5446
16396SOL    HW252144  10.320   3.118   2.893 -0.8809  1.0233  1.0687
16397SOL     OW52145   6.824   3.350   7.543 -0.5581 -0.3992 -0.5980
16397SOL    HW152146   6.768   3.417   7.504 -0.5229  0.4821  0.7736
16397SOL    HW252147   6.905   3.396   7.563  0.2067 -1.3539 -1.4162
16398SOL     OW52148   8.106   1.616   1.500 -0.0074  0.4575  0.1775
16398SOL    HW152149   8.183   1.560   1.514 -0.9699 -1.0052 -0.1697
16398SOL    HW252150   8.037   1.574   1.552 -0.6798  1.5070  0.1423
16399SOL     OW52151   3.797   8.930   6.207  0.5232  0.3639 -0.0490
16399SOL    HW152152   3.786   8.836   6.190 -0.6021  0.2349  1.2328
16399SOL    HW252153   3.776   8.972   6.123 -0.2094 -0.4688 -0.3022
16400SOL     OW52154   9.391  10.335   3.958  0.3726 -0.4896 -0.7881
16400SOL    HW152155   9.299  10.316   3.973  0.2762 -0.0288 -0.7921
16400SOL    HW252156   9.425  10.256   3.915 -0.0459 -0.6098 -0.8998
16401SOL     OW52157   8.596   9.889   1.966  0.6790 -0.1244 -0.0253
16401SOL    HW152158   8.680   9.843   1.962  2.0653  2.1321  0.8779
16401SOL    HW252159   8.583   9.922   1.877  0.9744 -0.1130 -0.0667
16402SOL     OW52160   4.437   6.873   4.765 -0.6762  0.3305 -0.6534
16402SOL    HW152161   4.390   6.790   4.757 -1.3029  0.5747  0.3504
16402SOL    HW252162   4.495   6.860   4.840 -1.2289  0.9943 -0.0942
16403SOL     OW52163   2.293   3.218   8.869  0.3171  0.4354  0.1587
16403SOL    HW152164   2.261   3.227   8.959  0.4474  0.0925  0.2391
16403SOL    HW252165   2.235   3.275   8.818 -0.1546  0.1471  0.3675
16404SOL     OW52166   2.200   2.601   5.801 -0.0072 -0.0646  0.0059
16404SOL    HW152167   2.263   2.640   5.740 -1.7108  2.7026 -0.1277
16404SOL    HW252168   2.140   2.672   5.823 -1.8438 -2.0243  1.8104
16405SOL     OW52169   3.545  10.167   0.938 -0.2192  0.0887 -0.5091
16405SOL    HW152170   3.509  10.244   0.982  0.2753  0.2269 -0.3290
16405SOL    HW252171   3.477  10.100   0.945 -0.3159  0.2444  0.0915
16406SOL     OW52172   5.653   6.914   9.360  0.2189 -0.1714  0.3695
16406SOL    HW152173   5.695   6.829   9.377  1.9753  0.5022 -0.3561
16406SOL    HW252174   5.674   6.933   9.269 -0.0142  1.1183  0.5706
16407SOL     OW52175   5.963   3.185   3.495 -0.2266 -0.0789 -0.3085
16407SOL    HW152176   5.978   3.183   3.401  0.1806  0.0661 -0.2473
16407SOL    HW252177   6.045   3.217   3.532 -1.1528  2.2379 -0.0703
16408SOL     OW52178   3.896  10.568   2.259  0.4200  0.2732  0.2116
16408SOL    HW152179   3.820  10.606   2.214  0.5829  0.2339 -0.0985
16408SOL    HW252180   3.968  10.628   2.237  0.5596  0.0942  0.1840
16409SOL     OW52181   8.733  10.066   1.100  0.1529 -0.5996 -0.1172
16409SOL    HW152182   8.670  10.138   1.106 -0.4766 -1.2167  0.9346
16409SOL    HW252183   8.807  10.093   1.154  0.5510 -0.1401 -0.8691
16410SOL     OW52184   8.217   7.033   9.893 -0.4936 -0.0188 -0.2588
16410SOL    HW152185   8.148   6.966   9.888  0.6399 -1.1553 -2.3801
16410SOL    HW252186   8.174   7.113   9.865 -1.1715 -0.5257 -0.7073
16411SOL     OW52187   7.775   7.925   1.819  0.0293 -0.0737 -0.2578
16411SOL    HW152188   7.805   7.926   1.909 -1.2717 -2.6078  0.3023
16411SOL    HW252189   7.681   7.910   1.825 -0.4646  1.8325 -2.0434
16412SOL     OW52190   6.969   2.708   6.411  0.8949  0.0675  0.1807
16412SOL    HW152191   7.020   2.688   6.332  1.6923 -0.6353  0.8488
16412SOL    HW252192   6.954   2.622   6.451 -0.0413  0.3602  0.4752
16413SOL     OW52193   1.945   0.445   3.158 -0.7575  0.0039  0.0677
16413SOL    HW152194   1.864   0.403   3.131 -1.0269  1.2309 -1.1486
16413SOL    HW252195   1.923   0.537   3.167  0.2366  0.1824  0.8721
16414SOL     OW52196   9.154  10.111   4.209 -0.0278 -0.0471 -0.3581
16414SOL    HW152197   9.208  10.174   4.258  0.2830 -1.1735  0.8040
16414SOL    HW252198   9.167  10.028   4.255 -0.4307 -0.9771 -1.8515
16415SOL     OW52199   7.946   5.574   1.019  0.5121 -0.3107 -0.1044
16415SOL    HW152200   7.909   5.655   1.052  3.1033  0.9993 -0.1161
16415SOL    HW252201   7.925   5.509   1.086 -1.0996  0.4787  0.1900
16416SOL     OW52202   4.481   1.351   3.464  0.0300  0.1506 -0.2942
16416SOL    HW152203   4.513   1.400   3.388 -0.1384 -0.7387 -0.9533
16416SOL    HW252204   4.391   1.328   3.441 -0.7305  1.6018  1.0401
16417SOL     OW52205   9.483   8.441   1.711  0.6112 -0.3881  0.0562
16417SOL    HW152206   9.576   8.459   1.696  0.5498  0.1229  0.2716
16417SOL    HW252207   9.477   8.425   1.805  0.1978  1.3964  0.3616
16418SOL     OW52208   4.782   1.440   4.747 -0.6388 -0.2762  0.2585
16418SOL    HW152209   4.861   1.389   4.767 -1.6110 -1.6204  0.8689
16418SOL    HW252210   4.763   1.419   4.656 -0.9750 -0.9406  0.4757
16419SOL     OW52211   8.386   9.786   8.850 -0.5267  0.1099  0.1753
16419SOL    HW152212   8.339   9.706   8.874 -1.6312  0.6405 -0.1354
16419SOL    HW252213   8.477   9.769   8.874 -0.6201 -1.4912 -0.5032
16420SOL     OW52214   7.315   6.965   1.459 -0.1433 -0.2305 -0.4571
16420SOL    HW152215   7.282   6.889   1.410 -0.2328 -1.3203  1.2293
16420SOL    HW252216   7.238   7.001   1.502  0.4124 -1.5023  1.7735
16421SOL     OW52217   4.047   3.948   2.639  0.3028 -0.1644 -0.1756
16421SOL    HW152218   3.986   4.000   2.692 -0.0530 -2.5742  1.9237
16421SOL    HW252219   4.133   3.964   2.679  0.5740  0.5781 -1.0128
16422SOL     OW52220   0.065   9.086   4.810  0.0903  0.5363  0.0946
16422SOL    HW152221   0.127   9.043   4.868  0.8719 -0.0512 -1.1244
16422SOL    HW252222   0.088   9.054   4.723 -0.8457  1.6121 -0.5773
16423SOL     OW52223   7.353   6.516   5.484  0.3513  0.5338 -0.3177
16423SOL    HW152224   7.297   6.555   5.417  0.1086  0.2393 -0.2892
16423SOL    HW252225   7.338   6.422   5.476  0.4030  0.4906  0.0810
16424SOL     OW52226   0.848   4.029   6.997  0.6425  0.0099 -0.7234
16424SOL    HW152227   0.876   4.121   6.996  0.3348  0.1146 -0.3236
16424SOL    HW252228   0.881   3.995   7.081 -0.1434  0.0547 -0.3840
16425SOL     OW52229   3.623   2.637   6.122  0.0296  0.5271 -0.1304
16425SOL    HW152230   3.546   2.687   6.151 -0.4103 -0.4390  0.4444
16425SOL    HW252231   3.589   2.549   6.107  1.3506 -0.3857  1.8693
16426SOL     OW52232   7.281   2.711   1.089  0.2554  0.1290  0.0954
16426SOL    HW152233   7.327   2.739   1.169  0.7057  1.5940 -0.6392
16426SOL    HW252234   7.218   2.646   1.119  1.9474 -1.0246  1.3188
16427SOL     OW52235   9.558  10.548   7.900 -0.1104 -0.9617 -0.0498
16427SOL    HW152236   9.503  10.521   7.973  0.3871  0.4511  0.8878
16427SOL    HW252237   9.518  10.629   7.869 -0.7515 -1.9034 -1.8772
16428SOL     OW52238   6.074   4.395   4.683 -0.0864 -0.0120  0.1480
16428SOL    HW152239   6.000   4.382   4.742  0.5349 -3.5044  0.4241
16428SOL    HW252240   6.149   4.359   4.730  0.8494 -0.8590 -1.8432
16429SOL     OW52241   2.815   9.897   1.761  0.5578  0.4271 -0.2156
16429SOL    HW152242   2.882   9.923   1.824  0.7252 -0.9766  0.2138
16429SOL    HW252243   2.754   9.843   1.812  0.9900 -1.1874 -1.3352
16430SOL     OW52244   1.237   9.452   8.784  0.0301  0.3998  0.5780
16430SOL    HW152245   1.148   9.416   8.788 -0.9733  2.4424 -1.1423
16430SOL    HW252246   1.279   9.402   8.714 -0.0653  0.0382  0.7749
16431SOL     OW52247   4.826   0.578  10.689  0.5599 -0.1751 -0.0750
16431SOL    HW152248   4.843   0.592  10.782  0.0848 -1.3397  0.2015
16431SOL    HW252249   4.847   0.662  10.648  0.5398  0.4242  1.1057
16432SOL     OW52250   6.103   3.080   6.338 -0.1585 -0.2245 -0.1573
16432SOL    HW152251   6.066   3.097   6.425  1.5776  2.9039  0.0936
16432SOL    HW252252   6.151   2.997   6.349 -2.1037 -1.2671  1.0706
16433SOL     OW52253   9.488   4.870  10.057 -0.1701 -0.6035 -0.1412
16433SOL    HW152254   9.412   4.816  10.038 -0.9338  0.9997 -1.9092
16433SOL    HW252255   9.550   4.850   9.987 -0.1761  0.2657 -0.4031
16434SOL     OW52256   2.578   4.204   0.583 -0.1700  0.4056  0.0200
16434SOL    HW152257   2.485   4.201   0.558  0.2037  0.8498 -1.4894
16434SOL    HW252258   2.624   4.161   0.511  0.7315 -0.7829  1.2621
16435SOL     OW52259   7.833   8.498   1.788 -0.4026 -0.0540  0.3080
16435SOL    HW152260   7.864   8.588   1.775 -0.7809 -0.1364 -1.4926
16435SOL    HW252261   7.842   8.482   1.882 -0.6968  2.0026  0.7313
16436SOL     OW52262   0.921   1.743   5.113  0.2896 -0.3068  0.2311
16436SOL    HW152263   0.933   1.832   5.077 -0.6091 -1.1172 -2.3394
16436SOL    HW252264   0.831   1.720   5.090  0.6196 -2.0250  0.5188
16437SOL     OW52265   2.678   4.820   7.064  0.9357  0.1780  0.1611
16437SOL    HW152266   2.730   4.858   7.135  2.5086 -0.1220 -0.7931
16437SOL    HW252267   2.643   4.896   7.018 -0.5636  0.3789  1.5325
16438SOL     OW52268  10.300   1.369   6.321 -0.7737  0.7310  0.2765
16438SOL    HW152269  10.382   1.389   6.367 -0.4349  0.6441 -0.2805
16438SOL    HW252270  10.247   1.322   6.386  0.0415 -0.1669  0.3066
16439SOL     OW52271   2.913   0.316   9.817  0.1751 -0.0933 -0.0499
16439SOL    HW152272   2.943   0.225   9.812 -1.5768 -0.8456  1.6070
16439SOL    HW252273   2.884   0.326   9.908  1.4408  2.5335  0.1642
16440SOL     OW52274   6.335   3.878   4.607  0.3977  0.2705  0.1068
16440SOL    HW152275   6.410   3.825   4.632  0.6972  0.8077  0.3565
16440SOL    HW252276   6.260   3.820   4.620  0.8268 -0.5789 -0.9997
16441SOL     OW52277   2.349   8.742  10.371 -0.3964 -0.0706 -0.3435
16441SOL    HW152278   2.306   8.747  10.457 -0.6076 -0.7792 -0.4050
16441SOL    HW252279   2.299   8.676  10.323 -0.2217  0.2581 -0.9854
16442SOL     OW52280  10.165   6.564   8.234  0.2489 -0.1132  0.0968
16442SOL    HW152281  10.118   6.486   8.203 -2.3458  1.6909 -0.8331
16442SOL    HW252282  10.198   6.539   8.320  0.7089 -2.6576 -0.7198
16443SOL     OW52283   2.574   3.016   1.433  0.1836  0.0733 -0.4460
16443SOL    HW152284   2.567   3.103   1.474 -2.0639  0.3704 -1.2830
16443SOL    HW252285   2.553   2.955   1.503  0.8109  0.2535 -0.0913
16444SOL     OW52286   9.546   2.648   1.926 -0.2250 -0.5997 -0.5709
16444SOL    HW152287   9.548   2.620   2.017 -0.4947 -1.0619 -0.7049
16444SOL    HW252288   9.461   2.619   1.894 -1.6137  2.4372 -0.0652
16445SOL     OW52289   8.004   4.720  10.352  0.7437 -0.6362  0.0412
16445SOL    HW152290   8.059   4.705  10.429  2.2311 -0.7363 -0.9922
16445SOL    HW252291   7.917   4.690  10.378  1.1567 -0.4693  1.7428
16446SOL     OW52292   2.178   6.250   2.467  0.5052 -0.8137 -0.1149
16446SOL    HW152293   2.106   6.305   2.435  1.3167  0.5495  0.3016
16446SOL    HW252294   2.168   6.250   2.562  0.8125 -0.9395 -0.0801
16447SOL     OW52295  10.499   7.100   5.818  0.1113 -0.3880  0.8706
16447SOL    HW152296  10.556   7.170   5.786 -0.5951 -0.0083  0.4179
16447SOL    HW252297  10.475   7.051   5.739  0.4314 -1.0172  1.1598
16448SOL     OW52298   9.185   3.775   9.106 -0.3190 -0.1893 -0.1086
16448SOL    HW152299   9.222   3.699   9.061 -2.4104 -0.1450 -2.0369
16448SOL    HW252300   9.202   3.757   9.199 -0.1675 -2.6964 -0.5466
16449SOL     OW52301   0.074   4.474   6.345  0.0365 -0.6262 -0.7293
16449SOL    HW152302   0.163   4.438   6.353  0.6669  1.1824  2.0904
16449SOL    HW252303   0.024   4.428   6.413 -0.6113 -0.1514 -0.8798
16450SOL     OW52304   1.287   3.987   5.924 -0.1492 -1.0351 -0.1268
16450SOL    HW152305   1.231   4.064   5.917  0.0834 -0.5597  2.3263
16450SOL    HW252306   1.340   3.988   5.844  0.1134  1.5763  0.0020
16451SOL     OW52307   7.198   7.234   0.910 -0.2391 -0.4113  0.2182
16451SOL    HW152308   7.114   7.200   0.942 -0.5671  0.1513 -0.0276
16451SOL    HW252309   7.187   7.236   0.815 -0.1761  0.2576  0.2229
16452SOL     OW52310   5.388  10.395   1.569 -0.3147  0.2107 -0.7304
16452SOL    HW152311   5.325  10.332   1.535 -1.1688  1.1714 -0.9784
16452SOL    HW252312   5.370  10.476   1.521  0.1531  0.8979  0.2122
16453SOL     OW52313   8.270  10.213   0.945  0.3134 -0.1930  0.2609
16453SOL    HW152314   8.303  10.254   1.025  0.9004  0.4954 -0.3146
16453SOL    HW252315   8.250  10.287   0.887 -0.1934 -0.6797 -0.1903
16454SOL     OW52316   4.727   2.528   5.674 -0.0110  0.5852 -0.1036
16454SOL    HW152317   4.752   2.443   5.710 -0.4309  0.9336  1.0532
16454SOL    HW252318   4.808   2.562   5.635 -0.1446 -0.9031 -1.7862
16455SOL     OW52319   1.804  10.075   6.207  0.5551  0.2944  0.5994
16455SOL    HW152320   1.882  10.125   6.182 -0.3304  1.7897  0.7605
16455SOL    HW252321   1.764  10.049   6.124  1.4480 -0.8913  0.5111
16456SOL     OW52322   6.654   3.173   2.397 -0.1625 -0.1531  0.3392
16456SOL    HW152323   6.682   3.102   2.339 -2.5768  1.0891 -2.6391
16456SOL    HW252324   6.735   3.201   2.441  1.2991 -3.0414 -0.2677
16457SOL     OW52325   0.416   7.015   9.472  0.0023  0.0095 -0.2076
16457SOL    HW152326   0.398   6.984   9.561  1.4815  0.6017  0.3463
16457SOL    HW252327   0.471   6.947   9.434  0.1122  0.1739 -0.3435
16458SOL     OW52328   1.733   0.114   0.553 -0.1971 -0.0928  0.7017
16458SOL    HW152329   1.800   0.138   0.616  0.1398  2.6936 -0.6024
16458SOL    HW252330   1.773   0.045   0.500  1.8112  1.6908 -0.2214
16459SOL     OW52331   8.626  10.577   5.164 -1.0141  0.0066 -0.1658
16459SOL    HW152332   8.571  10.618   5.230 -0.4059  3.0508 -1.3887
16459SOL    HW252333   8.584  10.599   5.080 -0.1172 -1.1000 -0.9425
16460SOL     OW52334   9.187   0.166   7.863 -0.0195 -0.0263 -0.3356
16460SOL    HW152335   9.217   0.224   7.933  2.3620 -1.2863 -0.2089
16460SOL    HW252336   9.167   0.083   7.908  0.1579 -0.4089 -0.9541
16461SOL     OW52337   3.363   2.767  10.146  0.3550 -0.5738  0.3532
16461SOL    HW152338   3.416   2.843  10.123 -1.5040  0.3521 -1.2498
16461SOL    HW252339   3.334   2.784  10.236  1.2964 -0.2334  0.6041
16462SOL     OW52340   1.499   6.088   4.076 -0.1017  0.0500 -0.2833
16462SOL    HW152341   1.441   6.021   4.038 -1.0127  0.1721  0.8227
16462SOL    HW252342   1.511   6.152   4.006 -1.0554 -0.1449 -0.6482
16463SOL     OW52343   7.305   4.590   2.753 -0.0594 -0.9625  0.2676
16463SOL    HW152344   7.291   4.684   2.742  1.8529 -0.7246 -0.5094
16463SOL    HW252345   7.400   4.579   2.754 -0.1990 -2.7083  2.1724
16464SOL     OW52346   3.941   1.496   2.642 -0.0383 -0.2240  0.3955
16464SOL    HW152347   3.966   1.494   2.550  0.5523 -0.9678  0.5556
16464SOL    HW252348   3.892   1.578   2.653  0.3566  0.1333 -0.4555
16465SOL     OW52349   2.722   6.614   4.131 -0.2675  0.1120  0.2759
16465SOL    HW152350   2.719   6.688   4.191  0.1790 -0.5521  1.1379
16465SOL    HW252351   2.663   6.549   4.169 -0.7234  0.0447 -0.5182
16466SOL     OW52352   6.716   9.987   8.373  0.2191  0.6148  0.2095
16466SOL    HW152353   6.631   9.946   8.390 -0.1606  1.3633  0.1236
16466SOL    HW252354   6.733   9.971   8.280 -0.2040  1.1516  0.0357
16467SOL     OW52355   2.422   4.491   7.998  0.0222  0.2788  0.0482
16467SOL    HW152356   2.363   4.474   7.925 -0.6842  0.1856  0.6282
16467SOL    HW252357   2.461   4.406   8.018 -0.7880  0.0226  0.6193
16468SOL     OW52358   2.936   1.141  10.498  0.3165 -0.2642  0.3717
16468SOL    HW152359   3.017   1.098  10.524  0.1252 -0.8952 -0.0365
16468SOL    HW252360   2.880   1.069  10.467  0.1360  0.3245 -0.7217
16469SOL     OW52361  10.324   2.388   5.396  0.0353  0.7160  0.0568
16469SOL    HW152362  10.346   2.429   5.313 -0.2769  1.4861  0.3493
16469SOL    HW252363  10.402   2.338   5.420 -0.5748 -1.2016 -1.6853
16470SOL     OW52364   2.700   4.987   6.191 -0.2550  0.4642 -0.1072
16470SOL    HW152365   2.638   5.052   6.223  0.3262  0.8603  0.2238
16470SOL    HW252366   2.785   5.016   6.224  0.0616 -0.2629 -0.2556
16471SOL     OW52367   5.451   8.560   1.450  0.4267  0.2684 -0.6880
16471SOL    HW152368   5.537   8.530   1.481 -0.6322 -1.2411  0.9850
16471SOL    HW252369   5.401   8.480   1.437 -1.2424  1.1431 -0.0211
16472SOL     OW52370  10.124   1.845   4.845 -0.1661 -0.5285 -0.1091
16472SOL    HW152371  10.090   1.925   4.803  1.5040  0.2238 -0.1149
16472SOL    HW252372  10.203   1.824   4.795 -0.4161 -2.0284  0.0963
16473SOL     OW52373   1.901   2.333   0.999  0.3834  0.3388 -0.0830
16473SOL    HW152374   1.826   2.289   1.039  0.9018 -1.2787 -0.7886
16473SOL    HW252375   1.884   2.426   1.011 -0.0639 -0.0238  2.8083
16474SOL     OW52376   5.803   7.067   7.825 -0.1831 -0.1021 -0.1560
16474SOL    HW152377   5.716   7.106   7.824  0.1322  1.0518  3.3362
16474SOL    HW252378   5.807   7.019   7.907  2.4655 -0.1748 -0.2436
16475SOL     OW52379   8.078   9.312   5.168  0.0080  0.2444 -0.4403
16475SOL    HW152380   8.041   9.228   5.195 -0.4596  1.0936  1.8460
16475SOL    HW252381   8.165   9.314   5.207  0.1607  0.6626 -0.7946
16476SOL     OW52382  10.662   4.623   8.730  0.0203  0.3307 -0.0229
16476SOL    HW152383  10.660   4.631   8.826  0.0459  1.7785 -0.1178
16476SOL    HW252384  10.574   4.594   8.707  0.7382 -2.6892  0.5807
16477SOL     OW52385   8.538   4.665   9.701  0.0485  0.3754  0.0767
16477SOL    HW152386   8.511   4.731   9.764  1.1268  0.1847  0.7811
16477SOL    HW252387   8.566   4.591   9.755 -2.0894 -1.0805 -0.7080
16478SOL     OW52388   3.116   3.138   4.039 -0.1909 -0.1066 -0.4286
16478SOL    HW152389   3.160   3.065   3.994  0.0693 -0.1759 -0.0631
16478SOL    HW252390   3.047   3.096   4.091  0.5697 -0.1996  0.5376
16479SOL     OW52391   7.536   0.267   5.467 -0.3081 -0.5480  0.0631
16479SOL    HW152392   7.567   0.319   5.392  2.2835 -3.2601 -0.9650
16479SOL    HW252393   7.449   0.237   5.441 -1.1884  1.8167  0.0100
16480SOL     OW52394   3.791   8.850   0.157 -0.6641  0.3301 -0.1538
16480SOL    HW152395   3.833   8.911   0.096 -0.3031 -1.5850 -1.9619
16480SOL    HW252396   3.863   8.811   0.206 -0.5418 -0.8508 -1.2153
16481SOL     OW52397   7.649   7.482   4.179  0.0303  0.3812  0.3513
16481SOL    HW152398   7.600   7.553   4.138 -1.5817 -0.2081  1.1323
16481SOL    HW252399   7.740   7.511   4.178 -0.3043  1.5146 -1.2197
16482SOL     OW52400   2.466   2.703   2.974  0.3821  0.2231 -0.1738
16482SOL    HW152401   2.517   2.628   3.003 -1.5148 -0.8362  0.5618
16482SOL    HW252402   2.445   2.685   2.883 -1.8413 -1.2894  0.5347
16483SOL     OW52403   7.746   2.120   6.652  0.0987 -0.3340 -0.0994
16483SOL    HW152404   7.803   2.147   6.581  1.5231 -0.5629  0.9082
16483SOL    HW252405   7.805   2.080   6.716 -1.4454 -2.5317  0.0757
16484SOL     OW52406  10.525   3.810  10.640  0.1997  0.0213 -0.0444
16484SOL    HW152407  10.437   3.839  10.616  0.6456  1.0603 -0.5051
16484SOL    HW252408  10.531   3.721  10.607 -0.5693  0.0462 -0.2762
16485SOL     OW52409   7.858   8.655   6.347  0.1626 -0.5805 -0.2265
16485SOL    HW152410   7.791   8.611   6.400 -0.3656  0.4891  0.0124
16485SOL    HW252411   7.928   8.590   6.339 -0.5614 -1.4381  0.1842
16486SOL     OW52412   0.215   1.209   2.467  0.5431 -0.0910 -0.0665
16486SOL    HW152413   0.156   1.172   2.401  0.2002  0.5357 -0.1303
16486SOL    HW252414   0.277   1.262   2.417 -1.1647  2.3561  0.2053
16487SOL     OW52415   4.425   9.786   8.507 -0.2737 -0.4735 -0.1595
16487SOL    HW152416   4.512   9.825   8.499 -0.8663  0.5267 -2.3462
16487SOL    HW252417   4.438   9.711   8.565  1.4407  1.3320  1.9978
16488SOL     OW52418   6.470   4.989   0.945 -0.4200 -0.4016 -0.3007
16488SOL    HW152419   6.448   4.896   0.947 -0.4159 -0.4068 -0.4581
16488SOL    HW252420   6.499   5.005   0.855  1.1956 -0.6184  0.1361
16489SOL     OW52421   9.297   5.752   5.632 -0.5424  0.8841 -0.4324
16489SOL    HW152422   9.348   5.805   5.571  0.8107  1.7798  1.4105
16489SOL    HW252423   9.356   5.735   5.705 -0.8422 -3.3120 -0.9284
16490SOL     OW52424   9.428   0.312   9.515  0.1323  0.6093 -0.0097
16490SOL    HW152425   9.450   0.327   9.423 -0.7164  0.0819 -0.3220
16490SOL    HW252426   9.377   0.389   9.541 -2.8321 -0.7931 -1.1275
16491SOL     OW52427   9.073   4.124   5.162 -0.0176  0.1288 -0.1288
16491SOL    HW152428   9.135   4.194   5.181 -0.2976  0.8293 -1.6405
16491SOL    HW252429   9.003   4.167   5.112 -1.6883 -0.6430  1.4169
16492SOL     OW52430   6.515   4.320   8.937  0.3436 -0.0410  0.5754
16492SOL    HW152431   6.489   4.228   8.938  0.6061 -0.1287 -0.0996
16492SOL    HW252432   6.474   4.358   9.015  0.2665 -0.7378  0.8792
16493SOL     OW52433   6.105   4.810   1.255  0.3534  0.1589  0.1512
16493SOL    HW152434   6.187   4.861   1.259  1.7531 -1.9718  3.9940
16493SOL    HW252435   6.128   4.732   1.206 -0.5925  1.1494 -2.0206
16494SOL     OW52436   6.209   2.413   4.057 -0.3279  0.0941  0.4714
16494SOL    HW152437   6.223   2.326   4.093  2.7257 -0.0502 -0.8231
16494SOL    HW252438   6.178   2.398   3.968  0.1436  0.3229  0.2656
16495SOL     OW52439   7.004   2.205   2.485  0.7902 -0.1794  0.2100
16495SOL    HW152440   6.925   2.179   2.437  0.2872  2.8280 -0.7961
16495SOL    HW252441   7.075   2.190   2.423  0.7152 -0.6304  0.2308
16496SOL     OW52442   7.750   6.097   3.028 -0.2232  0.4691 -0.0565
16496SOL    HW152443   7.740   6.057   3.115  2.5339 -1.5667 -0.5416
16496SOL    HW252444   7.775   6.188   3.047 -1.0280  0.4458  1.2414
16497SOL     OW52445   1.752   3.920   9.503 -0.3600  0.3773 -0.5027
16497SOL    HW152446   1.672   3.942   9.551 -0.2780 -0.1113 -0.1461
16497SOL    HW252447   1.778   4.003   9.462 -0.4478  0.7984  0.2662
16498SOL     OW52448   9.924   8.686   9.211 -0.1873 -0.5731 -0.3235
16498SOL    HW152449   9.924   8.685   9.115  1.5663  2.1630 -0.4511
16498SOL    HW252450   9.850   8.741   9.234  1.6865  2.1296 -0.3596
16499SOL     OW52451   4.874   4.061   6.437 -0.0953 -0.3010  0.4415
16499SOL    HW152452   4.876   3.969   6.413  0.1847 -0.3261  0.5605
16499SOL    HW252453   4.911   4.106   6.361  1.8192 -0.4686  1.2198
16500SOL     OW52454   8.474   3.823   3.495 -0.3390  0.9304  0.2086
16500SOL    HW152455   8.498   3.791   3.408 -1.7198  1.4518 -0.3937
16500SOL    HW252456   8.453   3.915   3.481  2.6019  1.9867  1.7158
16501SOL     OW52457   7.729   9.787   2.443 -0.0039  0.2112  0.7682
16501SOL    HW152458   7.802   9.836   2.483  0.2170 -1.0157  1.9574
16501SOL    HW252459   7.677   9.757   2.518 -0.7889 -0.3627  0.0084
16502SOL     OW52460   1.712   6.189   9.605  0.0764 -0.0473  0.4280
16502SOL    HW152461   1.801   6.190   9.568 -0.0054  2.5016  0.1489
16502SOL    HW252462   1.672   6.111   9.566  1.5622 -0.1719 -1.0068
16503SOL     OW52463   4.532   5.588   5.330 -0.4898  0.5444 -0.6495
16503SOL    HW152464   4.493   5.564   5.414 -1.7541 -2.1557 -1.8878
16503SOL    HW252465   4.482   5.538   5.266  3.2445 -1.0073 -2.6601
16504SOL     OW52466   8.831   3.470   8.284 -0.2316 -0.2552 -0.0347
16504SOL    HW152467   8.815   3.562   8.302 -1.0200 -0.2223 -0.8085
16504SOL    HW252468   8.746   3.428   8.298 -0.2385 -0.6215 -1.0770
16505SOL     OW52469   8.801   4.797   8.403 -0.7232  0.1864  1.0930
16505SOL    HW152470   8.839   4.803   8.491  2.7007  1.4879 -0.3177
16505SOL    HW252471   8.756   4.880   8.391  0.9895  1.1211  0.7923
16506SOL     OW52472   8.718   5.308   3.668  0.2334  0.0873  0.3249
16506SOL    HW152473   8.718   5.252   3.745  1.6820 -1.3606 -0.6683
16506SOL    HW252474   8.626   5.317   3.645 -0.0660 -3.2560 -0.3596
16507SOL     OW52475  10.346   6.183   2.187 -0.0772  0.5480  0.4972
16507SOL    HW152476  10.385   6.135   2.114  0.9818 -0.8563  1.9020
16507SOL    HW252477  10.256   6.153   2.191  0.4641 -1.0976  1.1036
16508SOL     OW52478   1.223   6.898   4.907  0.1484 -0.0501  0.1254
16508SOL    HW152479   1.200   6.985   4.938  0.0451  0.1698 -0.5563
16508SOL    HW252480   1.140   6.853   4.894  0.1771 -0.0239 -0.1608
16509SOL     OW52481   9.168   8.696   4.599 -0.0898  0.3522  0.0664
16509SOL    HW152482   9.118   8.655   4.670 -1.7544  0.4764 -0.9684
16509SOL    HW252483   9.259   8.688   4.626 -0.6562  0.2434  2.1324
16510SOL     OW52484   0.862   0.561   3.828  0.2893  0.1466  0.0184
16510SOL    HW152485   0.919   0.600   3.894  0.6155 -0.3127  0.0167
16510SOL    HW252486   0.918   0.547   3.752 -0.2571  1.3426 -0.6334
16511SOL     OW52487   4.482   3.818   3.572  0.4962  0.1615  0.0674
16511SOL    HW152488   4.412   3.824   3.637  1.1071 -0.8190  0.8332
16511SOL    HW252489   4.515   3.908   3.566 -1.1922  0.7852 -0.7643
16512SOL     OW52490   3.988   8.937   7.150  0.7952 -0.2153 -0.4530
16512SOL    HW152491   3.928   9.004   7.117 -0.4895 -1.2887 -0.4123
16512SOL    HW252492   4.023   8.974   7.231 -1.6563 -0.4309  0.8155
16513SOL     OW52493   4.004  10.445   6.555 -0.3026  0.0152  0.4469
16513SOL    HW152494   4.090  10.484   6.541 -0.4132 -0.2046 -1.0883
16513SOL    HW252495   4.001  10.424   6.648  2.2952 -2.3485  0.1076
16514SOL     OW52496   2.518   0.656   6.906  0.0976 -0.0610 -0.2465
16514SOL    HW152497   2.511   0.568   6.869 -1.1778  0.1171 -0.4629
16514SOL    HW252498   2.558   0.643   6.991  1.0875 -0.7068 -0.7902
16515SOL     OW52499   8.452   6.021   2.524 -0.2350 -0.0849  0.2569
16515SOL    HW152500   8.420   6.031   2.435  0.3047 -0.1600  0.0534
16515SOL    HW252501   8.413   6.094   2.572  1.6615  1.6249 -0.6467
16516SOL     OW52502   7.463   7.530   8.019 -1.1000  0.3167  0.1794
16516SOL    HW152503   7.384   7.580   8.039  0.1946  2.9809 -0.8740
16516SOL    HW252504   7.535   7.585   8.052  0.4290 -0.6625 -1.3589
16517SOL     OW52505  10.679   2.847   8.424 -0.2108 -0.5999 -0.9507
16517SOL    HW152506  10.768   2.823   8.451 -0.6263 -1.0317  0.0832
16517SOL    HW252507  10.669   2.806   8.338  0.2449 -1.4021 -0.6342
16518SOL     OW52508   3.679   1.044   5.170 -0.2237 -0.3026 -0.1294
16518SOL    HW152509   3.706   1.057   5.261  0.6805  1.5430 -0.6154
16518SOL    HW252510   3.721   0.963   5.144  2.6202  1.0205  0.0259
16519SOL     OW52511   6.598   3.469   7.418 -0.2254  0.3088 -0.0564
16519SOL    HW152512   6.598   3.564   7.416 -0.6559  0.4112  2.2511
16519SOL    HW252513   6.506   3.445   7.410 -0.0364 -0.0075 -1.6987
16520SOL     OW52514   4.363  10.661   1.291 -0.3815  0.2946 -0.3059
16520SOL    HW152515   4.295  10.596   1.278 -1.1440  1.2851 -1.5673
16520SOL    HW252516   4.439  10.627   1.244 -0.8055  0.3245 -1.0354
16521SOL     OW52517   1.226   5.136   9.713  0.2403 -0.3286  0.0896
16521SOL    HW152518   1.219   5.153   9.807  0.3075 -1.9326  0.4135
16521SOL    HW252519   1.294   5.196   9.683  2.3115 -1.7616  1.6502
16522SOL     OW52520   6.574   3.185   9.350  0.3230  0.1264  0.4069
16522SOL    HW152521   6.541   3.248   9.414 -0.7176  1.2326 -1.1442
16522SOL    HW252522   6.568   3.100   9.395 -3.2277  0.4318  0.8386
16523SOL     OW52523   9.891   0.377  10.564  0.5640 -0.2137  0.2604
16523SOL    HW152524   9.912   0.453  10.618  0.8778 -0.7380  0.8849
16523SOL    HW252525   9.970   0.324  10.566  0.0516 -0.9765  0.5364
16524SOL     OW52526   4.862   7.255  10.292  0.0933 -0.6025  0.0469
16524SOL    HW152527   4.791   7.211  10.339 -1.1406 -1.5246 -2.4546
16524SOL    HW252528   4.897   7.187  10.234 -0.4271  1.0488 -2.3899
16525SOL     OW52529   8.011   7.109   5.484  0.2705  0.1803  0.0313
16525SOL    HW152530   7.954   7.163   5.429  1.8289 -0.1886 -2.0677
16525SOL    HW252531   8.082   7.082   5.426  1.9469 -0.3967  2.2054
16526SOL     OW52532   9.838   9.446   7.395  0.3093 -0.8447 -0.0964
16526SOL    HW152533   9.756   9.493   7.380  0.9941  1.2006  1.9764
16526SOL    HW252534   9.887   9.456   7.313 -1.4257 -2.0424 -1.3433
16527SOL     OW52535   3.513   7.009   2.490  0.3715 -0.3590  0.1011
16527SOL    HW152536   3.525   7.009   2.395 -0.9725  1.9099 -0.1539
16527SOL    HW252537   3.423   6.981   2.503  0.7271 -1.2325  0.7702
16528SOL     OW52538   3.773   3.251   8.191  0.0000 -0.2016 -0.4749
16528SOL    HW152539   3.723   3.185   8.143  0.8819  0.3320 -2.2180
16528SOL    HW252540   3.863   3.242   8.158  0.7796 -0.1297  1.4803
16529SOL     OW52541   6.269   1.629   0.018  0.6677  0.3021  0.0336
16529SOL    HW152542   6.340   1.572   0.047 -0.4856 -1.7495 -0.8943
16529SOL    HW252543   6.286   1.713   0.060  2.8186 -0.5292  0.9721
16530SOL     OW52544   3.026   5.835   0.879  0.1894 -0.0567 -0.2889
16530SOL    HW152545   3.060   5.755   0.920 -0.5375 -0.0995  0.2350
16530SOL    HW252546   2.999   5.890   0.952  2.0682  1.3291 -0.5720
16531SOL     OW52547   5.108   5.575   5.748 -0.3568 -0.4341  0.4639
16531SOL    HW152548   5.036   5.601   5.805 -1.8503 -0.9666 -1.1219
16531SOL    HW252549   5.097   5.480   5.737  0.5945 -0.5247  0.1875
16532SOL     OW52550   8.287   5.977   5.371  0.1764 -0.1721  0.8434
16532SOL    HW152551   8.245   5.916   5.311  1.3763 -1.3883  1.1731
16532SOL    HW252552   8.376   5.987   5.337  0.2415  0.7827  1.2492
16533SOL     OW52553   2.435   9.826   1.346 -0.3385 -0.0425 -0.1976
16533SOL    HW152554   2.516   9.807   1.393 -0.3308 -2.4974 -1.0552
16533SOL    HW252555   2.459   9.896   1.285  0.2917  1.3888  1.6080
16534SOL     OW52556   9.518   8.601   5.498  0.1204 -0.9230  0.3870
16534SOL    HW152557   9.456   8.582   5.569 -0.6427 -1.8414 -0.4864
16534SOL    HW252558   9.463   8.608   5.420  1.0235 -0.7421 -0.2477
16535SOL     OW52559   3.771   4.429   5.415 -0.1658 -0.0907  0.0382
16535SOL    HW152560   3.699   4.375   5.447 -1.4073  1.9664  0.9491
16535SOL    HW252561   3.806   4.471   5.493  2.2041 -1.2004 -0.3728
16536SOL     OW52562   4.899   7.985   5.538  0.0124  0.0689  0.2467
16536SOL    HW152563   4.823   8.040   5.553  0.0145 -0.4562  2.6852
16536SOL    HW252564   4.961   8.010   5.606  0.8669 -1.4440  0.0873
16537SOL     OW52565   1.749   0.892   2.529  0.1139  0.1031  0.3025
16537SOL    HW152566   1.793   0.905   2.613 -0.1707 -1.9288  0.8016
16537SOL    HW252567   1.727   0.799   2.527  0.0252  0.1154 -1.9832
16538SOL     OW52568   1.200   4.697   4.875  0.3857  0.2017  0.1041
16538SOL    HW152569   1.207   4.792   4.881  1.0912  0.2698 -1.3515
16538SOL    HW252570   1.282   4.670   4.834  1.3488 -1.3150  2.7976
16539SOL     OW52571   6.649   8.790   1.681  0.3565  0.1828  0.2514
16539SOL    HW152572   6.725   8.733   1.668 -0.6551 -1.4301  1.0994
16539SOL    HW252573   6.687   8.875   1.704  1.9089 -0.5052  0.3770
16540SOL     OW52574   0.042   7.361   0.569 -0.3154 -0.2691 -0.4555
16540SOL    HW152575   0.086   7.370   0.485  0.9647  0.0164  0.2125
16540SOL    HW252576   0.051   7.447   0.610  0.1928 -0.7453  0.4786
16541SOL     OW52577   4.420   5.978   8.810 -0.1654  0.3813  0.0213
16541SOL    HW152578   4.457   5.927   8.738  1.2014  0.4506  0.6634
16541SOL    HW252579   4.494   6.002   8.864 -0.6026  3.6982 -0.6107
16542SOL     OW52580   4.838   4.269   2.437  0.0162  0.4648  0.1112
16542SOL    HW152581   4.848   4.318   2.356  0.2047 -0.8542 -0.6850
16542SOL    HW252582   4.814   4.181   2.409  1.0207 -0.2695  1.4373
16543SOL     OW52583   6.500   8.131   7.343 -0.1223  0.4929 -0.0736
16543SOL    HW152584   6.502   8.188   7.419 -1.2110  0.9570 -0.3689
16543SOL    HW252585   6.442   8.175   7.281  0.8863  0.2232 -1.2644
16544SOL     OW52586   0.777   3.044   1.433  0.2916 -0.5681  0.2039
16544SOL    HW152587   0.764   2.987   1.508 -2.9670 -0.2060  0.0279
16544SOL    HW252588   0.693   3.046   1.388  0.5980  3.2662 -0.5983
16545SOL     OW52589   4.317   0.642   1.602 -0.1196 -0.2298 -0.2582
16545SOL    HW152590   4.263   0.718   1.583 -0.3576 -0.9214 -2.6372
16545SOL    HW252591   4.406   0.670   1.578 -0.0676 -0.4237 -0.2886
16546SOL     OW52592   5.798   9.391   7.626  0.0429  0.3962  0.2691
16546SOL    HW152593   5.842   9.470   7.658  1.2159 -0.3044  0.4728
16546SOL    HW252594   5.752   9.419   7.547  0.9053  1.1674  0.0199
16547SOL     OW52595   2.257   8.284   3.856  0.6191 -0.0361  0.7096
16547SOL    HW152596   2.284   8.237   3.778 -2.2490 -1.9542  0.7112
16547SOL    HW252597   2.302   8.239   3.928  1.7776  0.5121  0.3477
16548SOL     OW52598   1.635   2.957   5.179  0.0342 -0.4150  0.2382
16548SOL    HW152599   1.723   2.976   5.210 -0.3363 -0.1014  1.1417
16548SOL    HW252600   1.645   2.941   5.085  0.7100  2.1358 -0.2101
16549SOL     OW52601   5.279   4.264   1.981  0.1399 -0.3179  0.1064
16549SOL    HW152602   5.264   4.191   2.042 -1.1355  0.6643  1.0225
16549SOL    HW252603   5.372   4.283   1.989  0.5656 -2.0234 -0.3724
16550SOL     OW52604   0.454  10.593  10.276 -0.0387 -0.3663 -0.3784
16550SOL    HW152605   0.417  10.529  10.336  0.5172 -1.3687 -1.0837
16550SOL    HW252606   0.407  10.674  10.296 -0.4352 -0.8696  0.8364
16551SOL     OW52607   5.922   3.816   3.600 -0.3027 -0.0597  0.2785
16551SOL    HW152608   5.966   3.786   3.521 -0.6967  1.1778 -0.4431
16551SOL    HW252609   5.839   3.854   3.569 -1.1811 -0.9270  1.4454
16552SOL     OW52610   3.550   0.404  10.206 -0.2061  0.2573  1.0381
16552SOL    HW152611   3.559   0.499  10.211 -0.1575  0.3591 -0.5524
16552SOL    HW252612   3.627   0.375  10.159 -1.9110 -0.1631 -1.7068
16553SOL     OW52613   0.575   6.671   6.843  0.0032 -0.4311  0.5025
16553SOL    HW152614   0.609   6.597   6.792 -0.8034 -0.7780  0.4521
16553SOL    HW252615   0.616   6.748   6.804  2.8720 -0.9736  2.1642
16554SOL     OW52616   2.702   0.919   5.793 -0.0827 -0.6870 -0.1845
16554SOL    HW152617   2.750   0.996   5.763  0.8807 -1.5654 -1.0043
16554SOL    HW252618   2.690   0.866   5.714 -1.2382 -1.1132  0.2555
16555SOL     OW52619   6.528   9.984   2.808 -0.3067 -0.3795 -0.7040
16555SOL    HW152620   6.604   9.937   2.843  0.7654 -0.3623 -2.8585
16555SOL    HW252621   6.454   9.949   2.856  0.9286 -1.2366  0.6593
16556SOL     OW52622   0.329   3.420   6.754 -0.8738 -0.0980 -0.0548
16556SOL    HW152623   0.347   3.445   6.663 -0.5975 -0.1419 -0.0115
16556SOL    HW252624   0.387   3.475   6.806 -1.4980  0.3927  0.1353
16557SOL     OW52625   0.994   3.523   1.108  0.1007 -0.2811 -0.1207
16557SOL    HW152626   1.026   3.524   1.018  1.2614 -3.8756  0.1086
16557SOL    HW252627   1.066   3.562   1.159 -0.1205  0.7844 -0.6019
16558SOL     OW52628   7.539   8.322   1.187 -0.6048 -0.5603 -0.3956
16558SOL    HW152629   7.543   8.282   1.100  1.7261 -1.6762  0.1167
16558SOL    HW252630   7.532   8.416   1.170 -1.7009 -0.8553 -1.7396
16559SOL     OW52631   4.594   2.672   4.482 -0.1900 -0.0174 -0.1146
16559SOL    HW152632   4.562   2.602   4.539 -0.5618 -0.7630 -1.2070
16559SOL    HW252633   4.564   2.752   4.524 -1.6477 -0.6100  0.0331
16560SOL     OW52634   9.136   5.463   1.686 -0.1670 -0.0678 -0.2839
16560SOL    HW152635   9.083   5.402   1.736 -1.0009 -0.1105 -1.1879
16560SOL    HW252636   9.075   5.531   1.658  0.5677  0.7124 -0.0455
16561SOL     OW52637   3.094   7.415   8.589  0.3999 -0.2429 -0.2076
16561SOL    HW152638   3.068   7.332   8.549  0.3286 -0.5731  0.4941
16561SOL    HW252639   3.078   7.401   8.683  0.0612  0.6858 -0.1214
16562SOL     OW52640   5.980   2.313   6.964 -0.2643  0.4756 -0.6120
16562SOL    HW152641   5.948   2.402   6.956 -0.7996  0.5565  1.7231
16562SOL    HW252642   5.951   2.269   6.884  1.5731  2.7669 -2.6998
16563SOL     OW52643   4.683  10.351   3.598 -0.1717 -0.3174  0.2718
16563SOL    HW152644   4.775  10.372   3.612 -0.3996 -1.0253  3.5916
16563SOL    HW252645   4.640  10.437   3.592  0.5430  0.0174 -0.1953
16564SOL     OW52646   8.692   8.818   0.477 -0.0920 -0.5242 -0.2334
16564SOL    HW152647   8.736   8.872   0.410 -0.0165  3.1984  2.5107
16564SOL    HW252648   8.601   8.845   0.472 -0.1482 -0.4910  0.9168
16565SOL     OW52649   3.884   6.792   3.505 -0.1333  0.2403  0.0978
16565SOL    HW152650   3.930   6.845   3.570 -1.2576  0.2651  0.9059
16565SOL    HW252651   3.804   6.842   3.485 -0.3663 -0.3260 -0.4143
16566SOL     OW52652   5.126   3.696   3.912 -0.3824  0.9163  0.0440
16566SOL    HW152653   5.109   3.605   3.887 -0.8398  0.7301  1.0245
16566SOL    HW252654   5.129   3.695   4.007  0.2025  1.8327  0.0468
16567SOL     OW52655   7.882   6.367   6.695  0.2453 -0.0299 -0.0365
16567SOL    HW152656   7.943   6.349   6.623  1.2195  2.2473  0.1207
16567SOL    HW252657   7.825   6.437   6.661 -1.2121 -0.9567  0.4120
16568SOL     OW52658   5.125   2.934   2.855 -0.2487 -0.5117  0.0592
16568SOL    HW152659   5.150   2.984   2.778 -1.3018  0.5831  0.4029
16568SOL    HW252660   5.030   2.919   2.844 -0.4657 -0.1131  1.2590
16569SOL     OW52661   3.558   9.605   0.114 -0.3922  0.8019 -0.1841
16569SOL    HW152662   3.478   9.569   0.153 -1.3777  0.5597 -2.2533
16569SOL    HW252663   3.568   9.691   0.155 -1.6537  0.7752  0.2416
16570SOL     OW52664   2.372   4.309   8.595  0.0061 -0.3480  0.0398
16570SOL    HW152665   2.373   4.264   8.511  0.3249  1.2231 -0.8311
16570SOL    HW252666   2.436   4.380   8.585 -1.3732  1.0783  0.9228
16571SOL     OW52667   7.211   5.542   1.755 -0.1906  0.1184 -0.3942
16571SOL    HW152668   7.118   5.539   1.776  0.5307  1.4340  4.2025
16571SOL    HW252669   7.217   5.596   1.676 -3.2689  0.7577 -0.2896
16572SOL     OW52670   7.421   2.421   2.951 -0.0550  0.3407 -0.0468
16572SOL    HW152671   7.485   2.372   3.001  0.8298  1.3301 -0.1697
16572SOL    HW252672   7.343   2.423   3.007  0.3650  0.0054  0.5600
16573SOL     OW52673   0.497   5.032   2.257 -0.3987 -0.2710 -0.1074
16573SOL    HW152674   0.543   5.097   2.204 -0.3307  0.0854  0.3797
16573SOL    HW252675   0.477   4.961   2.196  0.4058 -0.2352 -0.4257
16574SOL     OW52676   2.078   7.250   0.268  0.1298  0.0371 -0.0202
16574SOL    HW152677   2.019   7.238   0.343  1.4164 -1.5747  0.8058
16574SOL    HW252678   2.072   7.343   0.248 -2.7324 -0.0581 -0.0518
16575SOL     OW52679   0.808   5.795   5.653  0.1780 -0.3938  0.0833
16575SOL    HW152680   0.769   5.802   5.741  0.3318  3.2466  0.0275
16575SOL    HW252681   0.900   5.774   5.669  0.6235  1.9268  1.0244
16576SOL     OW52682   0.440   1.264   3.173  0.0058 -0.2642 -0.2382
16576SOL    HW152683   0.475   1.257   3.084 -0.5814 -0.2267 -0.4815
16576SOL    HW252684   0.396   1.180   3.188 -0.3301 -0.0806 -0.1779
16577SOL     OW52685   8.316   8.557   9.003 -0.1004 -0.2319 -0.2472
16577SOL    HW152686   8.243   8.509   9.042 -0.2763  0.2321  0.0017
16577SOL    HW252687   8.275   8.630   8.957  0.2462  0.3986  0.4284
16578SOL     OW52688   2.046   1.925   1.695  0.2824  0.6324 -0.0101
16578SOL    HW152689   1.994   1.943   1.618 -0.3230 -2.3695 -0.4468
16578SOL    HW252690   2.064   1.831   1.690  1.2973  0.5667  2.8463
16579SOL     OW52691   2.113   6.711   4.661 -0.4939  0.0976 -0.1385
16579SOL    HW152692   2.029   6.698   4.707 -2.9303  2.2435 -3.4898
16579SOL    HW252693   2.161   6.773   4.715 -1.2588 -0.7436  1.5921
16580SOL     OW52694  10.482   1.012   6.789  0.2024  0.0194 -0.3919
16580SOL    HW152695  10.554   0.956   6.816  0.2658  1.1671  2.2110
16580SOL    HW252696  10.524   1.095   6.765 -0.1810  0.9363  1.8356
16581SOL     OW52697   1.848   2.332   9.094 -0.1813  0.0053  0.2760
16581SOL    HW152698   1.898   2.258   9.059 -0.8631 -0.2122 -0.2648
16581SOL    HW252699   1.807   2.297   9.173 -0.0558 -0.0322  0.3250
16582SOL     OW52700   6.873   6.707   4.489  0.3144 -0.1397 -0.0828
16582SOL    HW152701   6.962   6.701   4.525 -0.3986  0.1123  1.8244
16582SOL    HW252702   6.871   6.639   4.421  1.8171 -0.4776  0.1676
16583SOL     OW52703   6.274   0.480   1.056  0.4320  0.1802  0.3190
16583SOL    HW152704   6.348   0.430   1.021  0.5102  1.4783 -1.4766
16583SOL    HW252705   6.286   0.569   1.023 -1.3805  0.6707  0.8282
16584SOL     OW52706   1.811   9.563   2.780 -0.1666  0.0421  0.4345
16584SOL    HW152707   1.829   9.493   2.718  1.0154 -0.0588  0.8586
16584SOL    HW252708   1.717   9.578   2.773 -0.0588  0.1042 -1.4532
16585SOL     OW52709   2.488   7.848   1.558  0.0880  0.4390 -0.2690
16585SOL    HW152710   2.497   7.760   1.593  2.0012  0.5155 -0.4694
16585SOL    HW252711   2.407   7.882   1.598 -1.3415 -1.7732 -1.1072
16586SOL     OW52712   5.618   1.530   3.089  0.3828 -0.4433 -0.0832
16586SOL    HW152713   5.678   1.587   3.137  0.1317  1.1781 -1.6099
16586SOL    HW252714   5.569   1.589   3.031 -2.0370 -1.8163  0.4014
16587SOL     OW52715   2.725   7.709   6.453  0.0500 -0.3713 -0.3225
16587SOL    HW152716   2.688   7.797   6.458 -1.8431 -1.0889 -0.9235
16587SOL    HW252717   2.711   7.671   6.539  1.7878  0.2124  0.2647
16588SOL     OW52718   3.027  10.662   4.161  0.1179  0.1749  0.5364
16588SOL    HW152719   3.085  10.587   4.149 -0.7547 -0.6551  1.2922
16588SOL    HW252720   3.000  10.687   4.073  2.1503  1.0461  0.1014
16589SOL     OW52721   5.426   9.955   0.332 -0.4446 -0.3518 -0.4007
16589SOL    HW152722   5.488   9.939   0.261 -0.6827 -0.2681 -0.6280
16589SOL    HW252723   5.448   9.890   0.398  0.9725  0.7296  0.2330
16590SOL     OW52724   6.682   7.350   9.518  0.1470 -0.6869  0.1437
16590SOL    HW152725   6.765   7.367   9.473  0.5512 -0.9000  0.8027
16590SOL    HW252726   6.622   7.324   9.447  0.0727  1.3561 -0.6077
16591SOL     OW52727   8.515   5.476   5.180 -0.1291  0.0211 -0.4618
16591SOL    HW152728   8.547   5.540   5.116 -0.3850 -1.2476 -1.9338
16591SOL    HW252729   8.442   5.432   5.135  0.2975 -1.5784  0.3175
16592SOL     OW52730   1.542   5.009   5.351 -0.0875  0.0245  0.6188
16592SOL    HW152731   1.620   4.992   5.403 -0.8014 -2.1480  1.0651
16592SOL    HW252732   1.528   5.103   5.359  1.8439  0.2873  1.4163
16593SOL     OW52733   6.680   4.446   0.509  0.2492 -0.8294  0.3958
16593SOL    HW152734   6.775   4.442   0.511  0.5008  2.4331  1.2278
16593SOL    HW252735   6.657   4.506   0.580 -2.0418  1.8930 -2.3457
16594SOL     OW52736  10.448   5.569   4.219 -0.1604  0.0020 -0.8768
16594SOL    HW152737  10.394   5.642   4.191 -1.1450 -0.2596  0.2415
16594SOL    HW252738  10.424   5.555   4.311  3.4866  1.4003  0.4869
16595SOL     OW52739   6.554  10.431   5.133  0.0079 -0.4210  0.4672
16595SOL    HW152740   6.477  10.382   5.103  0.5785 -0.5738 -0.8503
16595SOL    HW252741   6.611  10.433   5.056  0.4227  1.4817  0.7932
16596SOL     OW52742   9.018   2.756  10.101  0.1445 -0.2452 -0.5569
16596SOL    HW152743   9.034   2.667  10.069  0.9585 -0.2246 -0.2180
16596SOL    HW252744   9.007   2.746  10.196  0.4796  0.0479 -0.4865
16597SOL     OW52745   5.978   6.566   9.540  0.7831 -0.1704 -0.3069
16597SOL    HW152746   5.990   6.637   9.603 -1.8058 -0.1127  0.2244
16597SOL    HW252747   6.037   6.497   9.571  0.4400  0.3006  1.5327
16598SOL     OW52748   9.107   3.541   5.644  0.0100 -0.5513  0.2778
16598SOL    HW152749   9.183   3.548   5.587  0.6969 -0.0794  1.2256
16598SOL    HW252750   9.088   3.631   5.672 -0.4620 -0.7404  0.5956
16599SOL     OW52751   8.071   2.910   8.500  0.3110  0.1081 -0.3700
16599SOL    HW152752   8.010   2.981   8.480  0.3200  0.2867  0.2028
16599SOL    HW252753   8.015   2.839   8.532  0.2557 -0.3263 -1.3818
16600SOL     OW52754   4.435   7.450  10.024  0.6360  0.2370 -0.0126
16600SOL    HW152755   4.502   7.498   9.976 -0.5996  1.6090 -0.4532
16600SOL    HW252756   4.415   7.375   9.968  0.6397  0.7270 -0.6878
16601SOL     OW52757   7.310   7.936   4.882 -0.2449  0.0238  0.1736
16601SOL    HW152758   7.238   7.873   4.892 -2.1915  1.9806 -0.7835
16601SOL    HW252759   7.328   7.936   4.788  1.1616 -0.5370  0.4161
16602SOL     OW52760   3.921   2.108   8.047 -0.2455  0.6038  0.1038
16602SOL    HW152761   3.997   2.151   8.087 -1.0078  2.2344 -0.0936
16602SOL    HW252762   3.865   2.085   8.121 -0.6555  1.6404  0.1399
16603SOL     OW52763   0.014   1.207   7.827 -0.7984 -0.0916  0.7905
16603SOL    HW152764  -0.014   1.146   7.758  1.0256  0.8183 -0.8717
16603SOL    HW252765   0.077   1.158   7.878 -1.7871 -0.6132  1.5335
16604SOL     OW52766   7.221   0.877   2.196 -0.3070 -0.1116 -0.5842
16604SOL    HW152767   7.204   0.968   2.218 -1.3191 -0.4566  0.1192
16604SOL    HW252768   7.200   0.828   2.276  1.5323 -0.8451 -0.5022
16605SOL     OW52769   4.767   6.508   6.332  0.0655  0.6237 -0.6576
16605SOL    HW152770   4.707   6.452   6.283  1.9101 -1.9485 -0.1782
16605SOL    HW252771   4.848   6.507   6.282  0.6954  1.4103  0.2956
16606SOL     OW52772   9.529   9.151   7.446  0.8161  0.5564 -0.5148
16606SOL    HW152773   9.569   9.210   7.382  1.2989  0.0589 -0.6829
16606SOL    HW252774   9.440   9.183   7.456  0.9362  1.0372 -0.9419
16607SOL     OW52775   9.709   9.778   3.441 -0.1271  0.5294 -0.1865
16607SOL    HW152776   9.770   9.851   3.429  0.6145 -0.0862 -0.2143
16607SOL    HW252777   9.656   9.778   3.361  0.9461  0.0390 -0.9092
16608SOL     OW52778   1.638   6.639   8.472 -0.1137 -0.0628  0.1300
16608SOL    HW152779   1.589   6.698   8.414  0.6377  1.1096  0.6564
16608SOL    HW252780   1.633   6.680   8.558  1.9351  0.2078  0.1699
16609SOL     OW52781   1.384   1.235   3.936  0.2597 -0.5520  0.3137
16609SOL    HW152782   1.433   1.153   3.942  0.5781 -0.4154 -0.3166
16609SOL    HW252783   1.350   1.249   4.024  0.0883 -1.4289  0.3945
16610SOL     OW52784   9.693   9.200   8.025 -0.0412 -0.0157  0.5713
16610SOL    HW152785   9.668   9.291   8.042  0.0374 -0.0288  0.7567
16610SOL    HW252786   9.788   9.201   8.023 -0.0537  0.1044 -0.5224
16611SOL     OW52787   6.455   3.796   3.470 -0.1859 -0.2619 -0.3432
16611SOL    HW152788   6.491   3.865   3.415  1.8437 -0.8863  0.0947
16611SOL    HW252789   6.379   3.763   3.422 -0.4829  1.4699 -1.1092
16612SOL     OW52790   2.186   1.775   9.922  0.0594 -0.3999  0.6406
16612SOL    HW152791   2.160   1.683   9.928 -1.4139 -0.1915 -1.3063
16612SOL    HW252792   2.104   1.824   9.933  0.3231  0.5208 -1.0182
16613SOL     OW52793   5.141   3.097   9.840  0.4682 -0.2656  0.0040
16613SOL    HW152794   5.085   3.115   9.916 -1.1472 -0.6143 -1.0628
16613SOL    HW252795   5.113   3.011   9.809 -0.3857  0.7109 -2.1909
16614SOL     OW52796   7.207   7.845   2.648 -0.5939 -0.3139  0.6049
16614SOL    HW152797   7.121   7.881   2.672  0.4365  1.7871  1.3019
16614SOL    HW252798   7.259   7.852   2.728 -0.0623 -2.6909  0.5489
16615SOL     OW52799   7.841   3.641   8.032 -0.2023  0.2065 -0.2708
16615SOL    HW152800   7.806   3.730   8.029 -0.3851  0.1107 -2.0126
16615SOL    HW252801   7.928   3.651   8.069 -0.4924  1.0086  0.2196
16616SOL     OW52802   4.981   6.066   8.537  0.2421 -0.4840 -0.6413
16616SOL    HW152803   4.913   6.094   8.475 -0.0604 -0.5980 -0.3626
16616SOL    HW252804   5.063   6.092   8.495  0.0489 -0.6558 -1.1432
16617SOL     OW52805   6.453   4.427   1.356  0.0904  1.4319  0.1254
16617SOL    HW152806   6.537   4.435   1.401  0.4384 -0.7715 -0.0102
16617SOL    HW252807   6.468   4.361   1.289 -1.2507  2.4357 -1.2137
16618SOL     OW52808   1.913   9.874   0.304 -0.2092  0.9112  0.1549
16618SOL    HW152809   1.934   9.968   0.310  2.4291  0.3725  0.4933
16618SOL    HW252810   1.948   9.837   0.384  1.2717 -0.7530 -1.1873
16619SOL     OW52811   4.321   9.989   5.873 -0.6051 -0.2764 -0.3013
16619SOL    HW152812   4.406  10.031   5.863 -0.6711  0.0697  0.4649
16619SOL    HW252813   4.258  10.057   5.849 -0.6791 -0.3522 -0.3231
16620SOL     OW52814   1.109  10.212   7.868  0.1387 -0.2410 -0.4591
16620SOL    HW152815   1.174  10.236   7.934 -0.9065  1.3025  0.0685
16620SOL    HW252816   1.092  10.294   7.821 -2.4676 -0.2092  0.3864
16621SOL     OW52817   0.949   7.822   9.124  0.4145  0.3726 -0.3442
16621SOL    HW152818   1.020   7.866   9.078  0.3978  0.9414  0.1481
16621SOL    HW252819   0.973   7.829   9.217 -0.7149  1.4173 -0.0953
16622SOL     OW52820   4.354   9.699  10.451  0.3303  0.4217 -0.8388
16622SOL    HW152821   4.288   9.675  10.385  0.4157 -1.2912 -0.3629
16622SOL    HW252822   4.437   9.673  10.412  0.4014 -0.4090 -0.1813
16623SOL     OW52823   7.682   3.868   1.778 -0.0365 -0.4908  0.4957
16623SOL    HW152824   7.716   3.798   1.723  2.7602 -0.9473  2.5544
16623SOL    HW252825   7.700   3.948   1.729  0.4116 -1.0119 -0.2122
16624SOL     OW52826   2.238  10.233   9.238 -0.8049  0.3603  0.2460
16624SOL    HW152827   2.316  10.186   9.267 -1.8540 -1.4785  0.2822
16624SOL    HW252828   2.207  10.280   9.315 -0.9555 -0.7017  0.8479
16625SOL     OW52829   7.813   9.629   2.249  0.5286 -0.6663  0.1899
16625SOL    HW152830   7.774   9.688   2.314 -1.1231 -0.6615 -0.7422
16625SOL    HW252831   7.900   9.609   2.283  0.8008  1.6012  0.9621
16626SOL     OW52832  10.187   8.950   1.996 -1.3712  0.1491  0.6267
16626SOL    HW152833  10.136   9.020   1.956 -1.4893 -0.0920  0.3474
16626SOL    HW252834  10.166   8.872   1.944 -0.1409  0.1985  0.0336
16627SOL     OW52835   8.502   8.992   3.730 -0.0983 -0.4768  0.5878
16627SOL    HW152836   8.433   9.058   3.721  0.2404 -0.2763 -0.8746
16627SOL    HW252837   8.456   8.908   3.721  0.0044 -0.3219 -2.3157
16628SOL     OW52838   8.749   7.889   5.592 -0.4632 -0.2789 -0.7288
16628SOL    HW152839   8.789   7.820   5.539 -0.8631 -0.2318 -1.0983
16628SOL    HW252840   8.687   7.933   5.533  0.0282  0.6196 -0.5986
16629SOL     OW52841   0.610   7.428   6.222  0.1864  0.0711 -0.1884
16629SOL    HW152842   0.688   7.428   6.277  0.6879  0.9462 -0.8651
16629SOL    HW252843   0.612   7.344   6.176  0.7011  0.0633 -0.1486
16630SOL     OW52844   8.206   6.003   1.050 -0.9777 -0.6170 -0.9107
16630SOL    HW152845   8.266   6.077   1.051 -1.1362 -0.4875  0.2166
16630SOL    HW252846   8.243   5.943   0.986  0.3615 -0.5383 -0.2466
16631SOL     OW52847  10.025   1.700   3.256  0.4282 -0.4082 -0.0688
16631SOL    HW152848   9.979   1.701   3.340 -3.1337  1.7950 -1.7738
16631SOL    HW252849   9.981   1.632   3.205  0.9351 -0.1325 -0.8932
16632SOL     OW52850   3.581   6.189   5.611 -0.5131  0.0136  0.0095
16632SOL    HW152851   3.576   6.266   5.667  1.4346 -0.7744  1.4173
16632SOL    HW252852   3.491   6.160   5.600 -1.2772  2.3548 -0.4412
16633SOL     OW52853   9.277   2.364   2.866  0.2954 -0.0482  0.0484
16633SOL    HW152854   9.369   2.360   2.892  0.7452  1.2705 -1.1983
16633SOL    HW252855   9.230   2.324   2.939  1.7856 -0.0554  1.0610
16634SOL     OW52856   9.011   8.899   8.025  0.2375 -0.4419  0.6062
16634SOL    HW152857   9.054   8.819   8.053 -0.3249 -0.6655  0.8513
16634SOL    HW252858   9.032   8.907   7.932 -0.8701 -1.6472  0.2275
16635SOL     OW52859   5.020   5.786   9.118  0.0421  0.5806 -0.4565
16635SOL    HW152860   4.982   5.724   9.055  1.7752  0.7007 -1.7038
16635SOL    HW252861   5.114   5.769   9.115  0.2184  0.7968  1.9441
16636SOL     OW52862   3.294   9.785   2.510 -0.0773 -0.0739 -0.1205
16636SOL    HW152863   3.241   9.848   2.461  1.3675  1.6056  0.3494
16636SOL    HW252864   3.255   9.783   2.597  1.3404  2.2406  0.6595
16637SOL     OW52865   2.500   7.028   7.860 -0.4664 -0.0112 -0.0519
16637SOL    HW152866   2.477   7.019   7.768 -0.6679 -2.1593  0.1658
16637SOL    HW252867   2.589   7.063   7.859  0.3115 -1.8847 -1.1385
16638SOL     OW52868  10.630   6.828   5.661 -0.0470  0.3025  0.0368
16638SOL    HW152869  10.653   6.749   5.611 -4.1347 -1.1005 -0.0414
16638SOL    HW252870  10.614   6.895   5.594 -0.6691 -0.1030 -0.2312
16639SOL     OW52871   6.595   6.306   5.417  0.4932  0.6176 -0.3670
16639SOL    HW152872   6.558   6.233   5.466  0.4273  1.6115  1.1629
16639SOL    HW252873   6.575   6.287   5.326 -1.2980 -0.2748  0.1621
16640SOL     OW52874   3.685   3.165   6.403  0.3818 -0.1921  0.4915
16640SOL    HW152875   3.758   3.103   6.401  0.7799  0.2862 -0.2593
16640SOL    HW252876   3.726   3.251   6.404 -0.1724  0.0750  1.1657
16641SOL     OW52877   7.592   4.357   9.770  0.0242  0.3856  0.2152
16641SOL    HW152878   7.592   4.428   9.706 -1.6760  0.5514  0.3608
16641SOL    HW252879   7.632   4.395   9.848 -0.7746  1.1784  0.2575
16642SOL     OW52880   3.841   7.469  10.059 -0.0673 -0.2664 -0.0361
16642SOL    HW152881   3.750   7.461  10.086 -0.6664  1.2895 -1.4499
16642SOL    HW252882   3.871   7.550  10.100  1.0787 -1.3223  1.3423
16643SOL     OW52883   4.146   5.195   5.446  0.2165  0.4837 -0.4660
16643SOL    HW152884   4.194   5.172   5.367 -0.3246  1.3991 -1.0893
16643SOL    HW252885   4.111   5.112   5.479 -0.1410  0.1721 -1.5900
16644SOL     OW52886   2.064  10.124   3.081 -0.0011 -0.6033  0.4821
16644SOL    HW152887   2.142  10.162   3.042 -0.6168  0.1544 -0.0433
16644SOL    HW252888   2.090  10.035   3.105  0.4733 -1.0444 -1.4793
16645SOL     OW52889   0.553   1.397  10.177 -0.3340  0.0487 -0.4869
16645SOL    HW152890   0.582   1.340  10.105 -2.3777 -1.0480 -0.5326
16645SOL    HW252891   0.531   1.336  10.247 -1.2016  0.8859 -0.0179
16646SOL     OW52892   0.603   9.244   3.997  0.2686 -0.0339 -0.1991
16646SOL    HW152893   0.510   9.265   3.987  0.3657 -0.3065 -2.0382
16646SOL    HW252894   0.620   9.177   3.931  1.4159 -1.2573  1.2717
16647SOL     OW52895  10.555   0.575   4.787  0.1590 -0.4503 -0.3616
16647SOL    HW152896  10.589   0.646   4.732 -1.2931  0.2932 -0.3696
16647SOL    HW252897  10.531   0.618   4.869  0.1829 -1.1225 -0.0002
16648SOL     OW52898   3.556   8.542   3.712  0.0317 -0.1827  0.1519
16648SOL    HW152899   3.588   8.609   3.651  1.0852 -1.3830 -0.6887
16648SOL    HW252900   3.636   8.502   3.747 -0.5601  0.2141  2.0651
16649SOL     OW52901   2.739   9.804  10.118 -0.0313  0.3669 -0.5171
16649SOL    HW152902   2.696   9.718  10.119 -2.6745  1.6031  0.3223
16649SOL    HW252903   2.737   9.832  10.209 -0.6720  1.9932 -1.0071
16650SOL     OW52904   6.885   4.630   2.722  0.5610 -0.1818 -0.0296
16650SOL    HW152905   6.804   4.580   2.707  0.2831 -0.0583  0.9624
16650SOL    HW252906   6.893   4.686   2.644 -0.3441 -0.1566 -0.1219
16651SOL     OW52907   8.869   6.327   4.699  0.0134 -0.3263  0.0406
16651SOL    HW152908   8.832   6.248   4.659 -2.0766 -0.6386  2.3527
16651SOL    HW252909   8.815   6.398   4.665  0.6308 -0.1051 -0.5056
16652SOL     OW52910   7.839   5.006   8.986  0.0350 -0.3490  0.0737
16652SOL    HW152911   7.755   5.051   8.983 -1.0722 -2.3472 -0.2916
16652SOL    HW252912   7.858   4.985   8.894  1.1169  0.3636  0.1144
16653SOL     OW52913   1.258   9.528   2.587  0.3990 -0.5791  0.1080
16653SOL    HW152914   1.172   9.496   2.560  1.2409 -2.8640 -0.0667
16653SOL    HW252915   1.277   9.481   2.668  0.8021  1.1639  1.0685
16654SOL     OW52916   2.161  10.683   5.628  0.1855  0.2790 -0.0835
16654SOL    HW152917   2.221  10.758   5.626 -2.0365  2.1609 -0.4645
16654SOL    HW252918   2.136  10.674   5.720  0.7997 -0.3401  0.0351
16655SOL     OW52919   3.732   1.988   9.492 -0.0567  0.3607  0.2226
16655SOL    HW152920   3.744   2.064   9.435 -0.9000  1.1525  1.0535
16655SOL    HW252921   3.802   1.928   9.467  0.2797  1.1681 -0.8522
16656SOL     OW52922   4.791   8.622   1.383  0.1971  0.0812  0.3031
16656SOL    HW152923   4.721   8.556   1.374  0.7174 -0.3359 -0.9449
16656SOL    HW252924   4.748   8.697   1.422 -0.5033 -0.8597  1.4116
16657SOL     OW52925   8.790   4.802   0.716  0.4650  0.4963 -0.2392
16657SOL    HW152926   8.814   4.886   0.677  0.2668  0.6654 -0.0005
16657SOL    HW252927   8.703   4.817   0.754  0.2207  0.0433 -0.6190
16658SOL     OW52928   5.215   0.322   7.863 -0.3511  0.2315 -0.1216
16658SOL    HW152929   5.212   0.231   7.832 -2.9525 -0.2546  1.2753
16658SOL    HW252930   5.150   0.367   7.810 -0.3886  0.8346  0.4288
16659SOL     OW52931   8.099   4.480   8.188 -0.2786 -0.1663 -0.5087
16659SOL    HW152932   8.081   4.462   8.281 -1.3349  0.1013 -0.6468
16659SOL    HW252933   8.175   4.538   8.189 -1.6014  1.6960  0.3535
16660SOL     OW52934   9.172   2.501  10.253  0.2494 -0.6420 -0.7604
16660SOL    HW152935   9.097   2.467  10.205  0.5206 -3.0000  0.3061
16660SOL    HW252936   9.209   2.423  10.296  1.4798  0.9335  1.1888
16661SOL     OW52937   9.880   1.152   9.741 -0.2910  0.1915  0.4251
16661SOL    HW152938   9.925   1.232   9.770 -1.5294  1.2854 -0.5898
16661SOL    HW252939   9.943   1.110   9.682 -0.0739  1.0189  0.0508
16662SOL     OW52940   4.302  10.388   3.694  0.3880  0.0209  0.0116
16662SOL    HW152941   4.219  10.435   3.699 -0.1038 -0.6956 -1.0029
16662SOL    HW252942   4.329  10.376   3.785  0.9028  2.8396  0.3405
16663SOL     OW52943   9.011   0.014   4.648  0.1438  0.3109  0.7804
16663SOL    HW152944   9.077  -0.050   4.622 -0.5011  0.7287 -2.2889
16663SOL    HW252945   8.954  -0.033   4.709  0.3031 -1.7467 -0.5478
16664SOL     OW52946   1.214   5.161   5.709  0.0644  0.3659  0.2102
16664SOL    HW152947   1.245   5.077   5.741  0.5295  0.6494  0.5127
16664SOL    HW252948   1.153   5.139   5.639 -0.3302 -0.2428  0.7287
16665SOL     OW52949   1.413   4.265  10.237 -0.0631  0.0526 -0.3672
16665SOL    HW152950   1.387   4.173  10.225 -0.3450  0.1440 -0.4790
16665SOL    HW252951   1.467   4.285  10.161  1.3484 -0.4917  0.4641
16666SOL     OW52952  10.597   2.324   8.942  0.2016 -0.2266  0.2672
16666SOL    HW152953  10.688   2.308   8.916  0.4033 -1.6272  1.6940
16666SOL    HW252954  10.598   2.412   8.981  0.7015  0.2110 -0.7055
16667SOL     OW52955   1.000   5.698   9.543 -0.2538 -0.2220 -0.3950
16667SOL    HW152956   1.007   5.612   9.585  1.6071 -1.1387 -2.3197
16667SOL    HW252957   1.082   5.742   9.565 -0.0232 -0.0320 -1.5730
16668SOL     OW52958   2.700   7.973   0.650 -0.0713 -0.1053  0.2750
16668SOL    HW152959   2.742   7.967   0.735 -0.3844 -2.4962  0.3301
16668SOL    HW252960   2.770   7.998   0.590  0.6770 -0.6944  0.8790
16669SOL     OW52961   3.507   0.644   0.507  0.6537 -0.1882  0.5340
16669SOL    HW152962   3.514   0.584   0.433  0.8466 -0.7433  0.9915
16669SOL    HW252963   3.527   0.730   0.470 -3.4595  0.3352 -1.0133
16670SOL     OW52964   9.800   8.437   8.441 -0.4095  0.6378 -0.1180
16670SOL    HW152965   9.707   8.419   8.430  0.0578 -2.6184  0.0878
16670SOL    HW252966   9.842   8.392   8.368  1.0502  0.9676  0.4815
16671SOL     OW52967   0.289   1.278   4.257 -0.3497 -0.4961  0.1855
16671SOL    HW152968   0.208   1.282   4.308 -0.8140 -0.2994 -0.5499
16671SOL    HW252969   0.334   1.200   4.289 -0.3858 -0.1070  1.2429
16672SOL     OW52970   7.059   6.762   8.574 -0.2467  0.1476  0.2489
16672SOL    HW152971   7.033   6.672   8.552 -1.7180  0.4743  0.5476
16672SOL    HW252972   7.140   6.776   8.525 -1.1750 -0.5944 -1.5905
16673SOL     OW52973   1.792   2.178   1.326 -0.1957  0.3054  0.3776
16673SOL    HW152974   1.750   2.205   1.244  1.9092  0.3636 -0.7652
16673SOL    HW252975   1.836   2.257   1.358 -0.2673  0.0642  1.0877
16674SOL     OW52976   5.382  10.332   4.133 -0.4875  0.4057 -0.0336
16674SOL    HW152977   5.381  10.241   4.103 -0.7789  0.1425  0.7324
16674SOL    HW252978   5.405  10.326   4.226 -0.2373  1.1390 -0.0407
16675SOL     OW52979   0.883   0.759   8.863 -0.7308  0.1269 -0.4754
16675SOL    HW152980   0.821   0.709   8.810  1.1144  0.2602 -2.9834
16675SOL    HW252981   0.958   0.773   8.804  0.6445  2.0669  1.5819
16676SOL     OW52982   2.400   4.838   0.137  0.7729 -0.0458  0.3375
16676SOL    HW152983   2.430   4.759   0.181  1.0872 -0.9928 -1.4710
16676SOL    HW252984   2.480   4.876   0.100  0.3458 -0.1326 -0.7101
16677SOL     OW52985   4.930   5.415   4.644  0.0358 -0.7950  0.0141
16677SOL    HW152986   4.920   5.359   4.722  2.4967  0.0128  1.0019
16677SOL    HW252987   5.013   5.387   4.605  0.6794  1.2484 -0.1954
16678SOL     OW52988   8.357   4.294   8.922 -0.4984  0.3581  0.1645
16678SOL    HW152989   8.365   4.198   8.929 -0.4529  0.3232 -0.2994
16678SOL    HW252990   8.428   4.319   8.864  0.3893  0.8548  1.4412
16679SOL     OW52991   3.937   5.124   6.824  0.0178  0.3704 -0.0267
16679SOL    HW152992   3.897   5.039   6.803 -0.0171  0.6742 -1.2462
16679SOL    HW252993   3.966   5.159   6.740 -1.5608  2.3771  0.1785
16680SOL     OW52994   8.190   7.420   7.541 -0.6027 -0.5624  0.2054
16680SOL    HW152995   8.198   7.325   7.540 -1.7728 -0.6947  0.9327
16680SOL    HW252996   8.096   7.436   7.530 -0.7173  0.4202  2.1269
16681SOL     OW52997   2.653   2.849   9.412 -0.0588 -0.3967  0.4900
16681SOL    HW152998   2.570   2.859   9.459  0.2932  3.0255  0.6991
16681SOL    HW252999   2.641   2.900   9.332  1.1409 -1.6678 -0.5278
16682SOL     OW53000   4.344   9.191   3.881 -0.2120 -0.5103 -0.2557
16682SOL    HW153001   4.361   9.136   3.957  2.9261  0.3739 -0.1581
16682SOL    HW253002   4.424   9.184   3.828 -0.5421  2.2602 -1.2933
16683SOL     OW53003  10.077   7.639   3.463  0.1272 -0.6947 -0.2804
16683SOL    HW153004  10.060   7.732   3.452 -0.7474 -1.0605 -2.3882
16683SOL    HW253005  10.036   7.617   3.547 -0.8614  0.5456 -0.4116
16684SOL     OW53006   0.772  10.522   9.054 -0.1177  0.4457  0.2344
16684SOL    HW153007   0.834  10.478   9.112  0.0123 -0.4571 -0.5751
16684SOL    HW253008   0.815  10.524   8.969 -0.4246  1.5097  0.0877
16685SOL     OW53009   7.017   4.721   7.644  0.2683  0.0451  0.6334
16685SOL    HW153010   7.008   4.640   7.594 -0.7166 -0.6882  1.9305
16685SOL    HW253011   6.963   4.785   7.597 -1.1047 -0.7823  1.0096
16686SOL     OW53012   5.240   5.191   5.218 -0.5352 -0.1857  0.2826
16686SOL    HW153013   5.150   5.212   5.191  0.5679  1.2266 -2.6871
16686SOL    HW253014   5.280   5.153   5.141  1.3148 -1.3282  1.7255
16687SOL     OW53015   9.359   5.566   1.622  0.2150  0.3139  0.0922
16687SOL    HW153016   9.332   5.584   1.533  1.4187  0.0609 -0.3482
16687SOL    HW253017   9.288   5.514   1.659 -1.8615  3.0977  0.3881
16688SOL     OW53018   3.195   1.241   4.437 -0.4382  0.2192 -0.6552
16688SOL    HW153019   3.213   1.176   4.505 -0.7380  0.3810 -0.4139
16688SOL    HW253020   3.251   1.216   4.364  2.1732  1.7679  0.6837
16689SOL     OW53021   9.776   4.667   6.180 -0.1256  0.0606 -0.0687
16689SOL    HW153022   9.774   4.689   6.087  2.3680  1.9274  0.2085
16689SOL    HW253023   9.716   4.594   6.188 -0.9469  0.2568 -3.0194
16690SOL     OW53024   6.562   9.231   0.923  0.2389 -0.0612  0.0887
16690SOL    HW153025   6.595   9.141   0.923  1.0758  0.2372  0.0844
16690SOL    HW253026   6.470   9.223   0.899  0.8788 -0.7197 -2.3804
16691SOL     OW53027   7.049   6.537   3.607  0.0675 -0.2426  0.5383
16691SOL    HW153028   7.116   6.534   3.540 -1.3938  0.8556 -1.0745
16691SOL    HW253029   7.069   6.616   3.658  0.3294 -0.2424  0.4349
16692SOL     OW53030   6.506   1.301   6.144 -0.6373 -0.2209 -0.5081
16692SOL    HW153031   6.564   1.241   6.190 -1.5236 -0.3515  0.4879
16692SOL    HW253032   6.496   1.264   6.056  2.7349  1.1057 -1.6002
16693SOL     OW53033   3.887   7.246   2.919  0.2068  0.2500  0.0725
16693SOL    HW153034   3.930   7.185   2.859 -0.2072  0.8329 -0.8389
16693SOL    HW253035   3.942   7.244   2.998  1.6978  0.6634 -0.9044
16694SOL     OW53036   7.907   3.187   1.217 -0.0952  0.1991 -0.3619
16694SOL    HW153037   7.841   3.193   1.147  0.4348 -0.9058 -1.0021
16694SOL    HW253038   7.939   3.276   1.228 -0.8888  0.5543 -0.8498
16695SOL     OW53039   2.959   1.096   4.333  0.5596  0.1711  0.0088
16695SOL    HW153040   3.025   1.164   4.343  0.8331 -0.1206  0.2275
16695SOL    HW253041   2.964   1.046   4.415  0.6275 -0.3416 -0.3059
16696SOL     OW53042   0.712   8.474   5.578 -0.1684 -0.2871  0.4275
16696SOL    HW153043   0.624   8.449   5.550  0.3150 -1.6369  0.0463
16696SOL    HW253044   0.702   8.499   5.670 -0.6687 -2.1933  0.9353
16697SOL     OW53045   7.591   2.690   0.356 -0.3451  0.0784  0.4324
16697SOL    HW153046   7.531   2.737   0.414 -2.2678 -0.8708 -0.6836
16697SOL    HW253047   7.549   2.691   0.271  1.2541 -0.6360 -0.4178
16698SOL     OW53048   9.675  10.249   4.638  0.3394 -0.1474 -0.4558
16698SOL    HW153049   9.743  10.186   4.663  0.9953  0.0070 -1.7632
16698SOL    HW253050   9.646  10.219   4.552 -0.3393  0.5335 -0.4658
16699SOL     OW53051   9.239   6.803   2.452 -0.4374  0.0197  0.4852
16699SOL    HW153052   9.229   6.772   2.363  0.4591 -0.9197  0.7016
16699SOL    HW253053   9.318   6.858   2.450 -0.3741 -0.0621  0.7208
16700SOL     OW53054   4.807   2.726   7.683 -0.7560  0.7811 -0.7116
16700SOL    HW153055   4.778   2.817   7.674 -1.9251  0.4532 -0.5121
16700SOL    HW253056   4.830   2.700   7.593  0.2484  1.4648 -0.6679
16701SOL     OW53057   4.040   1.418   0.590  0.2293 -0.7296  0.2979
16701SOL    HW153058   4.073   1.420   0.501 -0.9584  0.2603 -0.1432
16701SOL    HW253059   4.028   1.325   0.609  0.4569 -0.9463 -0.5931
16702SOL     OW53060   2.645   6.130   9.462  0.2630 -0.8429  0.5826
16702SOL    HW153061   2.694   6.071   9.405 -1.9238 -1.3907 -0.8586
16702SOL    HW253062   2.553   6.103   9.451 -0.5185  1.0230  2.0404
16703SOL     OW53063   9.004   7.373   7.121 -0.0160  0.6138  0.5364
16703SOL    HW153064   8.926   7.363   7.065  1.8904 -0.9567 -2.0995
16703SOL    HW253065   9.030   7.464   7.109  0.0459  0.4471 -0.8106
16704SOL     OW53066   2.325   0.783   2.047 -0.5514 -0.4555 -0.1925
16704SOL    HW153067   2.325   0.808   2.139  1.5231  1.4195 -0.6173
16704SOL    HW253068   2.415   0.758   2.028 -0.5605  0.6875 -2.0389
16705SOL     OW53069   0.027   8.065   4.472 -0.1396 -0.1628  0.1475
16705SOL    HW153070   0.092   8.090   4.406  1.5166 -1.5658  1.1740
16705SOL    HW253071  -0.018   8.147   4.492  1.3703  0.8851 -0.5416
16706SOL     OW53072   8.657   1.887   7.314  0.3278 -0.0494  0.1549
16706SOL    HW153073   8.692   1.976   7.308  0.2932 -0.0992 -1.0035
16706SOL    HW253074   8.686   1.855   7.400  0.6305  0.9488  0.4346
16707SOL     OW53075   1.468   8.905   1.651  0.0816 -0.3126 -0.3047
16707SOL    HW153076   1.517   8.973   1.604 -0.5796 -0.5535 -1.3661
16707SOL    HW253077   1.535   8.844   1.680  0.3379 -1.7548 -3.5564
16708SOL     OW53078   3.342   7.905   0.564  0.1022 -0.7282  0.3868
16708SOL    HW153079   3.406   7.973   0.586 -1.2643  0.0796  2.1068
16708SOL    HW253080   3.299   7.938   0.485  1.5397 -1.1210 -0.5835
16709SOL     OW53081   2.355  10.517   2.983 -0.0353  0.6873  0.0950
16709SOL    HW153082   2.442  10.513   3.022 -0.0823  0.4345  0.1701
16709SOL    HW253083   2.371  10.525   2.889  0.0848  1.6881  0.1876
16710SOL     OW53084   2.609   3.706   3.411  0.6732  0.6139  0.4124
16710SOL    HW153085   2.650   3.717   3.325 -0.2730  0.2034 -0.1061
16710SOL    HW253086   2.647   3.626   3.446  1.5027  1.1014  0.6391
16711SOL     OW53087   2.913   0.984   1.998  0.4340 -0.2436 -0.8046
16711SOL    HW153088   2.952   1.069   1.982 -0.6671  0.5570  0.5460
16711SOL    HW253089   2.829   0.987   1.952 -0.8325  0.4764  1.4276
16712SOL     OW53090   0.603   8.179   5.864  0.7274  0.1399 -0.0410
16712SOL    HW153091   0.591   8.131   5.781 -0.6149  0.5343 -0.1057
16712SOL    HW253092   0.542   8.252   5.858  1.4225  0.8111  0.8443
16713SOL     OW53093   5.973   9.285   1.110 -0.0805 -0.1682 -0.3751
16713SOL    HW153094   5.975   9.194   1.138  1.0495  0.1191  0.5673
16713SOL    HW253095   6.043   9.327   1.160 -0.2365  1.1056 -1.1755
16714SOL     OW53096   3.539   5.458   4.352  0.1371 -0.2886 -0.1766
16714SOL    HW153097   3.601   5.386   4.358  0.9650  0.4908  1.3682
16714SOL    HW253098   3.454   5.417   4.338  0.3689 -1.6901  2.0860
16715SOL     OW53099   1.024   2.657   2.262 -0.0863  0.1005 -0.3735
16715SOL    HW153100   1.005   2.746   2.233 -1.0889  0.2058  0.5189
16715SOL    HW253101   1.061   2.667   2.349 -1.8322 -0.3870  0.4871
16716SOL     OW53102   8.286   5.407   9.271 -0.0549 -0.2377 -0.4974
16716SOL    HW153103   8.299   5.464   9.196  2.0736  1.0003  0.7169
16716SOL    HW253104   8.274   5.467   9.345 -1.2258 -1.4060  0.3107
16717SOL     OW53105   9.843   5.130   8.747 -0.0906 -0.2050  0.0653
16717SOL    HW153106   9.919   5.189   8.745 -0.3406  0.1184 -1.8617
16717SOL    HW253107   9.785   5.164   8.679 -1.1083 -1.5659  0.2235
16718SOL     OW53108   3.436  10.406  10.080 -0.2057 -0.3504  0.1259
16718SOL    HW153109   3.347  10.402  10.115  0.3701  0.1997  1.7273
16718SOL    HW253110   3.481  10.330  10.118  0.2894 -0.0480  0.1515
16719SOL     OW53111   2.715   6.922   7.067  0.4876 -0.0837  0.3089
16719SOL    HW153112   2.729   7.008   7.106  0.1980 -0.9509  2.4273
16719SOL    HW253113   2.796   6.903   7.020  0.1123  1.8218 -1.2407
16720SOL     OW53114   4.453   8.607   8.828 -0.4579 -0.0563  0.2049
16720SOL    HW153115   4.402   8.605   8.747 -2.0260 -0.1481  1.1575
16720SOL    HW253116   4.519   8.539   8.816 -0.1394  0.4691 -1.3030
16721SOL     OW53117   5.053   5.384   3.760 -0.1909  0.9467  0.3365
16721SOL    HW153118   5.146   5.399   3.781 -0.1759  1.2165  0.0914
16721SOL    HW253119   5.032   5.301   3.802  0.2002  0.8160  0.2803
16722SOL     OW53120   2.490  10.655   5.438  0.1844  0.2102  0.2092
16722SOL    HW153121   2.525  10.728   5.388 -1.2549 -0.2714 -1.6698
16722SOL    HW253122   2.447  10.695   5.513  1.3757  1.0795  0.4498
16723SOL     OW53123   7.875   8.620  10.345 -0.4021 -0.2455 -0.3540
16723SOL    HW153124   7.960   8.652  10.376  0.0455 -1.9456  0.2751
16723SOL    HW253125   7.841   8.692  10.291  0.2935  1.4705  1.3935
16724SOL     OW53126   2.142   9.887   2.776 -1.2564  0.2968 -0.6581
16724SOL    HW153127   2.099   9.847   2.852 -0.7044 -1.7048 -1.3327
16724SOL    HW253128   2.075   9.885   2.707 -1.0022 -0.1606 -0.8972
16725SOL     OW53129   2.174   5.449   3.109  0.5920 -0.4405  0.2181
16725SOL    HW153130   2.229   5.526   3.120  0.8692 -0.4641 -0.8937
16725SOL    HW253131   2.128   5.440   3.193  0.1848  1.2075  0.2050
16726SOL     OW53132   5.981   8.822   4.177  0.0046  0.1162  0.1430
16726SOL    HW153133   5.907   8.851   4.230  0.7629 -0.0351  1.3223
16726SOL    HW253134   5.951   8.741   4.136 -0.5296  0.1298  0.5026
16727SOL     OW53135   2.394   7.958   3.341 -0.5285 -0.3697  0.1629
16727SOL    HW153136   2.333   8.008   3.286  0.0460 -0.8508 -0.9389
16727SOL    HW253137   2.355   7.871   3.346 -0.6192 -0.3068  0.5962
16728SOL     OW53138   0.884   3.308   6.033 -0.1948 -0.5678 -0.6537
16728SOL    HW153139   0.943   3.369   6.076  1.3139 -2.6065  0.2853
16728SOL    HW253140   0.853   3.356   5.955  0.7198  1.4358  0.1520
16729SOL     OW53141   9.654   4.213   9.792  0.1022 -0.2326  0.0393
16729SOL    HW153142   9.703   4.163   9.857  1.1245 -0.6599 -1.0223
16729SOL    HW253143   9.681   4.304   9.807  0.4395 -0.3456  0.1293
16730SOL     OW53144   7.014   8.965   8.535  0.1499  0.5088 -0.3190
16730SOL    HW153145   7.076   8.905   8.493 -1.4612 -0.2965 -1.6767
16730SOL    HW253146   6.957   8.907   8.586  0.0692  1.1609  0.3404
16731SOL     OW53147   2.374   6.009  10.293 -0.6450  0.2764 -0.4899
16731SOL    HW153148   2.303   6.023  10.229  1.0408  1.0623 -2.2907
16731SOL    HW253149   2.422   6.092  10.295  0.3732 -0.3113  0.4908
16732SOL     OW53150   8.353   1.224   6.464 -0.0647  0.4038 -0.2111
16732SOL    HW153151   8.369   1.129   6.459  0.1562  0.4587 -0.5469
16732SOL    HW253152   8.309   1.245   6.382  1.7414  0.9539 -1.0948
16733SOL     OW53153   6.557   2.296   5.929  0.3919  0.6559  0.4560
16733SOL    HW153154   6.486   2.238   5.902 -1.0368  2.8852 -0.9223
16733SOL    HW253155   6.635   2.261   5.886 -0.7862  0.7854 -1.9531
16734SOL     OW53156   7.095   4.900   8.030 -0.2940  0.6111  0.1596
16734SOL    HW153157   7.134   4.851   7.959 -2.0469 -1.8805  0.7952
16734SOL    HW253158   7.155   4.888   8.104 -0.3566  0.0115  0.1148
16735SOL     OW53159  10.008   3.019   1.143 -0.0676 -0.0761 -0.0036
16735SOL    HW153160  10.064   2.992   1.071 -0.7041 -1.8404  0.1202
16735SOL    HW253161  10.024   2.954   1.212  0.2564  1.3571  1.3236
16736SOL     OW53162   4.659   3.275   5.275  0.3736 -0.1011 -0.0688
16736SOL    HW153163   4.729   3.333   5.244 -0.5191  0.9773 -0.1341
16736SOL    HW253164   4.601   3.264   5.199 -1.1888  1.5889  0.7894
16737SOL     OW53165   7.634   8.385   1.575  0.3025  0.0937 -0.8259
16737SOL    HW153166   7.677   8.435   1.644  0.4427 -1.5889  0.3429
16737SOL    HW253167   7.691   8.310   1.561 -0.7555 -0.6269 -1.3573
16738SOL     OW53168   8.943   1.109   0.618 -0.0748  0.5993  0.3531
16738SOL    HW153169   8.874   1.044   0.634  0.3050 -0.9515 -3.3120
16738SOL    HW253170   9.014   1.084   0.678 -0.8112 -0.9326  0.6383
16739SOL     OW53171   7.859   7.797   7.106  0.1160  0.4284 -0.1152
16739SOL    HW153172   7.788   7.733   7.111  0.0266  0.5203 -0.2226
16739SOL    HW253173   7.822   7.877   7.144  0.9068 -0.1854  2.1043
16740SOL     OW53174   8.211   8.156   4.383  0.7622 -0.3294 -0.0675
16740SOL    HW153175   8.220   8.251   4.389 -0.0912 -0.3239  2.3925
16740SOL    HW253176   8.136   8.135   4.439  2.6020 -2.6501  1.7909
16741SOL     OW53177   0.712   7.000   6.193 -0.0025 -0.1183 -0.4647
16741SOL    HW153178   0.768   6.965   6.262  0.1066  1.1774  0.1434
16741SOL    HW253179   0.639   7.040   6.240 -0.2858  0.1690 -1.1360
16742SOL     OW53180   3.391   0.738  10.039  0.3469 -0.6689 -0.2820
16742SOL    HW153181   3.334   0.798  10.088  1.0467 -0.1267 -0.1160
16742SOL    HW253182   3.330   0.682   9.991 -0.3514 -0.9956  0.9358
16743SOL     OW53183  10.485   2.671   4.812 -0.2485 -0.1988  0.0700
16743SOL    HW153184  10.537   2.596   4.782  0.1227 -0.1818  0.6509
16743SOL    HW253185  10.396   2.638   4.818 -0.2822 -0.2772 -0.7715
16744SOL     OW53186   2.528   3.893   8.409  0.0887 -0.0314  0.6353
16744SOL    HW153187   2.559   3.983   8.410  0.2414 -0.0802  0.2199
16744SOL    HW253188   2.476   3.886   8.329 -1.8506  0.3346  1.7991
16745SOL     OW53189   8.687   3.310   8.921 -0.1039 -0.1878 -0.4169
16745SOL    HW153190   8.720   3.287   9.008 -1.8323 -0.4280  0.2097
16745SOL    HW253191   8.595   3.332   8.935  0.2969  2.8446 -1.6735
16746SOL     OW53192   2.468   0.042   2.318 -0.0214  0.2241 -0.6864
16746SOL    HW153193   2.461  -0.038   2.370 -1.4386  0.7463 -0.0257
16746SOL    HW253194   2.394   0.038   2.258 -1.0109  1.7375  0.3833
16747SOL     OW53195   1.369   0.098  10.200  0.0854  0.4695  0.0075
16747SOL    HW153196   1.380   0.190  10.176 -1.0694  0.2483 -1.5003
16747SOL    HW253197   1.450   0.056  10.173 -0.4197  0.5909 -1.7877
16748SOL     OW53198   0.748   0.211   8.706  0.0136  0.0086 -0.0691
16748SOL    HW153199   0.742   0.176   8.617  0.4105  0.9647 -0.4813
16748SOL    HW253200   0.713   0.141   8.762  3.0221 -2.1263 -0.5939
16749SOL     OW53201   2.831   3.562   7.674 -0.2615 -0.3550 -0.8833
16749SOL    HW153202   2.813   3.563   7.768 -1.7264  0.0706 -1.1462
16749SOL    HW253203   2.802   3.647   7.643  0.3460 -0.4355 -1.7117
16750SOL     OW53204  10.484   9.963   4.496 -0.0980 -0.4880 -0.0449
16750SOL    HW153205  10.390   9.969   4.508 -0.1804 -0.1451 -0.7844
16750SOL    HW253206  10.506  10.041   4.444  0.6791 -0.2286  0.6522
16751SOL     OW53207   4.714   7.546   9.604  0.7782  0.1617  0.2891
16751SOL    HW153208   4.722   7.545   9.699  1.6506  2.6313  0.3124
16751SOL    HW253209   4.633   7.593   9.587  1.3181  0.9497 -0.1772
16752SOL     OW53210   7.018   3.083   8.876 -0.1155 -0.1361  1.0109
16752SOL    HW153211   6.980   3.160   8.834  1.5958 -0.1401 -0.6804
16752SOL    HW253212   6.943   3.027   8.895 -1.1090  0.5724 -0.6094
16753SOL     OW53213   5.700   6.379   6.845 -0.1264 -0.0391 -0.5899
16753SOL    HW153214   5.795   6.390   6.845 -0.1718  0.3527 -0.7377
16753SOL    HW253215   5.685   6.303   6.901  0.1018  1.4901  1.6948
16754SOL     OW53216  10.435   0.519   6.381 -0.3960 -0.1455  0.5785
16754SOL    HW153217  10.436   0.576   6.304  1.1075 -1.4003 -0.3910
16754SOL    HW253218  10.465   0.575   6.453 -2.3787  1.2028  0.4447
16755SOL     OW53219   6.406   4.236   9.515  0.6966  0.3857  0.1569
16755SOL    HW153220   6.429   4.324   9.547 -1.3738  1.0664 -0.0913
16755SOL    HW253221   6.333   4.209   9.571  0.8769 -0.9037 -0.2096
16756SOL     OW53222   2.469   9.694   6.270 -0.0747  0.0532  0.1178
16756SOL    HW153223   2.517   9.770   6.237  1.4605 -0.8534  0.1710
16756SOL    HW253224   2.451   9.641   6.192  0.6137 -0.4762  0.3102
16757SOL     OW53225   3.025   5.514   3.926 -0.2695  0.1383  0.2290
16757SOL    HW153226   2.969   5.569   3.872  0.0550  0.4074  0.1610
16757SOL    HW253227   2.970   5.440   3.952  0.1997 -1.3075 -2.4589
16758SOL     OW53228   1.728   4.186   0.885 -0.0323 -0.0250  0.8184
16758SOL    HW153229   1.797   4.206   0.822  0.0828 -0.7765  0.6972
16758SOL    HW253230   1.665   4.134   0.836 -0.2731 -0.0430  1.1476
16759SOL     OW53231   2.174  10.588   9.028 -0.3961 -0.4885 -0.3182
16759SOL    HW153232   2.187  10.641   8.949 -0.5750 -1.5374 -1.0597
16759SOL    HW253233   2.170  10.653   9.099  2.9131  0.3291 -0.7195
16760SOL     OW53234   4.365   8.639   8.576  0.3167  0.1682 -0.6095
16760SOL    HW153235   4.438   8.673   8.524 -0.0131  3.2630  0.7676
16760SOL    HW253236   4.289   8.685   8.542 -0.0075  1.7655  2.0219
16761SOL     OW53237   6.817   0.414   3.264 -0.6086 -0.8272 -0.6437
16761SOL    HW153238   6.779   0.356   3.330 -1.0216 -0.6912 -0.7571
16761SOL    HW253239   6.904   0.436   3.297 -1.4934  0.7410  0.7759
16762SOL     OW53240   9.225   8.770   5.426  0.0282  0.2419  0.0226
16762SOL    HW153241   9.162   8.703   5.453  0.9335 -0.1784  1.1907
16762SOL    HW253242   9.287   8.724   5.370  0.8124  0.0056  1.0551
16763SOL     OW53243   4.389   5.861   9.195  0.3150  0.0700  0.2616
16763SOL    HW153244   4.406   5.937   9.252  0.9886 -0.2978  0.5668
16763SOL    HW253245   4.450   5.872   9.122 -0.7142  0.6675 -0.5331
16764SOL     OW53246   1.914   0.358   8.217  0.5728  0.3718  0.3032
16764SOL    HW153247   1.883   0.417   8.285  1.5120  0.6936  0.4644
16764SOL    HW253248   1.992   0.316   8.256 -0.0392 -0.9348  0.1788
16765SOL     OW53249   9.154   2.077   5.051  0.0899  0.1212 -0.0872
16765SOL    HW153250   9.067   2.079   5.012  0.3327  1.5100 -0.6069
16765SOL    HW253251   9.208   2.029   4.988 -0.3042 -0.8009  0.2684
16766SOL     OW53252   9.923   7.378   8.979  0.3284  0.3454  0.1548
16766SOL    HW153253   9.843   7.410   8.937  0.3533  0.6138  0.3075
16766SOL    HW253254   9.900   7.367   9.071 -0.0902 -1.4688 -0.1369
16767SOL     OW53255  10.302   7.772   2.201  0.5485  0.5018 -0.1981
16767SOL    HW153256  10.344   7.724   2.130  2.0414  1.2071  0.1542
16767SOL    HW253257  10.240   7.830   2.157  0.8664  0.3454 -0.8678
16768SOL     OW53258   6.920   8.643   5.369 -0.0146  0.3899 -0.2447
16768SOL    HW153259   6.930   8.560   5.415 -1.8064  0.6756  0.7157
16768SOL    HW253260   6.828   8.646   5.344  0.2630  1.6232 -1.2012
16769SOL     OW53261   4.633   0.503   1.385 -0.2568  0.5411 -0.0719
16769SOL    HW153262   4.638   0.504   1.481 -0.2506  0.9790 -0.0759
16769SOL    HW253263   4.672   0.586   1.358 -1.2798  0.9333 -0.4013
16770SOL     OW53264   2.880   5.098   5.697 -0.1997 -0.2750  0.0157
16770SOL    HW153265   2.896   5.174   5.641  0.6578  0.2296  0.9091
16770SOL    HW253266   2.946   5.105   5.766  0.4369 -2.2783 -0.3091
16771SOL     OW53267   1.623   7.430   7.213 -0.2367 -0.0078  0.2194
16771SOL    HW153268   1.593   7.340   7.203 -1.3071  0.2879  0.6240
16771SOL    HW253269   1.564   7.482   7.158  0.1220  0.4803  0.2830
16772SOL     OW53270   5.195   1.808   6.696  0.5140 -0.5019 -0.0984
16772SOL    HW153271   5.168   1.764   6.616  2.9242 -0.6802 -0.9040
16772SOL    HW253272   5.184   1.741   6.764 -0.5168 -0.7121 -0.4614
16773SOL     OW53273   3.941   4.336   0.901 -0.4832 -0.1758 -0.4103
16773SOL    HW153274   4.014   4.396   0.886  0.2259 -1.0878 -0.6786
16773SOL    HW253275   3.980   4.249   0.897 -1.0333 -0.6403  2.3375
16774SOL     OW53276   7.075  10.323   8.818  0.3790 -0.0822 -0.1317
16774SOL    HW153277   7.083  10.389   8.748 -0.1625  0.7637  0.5831
16774SOL    HW253278   6.987  10.288   8.809  0.8670 -1.1551 -0.8778
16775SOL     OW53279   6.258   5.358   8.661  1.0447 -0.3524  0.0636
16775SOL    HW153280   6.325   5.404   8.711  1.4510 -0.4785 -0.3551
16775SOL    HW253281   6.208   5.428   8.618  0.5660 -0.2351  0.7941
16776SOL     OW53282   6.740   2.330   0.702  0.3428  0.7804  0.3871
16776SOL    HW153283   6.742   2.235   0.692 -1.1862  0.8031 -0.4416
16776SOL    HW253284   6.716   2.363   0.616  1.8425  2.0034  0.4022
16777SOL     OW53285   5.657   5.555  10.490 -0.0912  0.3998 -0.9111
16777SOL    HW153286   5.599   5.598  10.553 -1.4748  0.3006 -2.0732
16777SOL    HW253287   5.651   5.462  10.512 -2.2847  0.0971 -2.4501
16778SOL     OW53288   1.938   8.993   4.757  0.5908  0.1686  0.0617
16778SOL    HW153289   1.960   8.927   4.691 -0.3705 -0.4310  0.3283
16778SOL    HW253290   1.975   8.958   4.838 -1.4488 -0.9687  0.5636
16779SOL     OW53291   2.238   1.215   3.994  0.0671  0.4149 -0.0310
16779SOL    HW153292   2.332   1.224   4.003 -0.1348  3.0223  0.4553
16779SOL    HW253293   2.213   1.150   4.059  1.3608  1.0536  1.1682
16780SOL     OW53294   3.788   4.145   9.701 -0.1736 -0.2092 -0.3290
16780SOL    HW153295   3.700   4.134   9.739  0.2740 -1.1564  0.4828
16780SOL    HW253296   3.825   4.219   9.750 -0.5697  0.3110 -0.7966
16781SOL     OW53297   8.795   3.620   6.239 -0.1238  0.3349  0.1076
16781SOL    HW153298   8.838   3.540   6.207 -3.1614 -0.4336 -2.6426
16781SOL    HW253299   8.848   3.691   6.203  0.4433 -0.5174 -0.8173
16782SOL     OW53300   5.258   5.683   0.415 -0.2204  0.2445 -0.4996
16782SOL    HW153301   5.299   5.724   0.491  1.8731 -0.2173 -1.3007
16782SOL    HW253302   5.165   5.678   0.437 -0.0726  2.4642  0.9333
16783SOL     OW53303   1.985   5.853   8.088 -0.2981  0.3754  0.2280
16783SOL    HW153304   1.996   5.946   8.070  4.0081 -0.1271 -0.7881
16783SOL    HW253305   2.009   5.844   8.180 -1.9907  0.3512  0.6990
16784SOL     OW53306   4.801   8.384   5.284 -0.1993 -0.4685 -0.3787
16784SOL    HW153307   4.761   8.434   5.354 -0.6073 -0.9167 -0.2848
16784SOL    HW253308   4.854   8.448   5.236  0.7933 -0.3295  0.8480
16785SOL     OW53309   4.099   9.653   9.439 -0.2919  0.0223 -0.6855
16785SOL    HW153310   4.193   9.636   9.445  0.0210  1.8701  0.4057
16785SOL    HW253311   4.078   9.704   9.517 -2.6251 -1.9417  0.1048
16786SOL     OW53312   3.496   6.941   1.591  0.2398 -0.2770  0.0755
16786SOL    HW153313   3.416   6.896   1.564 -0.2082 -0.0842  1.0483
16786SOL    HW253314   3.566   6.897   1.543 -0.3310 -1.1576  0.0381
16787SOL     OW53315   4.685   3.639   2.603 -0.1329 -0.8998 -0.4685
16787SOL    HW153316   4.698   3.681   2.687 -0.4839  1.4328 -1.5115
16787SOL    HW253317   4.774   3.619   2.572  0.3141  1.8140 -1.2041
16788SOL     OW53318   0.046   9.507   7.244 -0.2512 -0.4672 -0.0815
16788SOL    HW153319  -0.039   9.507   7.289  0.2527 -0.2926  0.8883
16788SOL    HW253320   0.102   9.453   7.299  0.2681 -0.6145 -0.7399
16789SOL     OW53321   7.956   2.071   9.167  0.4301 -0.0273  0.0994
16789SOL    HW153322   7.899   2.143   9.142  0.7946 -0.2331 -1.4751
16789SOL    HW253323   7.897   2.002   9.197  0.0157  0.5703  0.6711
16790SOL     OW53324   2.144   2.727  10.340  0.8532  0.3656 -0.3995
16790SOL    HW153325   2.224   2.739  10.290 -0.6223  0.8572 -2.8171
16790SOL    HW253326   2.098   2.811  10.332 -0.8565 -0.5821 -0.9336
16791SOL     OW53327   0.503   3.340   0.219 -0.4393 -0.6282 -0.3372
16791SOL    HW153328   0.511   3.317   0.311  1.2008 -1.5138 -0.6624
16791SOL    HW253329   0.550   3.422   0.210 -1.2510 -0.1432 -0.2673
16792SOL     OW53330   3.000   0.501   5.918  0.1630 -0.0628 -0.3082
16792SOL    HW153331   3.008   0.432   5.852 -0.4421 -1.0538  0.6129
16792SOL    HW253332   2.919   0.547   5.895 -0.2548 -0.6559 -0.0569
16793SOL     OW53333   5.865   7.278   2.406 -0.2038  0.0723 -0.1634
16793SOL    HW153334   5.883   7.231   2.488 -0.7767  0.9772  0.4978
16793SOL    HW253335   5.778   7.250   2.380  0.4216 -1.1062 -1.1218
16794SOL     OW53336   0.733   7.209   5.745  0.7581  0.0135 -0.2813
16794SOL    HW153337   0.661   7.174   5.692  2.5674 -0.2441 -2.7469
16794SOL    HW253338   0.690   7.243   5.824 -1.7498 -2.4725 -0.4052
16795SOL     OW53339   2.866   6.517   3.825  0.3344 -0.0707  0.9955
16795SOL    HW153340   2.807   6.589   3.845  0.3903 -0.1697  1.5323
16795SOL    HW253341   2.914   6.502   3.906  1.2920  0.1916  0.4937
16796SOL     OW53342   2.645   1.883   3.178 -0.0797  0.3173  0.5790
16796SOL    HW153343   2.602   1.929   3.106  1.8172  3.6613  1.4218
16796SOL    HW253344   2.726   1.848   3.140 -0.2925 -0.1549  0.5454
16797SOL     OW53345   7.297   1.900   2.794 -0.6510  0.2500  0.2439
16797SOL    HW153346   7.217   1.952   2.782 -0.1058  1.2278  0.6939
16797SOL    HW253347   7.311   1.857   2.710 -2.2938 -0.8936  0.5013
16798SOL     OW53348   2.897   4.859   3.397 -0.1080  0.4127  0.1339
16798SOL    HW153349   2.892   4.764   3.407  0.2209  0.2665 -0.9545
16798SOL    HW253350   2.944   4.872   3.315 -0.6445  1.5141 -0.0142
16799SOL     OW53351   9.800   7.333   9.251  0.0403 -0.3914 -0.4124
16799SOL    HW153352   9.757   7.373   9.326 -1.1074 -0.1629 -1.1743
16799SOL    HW253353   9.768   7.243   9.250 -0.9703 -0.0336 -1.3749
16800SOL     OW53354   9.016   9.161   0.939  0.7270 -0.1771  0.7281
16800SOL    HW153355   9.057   9.193   0.858 -0.7212 -0.2082 -0.0678
16800SOL    HW253356   9.024   9.066   0.934 -0.0575 -0.2318  0.1876
16801SOL     OW53357   9.702   7.625   3.206 -0.7927 -0.0920  0.2888
16801SOL    HW153358   9.759   7.582   3.143  0.0213  1.4801 -0.1037
16801SOL    HW253359   9.759   7.643   3.281 -0.3913  2.4452 -0.5231
16802SOL     OW53360   2.526   5.691   2.589  0.0977  0.4491 -0.0653
16802SOL    HW153361   2.497   5.728   2.506 -0.1816  2.1153  0.7426
16802SOL    HW253362   2.451   5.640   2.619 -1.0892  2.5403  0.7163
16803SOL     OW53363   8.694   0.552   5.003  0.1120 -0.2154 -0.6707
16803SOL    HW153364   8.647   0.539   4.921  1.3501  1.2465 -1.6572
16803SOL    HW253365   8.730   0.465   5.024 -1.6893 -1.0179 -0.6668
16804SOL     OW53366   2.359   0.815   2.649  0.3038  0.1699 -0.1951
16804SOL    HW153367   2.313   0.805   2.565  1.1926  1.1522 -0.8315
16804SOL    HW253368   2.412   0.894   2.637  2.2021 -0.9546  0.4882
16805SOL     OW53369   1.127  10.129   8.444  0.2788 -0.4970  0.2323
16805SOL    HW153370   1.094  10.040   8.432  1.1154 -0.7292 -0.4771
16805SOL    HW253371   1.190  10.141   8.373 -0.3779  0.9393 -0.1476
16806SOL     OW53372   0.849   2.764   5.743  0.1190 -0.7708 -0.6399
16806SOL    HW153373   0.818   2.852   5.719 -1.0943 -0.4298  1.8252
16806SOL    HW253374   0.869   2.771   5.837  2.5885 -2.4624 -0.9305
16807SOL     OW53375   1.434   4.522   5.230 -0.2610  0.0963 -0.0399
16807SOL    HW153376   1.449   4.494   5.321 -0.8370 -0.3238 -0.0701
16807SOL    HW253377   1.345   4.557   5.230  0.0569  0.9171 -0.2516
16808SOL     OW53378   0.855   3.263   5.648 -0.6319 -0.1503  0.3235
16808SOL    HW153379   0.924   3.201   5.671 -0.9550 -0.8536 -0.5799
16808SOL    HW253380   0.886   3.347   5.683  2.0779  0.1902 -2.4979
16809SOL     OW53381   5.564   8.515   8.387  0.3805 -0.2355  0.1937
16809SOL    HW153382   5.482   8.563   8.375  1.3681  1.3890 -0.4646
16809SOL    HW253383   5.576   8.468   8.304 -0.1541 -0.9332  0.5059
16810SOL     OW53384   8.157   2.613   4.105 -0.1823 -0.2804  0.6230
16810SOL    HW153385   8.074   2.566   4.097 -1.2504  1.7691 -1.5775
16810SOL    HW253386   8.224   2.546   4.090 -1.4750 -1.6966  0.9680
16811SOL     OW53387   2.984   9.104   5.791  0.3330 -0.5637  0.1468
16811SOL    HW153388   2.964   9.197   5.793  1.9160 -0.1326 -1.1418
16811SOL    HW253389   2.912   9.062   5.838 -1.7058  1.0711 -1.3226
16812SOL     OW53390   9.445  10.400   3.143  0.1160 -0.3010 -0.0417
16812SOL    HW153391   9.403  10.483   3.164  3.3261  1.6798 -0.7587
16812SOL    HW253392   9.396  10.366   3.068 -2.0941  0.1574  1.1053
16813SOL     OW53393   9.994   0.205   0.491  0.2625  0.2102 -0.4256
16813SOL    HW153394  10.001   0.110   0.484  0.0267  0.2254 -1.0043
16813SOL    HW253395   9.966   0.233   0.403  1.1113  0.8899 -0.4891
16814SOL     OW53396  10.346   9.297   6.391  0.0902  0.7538 -0.0899
16814SOL    HW153397  10.353   9.270   6.482 -0.8157  0.3252 -0.1255
16814SOL    HW253398  10.427   9.343   6.372  0.3067  0.7970  0.9149
16815SOL     OW53399   6.132   7.979   9.675 -0.4352  0.2974  0.1520
16815SOL    HW153400   6.067   7.916   9.707  0.8171 -0.0849  2.0725
16815SOL    HW253401   6.203   7.924   9.641 -0.5237  0.7086 -0.7250
16816SOL     OW53402   2.009   6.078   7.695  0.1834  0.1685 -0.2718
16816SOL    HW153403   2.074   6.110   7.632  0.3582 -0.9313 -0.6626
16816SOL    HW253404   2.046   5.998   7.731 -0.1690  0.4820  0.8427
16817SOL     OW53405   3.581   7.360   9.220  0.2456  0.4812  0.0121
16817SOL    HW153406   3.647   7.420   9.185 -0.7671  2.6033  1.4501
16817SOL    HW253407   3.615   7.334   9.305  0.4352 -0.6229 -0.3870
16818SOL     OW53408   1.694   1.988   4.203 -0.2330  0.5565  0.1518
16818SOL    HW153409   1.737   2.072   4.219 -1.2847  1.8052 -2.9287
16818SOL    HW253410   1.766   1.926   4.191  0.5893  1.4563  0.3321
16819SOL     OW53411   8.868   3.552   3.987  0.3061  0.3742  0.2671
16819SOL    HW153412   8.908   3.635   3.960 -1.0684  0.9282 -0.1796
16819SOL    HW253413   8.899   3.538   4.076  0.2371  1.5924  0.4993
16820SOL     OW53414   2.725   4.925   3.877  0.0509  0.3784  0.3224
16820SOL    HW153415   2.671   4.968   3.943 -1.0005 -1.6073  0.8497
16820SOL    HW253416   2.753   4.843   3.919  0.6346 -0.2211 -1.1681
16821SOL     OW53417   6.103   6.636   6.500  0.5382 -0.0282 -0.1816
16821SOL    HW153418   6.181   6.613   6.449  0.9280  0.7454  0.0532
16821SOL    HW253419   6.137   6.681   6.577 -0.1812  1.3729 -0.6472
16822SOL     OW53420   2.661   0.463   8.667  0.4531 -0.0611  0.4083
16822SOL    HW153421   2.713   0.400   8.718  0.5431  0.0534  0.4597
16822SOL    HW253422   2.616   0.515   8.734  0.5670  0.0857  0.3701
16823SOL     OW53423   9.530   2.081   1.780 -0.5427  0.4784 -0.1978
16823SOL    HW153424   9.461   2.061   1.844  0.4488 -0.2194  0.6909
16823SOL    HW253425   9.577   2.155   1.819 -0.2049  0.3314 -0.3224
16824SOL     OW53426  10.142   1.956   3.201  0.4591 -0.1363 -0.4290
16824SOL    HW153427  10.210   1.902   3.159  0.2917 -0.7030  0.0111
16824SOL    HW253428  10.075   1.893   3.228 -0.1573  0.4013 -0.6924
16825SOL     OW53429   4.339   7.080  10.520  0.2118  0.3029 -0.0273
16825SOL    HW153430   4.375   7.055  10.435 -0.3214  0.5012 -0.3184
16825SOL    HW253431   4.410   7.126  10.564  0.8089 -0.6265  0.0248
16826SOL     OW53432   3.631   8.270   0.093 -0.0805 -0.3388 -0.2626
16826SOL    HW153433   3.710   8.307   0.054  0.5779 -2.2070 -0.8042
16826SOL    HW253434   3.619   8.320   0.174  1.0563  0.6623 -0.6763
16827SOL     OW53435  10.144  10.135   1.170 -0.2226  0.0845 -0.4861
16827SOL    HW153436  10.169  10.053   1.127  0.0973  0.0270 -0.1985
16827SOL    HW253437  10.051  10.145   1.151 -0.2841 -0.3963 -0.4459
16828SOL     OW53438   9.349   5.103   9.345 -0.4309  0.3081  0.4630
16828SOL    HW153439   9.435   5.128   9.380 -0.7587  1.9149  0.1726
16828SOL    HW253440   9.363   5.094   9.251 -0.9562  2.4868  0.1272
16829SOL     OW53441   9.794   9.823   9.819 -0.4071  0.2289 -0.0607
16829SOL    HW153442   9.776   9.732   9.842 -0.2942 -0.0649 -1.0883
16829SOL    HW253443   9.789   9.870   9.902 -0.7285 -0.6688  0.4427
16830SOL     OW53444   5.961   4.214   3.603 -0.3836 -0.2003  0.2717
16830SOL    HW153445   5.894   4.166   3.555  0.8031 -0.3290 -1.3805
16830SOL    HW253446   5.967   4.171   3.688 -0.3664 -2.0756 -0.6342
16831SOL     OW53447   9.451   4.894  10.322 -0.2657  0.0471 -0.0955
16831SOL    HW153448   9.438   4.875  10.229  0.2441  0.9150 -0.3532
16831SOL    HW253449   9.516   4.829  10.351  0.4974  0.5420 -0.6529
16832SOL     OW53450   3.966  10.224   0.097 -0.1744  0.3595 -0.5429
16832SOL    HW153451   4.005  10.310   0.112 -0.0049  0.5363 -1.8581
16832SOL    HW253452   4.018  10.164   0.151  0.0112  1.0045  0.0079
16833SOL     OW53453   2.421   4.072   0.154 -0.2628 -0.4169 -0.1802
16833SOL    HW153454   2.402   4.164   0.134  1.6436  0.2210  0.6758
16833SOL    HW253455   2.442   4.033   0.070 -0.2534  0.1513 -0.4450
16834SOL     OW53456   7.498   7.359   0.195 -0.1802 -0.2622 -0.1857
16834SOL    HW153457   7.574   7.338   0.249  1.3822 -0.3936 -2.2913
16834SOL    HW253458   7.432   7.295   0.220  0.4421 -0.2880  1.5389
16835SOL     OW53459  10.294   2.762   0.191  0.4729  0.2247 -0.1950
16835SOL    HW153460  10.286   2.834   0.128 -0.2806 -0.0513 -0.4302
16835SOL    HW253461  10.265   2.684   0.142 -0.6118  0.0890  0.6254
16836SOL     OW53462   8.349   4.142   9.955 -0.9198 -0.1439  0.0617
16836SOL    HW153463   8.383   4.059   9.922  0.1041  0.3785 -0.2768
16836SOL    HW253464   8.313   4.121  10.041 -1.2427 -1.0430 -0.2788
16837SOL     OW53465   7.026   5.670  10.025  0.0851  0.1074 -0.1799
16837SOL    HW153466   7.097   5.706  10.078 -0.0212  2.0186 -1.2332
16837SOL    HW253467   6.954   5.731  10.037 -1.0998 -1.3025  0.1294
16838SOL     OW53468   3.826   1.673   1.853 -0.1415  0.4685  0.6198
16838SOL    HW153469   3.864   1.628   1.929 -0.6650  0.1476  0.6928
16838SOL    HW253470   3.892   1.663   1.784 -0.5103 -0.9410  0.4495
16839SOL     OW53471   9.992   6.680   5.937  0.0671 -0.3685 -0.0649
16839SOL    HW153472   9.983   6.585   5.947 -0.4521 -0.2035  1.1475
16839SOL    HW253473  10.080   6.692   5.902 -0.0745 -1.3264 -0.8098
16840SOL     OW53474   3.543   7.046   3.265 -0.0326 -0.2617 -0.1305
16840SOL    HW153475   3.459   7.072   3.304  0.1859 -1.8421  1.5132
16840SOL    HW253476   3.518   6.998   3.186 -0.6581 -0.4648  0.1860
16841SOL     OW53477   9.857   3.495   9.962 -0.3543 -0.3395 -0.1174
16841SOL    HW153478   9.894   3.581   9.980 -3.3027  1.1483 -0.4714
16841SOL    HW253479   9.763   3.505   9.980 -0.8438 -3.4569 -0.3278
16842SOL     OW53480   4.807   3.052   9.019  0.4509  0.1869 -0.1804
16842SOL    HW153481   4.792   3.123   9.082  0.6314 -0.2067  0.3052
16842SOL    HW253482   4.902   3.044   9.014  0.4248 -0.5111  0.3230
16843SOL     OW53483   2.334   8.128   9.753  0.3000 -0.0210  0.2087
16843SOL    HW153484   2.287   8.151   9.833  0.1787  1.3447 -0.2327
16843SOL    HW253485   2.346   8.033   9.759  0.5562  0.0916  1.9795
16844SOL     OW53486   4.465   8.741   3.601  0.6265  0.0413 -0.8388
16844SOL    HW153487   4.474   8.835   3.584  0.7517  0.0791 -0.5688
16844SOL    HW253488   4.499   8.729   3.689  0.0190 -0.1629 -0.6306
16845SOL     OW53489   1.509   3.046   7.799 -0.3833 -0.3550 -0.3479
16845SOL    HW153490   1.444   3.107   7.834 -0.4801  1.2805 -3.1396
16845SOL    HW253491   1.593   3.092   7.811  0.1019 -1.5811  1.3708
16846SOL     OW53492  10.294   3.980   1.935  0.0120  0.6176  0.1223
16846SOL    HW153493  10.300   4.057   1.880 -1.0565  1.0040  0.5143
16846SOL    HW253494  10.202   3.953   1.928  0.3296 -0.5134  0.1265
16847SOL     OW53495   3.628   1.358   9.873  0.3841  0.3585  0.2725
16847SOL    HW153496   3.687   1.306   9.928 -0.1385 -1.0337 -0.4118
16847SOL    HW253497   3.632   1.446   9.909  1.6693 -0.0542  1.2070
16848SOL     OW53498   5.256   6.342   8.551  0.2317 -0.2168  0.4959
16848SOL    HW153499   5.272   6.283   8.624  0.0773  2.1622  2.5663
16848SOL    HW253500   5.182   6.396   8.578 -0.1601  0.4085 -1.6353
16849SOL     OW53501   5.655   7.363   6.422 -0.2902 -0.4038 -0.4717
16849SOL    HW153502   5.710   7.287   6.408 -0.9166 -0.7337 -1.2240
16849SOL    HW253503   5.715   7.432   6.451  0.4309 -0.9011 -0.7628
16850SOL     OW53504   1.728   7.910   5.998 -0.3380  0.6550 -0.2563
16850SOL    HW153505   1.699   7.981   5.940  3.2130  0.6194 -2.3268
16850SOL    HW253506   1.715   7.831   5.946 -0.6795  0.1592  0.5634
16851SOL     OW53507   0.940   7.300   8.063  0.1600 -0.2465 -0.0533
16851SOL    HW153508   0.976   7.339   8.143  1.6296 -2.3713  0.4010
16851SOL    HW253509   0.849   7.281   8.085  0.1534  0.4864  0.5996
16852SOL     OW53510   5.797   5.104   7.528  0.1723  0.0953  0.4279
16852SOL    HW153511   5.777   5.066   7.613 -0.5708  2.4818  1.3929
16852SOL    HW253512   5.842   5.186   7.548  3.5039 -1.0066 -1.5785
16853SOL     OW53513   0.845   0.763   7.270  0.2168  0.3707 -0.3338
16853SOL    HW153514   0.866   0.679   7.229 -1.4527 -0.1948 -0.0992
16853SOL    HW253515   0.770   0.745   7.326  0.0160  1.9623 -0.0306
16854SOL     OW53516   9.428   5.420   3.745  0.1060  0.2606  0.1284
16854SOL    HW153517   9.377   5.499   3.725 -1.0589 -0.6461 -0.6025
16854SOL    HW253518   9.488   5.411   3.670 -0.2033  0.1039 -0.1024
16855SOL     OW53519   1.727   6.154   8.955 -0.0812 -0.1059 -0.0268
16855SOL    HW153520   1.773   6.104   9.023 -0.9961 -0.1300  0.5913
16855SOL    HW253521   1.777   6.235   8.946  1.8857 -1.3620 -1.5716
16856SOL     OW53522   3.919   6.441   9.061 -0.1309 -0.0684 -0.4365
16856SOL    HW153523   3.894   6.498   8.989  0.8410 -0.7152 -1.3070
16856SOL    HW253524   3.837   6.398   9.088 -0.5650  0.4800 -0.8796
16857SOL     OW53525   6.586  10.222   7.206 -0.6163 -0.0814 -0.2393
16857SOL    HW153526   6.607  10.230   7.113 -0.0349 -0.7377 -0.1766
16857SOL    HW253527   6.502  10.266   7.216 -0.8920 -0.3789 -1.1570
16858SOL     OW53528   8.077   1.227   2.469 -0.4639  0.5501 -0.2731
16858SOL    HW153529   7.997   1.252   2.425  0.7690  1.2464 -2.2259
16858SOL    HW253530   8.142   1.290   2.440  1.5438 -1.8167 -1.2840
16859SOL     OW53531   7.639   7.204   7.225  0.4393 -0.3097 -0.8842
16859SOL    HW153532   7.665   7.183   7.136 -0.1246  0.7179 -1.3053
16859SOL    HW253533   7.568   7.268   7.216  0.6857  0.1725  0.3012
16860SOL     OW53534   3.043   5.085   6.675  0.0243 -0.1176 -0.3220
16860SOL    HW153535   3.001   5.165   6.643  0.7596  0.5082  0.2356
16860SOL    HW253536   3.136   5.096   6.651  0.0269 -1.0912 -0.7964
16861SOL     OW53537   1.893   3.555  10.577 -0.2780  0.2344  0.1658
16861SOL    HW153538   1.953   3.604  10.634 -0.3855 -0.9625  1.3640
16861SOL    HW253539   1.815   3.611  10.571  0.2785  1.0029  0.0447
16862SOL     OW53540   3.038   2.105   5.631  0.1018  0.1694  0.0206
16862SOL    HW153541   2.962   2.048   5.619 -0.1684  0.6614 -0.6407
16862SOL    HW253542   3.013   2.189   5.592  0.5134  0.7349  0.9301
16863SOL     OW53543   4.970   6.795   2.065  0.8547  0.1499  0.3052
16863SOL    HW153544   4.877   6.791   2.043  0.9389  1.0140 -0.2610
16863SOL    HW253545   5.015   6.801   1.980  1.2665  2.1894  0.6228
16864SOL     OW53546   3.221  10.480   4.168 -0.1605  0.0099 -0.4112
16864SOL    HW153547   3.291  10.465   4.231 -0.9073 -1.0527  0.1978
16864SOL    HW253548   3.205  10.394   4.129 -1.6178  0.0512  0.0123
16865SOL     OW53549   5.121   1.135  10.124 -0.2438 -0.3601 -0.0182
16865SOL    HW153550   5.128   1.230  10.131  0.8612 -0.4076 -0.2356
16865SOL    HW253551   5.027   1.118  10.115 -0.4357  0.7173 -0.1684
16866SOL     OW53552   3.824   1.041   0.463 -0.2915  0.0638  0.0724
16866SOL    HW153553   3.798   1.125   0.424 -0.1521 -1.0470 -2.7012
16866SOL    HW253554   3.874   1.065   0.540  2.0223  2.7110 -2.0115
16867SOL     OW53555   7.261   1.021   9.181 -0.8251 -0.2576  0.1213
16867SOL    HW153556   7.229   0.991   9.266 -1.6101  0.7756  0.2121
16867SOL    HW253557   7.183   1.053   9.136 -0.9166 -3.1395 -2.0800
16868SOL     OW53558   9.869   7.239   1.133 -0.5222  0.7181  0.2699
16868SOL    HW153559   9.804   7.169   1.129 -0.6443  0.8842 -1.1398
16868SOL    HW253560   9.898   7.240   1.224  0.0813 -1.6852  0.1613
16869SOL     OW53561  10.640   2.996   3.578 -0.6390  0.0045 -0.3110
16869SOL    HW153562  10.563   3.046   3.606  0.0192  1.6821 -1.2918
16869SOL    HW253563  10.714   3.054   3.597  0.4200 -1.5920  0.6506
16870SOL     OW53564   0.589   1.422   4.569 -0.8767  0.3703 -0.4819
16870SOL    HW153565   0.604   1.444   4.661 -0.0710  2.3973 -1.0387
16870SOL    HW253566   0.673   1.388   4.538 -0.8354  0.6576 -0.6964
16871SOL     OW53567   6.437  10.172   9.740  0.3509 -0.5802  0.0777
16871SOL    HW153568   6.343  10.154   9.748  0.1775  0.3880  0.3725
16871SOL    HW253569   6.474  10.144   9.824  0.7219 -3.0867 -0.8400
16872SOL     OW53570   0.619   5.011   1.125 -0.3885  0.2434  0.1369
16872SOL    HW153571   0.541   5.066   1.132 -0.2491  0.3373  1.1179
16872SOL    HW253572   0.642   5.014   1.032 -0.9932  0.9886 -0.0024
16873SOL     OW53573   6.357   4.038   1.998 -0.3560  0.3202 -0.2461
16873SOL    HW153574   6.431   4.045   2.058 -0.1830 -1.0090 -0.2756
16873SOL    HW253575   6.383   3.971   1.935 -1.7122 -0.4719 -0.0322
16874SOL     OW53576  10.003  10.455   0.931  0.0214  0.1988  0.4300
16874SOL    HW153577   9.965  10.383   0.880 -1.9141  1.3235  0.1672
16874SOL    HW253578   9.982  10.433   1.022  0.8023 -0.3122  0.4948
16875SOL     OW53579   7.291   3.194   8.469 -0.0727  0.0441  0.1111
16875SOL    HW153580   7.339   3.200   8.386  1.1863  0.9905  0.8827
16875SOL    HW253581   7.199   3.192   8.442  0.3339 -1.8074 -1.4015
16876SOL     OW53582   9.985   0.042   5.418 -0.4415  0.4067  0.3526
16876SOL    HW153583   9.891   0.026   5.425 -0.3907 -2.0592 -2.4010
16876SOL    HW253584   9.995   0.136   5.427 -3.3567  0.8958 -0.5569
16877SOL     OW53585   3.806   4.244   4.422  0.1665 -0.5125 -0.2992
16877SOL    HW153586   3.760   4.322   4.451  0.2929 -0.6702  0.3338
16877SOL    HW253587   3.768   4.224   4.336  0.9517  0.9294 -1.0301
16878SOL     OW53588   5.354   6.517   4.677 -0.7606  0.2371  0.4974
16878SOL    HW153589   5.368   6.594   4.732 -0.3740 -0.3757  1.2771
16878SOL    HW253590   5.282   6.541   4.620  0.5161  1.8368 -0.5206
16879SOL     OW53591   9.691   9.212   8.324 -0.0211  0.1984  0.0330
16879SOL    HW153592   9.650   9.185   8.242 -1.9403 -0.3925  1.1495
16879SOL    HW253593   9.751   9.140   8.346 -1.6309 -1.0189  0.5853
16880SOL     OW53594   0.908   6.431   6.910 -0.2194 -0.3441  0.5532
16880SOL    HW153595   0.843   6.430   6.840  1.3098  1.2362 -0.9813
16880SOL    HW253596   0.926   6.524   6.924  0.0432 -0.6491  2.5899
16881SOL     OW53597   9.515   8.579   7.036 -0.3553  0.0385  0.1825
16881SOL    HW153598   9.555   8.666   7.045 -1.1614  0.3609  0.8175
16881SOL    HW253599   9.479   8.578   6.948 -1.4640  0.8497  0.6097
16882SOL     OW53600   5.718   4.094   0.505  0.1182 -0.1335 -0.2993
16882SOL    HW153601   5.707   4.180   0.465 -0.2859 -0.0330  0.0167
16882SOL    HW253602   5.813   4.079   0.505  0.3231  0.9628  0.9848
16883SOL     OW53603   4.213   7.529   7.296  0.3788  0.1342  0.3215
16883SOL    HW153604   4.247   7.510   7.383 -1.9256  1.1781  1.5396
16883SOL    HW253605   4.140   7.589   7.311 -0.7862 -0.4868 -2.2425
16884SOL     OW53606   1.689   1.964   8.619 -0.5389  0.1841  0.1438
16884SOL    HW153607   1.754   2.034   8.618 -0.3575  0.0169 -0.7561
16884SOL    HW253608   1.706   1.914   8.539 -0.5997 -0.9500  0.8111
16885SOL     OW53609   7.736  10.000   6.527 -0.2119 -0.0944 -0.0684
16885SOL    HW153610   7.712  10.081   6.572  1.4640  1.1856 -1.3393
16885SOL    HW253611   7.662   9.942   6.542 -1.3004  1.5067  1.2370
16886SOL     OW53612   5.436   3.835   5.150 -0.1273 -0.7038  0.6799
16886SOL    HW153613   5.478   3.910   5.192  0.1373 -0.9814  0.9140
16886SOL    HW253614   5.361   3.872   5.104 -1.2483 -0.5525  2.5385
16887SOL     OW53615   7.787   1.942   2.899  0.4090  0.8246  0.3752
16887SOL    HW153616   7.844   1.972   2.828 -1.3027  0.3864 -1.2559
16887SOL    HW253617   7.703   1.985   2.883 -0.8331 -1.3823  0.4825
16888SOL     OW53618   6.028   6.981   4.438  0.9525  0.0607 -0.4329
16888SOL    HW153619   6.051   6.913   4.374  1.3165  1.0715 -1.4059
16888SOL    HW253620   5.942   7.012   4.410  1.1787  0.6111 -0.5269
16889SOL     OW53621   1.603   7.342   6.081 -0.2262 -0.4906 -0.3826
16889SOL    HW153622   1.671   7.400   6.047 -1.3060  0.1118 -1.5710
16889SOL    HW253623   1.607   7.265   6.024  0.6956 -1.2918  0.7212
16890SOL     OW53624  10.103   9.950   6.602  0.2346 -0.1919  0.2323
16890SOL    HW153625  10.122   9.921   6.513  1.4272 -1.7646  0.9618
16890SOL    HW253626  10.122  10.044   6.601  1.4662 -0.4329 -0.8509
16891SOL     OW53627   8.221   9.743   9.538 -0.6287  0.0835 -0.3785
16891SOL    HW153628   8.137   9.736   9.493 -0.4858  2.9369 -1.2777
16891SOL    HW253629   8.283   9.767   9.470  0.3385  0.7879  0.7115
16892SOL     OW53630   4.888  10.616   1.271  0.0539  0.3162  0.0546
16892SOL    HW153631   4.897  10.694   1.216  0.8694  0.5156  0.4646
16892SOL    HW253632   4.822  10.563   1.225 -0.2783  1.0888 -0.3995
16893SOL     OW53633   9.243   1.617   1.486 -0.4388  0.2104  0.0437
16893SOL    HW153634   9.307   1.558   1.446  1.3096  2.1783 -0.1966
16893SOL    HW253635   9.182   1.638   1.415 -0.0909  0.0221 -0.3162
16894SOL     OW53636   1.340   6.655   4.762  0.3698 -0.0277  0.1372
16894SOL    HW153637   1.432   6.630   4.755  0.4952  0.0838  1.1858
16894SOL    HW253638   1.341   6.734   4.816 -0.4751 -1.2886  2.1174
16895SOL     OW53639   8.160   8.569   1.621  0.4545 -0.0233  0.1887
16895SOL    HW153640   8.196   8.490   1.581  1.0771  0.1598  0.3740
16895SOL    HW253641   8.208   8.578   1.704  0.4778  0.6162  0.1140
16896SOL     OW53642   0.406   9.895   8.891  0.3439  0.0525  0.2099
16896SOL    HW153643   0.432   9.807   8.916 -0.1096 -0.7820 -2.0176
16896SOL    HW253644   0.310   9.891   8.885  0.2207  1.0360  1.1836
16897SOL     OW53645  10.673   0.001   0.611 -0.0287 -0.4889  1.0013
16897SOL    HW153646  10.730  -0.046   0.550  2.2229  0.5267  2.2037
16897SOL    HW253647  10.585  -0.029   0.589  0.9365 -2.1930 -0.9113
16898SOL     OW53648   2.707  10.264   0.248 -0.6104 -0.0271 -0.0107
16898SOL    HW153649   2.710  10.170   0.230  4.2760  0.1023 -1.0481
16898SOL    HW253650   2.715  10.306   0.162  1.7620  1.1547  0.7240
16899SOL     OW53651   1.119   0.967   8.650 -0.1654  1.2006 -0.4841
16899SOL    HW153652   1.098   0.874   8.636  1.6389  0.4806  1.1402
16899SOL    HW253653   1.148   0.997   8.564 -2.7747  0.9132 -1.5596
16900SOL     OW53654   9.828   7.093   8.628  0.2592 -0.6961  0.1063
16900SOL    HW153655   9.821   7.144   8.548  0.3493 -0.1993  0.4144
16900SOL    HW253656   9.894   7.138   8.680  0.7780 -1.4542  0.1374
16901SOL     OW53657   0.426   8.561   3.944 -0.1034  0.1019  0.7662
16901SOL    HW153658   0.336   8.530   3.957 -0.7370  0.9893 -1.1620
16901SOL    HW253659   0.463   8.501   3.879  1.0086 -0.7065  2.0648
16902SOL     OW53660   6.486   1.093   3.683  0.5114  0.0167 -0.1118
16902SOL    HW153661   6.503   1.175   3.638  0.3116 -0.8840 -1.9489
16902SOL    HW253662   6.485   1.027   3.613  0.3605 -1.5058  1.2526
16903SOL     OW53663   5.011  10.296   9.830 -0.2931 -0.2765  0.0266
16903SOL    HW153664   5.046  10.329   9.913 -0.4999 -0.5051  0.2069
16903SOL    HW253665   4.933  10.350   9.815 -0.7978 -0.8637  0.4695
16904SOL     OW53666   6.822   4.060   5.397  0.3281  0.9350 -0.2600
16904SOL    HW153667   6.788   4.149   5.387 -0.7152  0.7227  1.0596
16904SOL    HW253668   6.827   4.027   5.307 -0.7089  1.8144 -0.6726
16905SOL     OW53669   5.519   9.756   1.086  0.1664 -0.0761  0.3914
16905SOL    HW153670   5.539   9.662   1.082  1.2759  0.0584  1.8379
16905SOL    HW253671   5.442   9.761   1.142 -0.5150 -0.1875 -0.5255
16906SOL     OW53672   6.963   7.732   8.529  0.3754  0.2191 -0.2832
16906SOL    HW153673   6.918   7.757   8.448 -1.7476  0.0874  0.7743
16906SOL    HW253674   7.026   7.803   8.544  0.4056  0.5294 -1.7340
16907SOL     OW53675   4.540   7.622   3.681  0.3894 -0.0982 -0.2770
16907SOL    HW153676   4.536   7.617   3.585  0.8391 -0.3599 -0.2854
16907SOL    HW253677   4.514   7.712   3.701 -0.9010 -0.3886 -0.5706
16908SOL     OW53678   4.702   9.752   2.144  0.0633  0.4168  0.8774
16908SOL    HW153679   4.681   9.690   2.213  1.1079 -0.8051  0.1549
16908SOL    HW253680   4.638   9.823   2.154 -0.6432 -0.3785  2.2323
16909SOL     OW53681  10.541  10.248   3.672  0.3627  0.3117  0.2423
16909SOL    HW153682  10.500  10.223   3.590  0.8133 -1.3102  0.4733
16909SOL    HW253683  10.495  10.328   3.699  0.3007  0.9448 -1.6223
16910SOL     OW53684   0.867   6.297   1.074  0.7517 -0.0367  0.6844
16910SOL    HW153685   0.933   6.229   1.083  1.0461  0.3220  1.3095
16910SOL    HW253686   0.784   6.250   1.074  0.8567 -0.3191  2.6723
16911SOL     OW53687   1.675   4.680   2.308  0.3133  0.4753  0.2315
16911SOL    HW153688   1.614   4.608   2.325  0.4456  0.3523  0.1981
16911SOL    HW253689   1.654   4.746   2.374 -1.2552  1.3408 -1.0505
16912SOL     OW53690  10.676   5.011   3.304 -0.2499  0.0811  0.1933
16912SOL    HW153691  10.634   5.097   3.301 -0.7480 -0.1684 -0.1738
16912SOL    HW253692  10.691   4.994   3.397  0.9518  1.0843  0.2062
16913SOL     OW53693   1.836   5.278   1.000 -0.5438  0.3752 -0.6800
16913SOL    HW153694   1.847   5.209   1.066  2.0743 -0.4507 -1.8581
16913SOL    HW253695   1.866   5.358   1.043 -2.8534  0.7443  0.4302
16914SOL     OW53696  10.057   3.001  10.199  0.0955  0.3704  0.2350
16914SOL    HW153697  10.096   2.932  10.146 -0.2561 -0.3219  0.8711
16914SOL    HW253698  10.084   2.981  10.289 -0.8620  0.4752  0.5545
16915SOL     OW53699   7.831   1.634   1.977 -0.9879  0.5984  0.1671
16915SOL    HW153700   7.854   1.542   1.973  0.0333  0.8921 -1.5359
16915SOL    HW253701   7.909   1.677   2.012 -0.1137  1.1699 -2.2738
16916SOL     OW53702   1.748   9.071   0.278 -0.1528  0.5237  0.0421
16916SOL    HW153703   1.653   9.085   0.285 -0.4684 -1.5043  0.2571
16916SOL    HW253704   1.772   9.114   0.196 -1.2671  1.0139 -0.0418
16917SOL     OW53705   5.507   7.562   4.428 -0.3709 -0.0522  0.8030
16917SOL    HW153706   5.522   7.594   4.339 -1.8389  1.6746  1.1068
16917SOL    HW253707   5.542   7.630   4.484 -3.0914  0.9238  1.4836
16918SOL     OW53708   7.055   4.572   6.441  0.1080  0.8959 -0.2035
16918SOL    HW153709   7.144   4.603   6.425  0.1671  0.1523 -1.4305
16918SOL    HW253710   7.058   4.478   6.423 -0.8998  0.8362 -0.1511
16919SOL     OW53711   5.731   5.236   5.437 -0.1188 -0.2137 -0.3315
16919SOL    HW153712   5.797   5.172   5.409  0.3292  0.7368 -1.5225
16919SOL    HW253713   5.656   5.219   5.380 -0.1850 -0.0103 -0.3057
16920SOL     OW53714   3.464   7.627  10.500  0.3802  0.2624 -0.0822
16920SOL    HW153715   3.436   7.718  10.489 -1.2078 -0.4088 -2.1680
16920SOL    HW253716   3.387   7.582  10.531  0.9338 -0.5207  0.1715
16921SOL     OW53717   4.509   5.530   2.722  0.4775 -0.2546 -0.1499
16921SOL    HW153718   4.491   5.451   2.672  1.1699  0.0198 -0.8523
16921SOL    HW253719   4.603   5.527   2.741  0.1329 -0.6906  1.7569
16922SOL     OW53720   8.570   9.252   2.710 -0.5547 -0.7229  1.2725
16922SOL    HW153721   8.478   9.263   2.737 -0.5060  0.2539  1.0515
16922SOL    HW253722   8.587   9.324   2.651  0.9451  0.3044  2.8500
16923SOL     OW53723   0.276   3.144   8.266 -0.6393 -0.0487 -0.7848
16923SOL    HW153724   0.306   3.062   8.304 -1.0578  0.2198  0.1583
16923SOL    HW253725   0.331   3.211   8.307 -2.1315  0.3996  0.5978
16924SOL     OW53726   9.942   1.306   9.260 -0.0536 -0.5191 -0.2705
16924SOL    HW153727   9.890   1.247   9.316  0.6809 -1.7844 -0.8907
16924SOL    HW253728  10.029   1.306   9.299 -0.3309  1.2443  0.4944
16925SOL     OW53729   4.429   5.717  10.089  0.5685 -0.2406 -0.5066
16925SOL    HW153730   4.364   5.757  10.147  1.6176 -2.1061  2.1481
16925SOL    HW253731   4.499   5.783  10.083  0.0377  0.3376 -0.4184
16926SOL     OW53732  10.059   4.582   7.656  0.0089 -0.2159 -0.2204
16926SOL    HW153733  10.127   4.570   7.723 -1.5238  1.5253  1.8055
16926SOL    HW253734   9.983   4.535   7.691 -1.5341  2.5947  0.5633
16927SOL     OW53735   7.772   9.287   0.614  0.1619 -0.5928 -0.2771
16927SOL    HW153736   7.852   9.327   0.581  1.0527 -3.2030 -1.5871
16927SOL    HW253737   7.704   9.311   0.551  0.8325 -1.6527 -1.4392
16928SOL     OW53738   8.483   6.721   7.664 -0.3827 -0.5139 -0.0441
16928SOL    HW153739   8.447   6.649   7.715  1.3483 -1.3416  0.0653
16928SOL    HW253740   8.538   6.769   7.726 -1.8861  1.2575  0.0267
16929SOL     OW53741   0.200   0.520   8.042  0.1010 -0.2707 -0.3960
16929SOL    HW153742   0.135   0.543   8.109 -0.9037  0.9075 -1.7096
16929SOL    HW253743   0.248   0.602   8.027  1.9413 -1.1067  0.5277
16930SOL     OW53744   2.821   5.008   9.849  0.4681 -0.4102  0.3754
16930SOL    HW153745   2.880   4.983   9.920 -0.5790 -0.2519  1.3423
16930SOL    HW253746   2.748   5.052   9.893  0.3490  0.7739 -0.9112
16931SOL     OW53747   1.587   1.292   3.017 -0.0761  0.6798  0.0349
16931SOL    HW153748   1.584   1.255   3.105  0.4498  1.7573  0.5201
16931SOL    HW253749   1.619   1.221   2.962 -0.8142 -0.1364  0.6350
16932SOL     OW53750   2.181   5.330  10.182 -0.5650  0.3259  0.3454
16932SOL    HW153751   2.230   5.268  10.128  2.2652  2.5698  0.0611
16932SOL    HW253752   2.096   5.288  10.196 -0.2088 -1.9072 -2.9156
16933SOL     OW53753   9.783   1.937   0.242  0.4255 -0.4455  0.2090
16933SOL    HW153754   9.812   2.027   0.229 -0.2702 -0.0539  1.2225
16933SOL    HW253755   9.699   1.931   0.195 -0.7272  0.1750  2.0589
16934SOL     OW53756   7.626   0.164   7.147  0.2173  0.1938 -0.0090
16934SOL    HW153757   7.712   0.188   7.181  0.6384 -0.3671 -0.6669
16934SOL    HW253758   7.565   0.216   7.199  0.7628 -1.2363  2.1783
16935SOL     OW53759   0.653  10.690   6.482 -0.3120  0.1451  0.0563
16935SOL    HW153760   0.706  10.768   6.498 -1.2675  0.9020 -0.3022
16935SOL    HW253761   0.613  10.706   6.396 -0.3354 -0.8508 -0.1269
16936SOL     OW53762   1.137   8.257   3.273  0.2836 -0.1273  0.1498
16936SOL    HW153763   1.198   8.212   3.215  1.9164  1.8536  0.1979
16936SOL    HW253764   1.168   8.347   3.274 -0.5072  0.2030  3.0142
16937SOL     OW53765   2.686   2.192   6.039 -0.0217 -0.5322  0.0162
16937SOL    HW153766   2.732   2.158   5.962 -1.2321  0.9113 -1.4291
16937SOL    HW253767   2.755   2.229   6.094  1.0884 -3.2470  0.6172
16938SOL     OW53768   8.501   4.543   4.851  0.1432  0.4340  0.1857
16938SOL    HW153769   8.473   4.584   4.769  2.6806  1.9923 -0.0117
16938SOL    HW253770   8.538   4.459   4.825  0.5769  0.7505 -0.2495
16939SOL     OW53771   3.267   8.322   0.061 -0.3435  0.0772  0.0301
16939SOL    HW153772   3.351   8.279   0.048  0.1442  0.7146  0.9765
16939SOL    HW253773   3.203   8.264   0.018  0.4630 -0.8570  0.0682
16940SOL     OW53774   6.365   6.493   9.907  0.5888 -0.5610  0.5239
16940SOL    HW153775   6.292   6.457   9.958  0.3002 -0.7875 -0.0443
16940SOL    HW253776   6.441   6.484   9.964  0.4050 -1.5058  0.6292
16941SOL     OW53777   1.746   3.533   4.916  0.3186  0.5194 -0.2877
16941SOL    HW153778   1.678   3.488   4.967  0.6077  0.4040 -0.0003
16941SOL    HW253779   1.701   3.564   4.837 -0.0727  0.4714 -0.0821
16942SOL     OW53780   1.207   1.264   3.302 -1.0898  0.4465 -0.2757
16942SOL    HW153781   1.143   1.257   3.373 -0.6509 -1.0704 -0.0053
16942SOL    HW253782   1.226   1.174   3.277  1.7126  0.7654  0.3686
16943SOL     OW53783   5.666   1.472   1.022 -0.5586 -0.0750 -0.6038
16943SOL    HW153784   5.611   1.484   1.099 -0.3958  0.0106 -0.4986
16943SOL    HW253785   5.618   1.514   0.951 -1.1865 -1.0412 -0.7664
16944SOL     OW53786   2.611   3.708   5.336  0.0366 -0.2978 -0.1145
16944SOL    HW153787   2.540   3.670   5.386 -1.3413  0.4969 -1.3710
16944SOL    HW253788   2.597   3.803   5.342  0.7078 -0.1476 -0.7645
16945SOL     OW53789   8.524   4.057   3.082  0.4092 -0.3961 -0.0675
16945SOL    HW153790   8.434   4.046   3.052 -0.1662 -1.2225  1.8322
16945SOL    HW253791   8.520   4.131   3.143  0.5824 -1.6400  1.5207
16946SOL     OW53792   8.357   3.323   4.167 -0.3516  0.1263  0.1677
16946SOL    HW153793   8.392   3.320   4.078  0.4849  0.5346  0.4718
16946SOL    HW253794   8.416   3.267   4.217  0.2091  1.2731  0.8027
16947SOL     OW53795   3.993   3.514   7.936  0.2004 -0.3597 -0.3163
16947SOL    HW153796   4.002   3.609   7.925  1.5369 -0.4690 -0.2101
16947SOL    HW253797   3.955   3.504   8.023 -2.0019  0.1296 -1.1349
16948SOL     OW53798   3.243   1.209   0.835 -0.6786 -0.4918 -0.4174
16948SOL    HW153799   3.243   1.144   0.765 -1.8699  1.3121 -2.1868
16948SOL    HW253800   3.150   1.220   0.857 -0.5224  0.8128 -0.3673
16949SOL     OW53801   4.159   0.820   2.409 -0.0743  0.7568  0.2698
16949SOL    HW153802   4.143   0.737   2.364  2.1548 -0.0651  0.8535
16949SOL    HW253803   4.072   0.856   2.424 -1.2147 -1.9874  0.9050
16950SOL     OW53804   8.923   9.183   0.138  0.7955  0.1292  0.0891
16950SOL    HW153805   8.978   9.230   0.076 -0.5503  0.6731 -0.7394
16950SOL    HW253806   8.864   9.250   0.173 -1.1860 -0.8652 -1.1355
16951SOL     OW53807   6.075   8.358  10.154 -0.0486  0.5900  0.0456
16951SOL    HW153808   6.008   8.380  10.218 -1.0213  0.1509 -0.7903
16951SOL    HW253809   6.136   8.432  10.156 -1.7036  2.0322 -0.6863
16952SOL     OW53810  10.001   6.677   0.774  0.3393  0.2885 -0.5880
16952SOL    HW153811   9.979   6.674   0.680  1.3583 -0.3885 -0.8215
16952SOL    HW253812   9.988   6.769   0.798  1.4324  0.7925 -1.7529
16953SOL     OW53813   3.429  10.103   3.194  0.0989  0.2830  0.2133
16953SOL    HW153814   3.398  10.179   3.145  1.4061  2.4225  2.4501
16953SOL    HW253815   3.349  10.061   3.226 -0.6557  0.4372 -1.3783
16954SOL     OW53816   6.046   4.859   8.157  0.5096  0.1497 -0.0327
16954SOL    HW153817   6.027   4.893   8.245  1.3031 -0.8016  0.5263
16954SOL    HW253818   6.070   4.767   8.172 -2.4599 -0.9967 -1.5803
16955SOL     OW53819   9.024   7.210   3.640  0.2366 -0.1171  0.6165
16955SOL    HW153820   8.985   7.297   3.630 -1.8096 -1.1038 -0.6828
16955SOL    HW253821   8.960   7.162   3.693  0.0131 -1.5701 -0.9117
16956SOL     OW53822   1.095   8.931   2.152  0.1640 -0.2090 -0.0023
16956SOL    HW153823   1.028   8.997   2.131 -0.5642 -0.7371  0.6040
16956SOL    HW253824   1.178   8.978   2.146 -0.3440  0.7711  0.4531
16957SOL     OW53825   9.552   1.417   4.856  0.0645  0.2331 -0.1313
16957SOL    HW153826   9.609   1.477   4.904 -0.3301  1.0675 -0.6726
16957SOL    HW253827   9.587   1.330   4.874  0.8799  0.6557  0.3707
16958SOL     OW53828   7.970   5.629   0.530  0.2397  0.5431 -0.2109
16958SOL    HW153829   7.991   5.593   0.616 -1.4561  0.8158  0.3541
16958SOL    HW253830   8.038   5.695   0.515  1.9890 -1.1596 -0.2115
16959SOL     OW53831   1.775   3.581   8.070 -0.0790  0.6788  0.1016
16959SOL    HW153832   1.821   3.665   8.070 -1.4418  1.4728  1.4863
16959SOL    HW253833   1.797   3.542   8.155  2.0318 -1.2820 -1.2312
16960SOL     OW53834   8.442   5.226   5.883 -0.7300  0.0947 -0.0115
16960SOL    HW153835   8.420   5.152   5.827 -1.2225 -0.0246  0.3340
16960SOL    HW253836   8.357   5.261   5.911 -0.5311  1.2157 -0.7162
16961SOL     OW53837   3.203   7.372   5.376 -0.2554  0.6685  0.3933
16961SOL    HW153838   3.204   7.419   5.459  0.0611  1.4869 -0.0519
16961SOL    HW253839   3.259   7.296   5.390  0.0730  0.9875  0.8294
16962SOL     OW53840   6.772  10.051   2.630 -0.1385 -0.1617 -0.1233
16962SOL    HW153841   6.860  10.040   2.593 -0.2204  0.0307 -0.3783
16962SOL    HW253842   6.714  10.052   2.554 -0.2006  1.3356 -0.0743
16963SOL     OW53843   3.776   3.794   4.157  0.5468  0.2059  0.7364
16963SOL    HW153844   3.777   3.866   4.094 -0.7131  0.3744  0.8828
16963SOL    HW253845   3.867   3.783   4.183  0.7509  1.8216  0.7806
16964SOL     OW53846   7.824   2.056   7.447 -0.2750  0.2534 -0.0710
16964SOL    HW153847   7.852   1.971   7.479 -0.5730  0.3198  0.3923
16964SOL    HW253848   7.898   2.114   7.464 -0.2390  0.1784  0.0312
16965SOL     OW53849   6.391   3.302   4.643  0.0835  0.0530 -0.4031
16965SOL    HW153850   6.454   3.232   4.661 -0.9359 -0.2294  2.6565
16965SOL    HW253851   6.306   3.261   4.660 -0.5247  2.0968  2.1833
16966SOL     OW53852   9.537   3.486   6.470 -0.4354 -0.3893  0.7476
16966SOL    HW153853   9.495   3.567   6.501  0.7924  0.4375  0.3112
16966SOL    HW253854   9.474   3.449   6.409  0.1108  1.7340 -1.2490
16967SOL     OW53855   8.209   9.775   4.743 -0.3442 -0.6857 -0.3874
16967SOL    HW153856   8.200   9.821   4.826  0.8000 -0.3228 -0.4388
16967SOL    HW253857   8.167   9.832   4.678  1.1500  0.3922 -0.4702
16968SOL     OW53858   9.531   8.855   7.122  0.0810  0.3884  0.5347
16968SOL    HW153859   9.580   8.887   7.198  1.5741 -0.3440 -0.0795
16968SOL    HW253860   9.450   8.820   7.159 -0.2012  1.9969  1.5414
16969SOL     OW53861   1.859   6.293   0.883 -0.5166  0.5224  0.1975
16969SOL    HW153862   1.868   6.260   0.972  0.3793  0.0024 -0.0770
16969SOL    HW253863   1.790   6.240   0.844  1.7693 -2.0604 -0.6600
16970SOL     OW53864   1.836   8.152   1.602  0.4145  0.1554  0.4765
16970SOL    HW153865   1.753   8.161   1.649 -0.0989 -0.6067 -0.2464
16970SOL    HW253866   1.818   8.086   1.535  0.9563  1.5840 -1.1525
16971SOL     OW53867   5.137   0.253   3.353  0.7228 -0.6187  0.1488
16971SOL    HW153868   5.100   0.180   3.403  0.2809 -0.3317  0.2499
16971SOL    HW253869   5.062   0.295   3.312  0.4904  1.6570  2.5618
16972SOL     OW53870   0.188   1.347   3.074  0.0185 -0.0047 -0.2179
16972SOL    HW153871   0.213   1.397   2.996  0.6139 -2.1916 -1.5179
16972SOL    HW253872   0.269   1.340   3.125  0.1402 -0.3113 -0.4477
16973SOL     OW53873   7.752   5.061   7.415 -0.4150  0.1349  0.3595
16973SOL    HW153874   7.714   5.128   7.471 -1.9805  0.7248 -1.2959
16973SOL    HW253875   7.681   4.999   7.400  0.4346 -0.8522  0.2686
16974SOL     OW53876   8.757   0.753   3.284 -0.8802  0.0902  0.0604
16974SOL    HW153877   8.751   0.827   3.223 -2.8392 -1.4584 -1.7630
16974SOL    HW253878   8.709   0.782   3.361 -0.9711  0.9951 -0.3181
16975SOL     OW53879   5.879   7.001   8.103 -0.6153  0.6937 -0.2473
16975SOL    HW153880   5.931   6.924   8.125 -2.2430 -0.7937 -1.4070
16975SOL    HW253881   5.789   6.971   8.104 -1.1383  1.6077 -4.0690
16976SOL     OW53882   8.594   1.300   9.861 -0.1520 -0.2916  0.2719
16976SOL    HW153883   8.617   1.207   9.855  1.5682  0.0955  0.4358
16976SOL    HW253884   8.576   1.314   9.954 -0.7162 -0.5245  0.1988
16977SOL     OW53885   1.123   6.030   1.645  0.3003  0.0311  0.0022
16977SOL    HW153886   1.198   5.979   1.613 -0.2323 -1.3443  0.8313
16977SOL    HW253887   1.056   6.017   1.579 -0.0514 -0.9414  0.5197
16978SOL     OW53888   8.254   5.117   3.250 -0.0805  0.2003  0.3189
16978SOL    HW153889   8.313   5.074   3.188  0.5322 -0.4138  1.3043
16978SOL    HW253890   8.291   5.098   3.336 -2.5048 -1.5051  1.1099
16979SOL     OW53891   6.849   8.527   3.990 -0.0238 -0.0528 -0.2192
16979SOL    HW153892   6.885   8.589   4.053 -0.8005  0.0503  0.1356
16979SOL    HW253893   6.903   8.449   3.999  0.4978  0.3109 -0.1476
16980SOL     OW53894   6.388   8.176   3.398  0.2924  0.0264 -0.1929
16980SOL    HW153895   6.370   8.208   3.310  0.1535 -0.8504 -0.4875
16980SOL    HW253896   6.480   8.199   3.413 -0.4256  2.7553  0.5697
16981SOL     OW53897   7.816   9.000   6.223  0.0484  0.8128  0.2343
16981SOL    HW153898   7.831   9.079   6.170  0.0408  0.9185  0.3870
16981SOL    HW253899   7.903   8.961   6.233  0.1834  1.2472  0.8426
16982SOL     OW53900   6.273   2.806   8.898 -0.0242 -0.4702 -0.6138
16982SOL    HW153901   6.216   2.843   8.831 -1.0500  0.3712  0.6803
16982SOL    HW253902   6.314   2.882   8.940 -0.1202 -0.9307  0.3323
16983SOL     OW53903   8.764   9.295   4.068 -0.0570 -0.4664 -0.1926
16983SOL    HW153904   8.814   9.226   4.110 -1.0653 -1.6391 -0.8656
16983SOL    HW253905   8.710   9.331   4.137  0.2659 -0.5337  0.0983
16984SOL     OW53906   1.413   0.567   6.049  0.5408 -0.2524  0.0745
16984SOL    HW153907   1.385   0.585   5.959  2.5170  3.0908 -0.0307
16984SOL    HW253908   1.332   0.567   6.100 -0.3191  3.0667 -1.0317
16985SOL     OW53909   6.805   1.332   9.909 -0.0420  0.3854  0.6289
16985SOL    HW153910   6.888   1.345   9.955 -0.2938  2.2436  0.6423
16985SOL    HW253911   6.740   1.375   9.965 -0.9997 -0.8302  0.4971
16986SOL     OW53912   6.751   0.078   1.725 -0.1243  0.1121  0.4982
16986SOL    HW153913   6.841   0.046   1.725 -0.1168 -0.0670  3.5588
16986SOL    HW253914   6.697   0.000   1.713  0.0313  0.2725 -1.8458
16987SOL     OW53915   7.215   7.443   7.575 -0.5588 -0.0270 -0.2557
16987SOL    HW153916   7.284   7.498   7.537 -0.5625 -0.0908 -0.3555
16987SOL    HW253917   7.235   7.354   7.546  0.5891 -0.4016  1.5455
16988SOL     OW53918   4.292   0.652   2.889 -0.0952  0.1723  0.6175
16988SOL    HW153919   4.257   0.681   2.973 -1.1630  1.4675 -0.2107
16988SOL    HW253920   4.224   0.595   2.853  0.5104 -0.6618  0.7633
16989SOL     OW53921   6.708   7.759   7.652  0.2945  0.8771 -0.0761
16989SOL    HW153922   6.776   7.693   7.641 -0.4130  0.0856  0.1470
16989SOL    HW253923   6.626   7.712   7.637 -0.1986  1.8698 -0.6426
16990SOL     OW53924   6.133   5.957   6.574 -0.1427  0.3493 -0.3958
16990SOL    HW153925   6.062   5.946   6.636 -0.2327 -1.1188 -0.7285
16990SOL    HW253926   6.147   5.870   6.536  0.2257  1.0934 -2.0882
16991SOL     OW53927   6.803   2.911   8.897 -0.1730  0.7790  0.2374
16991SOL    HW153928   6.745   2.923   8.822  0.4421 -0.2947 -0.4259
16991SOL    HW253929   6.743   2.907   8.972 -0.8634  0.9524 -0.2899
16992SOL     OW53930   5.352   0.429   5.346  0.2262  0.8056 -0.5353
16992SOL    HW153931   5.287   0.479   5.395 -0.3549 -0.1611 -0.2779
16992SOL    HW253932   5.332   0.447   5.254  0.1553  1.2040 -0.4437
16993SOL     OW53933   0.212   6.231   1.411  0.1670  0.1971  0.4688
16993SOL    HW153934   0.301   6.226   1.448  1.2817  4.2200 -1.1544
16993SOL    HW253935   0.156   6.241   1.488  2.0713  5.0458  1.5958
16994SOL     OW53936   1.338   2.222   0.951  0.1360  0.0664  0.4209
16994SOL    HW153937   1.253   2.263   0.935 -0.1852 -0.3437  1.0507
16994SOL    HW253938   1.333   2.190   1.041  0.6621 -0.6509  0.2066
16995SOL     OW53939   9.982   3.814   4.753 -0.3448 -0.1260  0.0448
16995SOL    HW153940  10.068   3.775   4.762  1.5877  3.6273 -0.1450
16995SOL    HW253941   9.956   3.793   4.663  1.0688 -0.1312 -0.3913
16996SOL     OW53942   5.807   7.793   5.137 -0.4907  0.0100 -0.5265
16996SOL    HW153943   5.854   7.710   5.130 -1.8624 -1.0515  1.7901
16996SOL    HW253944   5.870   7.853   5.176  0.2427 -0.1339 -1.4477
16997SOL     OW53945   3.264   0.111   0.816 -0.3288  0.1166  0.4055
16997SOL    HW153946   3.266   0.066   0.901  2.9758 -2.0797 -0.6233
16997SOL    HW253947   3.303   0.197   0.833  1.0832 -0.6159  1.0302
16998SOL     OW53948   8.796   5.343   7.104  0.3892 -0.3091  0.6117
16998SOL    HW153949   8.716   5.311   7.061  1.6268  0.7317 -2.7139
16998SOL    HW253950   8.781   5.436   7.116  1.2333 -0.0139 -0.4779
16999SOL     OW53951   3.707   1.950   5.982 -0.7466  0.1017  0.4649
16999SOL    HW153952   3.766   1.988   5.917  1.2276 -0.3829  1.9008
16999SOL    HW253953   3.763   1.895   6.037 -2.2506  0.7243  2.7639
17000SOL     OW53954   9.222   8.372   0.419  0.8637  0.4670  0.2059
17000SOL    HW153955   9.237   8.356   0.326  2.4052  0.7881  0.3649
17000SOL    HW253956   9.127   8.369   0.429  0.6965 -0.1253 -1.2689
17001SOL     OW53957   1.398   4.332   7.476 -0.2109  0.4949  0.1915
17001SOL    HW153958   1.434   4.347   7.563  1.0595 -1.9231  0.1689
17001SOL    HW253959   1.303   4.331   7.490 -0.0344  0.1884  1.5442
17002SOL     OW53960   9.283   0.548   9.307 -0.3764  0.0354  0.0013
17002SOL    HW153961   9.203   0.599   9.322  0.0096  0.4766  0.6074
17002SOL    HW253962   9.340   0.572   9.380  0.7586  0.6354 -1.0474
17003SOL     OW53963   4.714   1.538   7.257 -0.2457 -1.2010  0.0797
17003SOL    HW153964   4.683   1.524   7.167  1.7595  2.0680 -1.3066
17003SOL    HW253965   4.793   1.486   7.263  0.6114 -0.0532 -0.7679
17004SOL     OW53966   3.679  10.097   8.989  0.1124 -0.7554  0.2465
17004SOL    HW153967   3.604  10.039   8.979  0.3141 -0.7849 -1.3063
17004SOL    HW253968   3.653  10.157   9.060 -1.0253 -1.2859  0.3044
17005SOL     OW53969   7.234   9.554   1.083  0.1665 -0.3164 -0.8280
17005SOL    HW153970   7.262   9.602   1.005  0.7542  0.7700  0.0222
17005SOL    HW253971   7.191   9.619   1.137  1.7627 -0.4892  0.7571
17006SOL     OW53972   4.977   3.371   1.570 -0.2246 -0.2978 -0.3766
17006SOL    HW153973   4.897   3.349   1.618  0.7984 -1.6381  0.7823
17006SOL    HW253974   4.958   3.346   1.480 -0.8362 -1.3696  0.0331
17007SOL     OW53975   9.523   4.936   1.270 -0.0393 -0.1234 -0.7773
17007SOL    HW153976   9.529   4.943   1.175  2.1448  0.4516 -0.6610
17007SOL    HW253977   9.596   4.989   1.302  0.0220 -1.2960  1.1818
17008SOL     OW53978   0.348   1.016   8.247  0.3397  0.4355 -0.6012
17008SOL    HW153979   0.426   1.030   8.301 -0.2587  0.5425  0.2516
17008SOL    HW253980   0.292   1.091   8.265  0.8187  1.3569 -2.6689
17009SOL     OW53981   6.757   9.623   3.839  0.7076 -0.1000  0.1874
17009SOL    HW153982   6.688   9.674   3.795  1.4645  1.6381  0.9026
17009SOL    HW253983   6.806   9.583   3.767  0.2102  0.3696 -0.4328
17010SOL     OW53984   4.189   4.426   0.811 -0.2092  0.2731 -0.3440
17010SOL    HW153985   4.235   4.503   0.846 -0.2125  0.7116 -1.2778
17010SOL    HW253986   4.199   4.433   0.716 -2.0515  0.2857 -0.5748
17011SOL     OW53987   5.760   4.972   4.068  0.0397  0.3074  0.1427
17011SOL    HW153988   5.825   4.902   4.059  0.0966  0.5169 -1.3743
17011SOL    HW253989   5.684   4.930   4.109  0.4798 -0.3574  0.2901
17012SOL     OW53990   3.128   3.043   3.381 -0.1886 -0.8772  0.3036
17012SOL    HW153991   3.143   3.069   3.290 -1.7110  0.6536  0.4220
17012SOL    HW253992   3.135   3.125   3.430  0.3456 -1.6431  1.5341
17013SOL     OW53993   1.215   8.242   1.459  0.2947  0.8262 -0.2832
17013SOL    HW153994   1.128   8.212   1.434  0.2016  0.9213 -0.0728
17013SOL    HW253995   1.200   8.324   1.507  0.4204  0.2950  0.6896
17014SOL     OW53996   3.886  10.212  10.196 -0.6629  0.1808  0.0893
17014SOL    HW153997   3.881  10.307  10.205 -1.2034  0.1318  0.3751
17014SOL    HW253998   3.977  10.190  10.214 -0.3297  0.7281 -0.8219
17015SOL     OW53999   9.274   9.130   5.810  0.1041 -0.3011 -0.3369
17015SOL    HW154000   9.249   9.183   5.734  2.1943 -0.4011 -1.1399
17015SOL    HW254001   9.290   9.043   5.775  0.3997 -0.5322  0.3466
17016SOL     OW54002   6.558   0.990  10.091  0.0772  0.5856 -0.1064
17016SOL    HW154003   6.534   0.924  10.156 -0.7634  1.3925  0.4364
17016SOL    HW254004   6.591   0.940  10.017  0.8319 -0.3690  0.8448
17017SOL     OW54005  10.616   8.172   5.852  0.1013 -0.5547  0.5838
17017SOL    HW154006  10.580   8.100   5.903 -1.2167 -0.8269 -0.6866
17017SOL    HW254007  10.671   8.130   5.786  1.7227 -0.2082  1.6630
17018SOL     OW54008   2.226   2.143   1.259  0.3307  0.3370  0.1355
17018SOL    HW154009   2.204   2.235   1.244  0.1244  0.4095  0.8143
17018SOL    HW254010   2.279   2.118   1.184  0.8743  1.1774  0.2291
17019SOL     OW54011   4.119   1.478   5.279  0.1176 -0.8916 -1.1417
17019SOL    HW154012   4.119   1.411   5.347 -0.8421 -1.0828 -1.3155
17019SOL    HW254013   4.034   1.470   5.237  0.0455  0.3374 -1.2740
17020SOL     OW54014  10.440   4.794   1.878 -0.2509 -0.1675  0.2251
17020SOL    HW154015  10.425   4.729   1.947  2.3269 -1.6236 -0.4313
17020SOL    HW254016  10.526   4.830   1.898 -0.5392  1.2078 -0.8790
17021SOL     OW54017   8.972   1.877   5.882  0.1901 -0.4674 -0.0626
17021SOL    HW154018   9.056   1.898   5.842 -0.2614  2.3587  0.2841
17021SOL    HW254019   8.908   1.927   5.831 -0.8997 -0.1596  1.5300
17022SOL     OW54020   8.763   2.297   0.090  0.7560  0.0169  0.2949
17022SOL    HW154021   8.692   2.348   0.131 -0.4821 -3.3429  2.7812
17022SOL    HW254022   8.840   2.353   0.099 -1.0759  2.8905 -0.4748
17023SOL     OW54023   7.531   8.707   9.106 -0.0459  0.1418 -0.1969
17023SOL    HW154024   7.492   8.766   9.041 -1.5148  1.5535  1.8606
17023SOL    HW254025   7.559   8.631   9.055  1.7697  2.4526 -2.9542
17024SOL     OW54026   3.254   7.237   8.920 -0.0425 -0.2580  0.4622
17024SOL    HW154027   3.184   7.301   8.907 -0.5122 -0.7141  0.6909
17024SOL    HW254028   3.238   7.172   8.851  1.6502  0.8879 -1.1093
17025SOL     OW54029  10.051   5.239   1.775 -0.2482 -0.0299 -0.2014
17025SOL    HW154030  10.075   5.329   1.798  0.2544  0.1279 -1.2512
17025SOL    HW254031  10.108   5.217   1.701 -0.0789 -1.3730  0.2987
17026SOL     OW54032   7.979   2.700   5.937  0.0427 -0.1267 -0.1040
17026SOL    HW154033   7.958   2.792   5.924 -0.5897 -0.3712 -0.8849
17026SOL    HW254034   7.979   2.662   5.849  1.3579 -0.6637  0.0982
17027SOL     OW54035   9.733   6.559   6.777 -0.6191 -0.7593 -0.2453
17027SOL    HW154036   9.736   6.654   6.788 -0.3325 -0.8588  0.5846
17027SOL    HW254037   9.651   6.542   6.730 -0.7115 -0.1157 -0.3166
17028SOL     OW54038   4.698   8.831   0.238 -0.4703 -0.1654  0.9415
17028SOL    HW154039   4.762   8.783   0.186  0.5940 -0.5367  2.4913
17028SOL    HW254040   4.616   8.782   0.226  0.3742 -1.8965  1.7497
17029SOL     OW54041   0.470   4.769   1.111 -0.7401 -0.2975  0.1695
17029SOL    HW154042   0.483   4.810   1.026 -0.9878 -1.5741 -0.5073
17029SOL    HW254043   0.455   4.676   1.091  1.2935 -1.0317  1.6996
17030SOL     OW54044   1.274   8.584   0.166  0.2318  0.3365  0.5412
17030SOL    HW154045   1.262   8.654   0.102 -0.0559  0.7186  1.0094
17030SOL    HW254046   1.196   8.529   0.158  0.2755  0.2888  0.4468
17031SOL     OW54047   6.583   2.253   2.063 -0.0149  0.6419 -1.0428
17031SOL    HW154048   6.507   2.196   2.071 -0.9485  1.6710 -2.3164
17031SOL    HW254049   6.624   2.227   1.981  1.2292 -0.1182 -0.2203
17032SOL     OW54050   2.684   3.726   3.131 -0.0912 -0.0392  0.4798
17032SOL    HW154051   2.619   3.785   3.092 -1.8293 -2.0363  0.1972
17032SOL    HW254052   2.726   3.684   3.056 -0.3128 -0.6677  0.7068
17033SOL     OW54053   8.700   9.242   1.594 -0.5601 -0.2560  0.9623
17033SOL    HW154054   8.786   9.206   1.570 -0.3473  1.6734 -1.6375
17033SOL    HW254055   8.637   9.182   1.555 -0.2840  0.2380 -0.2949
17034SOL     OW54056   8.676   4.235   1.112 -0.2787  0.2868  0.0064
17034SOL    HW154057   8.735   4.221   1.037 -0.2607 -2.6261  0.4487
17034SOL    HW254058   8.589   4.234   1.074 -0.2048  0.4948 -0.1713
17035SOL     OW54059   9.218   9.849   3.970 -0.0614 -0.0217 -0.4313
17035SOL    HW154060   9.195   9.913   3.903 -1.2570  0.0151  0.0007
17035SOL    HW254061   9.139   9.838   4.022  0.4174 -1.1232  0.1084
17036SOL     OW54062   1.405   7.861   2.416 -0.5819 -0.1698  0.4422
17036SOL    HW154063   1.493   7.896   2.401 -0.5811 -0.0264  0.7593
17036SOL    HW254064   1.401   7.782   2.363 -0.7230  0.5151 -0.5999
17037SOL     OW54065   8.692   5.173   9.883  0.3316 -0.2892  0.0273
17037SOL    HW154066   8.598   5.154   9.881 -0.3190  1.3196 -6.4452
17037SOL    HW254067   8.732   5.103   9.832  1.7955  1.4790 -1.4070
17038SOL     OW54068   4.835   7.275   9.021  0.1913  0.3918  0.1618
17038SOL    HW154069   4.867   7.185   9.029  1.2959  0.6257 -1.1472
17038SOL    HW254070   4.750   7.266   8.979  0.7694 -0.0372 -0.9922
17039SOL     OW54071   8.177   4.846   2.525  0.1080 -0.5096  0.5654
17039SOL    HW154072   8.086   4.874   2.532  0.7163  1.4654  1.2245
17039SOL    HW254073   8.218   4.911   2.468  1.4789 -0.3844  1.6501
17040SOL     OW54074   1.420   1.643   6.924  0.3994  0.6548 -0.7890
17040SOL    HW154075   1.445   1.670   6.835 -0.1945 -0.5068 -1.3312
17040SOL    HW254076   1.334   1.681   6.938 -0.5478 -1.0665 -1.6490
17041SOL     OW54077   6.863   4.020   2.788  0.1466 -0.4598  0.0520
17041SOL    HW154078   6.829   4.109   2.785  0.0681 -0.4226  1.4239
17041SOL    HW254079   6.836   3.986   2.873 -0.2320 -1.9706 -0.6251
17042SOL     OW54080   6.574   4.564   5.892 -0.4545 -0.0617 -0.3444
17042SOL    HW154081   6.505   4.499   5.878 -0.0732 -0.9260  1.4982
17042SOL    HW254082   6.542   4.619   5.964  0.8502 -0.6451  0.7229
17043SOL     OW54083   9.282   1.559   1.129 -0.3608 -0.3594 -0.1408
17043SOL    HW154084   9.273   1.467   1.102 -1.8966 -0.3035  0.0767
17043SOL    HW254085   9.328   1.555   1.213  0.7250 -0.8162 -0.7309
17044SOL     OW54086   9.949   7.612   6.811 -0.1486 -0.3464 -0.2598
17044SOL    HW154087   9.885   7.541   6.822  0.1999 -0.6640 -0.2272
17044SOL    HW254088   9.969   7.612   6.717 -1.2011  0.6533 -0.5025
17045SOL     OW54089   7.280   6.464   9.319  0.1749  0.6169  0.7588
17045SOL    HW154090   7.300   6.557   9.320 -0.6653  0.8510 -0.7175
17045SOL    HW254091   7.364   6.421   9.332  0.7397  1.5751  0.3480
17046SOL     OW54092  10.279   2.160   3.512  0.2307  0.2908  0.0523
17046SOL    HW154093  10.349   2.097   3.528  0.8156  0.9449  0.1322
17046SOL    HW254094  10.206   2.129   3.565  0.2125 -0.8088 -0.6031
17047SOL     OW54095   8.795   2.422   8.227  0.2686  0.8316  0.0229
17047SOL    HW154096   8.886   2.424   8.256  0.8375  3.3885 -1.6347
17047SOL    HW254097   8.786   2.499   8.172 -2.7722  0.3119 -0.3542
17048SOL     OW54098   6.201   8.344   1.472  0.3125  0.2617 -0.0431
17048SOL    HW154099   6.171   8.323   1.384 -0.1456  3.8071 -0.9039
17048SOL    HW254100   6.122   8.374   1.517  0.9247  0.5655  0.8534
17049SOL     OW54101   1.577   0.299   7.714 -0.1764 -0.1207 -0.8093
17049SOL    HW154102   1.623   0.259   7.788 -1.2739 -2.6034 -1.3839
17049SOL    HW254103   1.636   0.285   7.639 -0.0859  0.3759 -0.8409
17050SOL     OW54104   0.460   3.486   3.640  0.2531 -0.0278 -1.0966
17050SOL    HW154105   0.548   3.453   3.622 -0.5520 -2.0513 -1.5484
17050SOL    HW254106   0.415   3.481   3.556 -0.1079  1.7173 -1.0450
17051SOL     OW54107   0.879   7.493   9.478  0.1054 -0.0213 -0.4688
17051SOL    HW154108   0.806   7.551   9.458  0.7352  1.4540  1.2810
17051SOL    HW254109   0.933   7.542   9.541 -0.0810 -2.9868  2.2772
17052SOL     OW54110   9.445   3.571   7.640 -0.5794 -0.1097 -0.0642
17052SOL    HW154111   9.391   3.627   7.695  0.6113 -0.4023  1.4800
17052SOL    HW254112   9.459   3.622   7.560 -1.9898  0.5110  0.0614
17053SOL     OW54113   3.509   7.623   9.266  0.2524  0.4941  0.0622
17053SOL    HW154114   3.561   7.612   9.346  0.3028 -0.2201 -0.0617
17053SOL    HW254115   3.496   7.534   9.234 -2.2081  0.5161  0.8293
17054SOL     OW54116   3.341   5.434   4.903  0.1095  0.2753 -0.3562
17054SOL    HW154117   3.422   5.395   4.869  0.3104 -0.0820  0.5179
17054SOL    HW254118   3.349   5.528   4.882  0.6080  0.1945 -0.5433
17055SOL     OW54119   7.636   8.957  10.172  0.1078 -0.1905  0.0182
17055SOL    HW154120   7.580   8.962  10.249 -0.3103  0.8057 -0.3371
17055SOL    HW254121   7.631   8.865  10.144 -0.4584 -0.3490  0.6337
17056SOL     OW54122   4.655   1.876   7.555  0.4485  0.0585 -0.4411
17056SOL    HW154123   4.665   1.845   7.466  2.1170  0.5692 -0.4637
17056SOL    HW254124   4.739   1.918   7.576 -0.0490  0.3167  1.2158
17057SOL     OW54125   7.009   8.275   6.141  0.4484 -0.3379 -0.1959
17057SOL    HW154126   7.053   8.295   6.059  2.1607 -2.1201  0.2237
17057SOL    HW254127   7.059   8.323   6.207  1.2260 -1.6006  0.1700
17058SOL     OW54128   0.779   3.870   6.261  0.0452 -0.1873 -0.3022
17058SOL    HW154129   0.708   3.891   6.201  0.4823 -0.2162 -0.8325
17058SOL    HW254130   0.794   3.951   6.310 -1.1063 -0.4877  0.6246
17059SOL     OW54131   1.930   1.271   2.019 -0.1605  0.5098  0.0883
17059SOL    HW154132   1.844   1.311   2.032  0.0997  0.7529  1.1016
17059SOL    HW254133   1.911   1.188   1.975 -0.9408  0.4366  0.5530
17060SOL     OW54134   7.349   8.025   5.243  0.0519  0.1178  0.0967
17060SOL    HW154135   7.364   8.105   5.293  0.9591 -1.0065  1.7441
17060SOL    HW254136   7.284   8.049   5.178  0.4266  2.2252  0.4236
17061SOL     OW54137  10.169   1.349   6.813 -0.4507  0.1575  0.6675
17061SOL    HW154138  10.086   1.313   6.845  0.2078 -0.8963  1.2432
17061SOL    HW254139  10.210   1.388   6.891  0.5384 -1.2103  0.8711
17062SOL     OW54140   3.796   5.088   0.534  0.5104  0.5213 -0.4327
17062SOL    HW154141   3.886   5.100   0.504  0.4145  1.0643 -0.5180
17062SOL    HW254142   3.759   5.177   0.534 -0.5167  0.1345 -1.9722
17063SOL     OW54143   6.872   6.927   8.042 -0.3934 -0.1758 -0.2797
17063SOL    HW154144   6.956   6.898   8.007 -0.5343 -1.3323  0.2687
17063SOL    HW254145   6.892   6.958   8.130 -0.3190  1.0000 -0.6991
17064SOL     OW54146   9.985   7.937   7.918  0.5470 -0.2575  0.3041
17064SOL    HW154147  10.065   7.884   7.927  0.9120  0.4456  1.4240
17064SOL    HW254148   9.948   7.910   7.834  2.4775  0.0757 -0.7070
17065SOL     OW54149   4.214   4.068   7.230  0.8150  0.5274 -0.3606
17065SOL    HW154150   4.228   3.973   7.236  0.2225  0.5093  1.3013
17065SOL    HW254151   4.291   4.106   7.273  0.6307  0.7559 -0.2300
17066SOL     OW54152   3.382   9.955   5.238 -0.1740 -0.1504  0.2806
17066SOL    HW154153   3.464   9.936   5.193  0.1471 -0.0384  0.8104
17066SOL    HW254154   3.321   9.888   5.207 -0.4919  0.9676 -1.7019
17067SOL     OW54155   1.885   3.562   3.449 -0.1665  0.6115  0.1441
17067SOL    HW154156   1.838   3.493   3.495  0.7534  0.7262  1.3025
17067SOL    HW254157   1.889   3.533   3.358 -0.8717 -0.2530  0.3805
17068SOL     OW54158   7.494   1.628   9.216  0.2496  0.1021  0.2115
17068SOL    HW154159   7.545   1.655   9.140  1.3737  0.5909  1.1038
17068SOL    HW254160   7.425   1.572   9.180  1.0723 -0.1095 -1.1030
17069SOL     OW54161   1.073   0.827   3.025  0.4824 -0.1640 -0.9291
17069SOL    HW154162   1.048   0.782   2.944  1.6219  0.7475 -1.8194
17069SOL    HW254163   0.993   0.872   3.053 -0.6631 -2.5650 -0.0751
17070SOL     OW54164   9.417   5.033   5.011  0.3766 -0.4274 -0.0936
17070SOL    HW154165   9.415   5.121   5.049 -0.7225 -0.1631 -0.6908
17070SOL    HW254166   9.466   5.043   4.929  1.4318 -0.6733  0.4956
17071SOL     OW54167   7.878   5.767   1.527  0.5652  0.8995 -0.6111
17071SOL    HW154168   7.932   5.688   1.520 -1.0433 -0.4066  0.8424
17071SOL    HW254169   7.843   5.780   1.438 -0.8566 -1.3473 -0.4614
17072SOL     OW54170  10.076   3.990   0.650 -0.7032 -0.0261 -0.2241
17072SOL    HW154171  10.073   3.902   0.688 -1.5136  0.4430  0.8254
17072SOL    HW254172  10.141   4.037   0.703  0.9707 -0.4173 -1.8024
17073SOL     OW54173   6.707   8.915   4.067 -0.1866 -0.0448 -0.1480
17073SOL    HW154174   6.613   8.920   4.048 -0.0693 -0.5672 -0.9355
17073SOL    HW254175   6.712   8.866   4.149 -0.6900  1.8319  1.0650
17074SOL     OW54176   9.157   4.090  10.210  0.3192 -0.1355  0.0730
17074SOL    HW154177   9.219   4.137  10.267 -0.6241 -0.5426  1.4807
17074SOL    HW254178   9.184   3.999  10.216 -0.7225 -0.3991  1.1593
17075SOL     OW54179   3.757   2.874   0.250  0.1605 -0.0187  0.4722
17075SOL    HW154180   3.787   2.898   0.163 -0.8135  0.8535  0.3620
17075SOL    HW254181   3.701   2.797   0.237  0.9810 -0.6362  0.4894
17076SOL     OW54182   3.992   0.269   2.537 -0.0325 -0.3883 -0.2246
17076SOL    HW154183   3.954   0.213   2.468  0.3563  0.7766 -1.4346
17076SOL    HW254184   3.916   0.301   2.585 -0.5192  0.6204 -1.5969
17077SOL     OW54185   5.726   4.964   0.848  0.4972  0.3089  0.4733
17077SOL    HW154186   5.801   5.023   0.842  1.2909 -0.6249  0.9014
17077SOL    HW254187   5.651   5.017   0.820  1.1502  1.5670  1.0438
17078SOL     OW54188   7.115   3.449   5.921 -0.6256  0.1374 -0.0030
17078SOL    HW154189   7.194   3.441   5.974 -2.1008 -1.4630  2.1029
17078SOL    HW254190   7.123   3.535   5.879  1.6421  0.5131  1.0556
17079SOL     OW54191   8.823   0.417   9.770 -0.5251 -0.2658 -0.1094
17079SOL    HW154192   8.794   0.420   9.679 -1.2127  0.4777  0.1182
17079SOL    HW254193   8.772   0.486   9.814  0.0900 -0.3380  0.7507
17080SOL     OW54194   9.132   0.748   3.098  0.0665  0.1344 -0.0207
17080SOL    HW154195   9.147   0.840   3.075  0.4562 -0.5580 -3.0885
17080SOL    HW254196   9.042   0.731   3.069  0.0442 -0.4645  0.3929
17081SOL     OW54197   0.361   5.689  10.525 -0.4616 -0.2722  0.4798
17081SOL    HW154198   0.386   5.621  10.463 -2.1175 -0.2469 -0.2724
17081SOL    HW254199   0.444   5.716  10.566  0.7507 -0.1412 -1.8490
17082SOL     OW54200   0.666   5.172   8.624 -0.1810 -0.3452  0.0957
17082SOL    HW154201   0.687   5.218   8.542 -0.0098  0.4509  0.5837
17082SOL    HW254202   0.735   5.106   8.633 -0.1191 -0.3423 -0.3209
17083SOL     OW54203   2.508   2.858   4.125  0.4112  0.2652  0.3528
17083SOL    HW154204   2.418   2.887   4.110 -0.1881 -1.5750  0.2157
17083SOL    HW254205   2.560   2.914   4.067 -0.5983  1.4745  0.5580
17084SOL     OW54206   7.220  10.151   3.667 -0.1641  0.1223  0.3231
17084SOL    HW154207   7.254  10.182   3.751 -0.8176  3.0059 -0.3736
17084SOL    HW254208   7.128  10.179   3.666  0.2084  1.5522 -1.9080
17085SOL     OW54209   6.381   6.202   8.620  0.4331  0.2414 -0.8918
17085SOL    HW154210   6.310   6.264   8.636  1.6110  1.5117 -0.5069
17085SOL    HW254211   6.335   6.119   8.600 -1.1554  1.1365 -1.1673
17086SOL     OW54212   6.903   4.016   0.239  0.1429 -0.6714  0.2226
17086SOL    HW154213   6.977   4.007   0.179 -0.7077  0.6296 -1.1017
17086SOL    HW254214   6.934   3.980   0.321  1.9641 -0.9148 -0.5274
17087SOL     OW54215   8.403   9.087   2.934 -0.1975 -0.2325  0.3168
17087SOL    HW154216   8.398   9.007   2.986 -0.8483  0.5820  1.5443
17087SOL    HW254217   8.326   9.082   2.877  0.0658 -0.7271 -0.0110
17088SOL     OW54218  10.385   6.056   0.932 -0.1149  0.4352 -0.3585
17088SOL    HW154219  10.479   6.065   0.950 -0.4810 -0.3996  2.6048
17088SOL    HW254220  10.374   5.964   0.909 -0.4336 -0.1311  1.8002
17089SOL     OW54221   1.877   4.602  10.411  0.0351  0.2078 -0.5060
17089SOL    HW154222   1.931   4.564  10.343 -0.8469 -0.2242 -0.9848
17089SOL    HW254223   1.793   4.555  10.405  0.3705 -0.8510  1.7892
17090SOL     OW54224   8.190   6.330   3.920 -0.3302 -0.1691 -0.0302
17090SOL    HW154225   8.257   6.364   3.860 -0.7896  1.1708  0.1753
17090SOL    HW254226   8.197   6.235   3.913  1.4759 -0.0530 -0.1352
17091SOL     OW54227   1.608   2.495   3.911 -0.4185  0.5668 -0.5192
17091SOL    HW154228   1.644   2.450   3.988  0.8217  0.8329 -0.9096
17091SOL    HW254229   1.679   2.552   3.882 -0.3171 -0.5724 -2.7012
17092SOL     OW54230   3.058   4.037   2.106  0.4641 -0.1297  0.0324
17092SOL    HW154231   3.145   3.997   2.105  0.1418 -0.8407 -0.6639
17092SOL    HW254232   3.016   3.999   2.183  0.2223 -1.0235 -0.5225
17093SOL     OW54233   7.488   2.302   5.091 -0.1962 -0.4055  0.3977
17093SOL    HW154234   7.462   2.301   4.999 -1.2368 -0.8675  0.6769
17093SOL    HW254235   7.517   2.212   5.108  0.4977 -0.1865  0.3922
17094SOL     OW54236   5.391   5.878   1.722 -0.2427  0.1774 -0.1035
17094SOL    HW154237   5.377   5.868   1.628  1.6484  2.5649 -0.7347
17094SOL    HW254238   5.443   5.802   1.747 -0.3643 -0.2392 -1.0696
17095SOL     OW54239   6.082   1.897   6.133 -0.3718 -0.1267  0.1946
17095SOL    HW154240   6.015   1.895   6.202  0.0722  0.2664  0.6498
17095SOL    HW254241   6.126   1.812   6.140 -1.2874 -0.6811 -0.5887
17096SOL     OW54242   8.847   6.146   2.000  0.6655 -0.2847 -0.3931
17096SOL    HW154243   8.895   6.083   1.946  1.3598 -2.1767  2.1928
17096SOL    HW254244   8.914   6.186   2.055 -0.2919 -0.4863  0.9735
17097SOL     OW54245   7.550   9.321   6.778  0.0054 -0.5996 -0.2415
17097SOL    HW154246   7.521   9.244   6.827  3.0507 -1.9996 -0.3908
17097SOL    HW254247   7.590   9.285   6.699  3.7079  0.7896  0.7901
17098SOL     OW54248   4.848   1.657   5.436 -0.3473  0.1631 -0.2401
17098SOL    HW154249   4.844   1.662   5.531 -0.5126  1.9103 -0.3008
17098SOL    HW254250   4.772   1.605   5.411  0.0125 -0.7907  0.5939
17099SOL     OW54251   4.093   0.954   4.604  0.6247 -0.5290 -0.1277
17099SOL    HW154252   4.178   0.912   4.587 -0.2747 -2.3122 -0.4329
17099SOL    HW254253   4.065   0.919   4.688 -1.1291 -2.3447 -1.3709
17100SOL     OW54254   6.709   5.885   9.784  0.0299 -0.2562  0.3786
17100SOL    HW154255   6.755   5.961   9.750  2.2553 -1.5014  0.4449
17100SOL    HW254256   6.762   5.810   9.756 -0.9410 -1.6522  2.0803
17101SOL     OW54257   4.631   7.059   3.646  0.1552  0.3222  0.0554
17101SOL    HW154258   4.700   7.043   3.712  0.5501 -1.5970 -0.7525
17101SOL    HW254259   4.600   6.972   3.622 -2.5672  1.1180  0.3273
17102SOL     OW54260   8.006   0.852   6.026 -0.2301  0.0243  0.6955
17102SOL    HW154261   8.007   0.818   6.115  0.5462  0.9528  1.0610
17102SOL    HW254262   7.914   0.865   6.006 -0.6053 -2.7380  0.3420
17103SOL     OW54263   8.150   7.643   3.410  0.3122 -0.2822 -0.8415
17103SOL    HW154264   8.234   7.684   3.428 -0.8025  0.8120  2.7086
17103SOL    HW254265   8.152   7.562   3.461 -0.0350 -1.3547 -2.4593
17104SOL     OW54266   5.184   3.301   6.231  0.7465 -0.4761  0.1517
17104SOL    HW154267   5.254   3.290   6.166  0.9210  1.3557 -0.0179
17104SOL    HW254268   5.192   3.392   6.260 -1.0737 -0.4604  0.7279
17105SOL     OW54269   9.583   1.915   6.592 -0.6900 -0.2946  0.0888
17105SOL    HW154270   9.603   2.008   6.576 -1.6585  0.0569  0.8197
17105SOL    HW254271   9.669   1.875   6.606 -0.2811  0.5954  0.2695
17106SOL     OW54272   5.500   9.339   0.151  0.0571 -0.3598  0.0680
17106SOL    HW154273   5.504   9.305   0.062  0.5186 -0.8915  0.2851
17106SOL    HW254274   5.410   9.322   0.180 -0.0783 -0.2260 -0.2762
17107SOL     OW54275   2.774   1.709  10.464  0.1065  0.1077  0.2392
17107SOL    HW154276   2.688   1.672  10.485 -0.6259  0.3362 -2.0486
17107SOL    HW254277   2.761   1.803  10.468  0.4252  0.1413  0.4940
17108SOL     OW54278   3.267   5.955   0.136 -0.4134 -0.9110  0.2795
17108SOL    HW154279   3.198   6.009   0.097 -0.7090 -0.1485  1.7942
17108SOL    HW254280   3.243   5.865   0.112 -0.5225 -0.4818 -1.3316
17109SOL     OW54281   7.338  10.109  10.280 -0.6619  0.4934  0.2695
17109SOL    HW154282   7.263  10.169  10.282 -0.0282  1.3508 -0.3797
17109SOL    HW254283   7.304  10.030  10.239 -2.4656 -1.0800  4.2831
17110SOL     OW54284   9.411   6.483   4.080 -0.1305  0.1875 -0.3877
17110SOL    HW154285   9.409   6.513   4.171  1.2458  1.9698 -0.8879
17110SOL    HW254286   9.335   6.523   4.039 -0.3623 -0.0483 -0.1899
17111SOL     OW54287   4.780   2.930   4.717  0.3459 -0.1995 -0.0622
17111SOL    HW154288   4.731   2.960   4.641 -0.0183 -1.5747 -0.3827
17111SOL    HW254289   4.827   2.853   4.687  1.1246 -0.0753  0.7976
17112SOL     OW54290   7.981   4.100   5.913 -1.4306  0.3844  0.0669
17112SOL    HW154291   7.888   4.089   5.930 -1.5505 -0.0925 -0.8587
17112SOL    HW254292   7.987   4.179   5.860 -1.5915 -0.9395 -2.0472
17113SOL     OW54293   7.174   3.289   5.350 -0.0273  0.6194  0.5256
17113SOL    HW154294   7.079   3.292   5.355 -0.0559  1.2589 -0.2150
17113SOL    HW254295   7.204   3.348   5.419 -0.2018  1.3101  0.0245
17114SOL     OW54296   4.659   2.006   0.468 -0.2128 -0.4712 -0.7725
17114SOL    HW154297   4.685   2.090   0.430  2.0153  0.5222  2.5212
17114SOL    HW254298   4.581   2.026   0.520  0.8891 -0.1153  0.8163
17115SOL     OW54299   9.532   5.821   7.529 -0.2782  0.7140 -0.2606
17115SOL    HW154300   9.557   5.884   7.597  0.3360  0.2065  0.0012
17115SOL    HW254301   9.457   5.861   7.486 -1.0715  0.7928  1.1117
17116SOL     OW54302   1.344   4.623   9.074 -0.4949 -0.1085 -0.5085
17116SOL    HW154303   1.325   4.600   8.983  0.8515 -2.6252 -0.2522
17116SOL    HW254304   1.278   4.576   9.125  0.2049 -0.6867 -0.1127
17117SOL     OW54305   1.544   9.402   7.431 -0.3032  0.0857 -0.3402
17117SOL    HW154306   1.525   9.318   7.391  0.9799  0.0039 -0.8002
17117SOL    HW254307   1.461   9.450   7.425 -0.5869 -0.5295 -1.5805
17118SOL     OW54308   3.831   0.542   4.757  0.0843  0.3691 -0.0728
17118SOL    HW154309   3.825   0.463   4.703  0.9726  0.4918 -0.3647
17118SOL    HW254310   3.925   0.558   4.766 -0.0819  1.6196 -0.3505
17119SOL     OW54311  10.645  10.316   9.421 -0.2631  0.0562  0.0758
17119SOL    HW154312  10.649  10.258   9.497  0.8657 -1.2808 -0.9491
17119SOL    HW254313  10.718  10.288   9.366  0.9866  3.1305 -0.0221
17120SOL     OW54314   2.610   5.786   1.005 -1.1421  0.3975  0.3331
17120SOL    HW154315   2.646   5.784   0.916 -1.9707  1.2279 -0.0380
17120SOL    HW254316   2.575   5.875   1.014 -0.6590  0.4782  1.6622
17121SOL     OW54317   3.235   8.521   8.540  0.3777 -0.2303 -0.0426
17121SOL    HW154318   3.280   8.599   8.506  0.6244  0.6203  2.0900
17121SOL    HW254319   3.292   8.488   8.609 -1.1848 -0.4601  1.1943
17122SOL     OW54320   5.326   1.766   4.703  0.0134 -0.1336  0.4646
17122SOL    HW154321   5.316   1.686   4.651  1.5037  1.5033 -2.6373
17122SOL    HW254322   5.417   1.764   4.732 -0.2698 -0.0770  1.3786
17123SOL     OW54323   7.732   5.452  10.237  0.5408  0.4960  0.4844
17123SOL    HW154324   7.646   5.459  10.197  1.3801 -0.7760 -1.7682
17123SOL    HW254325   7.759   5.542  10.255 -0.0091  1.1574 -1.7109
17124SOL     OW54326   9.206  10.259   3.539 -0.4448  0.2977 -0.1130
17124SOL    HW154327   9.220  10.354   3.537 -0.9925  0.3753 -0.8014
17124SOL    HW254328   9.293  10.222   3.548 -0.0696  0.8334 -1.3583
17125SOL     OW54329   0.854   1.645   1.389 -0.3518 -0.3194 -0.3623
17125SOL    HW154330   0.903   1.654   1.308 -0.3691  0.8553 -0.2585
17125SOL    HW254331   0.769   1.609   1.362  0.3742 -1.9467 -0.5860
17126SOL     OW54332   9.152   3.816   2.516 -0.0969 -0.2382  0.5856
17126SOL    HW154333   9.113   3.766   2.588  0.1779 -2.2988 -0.5928
17126SOL    HW254334   9.246   3.798   2.523 -0.0603 -0.4087 -0.2181
17127SOL     OW54335   6.674   9.767   4.633  0.0332 -0.3406  0.1428
17127SOL    HW154336   6.623   9.788   4.711 -0.1273  0.6606 -0.2096
17127SOL    HW254337   6.707   9.852   4.603  0.4017 -0.7578 -0.6648
17128SOL     OW54338   5.833   6.223   6.555  0.4553  0.1391  0.1012
17128SOL    HW154339   5.792   6.298   6.596  0.0199  0.3159 -0.6424
17128SOL    HW254340   5.927   6.236   6.569  0.3441  0.4828  0.5347
17129SOL     OW54341   1.615   3.024   6.182  0.5291  0.0049  0.0978
17129SOL    HW154342   1.666   3.080   6.240 -0.2906 -1.0093  1.8815
17129SOL    HW254343   1.664   2.941   6.180 -1.9310 -1.8079  3.6656
17130SOL     OW54344   7.475   0.794   2.785  0.7300 -1.0063  0.1628
17130SOL    HW154345   7.553   0.801   2.841  0.0647 -0.6620  1.0776
17130SOL    HW254346   7.422   0.725   2.827 -0.1465 -0.1829  0.4303
17131SOL     OW54347   7.290   3.053   7.339  0.2632 -0.1101  0.0880
17131SOL    HW154348   7.215   3.093   7.382 -1.5093 -1.5401 -1.4643
17131SOL    HW254349   7.347   3.126   7.316 -1.7473  1.3048 -0.6644
17132SOL     OW54350   1.598   0.470   3.663 -0.5750 -0.0300 -0.1007
17132SOL    HW154351   1.551   0.419   3.729  0.2636 -0.6043  0.0745
17132SOL    HW254352   1.690   0.444   3.674 -0.0955  1.6323  0.0885
17133SOL     OW54353   6.307   1.393   8.539 -0.3956 -0.1699 -0.1425
17133SOL    HW154354   6.233   1.454   8.540 -1.3208 -1.1948 -1.8650
17133SOL    HW254355   6.347   1.402   8.626 -1.1514  2.0536  0.0371
17134SOL     OW54356   8.807   3.938   3.306  0.0946  0.2098 -0.6093
17134SOL    HW154357   8.863   3.923   3.230  0.4115 -1.0315 -0.1579
17134SOL    HW254358   8.731   3.882   3.291  0.0389  0.1615 -0.1497
17135SOL     OW54359   9.838   4.295   9.531  0.1875  0.3245 -0.9363
17135SOL    HW154360   9.763   4.275   9.587 -0.3092 -1.6648 -2.1804
17135SOL    HW254361   9.801   4.348   9.460  0.3622  0.9666 -0.5514
17136SOL     OW54362   9.682   8.053   0.008  0.1748  0.4578  0.7680
17136SOL    HW154363   9.668   8.083   0.098  0.1374 -0.6883  1.1515
17136SOL    HW254364   9.674   8.133  -0.045 -1.6504  0.8552  1.5750
17137SOL     OW54365   0.270   3.459   4.922 -0.4908 -0.1377  0.1438
17137SOL    HW154366   0.333   3.531   4.928 -1.3787  0.7201 -0.4524
17137SOL    HW254367   0.318   3.382   4.952  0.4358  0.7332  0.9733
17138SOL     OW54368   0.105   6.613   6.043  0.3702 -0.0496 -0.5238
17138SOL    HW154369   0.181   6.569   6.003  1.1027 -0.3072  1.0665
17138SOL    HW254370   0.084   6.558   6.119  0.5992  1.7334  0.8782
17139SOL     OW54371   4.527   2.037   6.132 -0.1836  0.0588  0.2104
17139SOL    HW154372   4.479   2.119   6.116 -1.0994 -0.5518 -0.2511
17139SOL    HW254373   4.618   2.065   6.144 -0.4182  1.1112 -0.3170
17140SOL     OW54374   7.774   1.865   1.321 -0.1452  0.1477  0.0150
17140SOL    HW154375   7.773   1.942   1.378 -0.3517 -0.2262  0.5260
17140SOL    HW254376   7.864   1.861   1.288 -0.3589  1.1135 -0.7247
17141SOL     OW54377   6.458   8.072   4.672  0.3095  0.0324 -0.1522
17141SOL    HW154378   6.530   8.021   4.710 -0.8009 -0.9883  0.6946
17141SOL    HW254379   6.389   8.007   4.656 -0.4460  0.9875 -0.8934
17142SOL     OW54380   0.030   3.065   5.442  0.3229  0.3958 -0.5454
17142SOL    HW154381  -0.033   3.036   5.377  0.2276 -0.6724 -0.0007
17142SOL    HW254382   0.092   3.120   5.393  0.3184 -0.4741 -1.5550
17143SOL     OW54383   3.863   9.973   2.558  0.0060  0.4424  0.0722
17143SOL    HW154384   3.850   9.900   2.497  0.0751  0.6764 -0.2316
17143SOL    HW254385   3.910  10.038   2.505 -0.6787  0.9898  0.1280
17144SOL     OW54386   0.769   0.675   2.955 -0.0712 -0.5910  0.1392
17144SOL    HW154387   0.697   0.735   2.972  1.0246  0.8926 -0.2231
17144SOL    HW254388   0.794   0.641   3.041 -1.6108 -1.6613  0.1963
17145SOL     OW54389   1.963   2.706   4.072 -0.2265 -0.0773  0.2940
17145SOL    HW154390   2.031   2.727   4.136  0.8197 -2.2417 -0.0295
17145SOL    HW254391   1.965   2.611   4.065 -0.2760  0.0466 -2.9786
17146SOL     OW54392   4.088   9.267   2.567 -0.4729 -0.5130 -0.5268
17146SOL    HW154393   4.159   9.322   2.602  0.3852 -0.8510 -1.6452
17146SOL    HW254394   4.070   9.305   2.480 -1.4644 -0.6176 -0.3714
17147SOL     OW54395   0.413   5.613   3.781  0.4557  0.3232  0.0839
17147SOL    HW154396   0.327   5.579   3.802 -0.1078  1.4614 -0.3033
17147SOL    HW254397   0.434   5.574   3.696 -0.6038  1.6342 -0.8143
17148SOL     OW54398   6.691   9.694   2.418  0.6129 -0.0546  0.2941
17148SOL    HW154399   6.661   9.649   2.497 -1.7859 -1.1258 -1.1106
17148SOL    HW254400   6.761   9.638   2.384 -0.7872 -1.6244 -0.1859
17149SOL     OW54401   5.227   1.883   5.258 -0.2553  0.6836  0.0008
17149SOL    HW154402   5.317   1.851   5.265 -0.8696 -1.2530 -0.5481
17149SOL    HW254403   5.237   1.973   5.226  1.4637  0.1460 -1.1424
17150SOL     OW54404   3.902   5.417   6.526 -0.0468  0.5488 -0.3793
17150SOL    HW154405   3.979   5.394   6.577 -1.1780 -0.5145  0.9341
17150SOL    HW254406   3.871   5.499   6.564  1.1586  1.7152 -1.7994
17151SOL     OW54407   5.013   8.194  10.143  0.8101  0.2686  0.2539
17151SOL    HW154408   4.942   8.197  10.078 -0.4757  2.3962  1.6438
17151SOL    HW254409   4.997   8.113  10.192 -0.1333  0.2870 -0.0075
17152SOL     OW54410   2.160   4.034   7.377 -0.0055  0.3984  0.0825
17152SOL    HW154411   2.167   4.113   7.431 -2.1363  1.8980 -1.6811
17152SOL    HW254412   2.246   4.026   7.336  0.7140  0.9106  1.4297
17153SOL     OW54413   1.049   2.609   1.232 -0.0691  0.3135  0.2640
17153SOL    HW154414   0.970   2.601   1.178  0.4911  0.9367 -0.6802
17153SOL    HW254415   1.036   2.545   1.302 -1.6944  0.8417  0.4963
17154SOL     OW54416   9.446   0.596   8.369  0.3394  0.3027 -0.9353
17154SOL    HW154417   9.523   0.626   8.320  1.6801 -1.2308  0.1167
17154SOL    HW254418   9.375   0.596   8.305  1.1579  1.9075 -1.9054
17155SOL     OW54419   3.927   0.654  10.150  0.3928  0.2163  0.5885
17155SOL    HW154420   3.866   0.673  10.078  0.2141  1.0799  0.9527
17155SOL    HW254421   3.960   0.740  10.176  0.1495 -0.0496  1.8071
17156SOL     OW54422   6.437   9.411   0.194  0.4454 -0.3811  0.0826
17156SOL    HW154423   6.422   9.421   0.288 -0.6493 -0.8817 -0.0193
17156SOL    HW254424   6.476   9.324   0.186  0.9088 -0.1770  0.1057
17157SOL     OW54425   5.439   6.033   9.227  0.0755  0.3603 -0.2351
17157SOL    HW154426   5.466   5.947   9.194  0.1618 -0.1440  1.0974
17157SOL    HW254427   5.469   6.095   9.159  1.8663 -0.4624 -0.2635
17158SOL     OW54428   3.590   9.976   2.587  0.4342 -0.4145  0.2157
17158SOL    HW154429   3.584   9.913   2.658  2.0119  0.7334  1.4367
17158SOL    HW254430   3.681   9.971   2.558  0.3714  0.6977 -0.2212
17159SOL     OW54431  10.417   7.300  10.333 -0.2094  0.0580 -0.7358
17159SOL    HW154432  10.347   7.260  10.385  0.7176 -1.7873 -0.8184
17159SOL    HW254433  10.377   7.316  10.247 -1.2862  1.6144  0.0166
17160SOL     OW54434   0.325   7.818   7.489 -0.6296 -0.1136  0.5826
17160SOL    HW154435   0.310   7.845   7.398 -0.3215  0.1125  0.5932
17160SOL    HW254436   0.419   7.798   7.492 -0.7555 -0.6710  0.7118
17161SOL     OW54437   2.220   0.704   9.569 -0.1627  0.7680 -0.0730
17161SOL    HW154438   2.185   0.787   9.602 -2.7788 -0.2723  0.0482
17161SOL    HW254439   2.190   0.639   9.632  0.8315 -0.4172 -0.7820
17162SOL     OW54440   3.185   4.457   4.496 -0.1584 -0.0060  0.2557
17162SOL    HW154441   3.231   4.528   4.540  0.0903  0.6125 -0.9791
17162SOL    HW254442   3.187   4.479   4.403 -0.1488 -1.5764 -0.1584
17163SOL     OW54443   4.564   6.434   3.588 -0.3749 -0.2876  0.0787
17163SOL    HW154444   4.520   6.369   3.533 -0.0069  0.2926 -0.9260
17163SOL    HW254445   4.536   6.413   3.677  0.6572 -2.5443 -0.0863
17164SOL     OW54446   8.803   0.737   6.136  0.0087  0.4823 -0.0628
17164SOL    HW154447   8.764   0.664   6.088 -0.6996 -0.5507  2.0014
17164SOL    HW254448   8.864   0.696   6.197 -0.2083  1.6178  0.9496
17165SOL     OW54449   0.446   5.810   7.819  0.0443 -0.1368  0.3653
17165SOL    HW154450   0.475   5.867   7.890  0.2149 -0.4104  0.5173
17165SOL    HW254451   0.362   5.775   7.850 -0.1187  0.1262  0.2201
17166SOL     OW54452   7.615   3.138   1.374  0.5067  0.3762  0.2341
17166SOL    HW154453   7.686   3.153   1.311  0.7406  0.0262  0.4179
17166SOL    HW254454   7.593   3.046   1.364  0.0128  0.5035  0.1146
17167SOL     OW54455   9.487   5.560   4.979  0.2254 -0.2122 -0.0318
17167SOL    HW154456   9.501   5.638   5.034 -0.9471  0.2758 -0.3909
17167SOL    HW254457   9.441   5.499   5.037  3.9150 -1.9961  1.2969
17168SOL     OW54458   7.702   6.802   7.948  0.6113  0.0843 -0.2361
17168SOL    HW154459   7.748   6.886   7.936 -0.7371  0.8537 -0.1648
17168SOL    HW254460   7.692   6.768   7.859 -0.6389  1.0054 -0.4702
17169SOL     OW54461  10.375   4.953   7.467  0.1144 -0.0808 -0.0672
17169SOL    HW154462  10.364   5.048   7.463  0.4642 -0.0758 -1.0850
17169SOL    HW254463  10.339   4.928   7.552  0.3091  0.9983  0.3398
17170SOL     OW54464   8.486   7.641   4.633 -0.3395  0.2202  0.4370
17170SOL    HW154465   8.554   7.685   4.683 -1.2561  2.0075  0.1769
17170SOL    HW254466   8.528   7.616   4.551 -0.2518  2.3494 -0.2102
17171SOL     OW54467   9.330   5.123   0.568  0.2251 -0.7956  0.6019
17171SOL    HW154468   9.325   5.219   0.571  0.6998 -0.7439 -0.0266
17171SOL    HW254469   9.359   5.098   0.656  2.7641 -0.1534  0.0290
17172SOL     OW54470   8.781   9.122   6.385 -0.0269  0.4453 -1.0130
17172SOL    HW154471   8.702   9.107   6.436  0.3264  3.2000  0.5205
17172SOL    HW254472   8.801   9.036   6.346 -3.4022 -0.4819 -1.0416
17173SOL     OW54473   1.209   3.095   9.388 -0.2834  0.1180  0.3811
17173SOL    HW154474   1.179   3.185   9.398  1.3012  1.0709 -2.3257
17173SOL    HW254475   1.128   3.043   9.387 -1.3379  1.6816  0.4558
17174SOL     OW54476   3.571  10.529   1.369  0.3954  0.0677  0.0672
17174SOL    HW154477   3.645  10.546   1.428 -0.0422  0.6685  0.4618
17174SOL    HW254478   3.521  10.460   1.412  1.1179 -0.8741 -0.5691
17175SOL     OW54479   9.791   9.342   6.114  0.1695 -0.5644 -0.3739
17175SOL    HW154480   9.868   9.290   6.092 -0.4757 -1.1494 -1.3061
17175SOL    HW254481   9.794   9.415   6.052  0.9531  0.4523  0.7862
17176SOL     OW54482   3.124   7.632   7.916 -0.6387  0.2962  0.4055
17176SOL    HW154483   3.128   7.571   7.989 -0.2805  0.7267  0.7525
17176SOL    HW254484   3.189   7.700   7.937 -2.3189  1.8120  0.9565
17177SOL     OW54485   9.167   5.747   8.426 -0.7121 -0.0591 -0.2601
17177SOL    HW154486   9.104   5.793   8.481  0.1287  0.2919  0.4367
17177SOL    HW254487   9.114   5.687   8.373 -1.6084  0.1216  0.4106
17178SOL     OW54488   4.861   0.887   8.915 -0.1444 -0.2858  0.3516
17178SOL    HW154489   4.917   0.872   8.991  0.8160  0.9337 -0.0865
17178SOL    HW254490   4.807   0.963   8.940  0.4868  0.4044 -0.3296
17179SOL     OW54491   5.914   6.573  10.230  0.1857 -0.2893  0.3451
17179SOL    HW154492   5.997   6.609  10.260 -1.0276  1.0000  2.3184
17179SOL    HW254493   5.855   6.648  10.224 -2.0385 -1.6221  3.2017
17180SOL     OW54494   8.927   2.723   2.712 -0.7890 -0.2308  0.2180
17180SOL    HW154495   9.000   2.672   2.748 -1.2885 -1.1390 -0.0462
17180SOL    HW254496   8.934   2.808   2.756 -0.2494 -0.6837  1.0417
17181SOL     OW54497   7.035   1.197   7.880 -0.1664  0.0712 -0.1198
17181SOL    HW154498   7.085   1.178   7.959  0.2400  0.2221 -0.3372
17181SOL    HW254499   7.100   1.203   7.810 -0.4432  0.6620 -0.3383
17182SOL     OW54500   0.805   2.679   7.657 -0.4718  0.5146  0.4177
17182SOL    HW154501   0.813   2.749   7.723 -1.3849  0.3207  0.7476
17182SOL    HW254502   0.760   2.608   7.703 -3.1730  1.1741 -0.9576
17183SOL     OW54503   4.395   3.165   7.091 -0.6601 -0.0424  0.7764
17183SOL    HW154504   4.360   3.088   7.046 -1.6187  0.2947  0.9108
17183SOL    HW254505   4.460   3.131   7.152 -0.9332 -0.7205  0.6894
17184SOL     OW54506   6.758   5.962   9.226 -0.1725 -0.2279 -0.1777
17184SOL    HW154507   6.725   5.872   9.229 -0.2652 -0.1692  0.9678
17184SOL    HW254508   6.813   5.965   9.147  0.3063 -1.4565  0.0820
17185SOL     OW54509   2.456   9.513   9.785  0.1559 -0.0444 -0.1081
17185SOL    HW154510   2.524   9.483   9.725  3.2835  1.8641  2.1842
17185SOL    HW254511   2.466   9.608   9.787 -1.4735  0.1422  1.5903
17186SOL     OW54512   4.132   9.516   7.748  0.0629  0.3328  0.3930
17186SOL    HW154513   4.124   9.551   7.836 -0.1834 -0.7487  0.8106
17186SOL    HW254514   4.065   9.562   7.698  1.1969  2.0688  0.3735
17187SOL     OW54515   3.299   1.514   1.411  0.1381  0.2069  0.0274
17187SOL    HW154516   3.224   1.454   1.410  0.1760  0.1564 -1.2064
17187SOL    HW254517   3.332   1.509   1.501 -2.0891  1.2160  0.9635
17188SOL     OW54518   8.288   8.960   8.670 -0.0716 -0.4752  0.6978
17188SOL    HW154519   8.321   8.908   8.743 -0.1302  0.6728  1.5740
17188SOL    HW254520   8.304   9.051   8.696  3.0112  0.0014 -2.1386
17189SOL     OW54521   9.368   1.678  10.167  0.3241 -0.1030 -0.0899
17189SOL    HW154522   9.370   1.770  10.193 -0.3892 -0.4005  1.1163
17189SOL    HW254523   9.331   1.633  10.243 -1.4621 -1.0941 -1.4813
17190SOL     OW54524   1.691   9.515   4.533 -0.0096 -0.2297 -0.1803
17190SOL    HW154525   1.703   9.562   4.615  1.6932 -1.4552  0.3050
17190SOL    HW254526   1.771   9.465   4.521  0.1410  0.5044 -3.0074
17191SOL     OW54527   7.089   6.894   0.578  0.3087 -0.1253  0.2566
17191SOL    HW154528   7.069   6.978   0.535  0.3536  0.2646  0.9917
17191SOL    HW254529   7.161   6.914   0.638 -0.2678 -0.4912  1.0883
17192SOL     OW54530   4.456   6.514   3.065 -0.1430  0.2380 -0.1934
17192SOL    HW154531   4.367   6.540   3.040 -1.1126  0.2658  2.8814
17192SOL    HW254532   4.445   6.469   3.149  2.6214 -1.1019 -0.4421
17193SOL     OW54533   6.143   0.321   9.581 -0.0172  0.1922 -0.3275
17193SOL    HW154534   6.087   0.391   9.549  0.1313  1.5893  2.2039
17193SOL    HW254535   6.208   0.309   9.512 -1.7802  0.4212 -2.1144
17194SOL     OW54536   1.659   1.536   8.977 -0.2502  0.5589  0.1308
17194SOL    HW154537   1.701   1.589   8.909  0.8624 -0.9884 -0.4292
17194SOL    HW254538   1.723   1.534   9.049 -0.1210 -0.3096 -0.0002
17195SOL     OW54539   6.476   1.266   1.398  0.0185 -0.1564  0.5598
17195SOL    HW154540   6.517   1.188   1.436  2.3018  1.3039  1.3444
17195SOL    HW254541   6.520   1.339   1.441 -0.4791  1.5912 -1.7007
17196SOL     OW54542   1.843   1.570   3.496  0.6436  0.2790  0.0462
17196SOL    HW154543   1.930   1.594   3.464  2.3468 -1.0231  3.2367
17196SOL    HW254544   1.807   1.515   3.426  2.7424  0.1910 -1.0550
17197SOL     OW54545   7.775   6.547   3.976  0.0243  0.2609 -0.2524
17197SOL    HW154546   7.734   6.629   3.948  1.1933  0.3507 -1.7831
17197SOL    HW254547   7.842   6.529   3.910 -0.6382 -2.2887 -0.3463
17198SOL     OW54548   4.962   4.473   3.965 -0.5599 -0.3292  0.2303
17198SOL    HW154549   5.004   4.535   4.026  0.7057 -0.7233 -0.2126
17198SOL    HW254550   4.869   4.497   3.967 -0.2146  1.0889  0.6534
17199SOL     OW54551   3.308   1.199   3.038 -0.0114 -0.0663  1.3482
17199SOL    HW154552   3.346   1.192   3.126  1.2566 -1.2121  0.7486
17199SOL    HW254553   3.383   1.216   2.981 -0.9860  2.2899  0.6191
17200SOL     OW54554   3.023   6.830   7.601  0.0505  0.5523 -0.0656
17200SOL    HW154555   3.004   6.813   7.693  1.0117 -0.3342 -0.0101
17200SOL    HW254556   2.998   6.749   7.556 -1.4980  1.3832 -0.7693
17201SOL     OW54557   6.236   4.943   9.595 -0.8165  0.2114  0.6770
17201SOL    HW154558   6.172   4.954   9.666  0.5549  1.6744  1.7542
17201SOL    HW254559   6.214   5.012   9.533 -1.5597 -0.6066  0.0136
17202SOL     OW54560   5.821   8.970   7.416  0.6227 -0.0251 -0.2485
17202SOL    HW154561   5.822   9.061   7.386  0.6034  0.3182  0.7398
17202SOL    HW254562   5.731   8.941   7.400  1.0089 -0.3744 -1.9511
17203SOL     OW54563   3.346   7.403   9.685  0.0979  0.3182 -0.3011
17203SOL    HW154564   3.311   7.349   9.614  0.6642 -0.1475 -0.2298
17203SOL    HW254565   3.361   7.489   9.645  2.4660 -0.5081 -1.3551
17204SOL     OW54566   5.081   3.586  10.304  0.7692 -0.5551  0.2170
17204SOL    HW154567   5.028   3.663  10.322  0.0368 -0.4283 -2.1960
17204SOL    HW254568   5.171   3.619  10.304  0.6479 -0.1706  1.3013
17205SOL     OW54569   7.842   1.369   4.568  0.1563 -0.1234 -0.7670
17205SOL    HW154570   7.839   1.405   4.479  0.9059  1.5746 -0.1546
17205SOL    HW254571   7.751   1.372   4.598  0.2005  1.4951 -0.6894
17206SOL     OW54572   0.691   6.124   7.690  0.7560 -0.3703  0.0633
17206SOL    HW154573   0.708   6.165   7.775 -0.0375 -0.9338  0.5156
17206SOL    HW254574   0.696   6.195   7.627 -0.9817  0.5213  0.8720
17207SOL     OW54575   3.323   3.899   0.132  0.0818  0.0292  0.1963
17207SOL    HW154576   3.401   3.867   0.176  1.7729  0.7843 -2.0390
17207SOL    HW254577   3.328   3.995   0.141  0.1065  0.1564 -1.0063
17208SOL     OW54578   4.888   5.859   5.135 -0.4013 -0.4810  0.7765
17208SOL    HW154579   4.815   5.863   5.197 -0.4492 -3.2548  1.0312
17208SOL    HW254580   4.859   5.913   5.061 -2.0638 -0.2987  1.5142
17209SOL     OW54581   3.487   7.206   5.638  0.7046 -0.0331  0.4252
17209SOL    HW154582   3.450   7.119   5.655 -0.6307  0.4584  0.1092
17209SOL    HW254583   3.521   7.234   5.723  0.2475 -0.4460  0.7503
17210SOL     OW54584   2.073   6.203   2.057  0.0605  0.2552  0.4679
17210SOL    HW154585   2.155   6.249   2.075 -0.9315  2.0567  0.6869
17210SOL    HW254586   2.014   6.231   2.127 -0.6284 -1.3539  0.5621
17211SOL     OW54587   9.511   6.390   2.352 -0.1539  0.1675  0.2709
17211SOL    HW154588   9.578   6.412   2.288 -0.0876 -2.1910 -0.5809
17211SOL    HW254589   9.549   6.319   2.403 -0.4558  1.5656  2.5900
17212SOL     OW54590   6.261   4.528   2.311 -0.1433  0.2809  0.1622
17212SOL    HW154591   6.178   4.563   2.282 -0.3721  0.4883  1.0324
17212SOL    HW254592   6.326   4.595   2.288 -0.1782  0.0230 -0.7113
17213SOL     OW54593   5.682   4.644   3.970  0.0587 -0.0136  0.2929
17213SOL    HW154594   5.634   4.603   4.042 -0.6966  1.4568  0.6501
17213SOL    HW254595   5.619   4.647   3.898  0.3096 -0.0303  0.0703
17214SOL     OW54596   3.097   8.994   8.097  0.4662 -0.1684  0.7700
17214SOL    HW154597   3.176   8.993   8.044  1.2071 -0.3414  1.8443
17214SOL    HW254598   3.126   9.024   8.184 -1.2240  3.3993  0.3122
17215SOL     OW54599   2.189   8.450   5.882  0.0466  0.2272 -0.2835
17215SOL    HW154600   2.119   8.514   5.888 -1.9684 -1.9491  1.4708
17215SOL    HW254601   2.177   8.409   5.797 -0.4699  0.2315 -0.2143
17216SOL     OW54602   3.352   9.798   4.280  0.3821  1.0250  0.0048
17216SOL    HW154603   3.290   9.832   4.216 -0.9818  0.4056  0.9699
17216SOL    HW254604   3.374   9.873   4.335 -0.2075  1.0422  0.2164
17217SOL     OW54605   9.175   3.464   6.536 -0.1519 -0.1846  0.1201
17217SOL    HW154606   9.241   3.431   6.476 -0.6366 -1.9763  0.5196
17217SOL    HW254607   9.220   3.474   6.620 -0.6439 -2.8483  0.7857
17218SOL     OW54608   4.180   1.507   3.149  0.6509 -0.1158 -0.1695
17218SOL    HW154609   4.191   1.567   3.223  1.6812 -0.4812 -0.0147
17218SOL    HW254610   4.183   1.420   3.188 -1.7734 -0.3155 -0.2626
17219SOL     OW54611   0.878   0.479   7.572  0.1383  0.0687 -0.2349
17219SOL    HW154612   0.907   0.568   7.593 -0.3453 -0.1584  1.5297
17219SOL    HW254613   0.939   0.422   7.619  0.1126 -0.5303 -0.9083
17220SOL     OW54614   8.657   9.343   8.395  0.6449 -0.5334 -0.1390
17220SOL    HW154615   8.699   9.393   8.325 -0.4520 -0.0851 -0.4993
17220SOL    HW254616   8.665   9.398   8.473  1.1985 -0.6922 -0.0827
17221SOL     OW54617   7.375   8.060  10.659 -0.1770  0.3065 -0.5448
17221SOL    HW154618   7.325   8.041  10.580 -0.3674 -1.8399  0.0485
17221SOL    HW254619   7.325   8.130  10.702 -1.6717 -0.5233 -0.8728
17222SOL     OW54620   0.830   3.435   3.152 -0.3734 -0.3484 -0.4844
17222SOL    HW154621   0.874   3.505   3.103  0.1545 -1.0690 -1.0595
17222SOL    HW254622   0.839   3.358   3.097  0.3519 -1.2216  0.7891
17223SOL     OW54623   2.933   5.844   6.373 -0.3364  0.7588 -0.0209
17223SOL    HW154624   2.997   5.809   6.435  0.3057 -1.9986 -2.0521
17223SOL    HW254625   2.858   5.785   6.381 -0.6607  1.0062 -1.1054
17224SOL     OW54626   4.818   5.985   4.196  0.0426 -0.0736  0.3410
17224SOL    HW154627   4.782   5.960   4.282 -1.0667 -0.5524 -0.2444
17224SOL    HW254628   4.751   6.041   4.157 -0.0664 -0.9338 -0.7495
17225SOL     OW54629   2.128  10.642   0.004 -0.4227  0.0731 -0.2878
17225SOL    HW154630   2.091  10.554   0.012  0.3929 -0.4889 -2.1921
17225SOL    HW254631   2.072  10.696   0.060 -0.3691 -1.7890  1.7059
17226SOL     OW54632   4.906  10.016   2.755  0.3340  0.5581 -0.8448
17226SOL    HW154633   4.851   9.943   2.727 -1.3247  2.6230 -3.4313
17226SOL    HW254634   4.864  10.048   2.835  1.1911 -1.3095  0.4331
17227SOL     OW54635   0.354   9.011  10.301  0.0277 -0.0387 -0.3871
17227SOL    HW154636   0.319   8.966  10.224 -0.9579  0.2459 -0.1178
17227SOL    HW254637   0.284   9.008  10.365  0.2547  1.1196 -0.0495
17228SOL     OW54638   7.973   3.923   8.256  0.0301 -0.4382 -0.2442
17228SOL    HW154639   7.922   4.003   8.263 -1.6834 -1.2988 -1.7766
17228SOL    HW254640   7.948   3.872   8.333 -0.6345 -0.3951 -0.4207
17229SOL     OW54641   3.233   1.387  10.412 -0.8846 -0.3904 -0.4299
17229SOL    HW154642   3.290   1.365  10.486  1.1971 -0.5957 -1.9984
17229SOL    HW254643   3.201   1.475  10.432  0.6028  0.0439  0.1737
17230SOL     OW54644   1.642   1.299   1.369  0.0417  0.5260  0.2030
17230SOL    HW154645   1.686   1.379   1.340  0.6177 -0.4122 -1.6986
17230SOL    HW254646   1.671   1.286   1.459  1.2232  1.5874 -0.0005
17231SOL     OW54647  10.437  10.413   7.190  0.4513  0.2404  0.0359
17231SOL    HW154648  10.513  10.369   7.150  0.2024 -0.4020  0.2650
17231SOL    HW254649  10.367  10.348   7.187 -0.6084  1.3757 -1.7400
17232SOL     OW54650  10.140   2.995   5.270 -0.3620 -0.3305  0.3406
17232SOL    HW154651  10.151   2.943   5.350  1.3812 -1.5465 -0.6258
17232SOL    HW254652  10.200   2.955   5.207  1.0215  2.7874 -0.4998
17233SOL     OW54653   5.613   6.406   7.507 -0.1006  0.3237 -0.0572
17233SOL    HW154654   5.571   6.363   7.582  0.0381  0.2839 -0.0025
17233SOL    HW254655   5.652   6.485   7.544 -0.3816  0.5127 -0.1631
17234SOL     OW54656   0.165   4.369  10.585  0.2138 -0.1656 -0.5235
17234SOL    HW154657   0.255   4.359  10.554  0.0337 -0.3901 -0.9894
17234SOL    HW254658   0.139   4.456  10.556  0.2676 -0.1192 -0.4309
17235SOL     OW54659   8.428   5.238   8.671 -0.1205 -0.0244  0.1745
17235SOL    HW154660   8.366   5.172   8.640 -0.8218 -0.0834  1.5861
17235SOL    HW254661   8.409   5.315   8.618 -3.4837  0.8865  2.3361
17236SOL     OW54662   9.708  10.226   1.498 -0.0283  0.5029 -0.0864
17236SOL    HW154663   9.785  10.268   1.536  0.6894  0.8026 -1.7926
17236SOL    HW254664   9.637  10.288   1.513  0.3427  0.8322  0.3313
17237SOL     OW54665   3.469   1.720  10.121 -0.6860 -0.0242  0.3260
17237SOL    HW154666   3.495   1.810  10.103  0.3229 -0.2708  0.4715
17237SOL    HW254667   3.396   1.728  10.182  0.1252  0.6901  1.2461
17238SOL     OW54668  10.404   3.894   3.469 -0.4197  0.2303 -0.2006
17238SOL    HW154669  10.425   3.970   3.415  1.9780 -0.8847 -0.9869
17238SOL    HW254670  10.395   3.928   3.558  1.9347  1.3081 -0.3205
17239SOL     OW54671   2.436   9.004   8.491  0.3779 -0.1594 -0.0176
17239SOL    HW154672   2.429   8.979   8.582 -2.2732  1.3739  0.3022
17239SOL    HW254673   2.524   9.041   8.483  0.9919 -1.1686  1.6479
17240SOL     OW54674   2.506   9.730   4.302 -0.0282  0.1942 -0.1047
17240SOL    HW154675   2.591   9.762   4.270 -0.0611  0.8198  0.3962
17240SOL    HW254676   2.463   9.809   4.335 -0.2704 -0.3157  0.8223
17241SOL     OW54677   1.254   1.265   5.109  0.2265  0.5569 -0.2056
17241SOL    HW154678   1.201   1.253   5.188 -0.8295  0.6133 -0.8921
17241SOL    HW254679   1.241   1.357   5.085 -1.4592 -0.0332 -1.8116
17242SOL     OW54680   6.675   8.504   2.247 -0.0595 -0.3609  0.4482
17242SOL    HW154681   6.602   8.469   2.196 -0.2310 -1.1135  1.1897
17242SOL    HW254682   6.687   8.593   2.213 -2.2302  0.2922  1.2314
17243SOL     OW54683   3.281   2.920   0.059  1.1635 -0.4660  0.0626
17243SOL    HW154684   3.230   2.999   0.079 -0.8657 -1.9281  0.9214
17243SOL    HW254685   3.331   2.903   0.139  1.1748 -0.3974  0.0709
17244SOL     OW54686   4.524   5.871   3.213 -0.6348 -0.4008 -0.1807
17244SOL    HW154687   4.557   5.792   3.256 -0.5004 -0.7277 -0.8764
17244SOL    HW254688   4.434   5.880   3.245  0.2147  0.7689  2.1225
17245SOL     OW54689  10.034   6.796   8.899 -0.3200  0.4916 -0.3115
17245SOL    HW154690  10.074   6.873   8.941  0.1958  0.1682 -0.2000
17245SOL    HW254691   9.966   6.832   8.842 -1.1698  0.9369  0.9427
17246SOL     OW54692   9.665   9.481   8.142 -0.0090  0.2869  0.0003
17246SOL    HW154693   9.669   9.440   8.228 -1.6605 -1.2020 -0.5833
17246SOL    HW254694   9.617   9.563   8.156  1.9765  1.3853  0.8930
17247SOL     OW54695   4.378   3.617   8.814  0.5644 -0.5977 -0.0118
17247SOL    HW154696   4.344   3.585   8.731 -1.3221  1.2473 -0.0391
17247SOL    HW254697   4.465   3.651   8.793 -0.5113  1.3511 -1.6606
17248SOL     OW54698   3.305   0.171   5.936  0.7239  0.5659 -0.5664
17248SOL    HW154699   3.247   0.095   5.940  0.5674  0.6613 -0.9419
17248SOL    HW254700   3.351   0.161   5.852 -0.3176  1.6193 -1.2903
17249SOL     OW54701  10.578   8.667   8.679 -0.2047  0.2697  0.1275
17249SOL    HW154702  10.485   8.686   8.663  0.3857  2.5769 -1.0231
17249SOL    HW254703  10.595   8.701   8.767 -0.1770  1.0919 -0.1845
17250SOL     OW54704   0.854   9.816   6.561  0.5537 -0.1712  0.2978
17250SOL    HW154705   0.922   9.769   6.608  0.6809  1.7652  2.1664
17250SOL    HW254706   0.888   9.904   6.550 -0.7767  0.2529 -0.6795
17251SOL     OW54707   4.024   1.678   6.560  0.1121 -0.4254 -0.3871
17251SOL    HW154708   4.038   1.616   6.489 -1.2389  0.5085 -1.5137
17251SOL    HW254709   3.936   1.713   6.545  0.8425  1.7919  0.1790
17252SOL     OW54710   8.218   3.724   4.981 -0.0830 -0.6617 -0.4440
17252SOL    HW154711   8.223   3.797   4.919  2.3411 -2.2006 -2.2318
17252SOL    HW254712   8.171   3.655   4.934 -1.4596 -0.6676  0.8593
17253SOL     OW54713   3.008  10.094   1.219  0.1366  0.4768 -0.5937
17253SOL    HW154714   3.064  10.170   1.202  0.3980  0.4981  0.3109
17253SOL    HW254715   3.027  10.069   1.309  1.9305 -2.2324 -1.6057
17254SOL     OW54716   0.792   0.305   6.133 -0.3698 -0.1606  0.3313
17254SOL    HW154717   0.750   0.361   6.198 -0.6307 -0.0217  0.0469
17254SOL    HW254718   0.720   0.276   6.077 -0.1361 -0.2300  0.0673
17255SOL     OW54719   0.085   1.681   4.784 -0.3759 -0.4550 -0.2552
17255SOL    HW154720   0.152   1.696   4.717  0.5090  0.0399  0.7177
17255SOL    HW254721   0.036   1.605   4.752  2.3499 -2.5917  0.2701
17256SOL     OW54722   7.355   9.652   0.883 -0.4675  0.8016 -0.0470
17256SOL    HW154723   7.270   9.691   0.861 -0.5071 -0.2043 -1.7927
17256SOL    HW254724   7.411   9.672   0.808  1.0555  1.9026  1.2901
17257SOL     OW54725   4.749   0.912   0.933  0.1617  0.9521  0.1975
17257SOL    HW154726   4.734   0.860   1.012  0.4155 -1.4924 -1.2459
17257SOL    HW254727   4.842   0.935   0.936 -0.2136  2.5359  1.4611
17258SOL     OW54728   6.595   9.320   4.584 -0.0381 -0.4410  0.2184
17258SOL    HW154729   6.613   9.226   4.578 -1.4024 -0.6597 -1.4846
17258SOL    HW254730   6.671   9.362   4.544  1.0531 -0.7124  1.9041
17259SOL     OW54731   0.475   4.684   5.823  0.6473  0.4788  0.0501
17259SOL    HW154732   0.502   4.634   5.746 -1.1586 -0.4654 -0.0245
17259SOL    HW254733   0.380   4.692   5.814  0.7911  3.6991  0.2364
17260SOL     OW54734   4.745   4.321   7.159  0.3136 -0.2449  0.1694
17260SOL    HW154735   4.687   4.283   7.093  0.8375 -1.1197  0.2005
17260SOL    HW254736   4.719   4.278   7.240 -0.0914  0.5737  0.4816
17261SOL     OW54737   6.813  10.603   2.043 -0.0975  0.0246  0.3264
17261SOL    HW154738   6.868  10.667   1.999 -0.6206  0.7674  0.7223
17261SOL    HW254739   6.821  10.523   1.991  1.0232  0.2390  0.1578
17262SOL     OW54740  10.187   4.680   0.601  0.3654 -0.1981 -0.1048
17262SOL    HW154741  10.144   4.712   0.521 -0.4038 -1.7765 -0.3641
17262SOL    HW254742  10.128   4.706   0.672 -0.4748 -1.3541 -0.3535
17263SOL     OW54743   4.951   6.442   0.718  0.1187 -0.0624  0.5904
17263SOL    HW154744   5.029   6.391   0.741  0.7133  0.5598 -0.0115
17263SOL    HW254745   4.975   6.489   0.639 -0.6013  0.7576  0.8443
17264SOL     OW54746   5.941   2.153   8.988  0.0964  0.5975  0.0583
17264SOL    HW154747   6.036   2.138   8.991 -0.0069 -0.0344  0.2567
17264SOL    HW254748   5.919   2.179   9.077  0.1359  1.0828 -0.0716
17265SOL     OW54749   5.157   6.793   3.194  0.4481  0.2111  0.3314
17265SOL    HW154750   5.114   6.850   3.130  1.5674  0.4863 -0.2093
17265SOL    HW254751   5.121   6.706   3.177 -0.3758  0.5393  0.3494
17266SOL     OW54752   6.799   6.475   8.791 -0.0416 -0.3354 -0.0892
17266SOL    HW154753   6.839   6.391   8.814 -1.0193 -0.7793  0.0188
17266SOL    HW254754   6.733   6.490   8.859  1.2618  1.3695  0.8895
17267SOL     OW54755   3.758   6.891   9.900  0.5028  0.0209 -0.0675
17267SOL    HW154756   3.719   6.943   9.971  0.8548  0.4948 -0.2157
17267SOL    HW254757   3.844   6.931   9.886  0.5592 -0.2655 -0.5515
17268SOL     OW54758   4.128   9.623   4.109  0.2612  0.3808  0.0749
17268SOL    HW154759   4.081   9.548   4.071  0.5674 -0.2600  0.9309
17268SOL    HW254760   4.110   9.695   4.049  1.2247 -0.7269 -1.6146
17269SOL     OW54761   6.758   4.989   0.236  0.5685  0.5049 -0.0562
17269SOL    HW154762   6.759   5.027   0.148  0.8287  0.9246  0.1286
17269SOL    HW254763   6.804   5.052   0.290  0.9405 -0.0415  0.2680
17270SOL     OW54764  10.267   8.563   2.861  0.1522 -0.1466 -0.4309
17270SOL    HW154765  10.328   8.553   2.934  1.1145 -2.0266 -1.4261
17270SOL    HW254766  10.310   8.520   2.787 -0.6410  1.9729 -2.2402
17271SOL     OW54767   5.580   0.936   2.498 -0.3070  0.0428 -0.4765
17271SOL    HW154768   5.577   0.936   2.593  1.8204  0.3496 -0.3731
17271SOL    HW254769   5.562   1.027   2.473 -0.2299  0.0969 -0.3344
17272SOL     OW54770   4.850   1.661   3.105 -0.1251  0.1834 -0.2730
17272SOL    HW154771   4.829   1.574   3.072 -1.5723 -0.3380  1.7803
17272SOL    HW254772   4.870   1.647   3.198 -0.2809  2.0179  0.0850
17273SOL     OW54773   5.893   4.449   0.095  0.3831  0.5175 -0.2083
17273SOL    HW154774   5.934   4.365   0.071  1.4688  1.3776 -1.5051
17273SOL    HW254775   5.827   4.463   0.027 -2.6994 -1.1619  2.2042
17274SOL     OW54776   9.468   7.717   3.887  0.3108  0.0133 -0.5534
17274SOL    HW154777   9.439   7.776   3.957  3.1411  0.2661  0.5080
17274SOL    HW254778   9.433   7.631   3.912  0.2058  0.3440  0.4828
17275SOL     OW54779  10.151   3.793   7.343  0.1946 -0.0749 -0.8312
17275SOL    HW154780  10.212   3.765   7.411  1.6536  2.1681 -1.1324
17275SOL    HW254781  10.074   3.737   7.356  0.8683 -0.5217  1.8868
17276SOL     OW54782   3.967  10.440   8.598  0.2071  0.6639 -0.4182
17276SOL    HW154783   4.034  10.428   8.530  0.7416  0.3063  0.1547
17276SOL    HW254784   3.997  10.384   8.670 -0.5243  0.7863 -0.0150
17277SOL     OW54785   9.517   9.519   2.530 -0.3010 -0.4577  0.2550
17277SOL    HW154786   9.594   9.539   2.477  0.6418  0.0213  1.7562
17277SOL    HW254787   9.444   9.525   2.468  0.6843  0.7392 -0.8666
17278SOL     OW54788   8.091   7.396   3.834 -0.2957 -0.1524  0.1467
17278SOL    HW154789   8.011   7.344   3.842  1.0896 -2.1510  3.0775
17278SOL    HW254790   8.088   7.457   3.907  1.7355 -1.8268  1.7788
17279SOL     OW54791   3.464   8.955   2.195  0.0074 -0.1622  0.3905
17279SOL    HW154792   3.541   9.011   2.189  2.2446 -2.7165  2.9284
17279SOL    HW254793   3.489   8.873   2.152 -1.4867 -0.9025  0.8406
17280SOL     OW54794   1.275   2.390   6.145  0.5565  0.4270 -0.2056
17280SOL    HW154795   1.364   2.414   6.121  0.5115  0.3764 -0.4252
17280SOL    HW254796   1.220   2.433   6.079  0.4379  0.2202 -0.2426
17281SOL     OW54797   2.572   9.346   8.982 -0.2535 -0.4738 -0.4109
17281SOL    HW154798   2.561   9.301   9.066 -1.6573 -0.0881 -0.3598
17281SOL    HW254799   2.635   9.417   9.002  0.1086 -0.9209  0.0842
17282SOL     OW54800   4.578   7.634   3.029  0.1342 -0.0315 -0.4090
17282SOL    HW154801   4.637   7.601   2.961 -2.2795 -1.6976 -1.8473
17282SOL    HW254802   4.572   7.728   3.012  0.4160 -0.2513 -1.8361
17283SOL     OW54803   4.732   0.231   0.757 -0.3030 -0.5729 -0.9131
17283SOL    HW154804   4.752   0.192   0.842 -0.3770 -0.2750 -0.7557
17283SOL    HW254805   4.730   0.158   0.696 -2.3986 -1.0837 -0.2968
17284SOL     OW54806   3.447   6.539   9.850 -0.4793  0.0724  0.4494
17284SOL    HW154807   3.409   6.573   9.770 -0.7309 -0.4039  0.3602
17284SOL    HW254808   3.522   6.487   9.821 -1.2557 -1.0603  0.4201
17285SOL     OW54809   2.644   1.288  10.546 -0.5549 -0.0592 -0.2920
17285SOL    HW154810   2.675   1.294  10.456 -0.4646 -0.3773 -0.2827
17285SOL    HW254811   2.548   1.292  10.539 -0.8720 -4.2866 -0.8150
17286SOL     OW54812   2.348   8.008   0.290 -0.2184  0.2653 -0.3893
17286SOL    HW154813   2.431   7.966   0.312 -2.0112 -2.5183  1.8765
17286SOL    HW254814   2.316   7.959   0.214 -0.5603  0.0901 -0.1388
17287SOL     OW54815   3.374   6.143   7.388 -0.3477 -0.2617 -0.2080
17287SOL    HW154816   3.347   6.155   7.297 -1.8310 -1.3652  0.0589
17287SOL    HW254817   3.293   6.149   7.439  0.3469 -0.4401  0.9694
17288SOL     OW54818   4.769   2.597   0.444 -0.3013  0.0265  0.2487
17288SOL    HW154819   4.734   2.683   0.465  2.1535  1.2373 -0.2466
17288SOL    HW254820   4.798   2.604   0.353  1.4636 -0.7458  0.7005
17289SOL     OW54821   0.243   9.109   3.263 -0.0777 -0.0250  0.1268
17289SOL    HW154822   0.255   9.032   3.318 -0.3386 -0.2207 -0.0898
17289SOL    HW254823   0.180   9.082   3.196 -0.9121  0.6595  0.6146
17290SOL     OW54824   2.085   8.971   3.939 -0.0439 -0.5923 -0.0849
17290SOL    HW154825   2.087   9.035   4.011 -0.5958 -1.0821  0.3861
17290SOL    HW254826   2.125   8.892   3.977 -0.4452 -0.8892 -0.2695
17291SOL     OW54827   5.306   5.809   3.118 -0.0923 -0.4575  0.0755
17291SOL    HW154828   5.394   5.814   3.080  0.3684  0.4262  1.2251
17291SOL    HW254829   5.251   5.860   3.058  0.6584  1.0468  0.6256
17292SOL     OW54830   8.999   0.846   4.724 -0.1544  0.3538 -0.1118
17292SOL    HW154831   9.094   0.831   4.724 -0.2685 -0.5052 -0.6641
17292SOL    HW254832   8.965   0.779   4.664 -0.9529  1.6405 -1.1568
17293SOL     OW54833   8.052   9.562   2.305 -0.4126  0.1829  0.2686
17293SOL    HW154834   8.117   9.625   2.274 -0.6767  0.8363  0.9957
17293SOL    HW254835   8.097   9.512   2.374 -0.5063  0.2601  0.3877
17294SOL     OW54836   7.827   6.669   5.355 -0.0347 -0.0005 -0.0654
17294SOL    HW154837   7.739   6.683   5.391  0.3853 -1.3230  1.5870
17294SOL    HW254838   7.836   6.737   5.288 -1.3391  1.8489  1.4917
17295SOL     OW54839   2.548   4.025   4.726  0.2362 -0.4798 -0.5874
17295SOL    HW154840   2.520   4.115   4.713 -0.4756 -0.9751 -2.8407
17295SOL    HW254841   2.482   3.987   4.785 -1.8002 -0.5639 -2.7688
17296SOL     OW54842   6.393   0.516   5.662  0.2100 -0.4903  0.0347
17296SOL    HW154843   6.369   0.444   5.721  1.5456 -1.3412 -0.3943
17296SOL    HW254844   6.377   0.595   5.712 -2.8977 -0.9423 -0.0374
17297SOL     OW54845   9.761   7.418   6.805  0.3160  0.0262 -0.0776
17297SOL    HW154846   9.669   7.439   6.787  0.4425  0.5501 -0.1123
17297SOL    HW254847   9.757   7.338   6.857 -0.1742  0.2171  0.1865
17298SOL     OW54848   2.494   4.492   8.880 -0.1353  0.5214  0.0740
17298SOL    HW154849   2.581   4.514   8.846 -0.5642  1.0506 -0.6995
17298SOL    HW254850   2.509   4.416   8.935  0.9540  1.0948  0.6133
17299SOL     OW54851   7.371   4.961   0.067  0.0579  0.4571  0.2257
17299SOL    HW154852   7.412   5.041   0.101  0.1643  0.2363  0.6209
17299SOL    HW254853   7.366   4.976  -0.027  3.5720 -0.6082 -0.2885
17300SOL     OW54854   2.135   7.356   3.358  0.3604 -0.5662  0.3232
17300SOL    HW154855   2.188   7.428   3.392 -0.8008 -0.1299  1.2380
17300SOL    HW254856   2.124   7.297   3.432 -0.6026 -0.5516  0.1990
17301SOL     OW54857   4.009   1.344   8.763  0.0179 -0.1736 -0.0235
17301SOL    HW154858   4.032   1.436   8.775  0.0669 -0.2452  0.4481
17301SOL    HW254859   4.078   1.309   8.707  1.3524 -0.4970  1.7325
17302SOL     OW54860   8.670   9.146   2.911  0.2886  0.4870  0.0747
17302SOL    HW154861   8.663   9.182   2.822 -0.6429  0.7773  0.2604
17302SOL    HW254862   8.582   9.153   2.947  0.9774  1.9328  1.6338
17303SOL     OW54863  10.508   4.593   8.198  0.2248  0.0491  1.1262
17303SOL    HW154864  10.520   4.674   8.248  0.8648  0.3777  0.4629
17303SOL    HW254865  10.527   4.523   8.261 -0.3563  0.4028  1.7121
17304SOL     OW54866   3.282   4.438   3.800 -0.1208 -0.1022  0.2142
17304SOL    HW154867   3.291   4.486   3.883  0.2914 -1.4425  0.9823
17304SOL    HW254868   3.314   4.499   3.734  0.5433  0.6277  1.1710
17305SOL     OW54869   6.255   1.158   4.279  0.3744  0.5132 -0.0040
17305SOL    HW154870   6.309   1.151   4.200 -0.6356  2.6901 -0.9759
17305SOL    HW254871   6.295   1.229   4.329 -1.7164  2.4625 -0.9450
17306SOL     OW54872   1.241   6.184   1.836  0.5107 -0.2096 -0.0757
17306SOL    HW154873   1.277   6.261   1.791  0.0898  0.5851  0.9033
17306SOL    HW254874   1.196   6.135   1.767 -0.0597  0.9371 -0.5577
17307SOL     OW54875   8.369   0.248   2.365 -0.5399  0.9381 -0.7825
17307SOL    HW154876   8.431   0.321   2.367 -0.2538  0.6836  0.6274
17307SOL    HW254877   8.401   0.190   2.296  2.5161 -0.6400  1.7098
17308SOL     OW54878   7.474   3.016   4.853 -0.3914  0.3511 -0.9982
17308SOL    HW154879   7.446   3.103   4.825  0.0582  0.9523  0.3543
17308SOL    HW254880   7.401   2.983   4.906 -0.4673 -0.0287 -1.3248
17309SOL     OW54881   9.227   5.739   9.248 -0.5332 -0.5300 -0.3325
17309SOL    HW154882   9.158   5.779   9.195  0.1056  0.1603 -0.6607
17309SOL    HW254883   9.249   5.659   9.201 -0.8885 -0.5895 -0.4016
17310SOL     OW54884   0.957   1.870   7.977 -0.0238 -0.5197  0.1689
17310SOL    HW154885   0.901   1.794   7.961  1.8595 -1.8181 -0.5576
17310SOL    HW254886   0.989   1.895   7.890 -0.1346  0.7514  0.4702
17311SOL     OW54887   4.578   4.757   1.305  0.1369  0.3915  0.2574
17311SOL    HW154888   4.495   4.802   1.289  0.2407 -0.0033 -1.5925
17311SOL    HW254889   4.553   4.680   1.357 -0.8345 -0.2252 -1.0541
17312SOL     OW54890   3.684   2.592   7.175 -0.1612 -0.1239  0.5663
17312SOL    HW154891   3.749   2.543   7.226 -0.4404 -1.2969 -0.1804
17312SOL    HW254892   3.731   2.670   7.146  0.3821 -0.0727  1.5159
17313SOL     OW54893   0.772   4.247   4.409  0.1388 -0.1357 -0.6537
17313SOL    HW154894   0.755   4.159   4.444  0.2241 -0.2888 -0.9941
17313SOL    HW254895   0.821   4.231   4.328 -1.7143  0.1193 -1.8860
17314SOL     OW54896   7.212   6.229   4.677  0.5401  0.5010 -0.3455
17314SOL    HW154897   7.123   6.262   4.679  0.2603 -0.1858 -1.1107
17314SOL    HW254898   7.265   6.300   4.713 -0.1223  1.5227 -1.3469
17315SOL     OW54899   4.735   7.449   7.665  0.0589  0.0914 -0.1891
17315SOL    HW154900   4.791   7.522   7.693 -0.5875  0.4596  0.1606
17315SOL    HW254901   4.701   7.475   7.580 -0.0636  0.1376 -0.1260
17316SOL     OW54902   2.889  10.185   2.244 -0.0993  0.0741 -0.4445
17316SOL    HW154903   2.820  10.195   2.310 -0.4927  1.2298 -1.0103
17316SOL    HW254904   2.873  10.098   2.206  0.3096 -0.7487  1.1541
17317SOL     OW54905   7.328   7.912   3.416  1.0191  0.0725  0.5285
17317SOL    HW154906   7.273   7.837   3.393  0.8891  0.0737  0.8250
17317SOL    HW254907   7.418   7.880   3.407  0.9822  0.1978 -0.3862
17318SOL     OW54908   4.660   6.456   5.362  0.0998 -0.4006 -0.1160
17318SOL    HW154909   4.631   6.379   5.411 -0.9845 -0.5154 -0.9131
17318SOL    HW254910   4.735   6.425   5.311  0.6649 -0.5069  0.7501
17319SOL     OW54911   5.177   4.353  10.195 -0.0246  0.0990  0.2720
17319SOL    HW154912   5.155   4.417  10.127 -2.0423  1.4936  2.1235
17319SOL    HW254913   5.139   4.271  10.164  1.3321  0.0535 -1.4440
17320SOL     OW54914   1.139   6.583   6.304  0.3205 -0.5569  0.2779
17320SOL    HW154915   1.068   6.634   6.265  1.2824  1.0299  0.4764
17320SOL    HW254916   1.214   6.599   6.246  0.9302 -0.8185  0.9769
17321SOL     OW54917   1.245  10.146   6.537  0.2033  0.2055 -0.0031
17321SOL    HW154918   1.221  10.134   6.446  0.6875  1.2835 -0.2943
17321SOL    HW254919   1.170  10.191   6.576  1.4641  3.3654 -0.8584
17322SOL     OW54920   4.943   6.326   1.988 -0.1395 -0.3994  0.1176
17322SOL    HW154921   4.942   6.238   2.026  0.2032 -0.6412 -0.4211
17322SOL    HW254922   5.029   6.333   1.946 -0.4757 -0.1032 -0.5386
17323SOL     OW54923   8.849   6.850   6.133 -0.1376 -0.1010  0.1560
17323SOL    HW154924   8.821   6.765   6.168 -1.0819  0.1778  0.1195
17323SOL    HW254925   8.836   6.911   6.206  1.9170 -0.2021  0.6587
17324SOL     OW54926   4.240   8.502   1.431  0.2746 -0.8475 -0.4328
17324SOL    HW154927   4.187   8.580   1.415 -1.5180 -1.4495  2.0904
17324SOL    HW254928   4.191   8.431   1.390 -1.0306 -1.4221  1.9858
17325SOL     OW54929   5.258   9.250   8.368 -0.0544 -0.8819 -0.3366
17325SOL    HW154930   5.225   9.244   8.458  1.9055 -0.0775  0.4991
17325SOL    HW254931   5.311   9.172   8.357  1.3992  0.0242 -0.0131
17326SOL     OW54932   2.336   3.143   7.525  0.1403  0.1617  0.2270
17326SOL    HW154933   2.332   3.176   7.435  0.1147  1.0609  0.5458
17326SOL    HW254934   2.417   3.092   7.528 -0.7127 -1.3135 -0.7587
17327SOL     OW54935   1.833   8.949   6.795  0.1667 -0.1437  0.1853
17327SOL    HW154936   1.924   8.971   6.818  0.9732 -0.0671 -2.6596
17327SOL    HW254937   1.840   8.902   6.712 -2.3095 -1.8159  0.8200
17328SOL     OW54938   4.520   4.980   6.770 -0.3532  0.1096 -0.2906
17328SOL    HW154939   4.551   5.043   6.836 -1.6304  0.5163 -0.0669
17328SOL    HW254940   4.587   4.984   6.701 -0.5044  1.8726 -0.3845
17329SOL     OW54941   1.743   3.094   2.927  0.2056 -0.4704  0.1308
17329SOL    HW154942   1.774   3.182   2.945 -2.5029  0.5892  0.1372
17329SOL    HW254943   1.712   3.062   3.012 -0.1326 -0.8634 -0.1400
17330SOL     OW54944   1.505   9.227   6.588 -0.2589 -0.3071 -0.6983
17330SOL    HW154945   1.413   9.226   6.560 -0.5010 -2.4627 -0.0198
17330SOL    HW254946   1.541   9.145   6.554  1.0311 -0.1658  0.2578
17331SOL     OW54947   2.167   7.903   4.276  0.3569  0.2316 -0.0074
17331SOL    HW154948   2.178   7.808   4.272  3.7201  0.5672 -2.8259
17331SOL    HW254949   2.235   7.938   4.219 -3.3960  4.2278 -2.6619
17332SOL     OW54950   4.694   9.820   2.654  0.1315 -0.0850 -0.2866
17332SOL    HW154951   4.746   9.741   2.642  0.0774  0.1473 -2.2628
17332SOL    HW254952   4.631   9.797   2.722  0.7465 -1.4020 -0.1373
17333SOL     OW54953   0.120   1.937   1.896 -0.3191  0.2499  0.2757
17333SOL    HW154954   0.148   1.915   1.807  1.0998  0.3682  0.6561
17333SOL    HW254955   0.050   2.000   1.884 -1.7171 -1.4225 -0.7724
17334SOL     OW54956   5.325   4.229   0.554  0.4605 -0.1077 -0.4527
17334SOL    HW154957   5.249   4.285   0.541  0.0080 -0.0856  1.8043
17334SOL    HW254958   5.391   4.287   0.592  0.3287 -0.8526  0.9763
17335SOL     OW54959   3.467   1.277   1.024 -0.2907  0.5095  0.5461
17335SOL    HW154960   3.420   1.253   0.944  0.9829 -1.1024  0.2288
17335SOL    HW254961   3.410   1.340   1.067 -2.8998 -1.5401  0.3496
17336SOL     OW54962   1.494   7.001   9.827 -0.1448 -0.4551  0.2249
17336SOL    HW154963   1.501   7.096   9.836 -1.4640 -0.3425  0.1895
17336SOL    HW254964   1.424   6.987   9.764 -1.2170 -1.4653  1.5728
17337SOL     OW54965   7.949   9.907   2.576  0.5196  0.4746  0.8739
17337SOL    HW154966   8.031   9.952   2.557  2.0274 -1.6499  2.0221
17337SOL    HW254967   7.921   9.943   2.660  0.4920  0.8796  0.6946
17338SOL     OW54968   5.338   6.499   8.213  0.0664  0.0719  0.6566
17338SOL    HW154969   5.252   6.534   8.236 -0.2067  0.4498 -0.8553
17338SOL    HW254970   5.378   6.567   8.159  1.7563  0.3407  2.1740
17339SOL     OW54971   2.486   9.903   7.115 -0.5783  0.2400  0.6901
17339SOL    HW154972   2.508   9.913   7.023 -0.4570  3.1101  0.9439
17339SOL    HW254973   2.392   9.922   7.119 -1.0491 -1.9174  0.9387
17340SOL     OW54974   2.014   0.378   3.439  0.2597 -0.1855 -0.1243
17340SOL    HW154975   2.085   0.442   3.448  0.4712 -0.3978 -0.2858
17340SOL    HW254976   1.989   0.384   3.347 -1.4580  1.5141  0.3864
17341SOL     OW54977   0.651   9.894   8.068 -0.2588  0.2259 -0.6212
17341SOL    HW154978   0.599   9.898   7.987  2.1334 -1.6025 -2.4239
17341SOL    HW254979   0.647   9.802   8.094 -2.4496  1.0739  2.5286
17342SOL     OW54980   4.430   5.037   4.924  0.2428  0.0216 -0.5346
17342SOL    HW154981   4.424   4.944   4.946  0.7291 -0.6875 -3.1383
17342SOL    HW254982   4.340   5.063   4.904 -0.1482  0.5847  1.6913
17343SOL     OW54983   9.527   2.144   7.066  0.3181 -0.1256  0.0036
17343SOL    HW154984   9.614   2.178   7.090  0.1644  0.4919 -0.2857
17343SOL    HW254985   9.506   2.081   7.135  1.2592 -0.7329 -0.2443
17344SOL     OW54986   8.119   2.265  10.457  0.1380  0.4688 -0.0804
17344SOL    HW154987   8.195   2.260  10.399  0.4558 -2.4758  0.4059
17344SOL    HW254988   8.146   2.217  10.535 -2.1941 -0.6761  0.0906
17345SOL     OW54989   3.466   2.911   5.789  0.6384  0.1015  0.4281
17345SOL    HW154990   3.497   2.971   5.721  1.1261  0.2182  0.7463
17345SOL    HW254991   3.545   2.864   5.817  0.3108 -0.4783  0.3897
17346SOL     OW54992   8.477   4.063   2.480  0.7896 -0.8519 -0.7473
17346SOL    HW154993   8.386   4.073   2.453  1.0024  2.0861 -0.6783
17346SOL    HW254994   8.472   4.050   2.575  0.4373 -1.3598 -0.8299
17347SOL     OW54995   8.405   4.062   9.317  0.2809 -0.0945  0.4413
17347SOL    HW154996   8.484   4.115   9.305  0.2001  0.2516  1.3580
17347SOL    HW254997   8.351   4.112   9.377  0.5070 -1.5264  1.9146
17348SOL     OW54998   0.165   5.856   1.746  0.2179  0.2869 -0.2320
17348SOL    HW154999   0.182   5.783   1.805  0.3793 -0.4435 -1.1539
17348SOL    HW255000   0.136   5.815   1.664 -3.2930  1.3636  0.3188
17349SOL     OW55001   3.856   8.995   8.869 -0.3768  0.2146  0.3731
17349SOL    HW155002   3.912   9.069   8.846 -0.8650  0.2338 -0.8397
17349SOL    HW255003   3.767   9.033   8.871 -0.4415  0.0191  1.4580
17350SOL     OW55004   6.916   2.903   2.618  0.2022  0.5445 -0.3286
17350SOL    HW155005   6.828   2.942   2.616 -0.3268 -0.5831  0.0130
17350SOL    HW255006   6.964   2.949   2.549 -0.4040  1.7354  0.0075
17351SOL     OW55007   3.236   0.370   6.797 -0.7544  0.0872 -0.1550
17351SOL    HW155008   3.245   0.440   6.863 -0.5036 -0.4964  0.4456
17351SOL    HW255009   3.214   0.292   6.848  1.4522 -0.8411 -0.5241
17352SOL     OW55010   3.462   0.618   7.489 -0.1873 -0.0653  0.2250
17352SOL    HW155011   3.548   0.660   7.484 -0.6177  0.6839 -2.4638
17352SOL    HW255012   3.477   0.539   7.541  2.5824 -0.9740 -1.7355
17353SOL     OW55013   2.138   1.181   7.476 -0.6879 -0.5738 -0.0831
17353SOL    HW155014   2.099   1.128   7.407  0.0854 -1.0189 -0.1930
17353SOL    HW255015   2.082   1.166   7.552 -1.7223  0.1580 -0.6736
17354SOL     OW55016   5.332   4.809   5.003 -0.3882 -0.2167  0.8270
17354SOL    HW155017   5.347   4.894   4.963 -0.0767 -1.2874 -1.5365
17354SOL    HW255018   5.280   4.761   4.939  0.4395 -2.1908  1.5281
17355SOL     OW55019   6.026   6.570   8.522 -0.5125  0.2524 -0.0578
17355SOL    HW155020   5.952   6.616   8.560 -0.1212  0.7942  0.0652
17355SOL    HW255021   6.092   6.638   8.509 -0.6092  0.0809 -1.6551
17356SOL     OW55022   7.046   8.231   3.527 -0.3095 -0.0764  0.4017
17356SOL    HW155023   7.034   8.326   3.531  1.5162  0.3133 -1.6583
17356SOL    HW255024   6.960   8.198   3.501 -0.0800  1.5069 -2.9892
17357SOL     OW55025   8.315   3.387  10.314 -0.2132 -0.3326 -0.2349
17357SOL    HW155026   8.293   3.302  10.352 -2.4889  0.4091  0.2388
17357SOL    HW255027   8.350   3.438  10.387  1.2901 -0.8464 -0.5488
17358SOL     OW55028   3.636  10.618   7.222  0.1359 -0.5718  0.0622
17358SOL    HW155029   3.643  10.575   7.307  0.6841 -2.1366 -0.7239
17358SOL    HW255030   3.673  10.555   7.160  1.8038  1.4061 -1.0881
17359SOL     OW55031   7.964  10.647   4.419 -0.4457  0.3436  0.1144
17359SOL    HW155032   7.923  10.569   4.455 -0.0290 -0.2013 -0.5777
17359SOL    HW255033   8.029  10.673   4.485  0.2697 -0.6070 -0.1974
17360SOL     OW55034   7.727   1.312   7.896 -0.0893 -0.0932 -0.1192
17360SOL    HW155035   7.750   1.221   7.916 -0.9465 -0.2610  0.1129
17360SOL    HW255036   7.664   1.306   7.825 -1.3134  0.2308  0.9090
17361SOL     OW55037   8.111   8.739   4.156 -0.1164  0.1014  0.0735
17361SOL    HW155038   8.189   8.793   4.162  1.1603 -1.5085 -1.0185
17361SOL    HW255039   8.111   8.706   4.066 -2.0168 -0.0210  0.0653
17362SOL     OW55040   1.525   9.939  10.183  0.3074  0.1402  0.1346
17362SOL    HW155041   1.536  10.032  10.165  1.6767 -0.4284 -2.4141
17362SOL    HW255042   1.612   9.902  10.175 -0.2740 -1.4522  0.6727
17363SOL     OW55043  10.056   3.452   4.694 -0.1314 -0.9822 -0.3156
17363SOL    HW155044  10.116   3.461   4.620  2.0997 -0.7555  1.4251
17363SOL    HW255045  10.038   3.358   4.699 -1.4344 -0.8770 -1.8966
17364SOL     OW55046   9.576   4.102   8.137  0.2715  0.0323  0.2607
17364SOL    HW155047   9.580   4.007   8.145 -0.1929  0.1642  3.1043
17364SOL    HW255048   9.492   4.120   8.095  0.1638 -0.7887  0.1245
17365SOL     OW55049   8.891   4.631   1.064  0.8422  0.0165  0.2149
17365SOL    HW155050   8.935   4.593   0.988 -0.8662  0.4857 -1.0667
17365SOL    HW255051   8.890   4.725   1.046  0.7159  0.1704  0.9946
17366SOL     OW55052   3.202  10.228   4.584  0.0891  0.1677 -0.1982
17366SOL    HW155053   3.224  10.321   4.594 -2.8891  1.1357 -1.5013
17366SOL    HW255054   3.107  10.226   4.584  0.0452 -3.1203  1.0934
17367SOL     OW55055   9.918   8.964   4.103  0.4048 -0.2508  0.1162
17367SOL    HW155056  10.002   8.979   4.146  0.5586 -1.1957  0.1596
17367SOL    HW255057   9.909   9.038   4.043 -0.6004  2.0476  2.8855
17368SOL     OW55058   6.692   6.756   6.635  0.2420 -0.7377 -0.0244
17368SOL    HW155059   6.788   6.750   6.633  0.2890  0.1240 -1.0656
17368SOL    HW255060   6.667   6.711   6.716  1.4914 -1.3962  0.0115
17369SOL     OW55061   3.246   7.691   5.873  0.2352  0.9691  0.4938
17369SOL    HW155062   3.330   7.736   5.884  0.2171  0.7087  1.8626
17369SOL    HW255063   3.198   7.746   5.811  1.2671  1.3150 -0.0384
17370SOL     OW55064   0.584   4.795   5.261  0.0228  0.3317 -0.0304
17370SOL    HW155065   0.651   4.853   5.223 -0.2259  1.9502  1.8327
17370SOL    HW255066   0.608   4.789   5.353 -1.3631 -0.5766  0.2881
17371SOL     OW55067   5.530   5.123   1.624 -0.4343  0.2704 -0.3330
17371SOL    HW155068   5.543   5.029   1.640 -1.1561  0.3132  0.5619
17371SOL    HW255069   5.435   5.136   1.632 -0.1087  1.5264  2.1615
17372SOL     OW55070   4.929   6.475   7.450  0.1157 -0.4012 -0.0108
17372SOL    HW155071   4.841   6.444   7.432  0.0359 -0.1171 -0.1160
17372SOL    HW255072   4.975   6.399   7.484 -0.0309 -0.6805 -0.4270
17373SOL     OW55073   7.144   3.598   7.288 -0.5950 -0.5642  0.1226
17373SOL    HW155074   7.141   3.685   7.327 -1.8665 -0.5598  0.0341
17373SOL    HW255075   7.207   3.606   7.216 -0.0745  0.0482  0.6299
17374SOL     OW55076   3.942   3.163  10.242 -0.0663 -0.6076 -0.0776
17374SOL    HW155077   3.911   3.139  10.155 -0.1080  0.5455 -0.3935
17374SOL    HW255078   3.941   3.258  10.243  2.8524 -0.4750  0.1059
17375SOL     OW55079   7.205   2.816   0.602 -0.3164 -0.6211 -0.0969
17375SOL    HW155080   7.191   2.911   0.609  0.8331 -0.4140 -0.2863
17375SOL    HW255081   7.128   2.783   0.556 -1.6050 -0.0600  1.5492
17376SOL     OW55082   9.407   6.848   3.582 -0.1456  0.3929 -0.1159
17376SOL    HW155083   9.488   6.854   3.532  0.4406 -1.7667  0.5016
17376SOL    HW255084   9.380   6.940   3.594  0.3056  1.0709 -3.2555
17377SOL     OW55085   8.090   3.033   4.191  0.4674  0.2216  0.5208
17377SOL    HW155086   8.161   3.042   4.255 -0.4810  2.2596  1.3817
17377SOL    HW255087   8.046   3.118   4.192  0.3817  0.3604 -2.8460
17378SOL     OW55088   9.174   4.452   3.005  0.2931  0.1952  0.2885
17378SOL    HW155089   9.117   4.375   3.009 -1.4146  1.2103 -1.9936
17378SOL    HW255090   9.131   4.516   3.062  1.9022 -0.5713  2.4657
17379SOL     OW55091   2.982   0.686   1.791  0.0073  0.1244 -0.8755
17379SOL    HW155092   2.913   0.725   1.738  0.2708  1.6948 -0.1450
17379SOL    HW255093   2.957   0.705   1.881  1.8224  1.6206 -0.6095
17380SOL     OW55094   3.301   2.611   4.267 -0.4002 -0.3143 -0.1268
17380SOL    HW155095   3.227   2.594   4.325 -0.3247  0.2591  0.1417
17380SOL    HW255096   3.285   2.699   4.232  0.3962  0.0141  0.3081
17381SOL     OW55097  10.582   6.799   7.117  0.1546 -0.2211 -0.7657
17381SOL    HW155098  10.620   6.804   7.029  0.3969 -0.1956 -0.6578
17381SOL    HW255099  10.493   6.767   7.102  0.4138 -0.8569 -0.9614
17382SOL     OW55100   4.012   7.123   7.113  0.0972  0.3625 -0.1226
17382SOL    HW155101   3.986   7.211   7.137 -0.1670  1.1608 -2.9762
17382SOL    HW255102   3.948   7.066   7.155 -0.0979  1.5457  1.2349
17383SOL     OW55103   8.701   8.386   6.202 -0.7880 -0.0420 -0.4893
17383SOL    HW155104   8.662   8.299   6.191 -1.5699  0.2879 -0.3741
17383SOL    HW255105   8.761   8.394   6.128  1.2441 -1.6971  0.8616
17384SOL     OW55106   8.443   3.882   9.912 -0.2491  0.2436 -0.4777
17384SOL    HW155107   8.468   3.873   9.820 -1.0092 -1.3652 -0.5590
17384SOL    HW255108   8.520   3.855   9.961  0.5612  2.2168 -0.5866
17385SOL     OW55109   3.272   2.590   9.006 -0.6532 -0.5593 -0.2970
17385SOL    HW155110   3.206   2.612   8.940 -0.2042 -0.8278 -0.8410
17385SOL    HW255111   3.296   2.675   9.044  0.1776 -0.2200 -1.5292
17386SOL     OW55112   6.104   5.583   8.880  0.3180 -0.6068  0.2644
17386SOL    HW155113   6.060   5.559   8.799  0.3068 -1.7250  0.5795
17386SOL    HW255114   6.130   5.499   8.919  0.1452 -0.1076  1.5117
17387SOL     OW55115   1.746   5.678   3.611 -0.3209 -0.2534 -0.4644
17387SOL    HW155116   1.702   5.650   3.691  0.7953 -1.9457 -0.3969
17387SOL    HW255117   1.835   5.699   3.639 -0.7983  2.4574 -0.7153
17388SOL     OW55118   4.276   6.746   6.462  0.2076  0.0389 -0.0467
17388SOL    HW155119   4.274   6.812   6.392  0.3332  0.8336  0.6737
17388SOL    HW255120   4.335   6.784   6.528  0.3109 -0.8225  0.3667
17389SOL     OW55121   8.603   7.009   0.239  0.2490 -0.6945  0.0380
17389SOL    HW155122   8.529   6.960   0.205  1.1639 -2.1346  0.0089
17389SOL    HW255123   8.664   6.942   0.271  0.9623  0.4734  1.2836
17390SOL     OW55124   4.103   0.304   3.649 -0.2063 -0.1695 -0.1409
17390SOL    HW155125   4.165   0.368   3.613  1.5887 -1.5706  0.2664
17390SOL    HW255126   4.032   0.357   3.686 -0.3683  1.4249 -2.5494
17391SOL     OW55127   2.818   6.316   4.716 -0.3976  0.9438 -0.0235
17391SOL    HW155128   2.746   6.317   4.778 -0.7661  0.5508 -0.4357
17391SOL    HW255129   2.786   6.368   4.642 -1.6121 -1.8948 -1.6588
17392SOL     OW55130  10.673   5.922   2.636 -0.3424  0.6836 -0.0543
17392SOL    HW155131  10.660   5.874   2.718  0.6223  1.0235  0.3179
17392SOL    HW255132  10.675   6.014   2.662 -0.4439  0.8197 -0.5194
17393SOL     OW55133   9.108   1.320   4.587 -0.2996 -0.3301  0.3710
17393SOL    HW155134   9.202   1.312   4.604 -0.3827 -1.2030  0.4462
17393SOL    HW255135   9.078   1.384   4.652  0.4813  1.0251 -0.5715
17394SOL     OW55136  10.634   8.430   0.102  0.0818  0.1020 -0.6971
17394SOL    HW155137  10.591   8.345   0.096  1.1131 -0.4720 -0.2481
17394SOL    HW255138  10.728   8.409   0.109  0.3890  1.2852 -1.0385
17395SOL     OW55139   8.580   8.581   8.953  0.2654 -0.1960 -0.5768
17395SOL    HW155140   8.577   8.663   8.903  2.9052 -0.7896 -1.9046
17395SOL    HW255141   8.489   8.561   8.973 -0.4981  2.7419 -0.7285
17396SOL     OW55142   7.255   2.478   5.041 -0.8287 -0.5896  0.2358
17396SOL    HW155143   7.325   2.424   5.077 -0.1104  0.5569  0.6403
17396SOL    HW255144   7.177   2.455   5.091 -0.2806 -0.4554  1.1611
17397SOL     OW55145   9.695   9.899   8.601 -0.2726 -0.2561  0.2467
17397SOL    HW155146   9.650   9.841   8.540  1.8390 -1.3999 -0.3072
17397SOL    HW255147   9.624   9.944   8.648 -1.9946  0.1910 -2.5508
17398SOL     OW55148   1.279   2.504   9.959  0.1909 -0.3459  0.8120
17398SOL    HW155149   1.349   2.548   9.911 -0.2270 -0.0862  0.4352
17398SOL    HW255150   1.231   2.456   9.892  0.0358 -0.5654  1.0774
17399SOL     OW55151   7.848   3.027   6.432 -0.1101 -0.0682  0.0342
17399SOL    HW155152   7.775   3.071   6.476 -0.2169 -0.0270 -0.1821
17399SOL    HW255153   7.837   3.050   6.340  0.5740  0.4944  0.0900
17400SOL     OW55154   2.332   8.204   8.486  0.4589  0.2895  0.4893
17400SOL    HW155155   2.376   8.133   8.533 -0.7608  0.4518  1.9454
17400SOL    HW255156   2.376   8.283   8.515  0.0043  0.3524  1.0099
17401SOL     OW55157   2.593   6.791   4.615  0.3939  0.3583  0.3833
17401SOL    HW155158   2.586   6.762   4.705 -0.5167 -0.3841  0.0805
17401SOL    HW255159   2.535   6.734   4.566 -0.0373  1.5106 -0.5090
17402SOL     OW55160   7.214   9.407   3.051  0.2036  0.5878  0.0978
17402SOL    HW155161   7.303   9.416   3.019  0.9327  0.7640  2.0610
17402SOL    HW255162   7.220   9.344   3.122 -1.1435  1.0264  0.6399
17403SOL     OW55163   8.666   9.969   6.497  0.7301 -0.2859 -0.4487
17403SOL    HW155164   8.672  10.043   6.436  1.0070  0.1547  0.1071
17403SOL    HW255165   8.680   9.892   6.442  0.6863  0.0853 -0.9935
17404SOL     OW55166  10.549   8.631   9.705  0.1132 -0.2714  0.3107
17404SOL    HW155167  10.617   8.566   9.720  0.4662  0.2681  1.1285
17404SOL    HW255168  10.496   8.629   9.785 -1.4571 -1.3880 -0.7048
17405SOL     OW55169   2.951   8.309   4.749 -0.3914  0.2827  0.2599
17405SOL    HW155170   2.887   8.330   4.680 -2.6017  1.0589  2.4120
17405SOL    HW255171   2.950   8.385   4.806  2.1733  0.0904  0.6760
17406SOL     OW55172  10.542   6.800   6.069  0.6542 -0.1314  0.3216
17406SOL    HW155173  10.482   6.728   6.049 -0.6186  0.7403  0.8026
17406SOL    HW255174  10.546   6.802   6.165  0.0916  0.8652  0.3425
17407SOL     OW55175   8.256   8.061   4.109 -0.0675  0.2291  0.1295
17407SOL    HW155176   8.231   8.101   4.192 -0.6843 -1.2954  0.7121
17407SOL    HW255177   8.338   8.014   4.127 -0.4668 -0.5294  0.0381
17408SOL     OW55178   9.684   9.395   1.907 -0.3197 -0.4870 -0.1783
17408SOL    HW155179   9.717   9.471   1.954  0.6368 -0.6694 -0.5259
17408SOL    HW255180   9.716   9.406   1.818 -1.1987 -0.6925 -0.5347
17409SOL     OW55181   6.799   0.889   4.989 -0.3841 -0.5399 -0.2646
17409SOL    HW155182   6.844   0.807   5.012 -1.2103 -0.9280  0.0193
17409SOL    HW255183   6.762   0.872   4.902  1.1133  0.2522 -1.1085
17410SOL     OW55184   1.090   5.383  10.238  1.1134 -0.1346  0.1449
17410SOL    HW155185   1.045   5.329  10.172  0.3999  0.4492  0.1503
17410SOL    HW255186   1.099   5.325  10.314 -1.1815  0.2335  0.7662
17411SOL     OW55187   0.534   4.071  10.440 -0.2892  0.4128 -0.6330
17411SOL    HW155188   0.546   4.033  10.353  0.8641 -0.3496 -0.1735
17411SOL    HW255189   0.561   4.162  10.431  0.1471  0.2501 -1.0020
17412SOL     OW55190   7.041   9.546  10.031  0.0544  0.4354  0.0624
17412SOL    HW155191   7.102   9.543  10.104  0.8538 -0.4252 -0.6191
17412SOL    HW255192   7.085   9.599   9.965  0.7288 -1.3725 -0.9869
17413SOL     OW55193   0.331   1.344   4.570 -0.1313 -0.0582 -0.3458
17413SOL    HW155194   0.423   1.370   4.576 -0.4726  1.5297 -1.3356
17413SOL    HW255195   0.302   1.381   4.487 -1.1437 -2.3207 -1.0469
17414SOL     OW55196   6.371   4.661   7.143 -0.0573 -0.0156  0.6142
17414SOL    HW155197   6.371   4.591   7.078 -1.4409  0.9157 -0.4357
17414SOL    HW255198   6.368   4.615   7.227 -2.1823 -1.2497 -0.0701
17415SOL     OW55199   1.083   2.160  10.252 -0.3693  0.1668 -0.4003
17415SOL    HW155200   1.102   2.252  10.266 -0.7463  0.1831  0.0341
17415SOL    HW255201   1.157   2.114  10.292  0.1795  0.2930 -1.2559
17416SOL     OW55202   1.714   6.986   7.851 -0.0173 -0.2709 -0.2691
17416SOL    HW155203   1.794   6.985   7.904  1.1488  0.6553 -1.9388
17416SOL    HW255204   1.645   6.966   7.914  1.2964  0.6895  1.6038
17417SOL     OW55205   8.206   8.420   4.427 -0.1632  0.0437 -0.3379
17417SOL    HW155206   8.284   8.463   4.462  1.0429 -1.3941 -1.1799
17417SOL    HW255207   8.160   8.490   4.379  0.2605  1.0393  0.6582
17418SOL     OW55208  10.339   0.869   3.347 -0.4318 -0.0883  0.5440
17418SOL    HW155209  10.293   0.819   3.280 -0.8844 -1.4117  1.7834
17418SOL    HW255210  10.424   0.889   3.308 -0.9018 -0.2959 -0.6350
17419SOL     OW55211   1.434   4.817   3.291 -0.2278  0.2161 -0.6453
17419SOL    HW155212   1.388   4.875   3.351  0.5982  1.0721 -0.8159
17419SOL    HW255213   1.439   4.866   3.209 -0.2296 -0.4276 -1.0343
17420SOL     OW55214   3.118   1.624   8.454  0.4803 -0.0322 -0.1982
17420SOL    HW155215   3.193   1.586   8.499  0.6869  1.5862  0.9339
17420SOL    HW255216   3.145   1.627   8.362  1.2742 -0.6555 -0.0002
17421SOL     OW55217   7.384   3.729   2.699  0.1737 -0.0957 -0.1616
17421SOL    HW155218   7.360   3.768   2.783 -1.7210 -0.6570 -0.3864
17421SOL    HW255219   7.300   3.714   2.655  1.0928 -0.4502 -1.8674
17422SOL     OW55220   2.206   9.892   7.148 -0.1514  0.2140 -0.1598
17422SOL    HW155221   2.116   9.926   7.154 -0.9218 -1.5181 -1.2683
17422SOL    HW255222   2.219   9.873   7.056  0.8342 -0.9398  0.1960
17423SOL     OW55223   9.775   5.313   4.766 -0.4194  0.3026  0.4997
17423SOL    HW155224   9.816   5.385   4.813  1.1592 -0.5366  0.4640
17423SOL    HW255225   9.790   5.334   4.673 -1.4293  0.7344  0.4092
17424SOL     OW55226   6.655  10.021   9.556  0.3380 -0.2581 -0.6142
17424SOL    HW155227   6.605  10.056   9.482 -1.5809 -1.1516  0.1958
17424SOL    HW255228   6.589  10.000   9.622  1.5345 -3.5539 -0.2986
17425SOL     OW55229   6.955   5.623   4.520 -0.3822 -0.5539  0.3502
17425SOL    HW155230   6.976   5.536   4.486 -0.3569 -0.2123 -0.5455
17425SOL    HW255231   6.996   5.627   4.606  0.3474 -1.1215  0.0366
17426SOL     OW55232   7.443   7.946   3.955 -0.5391 -0.0335 -0.2213
17426SOL    HW155233   7.352   7.962   3.929 -0.7551  1.4277  1.3089
17426SOL    HW255234   7.492   8.017   3.914 -0.0995 -0.6667 -0.8195
17427SOL     OW55235   8.270   2.264   0.954 -0.0395 -0.4343  0.0543
17427SOL    HW155236   8.303   2.248   1.042  0.5312 -0.1439 -0.1059
17427SOL    HW255237   8.272   2.178   0.912 -2.3144 -1.0034  0.9767
17428SOL     OW55238   2.815   9.199   0.555 -0.7289 -0.3934 -0.1778
17428SOL    HW155239   2.804   9.294   0.548  0.1538 -0.1867  0.9361
17428SOL    HW255240   2.811   9.168   0.464 -1.0224  0.7044 -0.5575
17429SOL     OW55241   1.217   3.574   4.077 -0.1376 -0.0230 -0.8423
17429SOL    HW155242   1.301   3.584   4.034  0.6992  0.1394  0.7587
17429SOL    HW255243   1.220   3.635   4.151 -1.4775 -0.3371 -0.4995
17430SOL     OW55244   2.246   1.969   4.414  0.3239 -0.0546  0.4993
17430SOL    HW155245   2.206   1.885   4.389  0.1101 -0.0154  0.6967
17430SOL    HW255246   2.335   1.965   4.380  0.3185 -0.3702  0.5218
17431SOL     OW55247   6.482   7.894   4.308  0.1719 -0.4179  0.7213
17431SOL    HW155248   6.424   7.903   4.385 -0.8514 -1.7298  0.1510
17431SOL    HW255249   6.450   7.960   4.247 -0.4883 -0.8529  0.5767
17432SOL     OW55250   6.667   5.891   1.832  1.0170  0.1915 -0.1351
17432SOL    HW155251   6.694   5.981   1.851  1.3183  0.4434 -1.6284
17432SOL    HW255252   6.745   5.838   1.853  0.8715  0.2744  0.6506
17433SOL     OW55253   2.536   7.780  10.460 -0.3361 -0.4113 -0.1337
17433SOL    HW155254   2.612   7.814  10.413 -0.9045  1.8595  0.4565
17433SOL    HW255255   2.513   7.700  10.414  0.5763  0.4619 -2.2092
17434SOL     OW55256  10.692   4.619   3.742  0.0598 -0.0217 -0.3668
17434SOL    HW155257  10.787   4.631   3.731  0.2065 -1.6757 -1.3800
17434SOL    HW255258  10.685   4.540   3.796 -0.6856 -0.9886 -1.7866
17435SOL     OW55259   2.010   5.416   2.856 -0.8914  0.0376  0.4926
17435SOL    HW155260   1.972   5.502   2.838  0.7544  0.5413 -0.8712
17435SOL    HW255261   2.076   5.433   2.924 -0.7249 -0.1822  0.3874
17436SOL     OW55262   4.665   5.823   5.293  0.3594 -0.8487 -0.0499
17436SOL    HW155263   4.620   5.739   5.303  0.6902 -0.8854  1.3549
17436SOL    HW255264   4.730   5.824   5.363 -0.1596  0.9100  0.4638
17437SOL     OW55265   7.383   2.152   0.226 -0.2373 -0.3287  0.0858
17437SOL    HW155266   7.458   2.200   0.262 -0.8168 -0.5330  1.6614
17437SOL    HW255267   7.307   2.195   0.266 -0.9895 -0.0481 -1.5704
17438SOL     OW55268   4.403   4.874   5.719 -0.0205 -0.0576  0.4439
17438SOL    HW155269   4.391   4.952   5.665  0.7030  1.1329  1.9414
17438SOL    HW255270   4.498   4.867   5.730 -0.0451 -1.4120  0.0066
17439SOL     OW55271   4.707   0.184   3.770  0.4332 -0.3319 -0.4497
17439SOL    HW155272   4.769   0.115   3.749  0.3579 -0.4701 -0.2246
17439SOL    HW255273   4.755   0.244   3.827 -0.3847 -1.8299  1.9813
17440SOL     OW55274   1.669   5.835   0.581 -0.8251  0.6836  0.2736
17440SOL    HW155275   1.577   5.845   0.605 -0.9053  2.0905 -0.5020
17440SOL    HW255276   1.694   5.750   0.616 -2.0940  0.7898  1.5262
17441SOL     OW55277   4.481   6.744   9.553  0.3653 -0.4019 -0.0113
17441SOL    HW155278   4.420   6.753   9.480 -1.7660  0.4331  1.7282
17441SOL    HW255279   4.566   6.731   9.513 -0.6600  0.3683 -2.6173
17442SOL     OW55280   4.924   6.294   4.959 -0.6888  0.4572 -0.0899
17442SOL    HW155281   4.905   6.304   4.865  0.3850  0.8666 -0.2744
17442SOL    HW255282   4.898   6.204   4.978 -1.5998  0.5980 -0.6077
17443SOL     OW55283   2.808   0.732   6.347 -0.8156  0.4145 -0.4385
17443SOL    HW155284   2.750   0.798   6.387 -3.2594 -1.5263 -0.5518
17443SOL    HW255285   2.834   0.676   6.421 -0.2284  0.4333 -0.6275
17444SOL     OW55286   3.888   5.173  10.337 -0.4465 -0.7272  0.0227
17444SOL    HW155287   3.951   5.123  10.284 -0.3930 -0.2128 -0.4030
17444SOL    HW255288   3.862   5.112  10.406  1.1953 -0.6551  0.7466
17445SOL     OW55289   2.900   1.737   3.806  0.0232 -0.2329  0.2464
17445SOL    HW155290   2.884   1.678   3.879  1.4812 -0.8249  0.1332
17445SOL    HW255291   2.980   1.703   3.765 -1.1052 -0.3392 -2.0614
17446SOL     OW55292   5.824  10.389   5.100 -0.1751 -0.4261  0.4653
17446SOL    HW155293   5.874  10.315   5.133  1.4207 -0.2137 -1.2886
17446SOL    HW255294   5.735  10.376   5.135  0.3869 -2.4006  1.2895
17447SOL     OW55295   9.142   2.930   7.595 -0.0016  0.6734  0.6897
17447SOL    HW155296   9.129   3.024   7.586 -0.9594  0.5315  0.3997
17447SOL    HW255297   9.053   2.895   7.606  0.2210 -0.3120 -0.4359
17448SOL     OW55298   2.798   2.084   0.433 -0.2129 -0.3400  0.1204
17448SOL    HW155299   2.863   2.134   0.383  0.6720 -1.0771  0.5090
17448SOL    HW255300   2.822   2.098   0.524 -0.2548 -1.0905  0.2484
17449SOL     OW55301   5.994   1.960  10.309  0.4728  0.2096 -0.0778
17449SOL    HW155302   5.902   1.939  10.321  0.6146 -0.1509  0.3986
17449SOL    HW255303   6.030   1.886  10.261  1.0257 -0.8255  1.8167
17450SOL     OW55304   4.714   9.006   9.943  0.0204  0.0253 -0.0061
17450SOL    HW155305   4.644   8.954   9.983 -0.2171  0.0044 -0.4417
17450SOL    HW255306   4.790   8.992  10.000 -0.1273 -0.5400  0.0572
17451SOL     OW55307   2.604   4.238  10.546 -0.6006  0.1399 -0.2396
17451SOL    HW155308   2.668   4.308  10.559 -0.0117 -0.1148 -1.5196
17451SOL    HW255309   2.526   4.283  10.513 -0.0862  0.1789 -1.4565
17452SOL     OW55310   2.099   1.878   7.990 -0.1554  0.3470 -0.2918
17452SOL    HW155311   2.138   1.834   7.915 -0.6712  0.8148 -0.8480
17452SOL    HW255312   2.055   1.955   7.952 -1.5595 -0.1226  0.2993
17453SOL     OW55313   6.495   0.456   6.012 -0.0970  0.0499 -0.4230
17453SOL    HW155314   6.445   0.537   6.014 -1.8902 -1.0076 -0.2146
17453SOL    HW255315   6.431   0.388   5.989  1.2522 -1.3579 -0.2196
17454SOL     OW55316   5.185   1.556   5.160 -0.5713  0.5068 -0.0217
17454SOL    HW155317   5.187   1.475   5.211 -0.1276  0.5314  0.0077
17454SOL    HW255318   5.155   1.622   5.222 -1.4529  0.2716 -0.1882
17455SOL     OW55319   1.692   5.608   9.165  0.2323 -0.6345 -0.2458
17455SOL    HW155320   1.645   5.613   9.248  1.5086  1.0474  0.4368
17455SOL    HW255321   1.698   5.514   9.146 -1.0984 -0.9894  0.9493
17456SOL     OW55322  10.648   9.081   9.802 -0.9247  0.3259  0.0267
17456SOL    HW155323  10.669   9.034   9.883  0.6010  0.0904 -0.4763
17456SOL    HW255324  10.618   9.013   9.742  0.0019  0.1613 -0.2704
17457SOL     OW55325   1.611  10.682   1.733 -0.9527 -0.1111  0.4117
17457SOL    HW155326   1.619  10.592   1.702 -1.1060 -0.0083  0.0609
17457SOL    HW255327   1.517  10.695   1.747 -1.1104  0.4294 -0.9295
17458SOL     OW55328   5.415   5.792   9.872  0.0305 -0.2396 -0.2236
17458SOL    HW155329   5.468   5.852   9.820  0.8133 -1.5897 -1.0426
17458SOL    HW255330   5.447   5.705   9.849 -1.6508 -1.0405  0.2623
17459SOL     OW55331   6.634   1.679   9.124  0.6313  0.1098 -0.7660
17459SOL    HW155332   6.700   1.672   9.055  2.0178 -2.8489  0.6695
17459SOL    HW255333   6.685   1.693   9.204 -0.6019 -0.6478  0.1775
17460SOL     OW55334   1.786   7.092   1.225  0.2774  0.2571 -0.5212
17460SOL    HW155335   1.861   7.151   1.231 -0.1671  0.8517 -0.6965
17460SOL    HW255336   1.716   7.137   1.272  0.5312 -1.1519  1.2914
17461SOL     OW55337   0.397  10.004   2.730  0.2139  0.0778 -0.0141
17461SOL    HW155338   0.409   9.992   2.825  0.8988 -0.3785 -0.1560
17461SOL    HW255339   0.484   9.989   2.693  0.0684  0.7964 -0.6689
17462SOL     OW55340   1.767   4.317   8.699  0.8136 -0.2052 -0.1122
17462SOL    HW155341   1.742   4.398   8.744  1.0073 -0.3466  0.2531
17462SOL    HW255342   1.840   4.343   8.642  0.6036 -0.0372 -0.3058
17463SOL     OW55343   7.394   6.116   1.849 -0.1651  0.1424 -0.0076
17463SOL    HW155344   7.353   6.042   1.894  0.6498 -0.7661 -0.7156
17463SOL    HW255345   7.472   6.134   1.902 -0.4267  0.5833  0.2319
17464SOL     OW55346   7.649   3.440   2.112  0.3119  0.1827  0.1129
17464SOL    HW155347   7.707   3.507   2.149  0.7912 -0.9050  1.4670
17464SOL    HW255348   7.705   3.391   2.052 -0.7564  2.6643 -3.1872
17465SOL     OW55349   2.842   3.745   1.581  0.4845 -0.6089  0.6447
17465SOL    HW155350   2.808   3.817   1.528 -0.1173 -0.7000  0.8925
17465SOL    HW255351   2.926   3.776   1.614  1.5532 -1.0699 -1.4885
17466SOL     OW55352   0.150   2.484   5.029  0.3026  0.1649  0.2068
17466SOL    HW155353   0.240   2.455   5.041  0.0134 -0.8186  0.1419
17466SOL    HW255354   0.137   2.551   5.095  2.0875  2.7909 -1.9084
17467SOL     OW55355   2.564   5.535   0.438 -0.1416  0.1451 -0.6523
17467SOL    HW155356   2.612   5.523   0.521 -1.2335 -1.0987 -0.1626
17467SOL    HW255357   2.475   5.506   0.458 -1.8021  4.3762 -0.9192
17468SOL     OW55358   6.515   5.207   1.099  0.3769 -0.5649  0.4940
17468SOL    HW155359   6.514   5.116   1.070  0.7797 -0.6530  0.7441
17468SOL    HW255360   6.474   5.256   1.027 -0.5733 -1.0336  0.6964
17469SOL     OW55361   3.980   4.015   1.640 -0.5158 -0.1772 -0.1424
17469SOL    HW155362   3.967   4.097   1.687 -0.2233  0.3729 -0.9932
17469SOL    HW255363   3.894   3.973   1.639 -0.7282  0.2505  0.0556
17470SOL     OW55364   5.800   0.806   8.278 -0.1173  0.4107 -0.9765
17470SOL    HW155365   5.837   0.719   8.292 -1.1178  0.1878  0.5653
17470SOL    HW255366   5.861   0.865   8.322 -1.1937  0.0974  1.0679
17471SOL     OW55367   1.204   9.049   7.936  0.6201 -0.1810  0.0846
17471SOL    HW155368   1.299   9.056   7.928  0.6259 -1.3222 -1.3416
17471SOL    HW255369   1.180   8.979   7.875 -1.0063 -0.8010  1.3805
17472SOL     OW55370   6.564   8.921   2.110 -0.3678 -0.3007  0.2698
17472SOL    HW155371   6.631   8.988   2.096 -0.0736 -0.8499 -1.1209
17472SOL    HW255372   6.482   8.969   2.111 -0.0872  0.1856  0.1722
17473SOL     OW55373   6.700   5.882   2.533  0.4463  0.4426  0.0356
17473SOL    HW155374   6.716   5.806   2.589 -3.4379  0.6572  1.7750
17473SOL    HW255375   6.642   5.850   2.464  1.3754  1.2110 -1.1600
17474SOL     OW55376   2.894   6.422   3.186 -0.5388  0.3016 -0.1946
17474SOL    HW155377   2.965   6.481   3.161 -1.2995  0.9858 -0.8016
17474SOL    HW255378   2.849   6.468   3.257  0.2846 -0.6430  0.9798
17475SOL     OW55379   0.848   5.286   9.181  0.3122  0.0106  0.5392
17475SOL    HW155380   0.817   5.208   9.135 -0.4574 -0.1839  1.3527
17475SOL    HW255381   0.935   5.261   9.213  0.4515 -0.1861  0.0174
17476SOL     OW55382   0.890   4.180   3.260  0.3362  0.0589  0.2049
17476SOL    HW155383   0.975   4.179   3.217  1.3633 -0.0032  2.1494
17476SOL    HW255384   0.845   4.103   3.226  0.5757  0.7079 -1.6906
17477SOL     OW55385   6.879   5.126   1.225 -0.0306  0.1363  0.4012
17477SOL    HW155386   6.846   5.156   1.140  0.6087 -1.4268 -0.4173
17477SOL    HW255387   6.827   5.049   1.245  2.3589 -1.8220 -0.4639
17478SOL     OW55388   2.466   5.181   7.698 -0.1053 -0.5213  0.0091
17478SOL    HW155389   2.461   5.128   7.619 -0.9394 -0.5240  0.0589
17478SOL    HW255390   2.560   5.183   7.719  0.1093 -0.6737 -0.8658
17479SOL     OW55391   0.459   2.464   8.739  0.1700  0.8540  0.4919
17479SOL    HW155392   0.532   2.404   8.721 -2.3159 -1.5442 -3.0568
17479SOL    HW255393   0.411   2.422   8.811 -0.7257 -0.8143 -0.9831
17480SOL     OW55394   0.536   3.550   9.506  0.1092 -0.0118 -0.4004
17480SOL    HW155395   0.574   3.557   9.418 -1.1211  3.4573 -0.8009
17480SOL    HW255396   0.536   3.640   9.539 -1.4331 -0.9098  2.3140
17481SOL     OW55397   6.347   0.979   6.437 -0.5083  0.0058  0.4748
17481SOL    HW155398   6.337   0.971   6.532 -2.1254  0.1586  0.3541
17481SOL    HW255399   6.354   0.889   6.406 -1.2164 -0.1224  0.6514
17482SOL     OW55400   7.239   6.153   8.360 -0.2971  0.2509 -0.0510
17482SOL    HW155401   7.168   6.210   8.387  1.3735  2.4802 -0.1279
17482SOL    HW255402   7.316   6.210   8.356  1.5377 -2.0586  0.1131
17483SOL     OW55403   8.964   8.855   9.476  0.2337 -0.6201 -0.0686
17483SOL    HW155404   8.882   8.811   9.495 -1.0678  1.6527 -0.0363
17483SOL    HW255405   8.956   8.883   9.385  1.7930 -1.9435 -0.6706
17484SOL     OW55406   5.843  10.103  10.536  0.2280 -0.3851  0.1337
17484SOL    HW155407   5.793  10.022  10.543 -0.4708  0.0448  0.1578
17484SOL    HW255408   5.804  10.161  10.602  0.8007 -0.0699  0.1999
17485SOL     OW55409   1.528   1.290   9.357  0.2263  0.1770 -0.7912
17485SOL    HW155410   1.561   1.213   9.404  0.2428  1.9121  2.3025
17485SOL    HW255411   1.433   1.280   9.359  0.2143  0.3460 -0.0980
17486SOL     OW55412   6.560   7.831   0.312 -0.3223 -0.4518  0.1250
17486SOL    HW155413   6.511   7.757   0.277 -0.2572 -0.3936 -0.0865
17486SOL    HW255414   6.644   7.828   0.267 -0.3210 -0.2463  0.1161
17487SOL     OW55415   4.037   5.391  10.070 -0.0024 -0.0180  0.4145
17487SOL    HW155416   4.061   5.358   9.984 -0.7162 -1.0613  0.5822
17487SOL    HW255417   3.948   5.425  10.059 -0.2824 -0.5863  0.8180
17488SOL     OW55418   8.171   2.686   1.258 -0.1302 -0.4250 -0.7716
17488SOL    HW155419   8.114   2.715   1.330  0.2570  0.7544 -0.9318
17488SOL    HW255420   8.118   2.620   1.212 -1.2358  0.3907 -0.7125
17489SOL     OW55421  10.285   0.821   1.482 -0.3575  0.0131 -0.3703
17489SOL    HW155422  10.272   0.880   1.408 -1.7074 -2.1812 -2.0188
17489SOL    HW255423  10.325   0.743   1.444 -0.1781 -0.7965  1.3945
17490SOL     OW55424   8.106   0.155   4.113  0.7568 -0.1321  0.2032
17490SOL    HW155425   8.191   0.112   4.108  0.4536 -0.6418 -0.8098
17490SOL    HW255426   8.093   0.172   4.207  0.8231 -2.3860  0.6740
17491SOL     OW55427   5.514   2.449   8.481 -0.8552  0.0542 -0.0713
17491SOL    HW155428   5.568   2.372   8.501 -0.2942  0.1299 -1.2217
17491SOL    HW255429   5.427   2.413   8.462 -0.6891 -0.2534 -0.2549
17492SOL     OW55430   6.506   8.889   4.855 -0.4990 -0.3369  0.0119
17492SOL    HW155431   6.583   8.945   4.850  0.7234 -1.8483  0.7769
17492SOL    HW255432   6.522   8.821   4.790 -0.3976 -1.5319  1.2309
17493SOL     OW55433   7.373   2.305   0.744 -0.6629  0.4571 -0.3195
17493SOL    HW155434   7.305   2.359   0.783 -3.5330 -2.6365 -0.6031
17493SOL    HW255435   7.434   2.289   0.816 -0.4136  2.8649  0.0934
17494SOL     OW55436   5.326   5.419   9.131  0.0559  0.0067 -0.2310
17494SOL    HW155437   5.301   5.350   9.193  3.2485 -1.3842 -0.2793
17494SOL    HW255438   5.288   5.390   9.048  2.9175 -3.0304 -0.7188
17495SOL     OW55439   5.272   7.325  10.504  0.5157 -0.0984  0.3611
17495SOL    HW155440   5.202   7.264  10.479  0.8954  0.7167 -3.1907
17495SOL    HW255441   5.227   7.393  10.555 -0.5521 -1.4701  1.3320
17496SOL     OW55442   7.220   3.990   4.878  0.4674  0.1886  0.8645
17496SOL    HW155443   7.173   4.031   4.950  0.4429 -0.5021  1.2579
17496SOL    HW255444   7.303   4.038   4.872  0.0278  0.9286  0.6534
17497SOL     OW55445   9.773   9.137   1.983  0.1443 -0.7520  0.4118
17497SOL    HW155446   9.715   9.065   1.956  0.9731 -1.0602 -0.6447
17497SOL    HW255447   9.736   9.215   1.942  1.5151 -1.2455 -2.0391
17498SOL     OW55448   6.342   6.680   9.461  0.2115 -0.5198  0.3768
17498SOL    HW155449   6.381   6.635   9.537  1.7550  4.0091  2.6736
17498SOL    HW255450   6.412   6.737   9.429 -2.1487  2.1162 -0.5229
17499SOL     OW55451   7.983   9.070   8.950  0.1581 -0.2524  0.3693
17499SOL    HW155452   7.966   9.148   9.002 -0.3530 -1.8562  2.8169
17499SOL    HW255453   7.897   9.041   8.921  0.2845 -0.1803 -0.0749
17500SOL     OW55454   4.971   1.691   2.754  0.5183  0.6916  0.1079
17500SOL    HW155455   4.964   1.679   2.659  1.7496  0.7026 -0.0059
17500SOL    HW255456   4.882   1.679   2.786  0.1552  0.2197 -1.0011
17501SOL     OW55457   0.087   9.250   1.688 -0.0410 -0.7061 -0.2258
17501SOL    HW155458   0.094   9.219   1.598 -2.1305  1.1403 -1.1249
17501SOL    HW255459   0.141   9.329   1.691  2.6234 -2.4405  1.1313
17502SOL     OW55460   0.339   1.347   1.866 -0.3512 -0.1357 -0.2833
17502SOL    HW155461   0.331   1.268   1.919 -1.8592  0.9127  1.1175
17502SOL    HW255462   0.312   1.319   1.778 -0.3565 -1.2738  0.0582
17503SOL     OW55463   5.060   6.951   2.297  0.3469  0.3071  0.0073
17503SOL    HW155464   5.011   7.033   2.289  1.0510  0.7286 -0.0643
17503SOL    HW255465   5.030   6.898   2.223 -1.4836 -0.2521  1.0934
17504SOL     OW55466   2.275   4.457   1.794 -0.5392 -0.0180  0.5162
17504SOL    HW155467   2.216   4.454   1.718 -1.1851  0.4415  0.9854
17504SOL    HW255468   2.253   4.540   1.837 -0.1020 -0.2248  1.1425
17505SOL     OW55469   5.066   5.065   6.773  0.2813  0.8568  0.3236
17505SOL    HW155470   5.021   5.031   6.851 -1.0085 -0.9210 -1.1070
17505SOL    HW255471   5.137   5.119   6.808  0.3998 -0.6970  2.7393
17506SOL     OW55472   4.490   2.721   3.699 -0.3560 -0.0307 -0.7189
17506SOL    HW155473   4.418   2.679   3.653 -0.7127  0.2987 -0.4682
17506SOL    HW255474   4.448   2.783   3.759  0.0483 -0.9994  0.6251
17507SOL     OW55475   1.040   2.893   0.572  0.1933 -0.7793 -0.9166
17507SOL    HW155476   1.069   2.984   0.573 -0.3362 -0.6126 -0.3622
17507SOL    HW255477   1.030   2.869   0.664  0.0250 -1.3003 -1.0628
17508SOL     OW55478   8.669   1.369   8.480  0.0214  0.1765 -0.6609
17508SOL    HW155479   8.703   1.449   8.438  0.8075  0.5716  0.6733
17508SOL    HW255480   8.738   1.343   8.540 -0.8974 -0.6175  0.0729
17509SOL     OW55481  10.340   3.474   0.682 -0.5549  0.0936  0.3286
17509SOL    HW155482  10.382   3.559   0.670 -2.1875  0.7890 -0.8993
17509SOL    HW255483  10.385   3.416   0.621  0.4922  0.0865  1.0858
17510SOL     OW55484   5.868   5.297   5.114  0.0628  0.3997  0.9839
17510SOL    HW155485   5.874   5.382   5.158 -0.0391  0.0813  1.6201
17510SOL    HW255486   5.795   5.307   5.053 -0.6011  0.4479  1.7727
17511SOL     OW55487   4.004   3.347   3.620 -0.2257  0.2486  0.1667
17511SOL    HW155488   3.969   3.423   3.667 -1.8576 -0.9847  1.0559
17511SOL    HW255489   3.945   3.337   3.545 -0.2426 -0.3394  0.2565
17512SOL     OW55490   6.216   9.937   4.118  0.0763 -0.1264  0.3822
17512SOL    HW155491   6.163   9.891   4.183  0.2664 -0.8469  0.0456
17512SOL    HW255492   6.299   9.954   4.162 -0.4669  1.1364  0.9604
17513SOL     OW55493   8.931   5.361   0.911 -0.4683 -0.5887  0.5437
17513SOL    HW155494   8.961   5.302   0.841 -0.4511  0.8567 -0.7082
17513SOL    HW255495   9.004   5.421   0.925 -1.5422  0.9649 -0.2883
17514SOL     OW55496  10.045   5.025  10.658  0.1320  0.6755  0.4306
17514SOL    HW155497  10.087   5.106  10.687  0.5282  0.5024  0.3457
17514SOL    HW255498  10.114   4.959  10.666  0.0434  0.4964 -0.2383
17515SOL     OW55499  10.555   4.452   9.110  0.0399 -0.1790  0.2287
17515SOL    HW155500  10.513   4.376   9.071  0.2699 -0.1827 -0.0103
17515SOL    HW255501  10.483   4.513   9.126 -0.0794 -0.2474 -0.0401
17516SOL     OW55502   0.000   2.576   0.522 -0.2981  0.1623  0.4772
17516SOL    HW155503  -0.081   2.616   0.491 -0.2415 -1.6950 -2.3954
17516SOL    HW255504  -0.002   2.487   0.488  3.3622  0.3101 -0.6089
17517SOL     OW55505   0.508   2.027  10.239 -0.1291  0.4285 -0.7510
17517SOL    HW155506   0.538   1.937  10.234 -1.7583 -0.1417 -0.6309
17517SOL    HW255507   0.563   2.066  10.308  0.5071 -0.4831 -0.7206
17518SOL     OW55508   6.393   7.179   8.468 -0.4691 -0.2488  0.3230
17518SOL    HW155509   6.349   7.261   8.448  1.0573  1.5155  3.5521
17518SOL    HW255510   6.366   7.158   8.557  0.4044 -2.4624  0.1377
17519SOL     OW55511  10.538   4.097   0.338  0.1174  0.5089  0.3865
17519SOL    HW155512  10.586   4.046   0.272  2.2075  1.6705  0.9270
17519SOL    HW255513  10.488   4.160   0.287  1.1153  0.8900 -0.1464
17520SOL     OW55514   0.889   3.455   5.305 -0.3759 -0.3062 -0.6268
17520SOL    HW155515   0.959   3.413   5.255 -0.0509  0.6964 -1.0434
17520SOL    HW255516   0.934   3.516   5.363 -0.8121 -0.8130  0.2629
17521SOL     OW55517   6.299   0.016   9.747 -0.2056  0.0399  0.7631
17521SOL    HW155518   6.291   0.098   9.796  0.0542 -0.3340  1.4486
17521SOL    HW255519   6.355  -0.039   9.802 -0.3976 -0.6054  0.3211
17522SOL     OW55520   2.637   5.144   0.362 -0.4277  0.2754  0.7214
17522SOL    HW155521   2.682   5.063   0.386  1.9918  1.8189  1.8433
17522SOL    HW255522   2.562   5.149   0.421 -1.3303 -1.6707 -0.1766
17523SOL     OW55523   3.617  10.193  10.118 -0.2643  0.0849 -0.4485
17523SOL    HW155524   3.611  10.204  10.023  0.0807  1.5822 -0.3356
17523SOL    HW255525   3.711  10.182  10.135 -0.0015  2.3410 -0.1129
17524SOL     OW55526   8.277   7.375   6.968  0.5362 -0.7160  0.1319
17524SOL    HW155527   8.297   7.460   6.927  0.7807 -1.2726 -0.9528
17524SOL    HW255528   8.253   7.397   7.058 -2.0892  0.7954 -0.8098
17525SOL     OW55529   1.350   1.488   0.292  0.1562 -0.1207 -0.0214
17525SOL    HW155530   1.262   1.453   0.274  1.6141 -2.4279 -3.7593
17525SOL    HW255531   1.383   1.433   0.363 -0.9321 -0.0017  0.6138
17526SOL     OW55532   6.093   6.874  10.493  0.2649  0.1113 -0.6762
17526SOL    HW155533   6.054   6.947  10.541 -0.0585 -0.3714 -0.1953
17526SOL    HW255534   6.090   6.901  10.402  1.2643  1.2263 -0.4095
17527SOL     OW55535   6.013   7.346   7.672  0.0851  0.5440 -0.0817
17527SOL    HW155536   5.924   7.368   7.699 -0.3510  0.9144 -1.7272
17527SOL    HW255537   6.041   7.278   7.734 -0.3624  2.2053  2.0371
17528SOL     OW55538   9.813   0.825   8.485 -0.3690  0.7682 -0.2879
17528SOL    HW155539   9.759   0.751   8.513  0.1089  0.3844 -0.3545
17528SOL    HW255540   9.775   0.901   8.528  1.5642 -0.0154  3.2525
17529SOL     OW55541   2.280   9.300   8.335  0.1396 -0.1182  0.1775
17529SOL    HW155542   2.217   9.228   8.330 -0.6061  0.5521 -0.2755
17529SOL    HW255543   2.338   9.275   8.407  0.3875 -1.5548 -0.4849
17530SOL     OW55544   0.334   2.832   0.131  0.2931  0.7892  0.3005
17530SOL    HW155545   0.336   2.921   0.166 -0.8079  1.6948 -1.7352
17530SOL    HW255546   0.247   2.824   0.091  0.7799 -0.8034 -0.5188
17531SOL     OW55547   8.641   2.020   0.179  0.0802  0.7674  0.0121
17531SOL    HW155548   8.648   2.051   0.270 -0.4035  0.8837  0.0145
17531SOL    HW255549   8.666   2.096   0.126  0.7006  0.5947  0.0523
17532SOL     OW55550   6.725   5.907   4.957 -0.0779  0.0346  1.3221
17532SOL    HW155551   6.818   5.904   4.977 -0.5420 -0.5131  3.7634
17532SOL    HW255552   6.689   5.829   5.000 -1.4822 -0.5522 -0.7767
17533SOL     OW55553  10.339   8.321   7.191  0.6121  0.4803  0.1570
17533SOL    HW155554  10.426   8.362   7.199  0.7346  0.3207 -0.3386
17533SOL    HW255555  10.306   8.350   7.106  0.1036  0.6760  0.4188
17534SOL     OW55556   2.435   8.697   2.120  0.0247 -0.0101  0.1614
17534SOL    HW155557   2.405   8.643   2.047  0.8493  2.1231 -1.8864
17534SOL    HW255558   2.486   8.767   2.079  0.4627  1.3582  2.7981
17535SOL     OW55559   6.481   8.113   6.131 -0.0846 -0.6128  0.0185
17535SOL    HW155560   6.464   8.141   6.221  0.6580 -1.1281  0.3306
17535SOL    HW255561   6.573   8.135   6.116  0.6521 -3.1073  0.4009
17536SOL     OW55562   5.377   8.022   1.465 -0.0642 -0.2031  0.1422
17536SOL    HW155563   5.313   7.970   1.416 -0.8830  2.7003 -2.1612
17536SOL    HW255564   5.460   7.975   1.454 -0.8376 -1.2830 -1.3796
17537SOL     OW55565  10.282   8.197   0.270  0.0237  0.4162 -0.2077
17537SOL    HW155566  10.304   8.226   0.181  0.6753  0.6151  0.0097
17537SOL    HW255567  10.352   8.233   0.324  0.9570 -1.6922  0.0754
17538SOL     OW55568   1.055   7.471   3.349  0.9384  0.4628  0.2374
17538SOL    HW155569   1.084   7.542   3.292  0.6100  1.7616  1.6056
17538SOL    HW255570   1.130   7.455   3.407  0.2974  1.1874  1.3005
17539SOL     OW55571   1.580   5.275   4.841 -0.5532 -0.0083 -0.5955
17539SOL    HW155572   1.659   5.221   4.846 -1.4174 -1.2084  1.2852
17539SOL    HW255573   1.517   5.221   4.794 -1.2380 -0.4533  0.7785
17540SOL     OW55574   6.105   3.090   5.617 -0.2063  0.1959  0.5260
17540SOL    HW155575   6.179   3.136   5.577 -1.0065  1.4144  0.3843
17540SOL    HW255576   6.120   3.099   5.711 -1.0557  1.9904  0.5212
17541SOL     OW55577   3.170   9.435   3.017 -0.0931 -0.2058 -0.2517
17541SOL    HW155578   3.078   9.437   2.992  0.3030 -0.4294 -1.8493
17541SOL    HW255579   3.215   9.401   2.939  1.5275  1.4876 -0.1137
17542SOL     OW55580   6.165   6.770   9.944 -0.2210 -0.1815 -0.0306
17542SOL    HW155581   6.246   6.802   9.985 -0.2523 -0.8033  0.5371
17542SOL    HW255582   6.183   6.678   9.925 -0.9866 -0.4865  0.6355
17543SOL     OW55583   6.485   8.617   0.153  0.1641 -0.0129 -0.4537
17543SOL    HW155584   6.526   8.703   0.150  0.5622 -0.2279 -1.7366
17543SOL    HW255585   6.524   8.573   0.228  2.0269 -0.0709 -1.4072
17544SOL     OW55586   4.050   8.406   5.653 -0.1946  0.3336 -0.3076
17544SOL    HW155587   4.090   8.426   5.568  1.0388 -1.2075 -0.1360
17544SOL    HW255588   3.978   8.347   5.633  0.8890 -1.0819 -0.2438
17545SOL     OW55589   4.370   8.081   0.828 -0.8816  0.2399  0.0686
17545SOL    HW155590   4.313   8.004   0.831 -2.6824  1.5067 -0.0077
17545SOL    HW255591   4.394   8.096   0.920 -0.6544 -0.3269  0.1026
17546SOL     OW55592   2.975   6.929   3.078  0.3517 -0.5462 -0.1672
17546SOL    HW155593   2.948   6.911   3.168 -0.0864  1.5311  0.1639
17546SOL    HW255594   2.909   6.887   3.023  0.1282 -1.0719  0.5002
17547SOL     OW55595   4.361  10.438  10.679  0.4519 -0.4925  0.5281
17547SOL    HW155596   4.280  10.429  10.628  0.3366 -0.6685  0.7466
17547SOL    HW255597   4.390  10.348  10.695  0.5564 -0.4334  0.6689
17548SOL     OW55598   8.750  10.014   8.220 -0.2487  0.2162  0.2434
17548SOL    HW155599   8.692   9.991   8.147 -1.3500  0.2782  1.0730
17548SOL    HW255600   8.722  10.101   8.246 -0.4158 -0.1280  1.2579
17549SOL     OW55601   9.598   5.088   4.809 -0.3994  0.3642  0.3960
17549SOL    HW155602   9.667   5.146   4.780 -0.3852  0.0160 -0.3062
17549SOL    HW255603   9.586   5.027   4.735 -2.4267  1.2948 -0.1084
17550SOL     OW55604   8.189   1.712   5.625  0.0397  0.3855  0.4125
17550SOL    HW155605   8.141   1.641   5.582 -0.4603  1.3641 -0.6821
17550SOL    HW255606   8.169   1.701   5.718  0.0486 -0.9557  0.2680
17551SOL     OW55607   3.875   7.629   0.765  0.0448  0.0907 -0.1840
17551SOL    HW155608   3.824   7.680   0.828 -1.5045 -0.2028 -1.1574
17551SOL    HW255609   3.861   7.538   0.791 -1.4633 -0.0961 -1.5295
17552SOL     OW55610   9.547   3.666   3.328 -0.1955  0.4463 -0.0517
17552SOL    HW155611   9.490   3.720   3.273 -1.0153 -1.3460 -1.0619
17552SOL    HW255612   9.563   3.588   3.275 -0.1047 -0.8595  1.8350
17553SOL     OW55613   4.257   2.121   5.510 -0.1912 -0.1665 -0.2645
17553SOL    HW155614   4.177   2.160   5.476  0.3228  1.8350  0.6225
17553SOL    HW255615   4.328   2.166   5.464  0.4573  1.0493  1.7563
17554SOL     OW55616   2.431   2.852   7.832 -0.9406 -0.0714  0.2234
17554SOL    HW155617   2.500   2.894   7.781 -0.5092  2.0181  2.3889
17554SOL    HW255618   2.460   2.761   7.840  0.2218  0.1465 -1.0825
17555SOL     OW55619   4.366   9.446   9.090  0.2328  0.6801 -0.4524
17555SOL    HW155620   4.346   9.399   9.170  2.0811 -0.1830 -0.4368
17555SOL    HW255621   4.321   9.398   9.021 -0.7137  0.9577 -0.0366
17556SOL     OW55622   8.506   2.385   4.706  0.2013 -0.7938  0.0609
17556SOL    HW155623   8.468   2.325   4.770  0.6263  0.5582  1.6579
17556SOL    HW255624   8.506   2.470   4.750  1.9188 -0.1050 -1.1611
17557SOL     OW55625   5.408   7.738   2.835  0.8599 -0.0619  0.2998
17557SOL    HW155626   5.486   7.737   2.890  1.2730 -0.7698 -0.2955
17557SOL    HW255627   5.409   7.824   2.793  1.5248 -0.2068  0.0094
17558SOL     OW55628   3.329   2.199   9.201 -0.2596  0.2795 -0.1740
17558SOL    HW155629   3.350   2.174   9.111  0.9201  1.1002 -0.1577
17558SOL    HW255630   3.334   2.117   9.250  5.7219  0.4481  0.2791
17559SOL     OW55631   0.313   3.566   2.332  0.0919  0.4445 -0.0087
17559SOL    HW155632   0.388   3.574   2.391 -0.9888 -0.9377  1.6950
17559SOL    HW255633   0.237   3.589   2.387 -0.8626  0.3804 -1.2483
17560SOL     OW55634   8.386   3.397   7.689 -0.1508 -0.4956  0.4868
17560SOL    HW155635   8.363   3.305   7.695 -1.8735 -0.3564 -2.4729
17560SOL    HW255636   8.329   3.440   7.753  0.0231 -1.3507  1.2396
17561SOL     OW55637   6.249   4.898   8.517 -0.3130  0.0087 -0.0925
17561SOL    HW155638   6.331   4.852   8.533 -0.4580  0.0973  0.9694
17561SOL    HW255639   6.181   4.838   8.548 -0.7762 -0.6515 -2.1967
17562SOL     OW55640  10.497   2.036   8.254  0.1794  0.3288 -0.2305
17562SOL    HW155641  10.546   2.044   8.335 -1.2588 -0.0484  0.7219
17562SOL    HW255642  10.523   1.951   8.218 -0.3435 -0.2172  0.6613
17563SOL     OW55643   5.499   1.287   5.696  0.3675 -0.4602 -0.1171
17563SOL    HW155644   5.522   1.199   5.723 -0.2815 -1.1165 -1.5655
17563SOL    HW255645   5.406   1.281   5.671  0.9364 -0.0551 -2.6682
17564SOL     OW55646   1.728   4.786   4.336  0.4210 -0.2907  0.4524
17564SOL    HW155647   1.770   4.821   4.414  0.6580  0.9759 -0.2301
17564SOL    HW255648   1.707   4.695   4.359  0.1437  0.1660  2.1103
17565SOL     OW55649  10.434   5.790   6.452 -0.1744 -0.6943 -0.5842
17565SOL    HW155650  10.419   5.763   6.543 -0.2595  0.4925 -0.2164
17565SOL    HW255651  10.348   5.783   6.411 -1.4072  3.4085  0.7797
17566SOL     OW55652   4.359   3.025   8.941 -0.0162 -0.0997  0.2137
17566SOL    HW155653   4.382   2.956   9.003  0.2936 -1.2787 -1.1703
17566SOL    HW255654   4.436   3.035   8.886  0.4873  2.3685  1.2225
17567SOL     OW55655   2.522   0.160   1.122 -0.0882  0.0395  0.8035
17567SOL    HW155656   2.440   0.124   1.087  0.6357  1.2731 -2.4896
17567SOL    HW255657   2.589   0.097   1.097  0.3046  0.3364  1.0973
17568SOL     OW55658   1.529   6.836   9.278  0.6840  0.4725 -0.0183
17568SOL    HW155659   1.582   6.772   9.232 -0.1410 -1.3075  1.3690
17568SOL    HW255660   1.444   6.833   9.234 -0.0823 -1.1759  1.4564
17569SOL     OW55661   2.200   8.909   2.871  0.6804  0.0183  0.3743
17569SOL    HW155662   2.295   8.921   2.871  0.4418  2.5675 -0.1796
17569SOL    HW255663   2.171   8.960   2.795 -1.0438 -1.9130 -0.3417
17570SOL     OW55664   4.257   6.681   6.952 -0.1002  0.1206  0.1821
17570SOL    HW155665   4.348   6.711   6.946 -0.2792  0.8355  0.9227
17570SOL    HW255666   4.262   6.587   6.936  0.6051  0.3403 -1.0609
17571SOL     OW55667   9.737   1.750   9.274  0.0826 -0.3593  0.2714
17571SOL    HW155668   9.798   1.677   9.277 -0.5181 -0.9194 -0.6201
17571SOL    HW255669   9.699   1.753   9.362  0.5421 -0.7506  0.4865
17572SOL     OW55670   7.378   9.013   3.715  0.1734  0.1230 -0.6262
17572SOL    HW155671   7.342   9.048   3.796 -2.0680 -1.0248 -1.0348
17572SOL    HW255672   7.450   8.957   3.743 -0.0043  0.4354  0.5099
17573SOL     OW55673   5.466   8.358   5.120 -0.6545  0.4237  0.0970
17573SOL    HW155674   5.521   8.432   5.145  1.2122 -0.5351 -0.9662
17573SOL    HW255675   5.377   8.392   5.123  0.1644  2.7946 -0.6203
17574SOL     OW55676   1.951   6.982   8.005  0.3673 -0.0089  0.5776
17574SOL    HW155677   2.016   6.951   8.069 -1.3457 -0.9823  1.9182
17574SOL    HW255678   1.951   7.077   8.014  2.7842  0.1930 -0.6808
17575SOL     OW55679   1.874   6.209  10.201 -0.5798  0.3996 -0.4024
17575SOL    HW155680   1.945   6.225  10.139  0.2866  0.9432  0.7044
17575SOL    HW255681   1.803   6.266  10.170  0.6535  2.5018  0.4055
17576SOL     OW55682   6.388   9.052   8.827 -0.5450  0.5052 -0.0255
17576SOL    HW155683   6.419   8.963   8.844 -0.6017  0.1033 -1.8168
17576SOL    HW255684   6.304   9.040   8.782 -0.0736  1.3965 -1.2177
17577SOL     OW55685   7.477   5.388   2.991  0.2907  0.4518 -0.2926
17577SOL    HW155686   7.453   5.328   3.061  1.7182  0.6923  0.4530
17577SOL    HW255687   7.395   5.429   2.965 -0.1812  1.0310  1.8942
17578SOL     OW55688   5.021   8.007   2.221 -0.4116  0.2230  0.7043
17578SOL    HW155689   4.955   8.063   2.262 -1.5311 -0.8064  0.3705
17578SOL    HW255690   5.065   7.964   2.295  0.9176  1.9904  0.9951
17579SOL     OW55691  10.014   5.112   3.271 -0.6090  0.6004 -0.2098
17579SOL    HW155692   9.994   5.019   3.279 -0.9233  0.7376  0.7172
17579SOL    HW255693   9.930   5.153   3.249 -1.4101  1.1125  3.1865
17580SOL     OW55694   4.395   3.512   4.274 -0.0753  0.8432  0.2468
17580SOL    HW155695   4.476   3.513   4.223  0.5261  0.2572  1.1708
17580SOL    HW255696   4.328   3.483   4.212  0.5047  0.8377 -0.3900
17581SOL     OW55697   8.357  10.182  10.216 -0.3039  0.3496  0.4834
17581SOL    HW155698   8.345  10.089  10.232  1.8750 -0.0518  0.1779
17581SOL    HW255699   8.269  10.219  10.215 -1.1514 -1.5128  1.6877
17582SOL     OW55700  10.089   6.722   2.053  0.0350  0.2847  0.6024
17582SOL    HW155701  10.143   6.685   1.982  0.5979  0.6423  0.8337
17582SOL    HW255702  10.147   6.723   2.129 -0.7792 -0.7435  1.2585
17583SOL     OW55703   7.812   0.700   2.207 -0.8634 -0.2047  0.6577
17583SOL    HW155704   7.895   0.748   2.196 -0.7443 -0.5413  0.0341
17583SOL    HW255705   7.746   0.757   2.167 -0.6926 -0.6345 -0.2592
17584SOL     OW55706   7.566   5.109   2.192 -0.0466  0.1321 -0.6446
17584SOL    HW155707   7.487   5.069   2.157 -1.3760  2.6614 -0.8003
17584SOL    HW255708   7.629   5.104   2.120 -0.1639 -1.5175 -0.6687
17585SOL     OW55709   6.992   0.468   0.297  0.6216  0.2639 -0.0459
17585SOL    HW155710   6.996   0.458   0.202 -3.3311 -2.7974 -0.1500
17585SOL    HW255711   7.052   0.401   0.331  0.4134 -0.1212 -0.4299
17586SOL     OW55712   3.971   2.682   3.545  0.2893 -0.0070  0.3844
17586SOL    HW155713   3.902   2.616   3.553  0.4566 -0.2520 -0.1878
17586SOL    HW255714   3.934   2.761   3.584  0.0000 -0.3728  0.8581
17587SOL     OW55715   8.064   4.942   0.597 -0.0619 -0.1783 -0.0138
17587SOL    HW155716   7.994   5.002   0.572 -2.1291 -2.1344  0.7685
17587SOL    HW255717   8.128   4.948   0.526 -1.5918  0.7831 -1.3636
17588SOL     OW55718   0.782   1.527   3.463  0.8275  0.0989 -0.5952
17588SOL    HW155719   0.828   1.535   3.546 -1.2245 -2.0149  0.8794
17588SOL    HW255720   0.725   1.604   3.459  0.4020 -0.1597  0.3411
17589SOL     OW55721   9.101   2.549   7.465  0.2684  0.5481 -0.8325
17589SOL    HW155722   9.181   2.512   7.429  0.3962  0.5132 -0.5149
17589SOL    HW255723   9.129   2.596   7.544  0.3533  2.6692 -2.0569
17590SOL     OW55724   8.401   4.319   5.376 -0.0303  0.1897  0.3681
17590SOL    HW155725   8.407   4.330   5.471  0.3050 -0.1487  0.3887
17590SOL    HW255726   8.458   4.387   5.340 -0.9061  0.9536  0.3690
17591SOL     OW55727   4.707   0.945  10.240 -0.3594 -0.5423 -0.0063
17591SOL    HW155728   4.727   0.856  10.213  2.2643  0.0664 -0.3024
17591SOL    HW255729   4.760   1.000  10.183 -2.1562  1.2693 -0.0576
17592SOL     OW55730   3.417   4.376   5.055 -0.2628 -0.1801  0.5149
17592SOL    HW155731   3.441   4.352   4.966 -1.2691 -0.3618  0.2754
17592SOL    HW255732   3.460   4.460   5.070  0.0576 -0.2334 -0.0727
17593SOL     OW55733   3.434   9.115   0.829 -0.0187  0.4094  0.0078
17593SOL    HW155734   3.442   9.021   0.846 -0.1805  0.2558 -0.7541
17593SOL    HW255735   3.344   9.136   0.856 -0.1516  0.2435 -0.3114
17594SOL     OW55736   7.395   5.357  10.359 -0.5827 -0.0513  0.4814
17594SOL    HW155737   7.305   5.363  10.326 -0.2647  0.9059 -0.3005
17594SOL    HW255738   7.437   5.436  10.325  1.0992 -1.4440 -0.8744
17595SOL     OW55739  10.472   7.002   9.585  0.4894  0.0431 -0.1444
17595SOL    HW155740  10.473   6.908   9.601 -0.6218  0.1398  0.5875
17595SOL    HW255741  10.417   7.038   9.654  2.0754  1.4069  0.4659
17596SOL     OW55742   5.814   8.466  10.599 -0.4230 -0.0634 -0.1319
17596SOL    HW155743   5.729   8.496  10.629 -0.0993  0.0125  0.7538
17596SOL    HW255744   5.874   8.538  10.619 -0.2860  0.2190 -1.5080
17597SOL     OW55745   3.760   7.269   7.459  0.6197 -0.5552 -0.0048
17597SOL    HW155746   3.685   7.213   7.481  0.1856  0.2790  0.7121
17597SOL    HW255747   3.741   7.352   7.502  2.0312 -0.3667  0.3106
17598SOL     OW55748   2.013   3.122   2.780  0.2354 -0.4001  0.6714
17598SOL    HW155749   2.092   3.132   2.726 -1.7281  0.0095 -2.4055
17598SOL    HW255750   2.025   3.185   2.851  2.7136 -0.4704  0.4086
17599SOL     OW55751  10.694   2.390  10.453  0.5012  0.0675  0.2523
17599SOL    HW155752  10.683   2.476  10.493  1.3241  0.1978  0.2208
17599SOL    HW255753  10.673   2.404  10.360 -1.6609 -0.2917  0.6247
17600SOL     OW55754   3.893   8.307   8.958  0.1074  0.2770 -0.4216
17600SOL    HW155755   3.895   8.212   8.949  1.4082  0.4056 -1.8424
17600SOL    HW255756   3.918   8.323   9.049  2.4114 -0.6911 -0.8186
17601SOL     OW55757   7.338   9.091   7.432 -0.7499  0.6426  0.1238
17601SOL    HW155758   7.349   9.033   7.508  0.2765  1.6325  0.7737
17601SOL    HW255759   7.279   9.160   7.463 -1.0404  0.5655 -0.2627
17602SOL     OW55760   8.142   0.605  10.196  0.7169 -0.1904  0.2929
17602SOL    HW155761   8.125   0.516  10.164  0.7567  0.4033 -1.4427
17602SOL    HW255762   8.188   0.648  10.125  1.7803  0.8947  1.5719
17603SOL     OW55763   1.025   3.386   9.307 -0.0808 -0.2742  0.2189
17603SOL    HW155764   0.986   3.371   9.394 -1.1422  0.7309 -0.0472
17603SOL    HW255765   1.055   3.477   9.310  1.2775 -0.6941  0.0241
17604SOL     OW55766   0.252   0.774   3.173  0.6856  0.3085 -0.7417
17604SOL    HW155767   0.269   0.684   3.201 -1.6861  0.5709  2.0848
17604SOL    HW255768   0.192   0.766   3.098 -3.0661 -0.7173  2.0547
17605SOL     OW55769   7.213   3.075   7.902 -0.0693  0.0657 -0.0222
17605SOL    HW155770   7.217   3.087   7.807  1.9744 -0.2898 -0.0156
17605SOL    HW255771   7.125   3.039   7.917 -0.2546 -0.3687 -1.8325
17606SOL     OW55772   3.025   1.140   8.986 -0.0606 -0.1533 -0.6503
17606SOL    HW155773   3.069   1.183   9.060 -0.8320 -0.2685 -0.1163
17606SOL    HW255774   2.935   1.127   9.016 -0.6208  0.6087 -1.9420
17607SOL     OW55775   0.085   8.195   4.751  0.2792  0.1897 -0.6296
17607SOL    HW155776   0.021   8.134   4.787  0.6464  0.2588  0.1427
17607SOL    HW255777   0.041   8.234   4.675 -0.6659  0.3814  0.0080
17608SOL     OW55778   4.092   2.198   2.954 -0.0296  0.0285  0.1596
17608SOL    HW155779   4.186   2.215   2.965 -0.2944  0.6794  1.6005
17608SOL    HW255780   4.078   2.202   2.859  1.4271 -0.2393 -0.0828
17609SOL     OW55781  10.065   7.397   5.863 -0.1852  0.0469 -0.0054
17609SOL    HW155782  10.137   7.360   5.811  0.2415 -0.7338  1.1259
17609SOL    HW255783  10.001   7.327   5.869 -0.3953  0.2591  0.2253
17610SOL     OW55784  10.668   8.477   1.274 -0.4753  0.0435 -0.3154
17610SOL    HW155785  10.749   8.432   1.297 -0.8139 -0.1486  0.5160
17610SOL    HW255786  10.679   8.500   1.181  0.3064 -0.4434 -0.3504
17611SOL     OW55787   5.450   6.935   7.518  0.0378  0.1229 -0.1885
17611SOL    HW155788   5.430   6.934   7.424  1.0130 -1.8150 -0.4264
17611SOL    HW255789   5.533   6.982   7.524  0.6097 -0.8399 -0.4622
17612SOL     OW55790   1.887   3.508   8.290  0.2246 -0.8381 -0.1389
17612SOL    HW155791   1.867   3.446   8.360 -3.3369 -0.6288 -0.7766
17612SOL    HW255792   1.936   3.578   8.333  0.4442 -1.9518  1.5173
17613SOL     OW55793   1.908   1.218   4.939 -0.5962  0.7964  0.1813
17613SOL    HW155794   1.816   1.203   4.919 -0.3731 -1.1007  0.3987
17613SOL    HW255795   1.919   1.187   5.029  0.5115 -0.3769 -0.3122
17614SOL     OW55796   1.716   0.259   4.035  0.4944 -0.7088  0.3483
17614SOL    HW155797   1.704   0.337   4.088  2.2197 -2.0103  2.8252
17614SOL    HW255798   1.808   0.261   4.009  0.6913 -2.1302  0.8500
17615SOL     OW55799   2.378   3.075   2.905  0.1803 -0.1491  0.2191
17615SOL    HW155800   2.405   2.990   2.870 -1.3654 -0.5863  0.0403
17615SOL    HW255801   2.363   3.129   2.827 -0.5973 -0.2758  0.2790
17616SOL     OW55802   2.329   7.022   6.664 -0.7715  0.4742 -0.1966
17616SOL    HW155803   2.338   6.928   6.647  0.3470  0.8566 -1.8695
17616SOL    HW255804   2.300   7.059   6.581  1.5240  1.9647 -0.4235
17617SOL     OW55805   0.159   8.387   2.324  0.3682 -0.4371 -0.0281
17617SOL    HW155806   0.118   8.473   2.315  1.8520  0.4241  1.0742
17617SOL    HW255807   0.087   8.328   2.346 -0.4324  0.8498  0.8974
17618SOL     OW55808   8.708   3.212   8.657  0.6321 -0.3130 -0.0441
17618SOL    HW155809   8.632   3.252   8.615  0.8433  0.2805  0.1257
17618SOL    HW255810   8.688   3.214   8.750  0.9783  0.1249  0.0264
17619SOL     OW55811   5.582   7.720   8.005 -0.5538 -0.0253  0.3288
17619SOL    HW155812   5.675   7.702   7.990 -0.4729  0.4320  0.2572
17619SOL    HW255813   5.559   7.667   8.081 -0.0828  0.2983  0.7047
17620SOL     OW55814  10.355   4.397   6.970 -0.5869  0.1915 -0.2244
17620SOL    HW155815  10.282   4.380   7.030 -1.5944  0.7125 -1.2594
17620SOL    HW255816  10.401   4.313   6.964 -0.9652 -0.0873  0.6310
17621SOL     OW55817   6.472   5.035   6.069  0.2591 -0.3336 -0.1265
17621SOL    HW155818   6.474   5.127   6.095  0.8183 -0.2660 -0.3901
17621SOL    HW255819   6.460   4.987   6.151  0.3359 -0.0462  0.0552
17622SOL     OW55820   4.194  10.568   5.585  0.3010  0.5788  0.0253
17622SOL    HW155821   4.288  10.575   5.601  0.3156  1.0145 -0.2219
17622SOL    HW255822   4.166  10.658   5.564 -0.1408  0.4297 -0.0445
17623SOL     OW55823   8.527   8.505   9.876 -0.2604  0.1612 -0.3401
17623SOL    HW155824   8.606   8.525   9.927  0.2185 -0.7825 -0.6896
17623SOL    HW255825   8.548   8.424   9.830 -0.4042  1.2937 -2.5565
17624SOL     OW55826   5.310   8.532   5.926  0.0960  0.1151 -0.7105
17624SOL    HW155827   5.388   8.558   5.877  0.6463  1.6375  0.8509
17624SOL    HW255828   5.340   8.465   5.987 -0.1264 -0.3175 -1.0805
17625SOL     OW55829   3.819  10.080   5.259 -0.0533 -0.2679  0.4649
17625SOL    HW155830   3.911  10.104   5.254 -0.7108  2.3985 -2.3888
17625SOL    HW255831   3.816   9.988   5.235  1.8373 -0.3433  0.4021
17626SOL     OW55832   1.201  10.053   3.080  0.1240  0.0368  0.2747
17626SOL    HW155833   1.253  10.120   3.123 -0.0951 -0.7255  1.7963
17626SOL    HW255834   1.118  10.052   3.128 -0.5248 -0.1785 -0.8024
17627SOL     OW55835   4.354   5.337   7.146  0.2214  0.5492 -0.1387
17627SOL    HW155836   4.294   5.271   7.113  0.3533 -0.0481  0.7982
17627SOL    HW255837   4.372   5.312   7.236 -1.4767  3.0839  1.0294
17628SOL     OW55838   4.305   6.946   9.661  0.2772  0.3797  0.7599
17628SOL    HW155839   4.250   6.905   9.727 -0.6149  2.4149  1.3708
17628SOL    HW255840   4.355   6.874   9.623 -0.0495 -1.0189  2.8111
17629SOL     OW55841   1.202   4.003   4.827 -0.1900 -0.7681  0.5240
17629SOL    HW155842   1.228   4.053   4.904  0.4894  0.2483 -0.3313
17629SOL    HW255843   1.132   4.055   4.786  1.1905  0.0545 -0.9116
17630SOL     OW55844   2.452   1.504   0.158  0.4439 -0.1916 -0.1879
17630SOL    HW155845   2.419   1.435   0.100  0.0024  0.3179 -0.5513
17630SOL    HW255846   2.491   1.568   0.099 -0.3336  0.5078  0.0468
17631SOL     OW55847   4.237   3.224   3.209  0.6562  0.3444 -0.8364
17631SOL    HW155848   4.291   3.145   3.203  0.9273  0.5765 -1.6753
17631SOL    HW255849   4.300   3.296   3.202  0.4272  0.6442  0.0518
17632SOL     OW55850   9.409  10.486   8.893 -0.7129 -0.5173  0.0939
17632SOL    HW155851   9.440  10.400   8.863 -2.3951 -1.0948 -0.1438
17632SOL    HW255852   9.362  10.521   8.817 -0.8456  0.1819  0.4962
17633SOL     OW55853   1.403   3.389   2.196 -0.2484 -0.0069 -0.4398
17633SOL    HW155854   1.308   3.400   2.192 -0.5719 -1.3946  1.9336
17633SOL    HW255855   1.418   3.334   2.273  2.2368 -2.7110 -2.6219
17634SOL     OW55856  10.604   0.468   3.251  0.3433 -0.7062 -0.4355
17634SOL    HW155857  10.534   0.408   3.223  0.4741 -1.0999  0.0490
17634SOL    HW255858  10.576   0.499   3.337  0.9750 -1.2435 -0.0154
17635SOL     OW55859   8.964   0.200   7.322 -0.3027 -0.3837 -0.4280
17635SOL    HW155860   8.900   0.225   7.389 -0.2425 -0.6807 -0.2592
17635SOL    HW255861   8.946   0.259   7.249  0.5335  0.9069  0.3529
17636SOL     OW55862   9.189   8.762   0.426 -0.1843 -0.1609 -0.3125
17636SOL    HW155863   9.235   8.705   0.487 -0.9489 -0.6351 -0.1684
17636SOL    HW255864   9.167   8.840   0.478  3.1412  1.5040 -1.1566
17637SOL     OW55865   8.712   1.540   1.814 -0.3624  0.2639  0.2632
17637SOL    HW155866   8.625   1.559   1.779 -0.0122  0.8217 -0.3213
17637SOL    HW255867   8.764   1.519   1.736  0.2412  0.8021  0.5184
17638SOL     OW55868   9.578   2.362   4.455 -0.1107 -0.2824  0.2492
17638SOL    HW155869   9.667   2.398   4.461 -0.7551  1.1999  1.7103
17638SOL    HW255870   9.578   2.312   4.373  1.6305  0.8645 -0.5182
17639SOL     OW55871   9.952   2.587   5.546 -0.1740 -0.1093  0.0425
17639SOL    HW155872   9.919   2.562   5.459  0.5772  1.3966 -0.7225
17639SOL    HW255873   9.922   2.517   5.604 -2.1290 -0.3119 -1.1231
17640SOL     OW55874   5.180   7.194   5.563 -0.7757  0.3723 -0.2858
17640SOL    HW155875   5.141   7.127   5.619  1.1470 -0.7081 -0.1182
17640SOL    HW255876   5.237   7.244   5.622 -1.0280  1.1725 -0.7136
17641SOL     OW55877   1.672   5.353   2.038  0.0921  0.7792  0.0120
17641SOL    HW155878   1.716   5.371   2.122 -0.1730 -1.3131  0.6575
17641SOL    HW255879   1.667   5.257   2.034 -2.0176  0.8970 -1.3166
17642SOL     OW55880   4.053   8.675   9.663  0.1269 -0.2904  0.1589
17642SOL    HW155881   4.061   8.770   9.655 -2.4976  0.0585  0.6187
17642SOL    HW255882   4.128   8.649   9.716 -0.0924  1.8204  1.6216
17643SOL     OW55883   5.412   3.722   5.881  0.2459  0.1585  0.0256
17643SOL    HW155884   5.335   3.679   5.845 -0.1710 -0.4635  1.5713
17643SOL    HW255885   5.386   3.813   5.893 -0.6071 -0.2284  1.3863
17644SOL     OW55886   6.362  10.628   9.473 -0.0225  0.4295  0.4933
17644SOL    HW155887   6.438  10.581   9.506 -0.1790  0.3270  0.7159
17644SOL    HW255888   6.318  10.661   9.551 -0.1361  0.5987  0.3600
17645SOL     OW55889   3.581   7.476   2.168 -0.2301  0.5441  0.5816
17645SOL    HW155890   3.492   7.474   2.204 -0.1603 -1.7060  0.7800
17645SOL    HW255891   3.605   7.568   2.168 -2.5964  1.2288  0.4461
17646SOL     OW55892   3.958   4.335   1.298  0.0437 -0.5588  0.0116
17646SOL    HW155893   3.923   4.381   1.374 -1.0540 -1.4828  0.0908
17646SOL    HW255894   4.021   4.273   1.334 -0.6309 -1.1436  0.2064
17647SOL     OW55895   7.357   3.293   4.871 -0.3831  0.6369 -0.0958
17647SOL    HW155896   7.297   3.315   4.943  0.6217 -0.9663  1.3133
17647SOL    HW255897   7.337   3.357   4.802 -1.2132  2.4052  1.6913
17648SOL     OW55898   8.043   1.181   3.172  0.4656  0.4030 -0.1700
17648SOL    HW155899   8.095   1.174   3.092 -0.6450 -1.3061 -0.7954
17648SOL    HW255900   8.017   1.273   3.176  2.0553  0.9146 -0.7520
17649SOL     OW55901   4.382   4.403   7.898 -0.6024  0.2521  0.0871
17649SOL    HW155902   4.334   4.365   7.824 -1.2246 -0.9495  1.0755
17649SOL    HW255903   4.473   4.376   7.884 -0.6948  0.1371 -0.3092
17650SOL     OW55904  10.051   2.992   1.795  0.0739 -0.3509 -0.2307
17650SOL    HW155905  10.080   2.913   1.840 -2.1808 -2.0215 -1.5183
17650SOL    HW255906  10.082   2.981   1.705  0.0637  0.4409 -0.3388
17651SOL     OW55907   9.686  10.018   1.298 -0.7140  0.3050  0.1431
17651SOL    HW155908   9.682  10.095   1.354 -0.8274 -0.0031  0.5694
17651SOL    HW255909   9.637  10.042   1.220  1.1552  1.4642 -0.7414
17652SOL     OW55910   0.379   2.764   9.087 -0.4782  0.1484 -0.2369
17652SOL    HW155911   0.421   2.777   9.172 -1.6751  0.0446  0.3894
17652SOL    HW255912   0.450   2.734   9.029  0.1548 -0.7481  0.9645
17653SOL     OW55913   9.583   9.593   0.735  0.1489  0.3759  0.4964
17653SOL    HW155914   9.577   9.665   0.672  0.6658 -0.8943 -1.0542
17653SOL    HW255915   9.494   9.584   0.770 -0.3990  0.4294 -0.8359
17654SOL     OW55916   7.550  10.195   0.735 -0.8238  0.4032  0.5110
17654SOL    HW155917   7.476  10.239   0.777 -2.2619 -0.6153 -0.8444
17654SOL    HW255918   7.537  10.102   0.753  1.0008  0.2899  1.5253
17655SOL     OW55919   2.175   8.360   9.679 -0.1779 -0.1913 -0.0368
17655SOL    HW155920   2.224   8.381   9.600  0.1353 -1.5605 -0.2357
17655SOL    HW255921   2.176   8.264   9.683 -1.7283 -0.2210  0.6484
17656SOL     OW55922   2.861  10.119   4.631  0.1173 -0.2528 -0.6025
17656SOL    HW155923   2.883  10.030   4.605 -1.2121 -0.5455 -0.8103
17656SOL    HW255924   2.905  10.132   4.715  2.7692 -0.0376 -1.9007
17657SOL     OW55925   2.160   2.422   0.121 -0.1973  0.0126 -0.5582
17657SOL    HW155926   2.200   2.390   0.203 -1.7045 -1.3397 -0.3241
17657SOL    HW255927   2.066   2.408   0.133 -0.3339 -2.0778 -3.2877
17658SOL     OW55928   6.557   7.131   7.216 -0.6617  0.3023 -0.0882
17658SOL    HW155929   6.463   7.111   7.217 -0.7204  0.5928  0.2644
17658SOL    HW255930   6.596   7.060   7.267 -0.9155  1.2786  1.5267
17659SOL     OW55931   0.290   9.688   4.243 -0.3595  0.0555  0.4562
17659SOL    HW155932   0.205   9.684   4.286 -0.1384 -0.0129  0.8878
17659SOL    HW255933   0.308   9.782   4.234 -0.4727  0.0699  0.3756
17660SOL     OW55934   5.013   1.060   7.880  0.3391  0.0242 -0.5062
17660SOL    HW155935   5.027   1.058   7.786  3.2679 -0.8817 -0.1486
17660SOL    HW255936   5.055   0.981   7.913  0.7454  1.0756  1.7088
17661SOL     OW55937   8.468   8.575   6.029 -0.6745 -0.3780 -0.0774
17661SOL    HW155938   8.411   8.648   6.003  0.1778  1.2016  2.1691
17661SOL    HW255939   8.529   8.566   5.956 -0.5337  1.5099 -0.2614
17662SOL     OW55940   5.167   6.567   8.969  0.1942  0.2545  0.7339
17662SOL    HW155941   5.135   6.556   9.058 -0.6200 -0.4854  0.3761
17662SOL    HW255942   5.205   6.482   8.947  1.1249  0.6825  0.6470
17663SOL     OW55943   3.082   6.043   3.765  0.1184  0.5409  0.4680
17663SOL    HW155944   3.063   6.125   3.718 -0.2040  1.0110  1.4066
17663SOL    HW255945   3.156   6.064   3.822  1.3063 -0.3576 -0.6707
17664SOL     OW55946   9.514   8.984   3.704  0.2010  0.4682  0.5792
17664SOL    HW155947   9.568   8.906   3.720  0.4004  0.2089 -1.2399
17664SOL    HW255948   9.427   8.958   3.734  0.3690 -0.2846  0.4403
17665SOL     OW55949   9.442   7.361   1.817  0.0077  0.1911 -0.0491
17665SOL    HW155950   9.472   7.418   1.747 -2.7601 -0.4890 -2.0034
17665SOL    HW255951   9.466   7.273   1.787 -1.8450 -0.1690 -0.6296
17666SOL     OW55952   7.163   5.310   7.065  0.1628  0.2638 -0.0413
17666SOL    HW155953   7.142   5.404   7.067 -0.0525  0.2835  3.8891
17666SOL    HW255954   7.085   5.267   7.099  1.2312 -1.0580  0.8458
17667SOL     OW55955   3.445   4.190   3.737 -0.1938 -0.1192 -0.1893
17667SOL    HW155956   3.461   4.246   3.813  2.8619  1.4065 -1.7849
17667SOL    HW255957   3.533   4.161   3.710 -1.0145  0.2683 -3.7270
17668SOL     OW55958   1.164   0.927   6.716  0.0410 -0.0251  0.4545
17668SOL    HW155959   1.083   0.885   6.744  0.0808 -0.9827 -0.7488
17668SOL    HW255960   1.136   0.994   6.653  0.2206 -1.5417 -1.3423
17669SOL     OW55961   0.238   6.080   3.887 -0.3448 -0.0720 -0.5980
17669SOL    HW155962   0.220   5.995   3.928 -2.6869  1.4276  1.7125
17669SOL    HW255963   0.330   6.097   3.908 -0.5614 -0.8714  1.1924
17670SOL     OW55964   0.682   8.583   4.461  0.0961  0.1536 -0.5441
17670SOL    HW155965   0.587   8.573   4.453 -0.4235  1.9226  1.9881
17670SOL    HW255966   0.713   8.500   4.495 -0.6313 -0.2375 -0.8210
17671SOL     OW55967   8.787   5.949   5.231 -0.1847 -0.1560 -0.2332
17671SOL    HW155968   8.842   5.895   5.175 -1.3462 -1.1504 -0.4778
17671SOL    HW255969   8.801   5.913   5.319 -0.6446 -0.6186 -0.3386
17672SOL     OW55970   9.626   2.187   6.618 -0.4084 -0.0800 -0.0435
17672SOL    HW155971   9.686   2.246   6.665 -1.1322  1.1292 -0.5820
17672SOL    HW255972   9.547   2.185   6.673 -1.3183  1.4591 -1.1868
17673SOL     OW55973   6.179  10.541   3.992  0.0500 -0.6592  0.1262
17673SOL    HW155974   6.165  10.453   4.026  0.1187 -1.1246 -1.0176
17673SOL    HW255975   6.094  10.566   3.954  0.0484 -0.2519  0.3898
17674SOL     OW55976   8.780   1.819   4.688 -0.1052  0.6446 -0.6620
17674SOL    HW155977   8.753   1.832   4.597 -1.7838  0.1375 -0.2786
17674SOL    HW255978   8.708   1.857   4.740  0.2093 -0.2124  0.4467
17675SOL     OW55979   0.745   7.596   0.205 -0.1011  0.2613 -0.4942
17675SOL    HW155980   0.822   7.580   0.259  0.4387  0.4965 -1.1751
17675SOL    HW255981   0.686   7.523   0.225 -0.8548  1.4499  2.0142
17676SOL     OW55982   4.882   1.868   3.574 -0.1290  0.1106 -0.2694
17676SOL    HW155983   4.934   1.935   3.618  0.9530 -0.5540 -0.5019
17676SOL    HW255984   4.929   1.786   3.590 -0.0331 -0.2431 -2.1029
17677SOL     OW55985   6.194   8.381   9.009 -0.4291 -0.5208 -0.0142
17677SOL    HW155986   6.161   8.349   9.093 -1.1727 -0.0882 -0.1278
17677SOL    HW255987   6.128   8.444   8.980  0.5100  0.3959 -0.2486
17678SOL     OW55988   9.048   9.884   1.221 -0.1277  0.1896 -0.3703
17678SOL    HW155989   9.040   9.979   1.231  1.1150  0.4748 -1.7323
17678SOL    HW255990   9.010   9.849   1.301  0.0388  1.8677  0.4997
17679SOL     OW55991   4.986   8.920   7.251  0.2274  0.1597 -0.2015
17679SOL    HW155992   4.936   8.841   7.275 -1.3050  0.7915 -1.1741
17679SOL    HW255993   4.920   8.983   7.223  1.4921  1.5297 -0.2337
17680SOL     OW55994   4.415   8.404  10.665 -0.1308  0.6004  0.5889
17680SOL    HW155995   4.463   8.450  10.734  0.2119 -0.0460  0.7831
17680SOL    HW255996   4.457   8.318  10.659  0.0751  0.7770 -0.6819
17681SOL     OW55997   1.971   0.462   1.098  0.2044  0.3571 -0.4665
17681SOL    HW155998   1.916   0.501   1.030 -2.6111 -0.3962  1.1913
17681SOL    HW255999   1.953   0.515   1.176  1.9239  0.0887  0.1457
17682SOL     OW56000   1.827   2.064   6.525 -0.3997  0.0666  0.1720
17682SOL    HW156001   1.906   2.042   6.475  0.8339  1.0831  1.5828
17682SOL    HW256002   1.785   1.979   6.543  2.0889 -0.8861  2.0713
17683SOL     OW56003   9.885   1.928   7.376  0.0528 -0.1733 -0.6521
17683SOL    HW156004   9.970   1.887   7.386  0.0302  0.0055  0.3174
17683SOL    HW256005   9.825   1.856   7.355  0.3024 -0.3942 -0.5937
17684SOL     OW56006   0.446  10.280   0.976  0.3752 -0.0297 -0.4951
17684SOL    HW156007   0.518  10.280   0.912  1.4950  1.4054  0.6798
17684SOL    HW256008   0.394  10.204   0.953  0.3268  0.7849 -3.5424
17685SOL     OW56009   7.748   9.381   9.580  0.0002 -0.2317 -0.0123
17685SOL    HW156010   7.719   9.311   9.638  1.9473 -1.2535 -0.1982
17685SOL    HW256011   7.688   9.377   9.505 -1.0339 -0.4804  0.8155
17686SOL     OW56012   6.531   7.955   9.911  0.4239 -0.4823 -0.3567
17686SOL    HW156013   6.558   7.952  10.003  0.1929 -1.5851 -0.3174
17686SOL    HW256014   6.440   7.925   9.912 -0.3705  1.6696 -0.6857
17687SOL     OW56015   6.918   9.878   8.825 -0.3898  0.1373 -0.0952
17687SOL    HW156016   6.873   9.874   8.740  0.5084  0.6454 -0.6050
17687SOL    HW256017   7.007   9.848   8.806 -0.1247  0.4594  0.6338
17688SOL     OW56018   1.619   9.276   8.444  0.0831 -0.1947  0.1632
17688SOL    HW156019   1.631   9.298   8.351  0.9755  1.8521  0.7021
17688SOL    HW256020   1.679   9.203   8.459  0.8872  0.2754 -0.6049
17689SOL     OW56021   3.270   0.396  10.135 -0.3693  0.3113  0.1591
17689SOL    HW156022   3.364   0.411  10.149 -0.3059  0.7600 -0.6839
17689SOL    HW256023   3.248   0.452  10.060 -1.0110 -0.8281 -0.5271
17690SOL     OW56024   3.734   6.471  10.375 -0.0965 -0.2747 -0.2035
17690SOL    HW156025   3.642   6.492  10.362  0.2608  1.3702 -0.3744
17690SOL    HW256026   3.752   6.400  10.314 -0.7316  0.8979 -1.8147
17691SOL     OW56027   2.674   6.666   1.671 -0.5363 -0.0039 -0.0205
17691SOL    HW156028   2.601   6.675   1.611 -0.0824 -0.1006 -0.6001
17691SOL    HW256029   2.665   6.578   1.708  0.2541 -0.7075 -1.4182
17692SOL     OW56030   6.448   0.419   3.780 -0.8351 -0.2988 -0.3258
17692SOL    HW156031   6.421   0.509   3.798 -0.4252 -0.7128  2.9403
17692SOL    HW256032   6.367   0.368   3.783 -0.9034 -0.2206 -0.8083
17693SOL     OW56033   2.029   0.629   5.999 -0.3853 -0.4324 -0.0077
17693SOL    HW156034   2.022   0.724   5.985 -0.9429 -0.3899  0.4973
17693SOL    HW256035   1.968   0.611   6.070  0.2725 -1.0651  0.4071
17694SOL     OW56036   0.717   5.482   0.170  0.2560  0.0602  0.3709
17694SOL    HW156037   0.627   5.490   0.141  0.2731  1.9689  0.6814
17694SOL    HW256038   0.742   5.571   0.196  1.8735 -0.6145  1.3217
17695SOL     OW56039   1.356   6.828  10.070  0.2814  0.4240 -0.0016
17695SOL    HW156040   1.344   6.923  10.061 -2.2953  0.3374  1.5916
17695SOL    HW256041   1.277   6.798  10.113  0.9799 -2.5244 -0.5717
17696SOL     OW56042   5.101   2.410   1.578 -0.6978  0.9507  0.2297
17696SOL    HW156043   5.174   2.459   1.616  1.5603 -0.8237 -1.5741
17696SOL    HW256044   5.128   2.318   1.583 -2.4658  0.2936 -1.1978
17697SOL     OW56045   1.496   2.993   8.202 -0.9593  0.3463  0.6814
17697SOL    HW156046   1.533   3.070   8.245 -1.0806  0.5409  0.4389
17697SOL    HW256047   1.568   2.959   8.148 -0.6162 -0.2495  1.4907
17698SOL     OW56048   6.845   3.467   5.916  0.4100  0.1949 -0.2891
17698SOL    HW156049   6.810   3.410   5.984 -0.1006 -0.6149 -1.1976
17698SOL    HW256050   6.930   3.429   5.894  0.2461  0.0111 -0.6157
17699SOL     OW56051   7.734   6.665  10.637  0.3054 -0.0572 -0.0644
17699SOL    HW156052   7.704   6.608  10.566  1.5387 -0.4552 -0.3048
17699SOL    HW256053   7.797   6.724  10.595 -0.3291  0.9310  0.3518
17700SOL     OW56054   2.118   7.067   4.574 -0.3135  0.4652 -0.4693
17700SOL    HW156055   2.110   7.155   4.536  2.3904  0.7383 -0.6110
17700SOL    HW256056   2.124   7.008   4.499  1.2866  0.5853 -0.4669
17701SOL     OW56057   5.735   7.042   6.464 -0.2328  0.0564  0.1556
17701SOL    HW156058   5.820   7.056   6.506  0.6114  0.8454 -1.7006
17701SOL    HW256059   5.681   7.003   6.533  1.2943  0.5246  1.7041
17702SOL     OW56060   4.821   9.891   8.191  0.2339 -0.3393 -0.3208
17702SOL    HW156061   4.753   9.839   8.148 -0.0440 -0.8831  0.7328
17702SOL    HW256062   4.879   9.825   8.231  0.4374  0.1415  0.1889
17703SOL     OW56063   1.153   0.071   5.640  0.1731  0.2548 -0.1019
17703SOL    HW156064   1.210   0.088   5.565  0.7191 -2.4340 -0.3734
17703SOL    HW256065   1.190  -0.007   5.681 -2.7080 -0.9980  0.3141
17704SOL     OW56066   2.914   6.799   1.092 -0.5632  0.3704 -0.5357
17704SOL    HW156067   2.927   6.713   1.133 -0.9500  0.8282  0.6096
17704SOL    HW256068   2.982   6.804   1.025  0.3848 -0.2764  0.3288
17705SOL     OW56069   3.025   7.540  10.475  0.1077  0.4524 -0.1334
17705SOL    HW156070   3.100   7.528  10.534  0.6426  1.8264 -0.5087
17705SOL    HW256071   2.990   7.452  10.463  1.3488 -0.1458  0.4615
17706SOL     OW56072   8.795   7.139   4.429 -0.4053  0.1485 -0.2519
17706SOL    HW156073   8.797   7.139   4.525 -2.0301 -1.1739 -0.1734
17706SOL    HW256074   8.848   7.063   4.404  2.4388  2.0814 -0.5920
17707SOL     OW56075   5.206   7.478   0.025 -0.2414  0.3388  0.0018
17707SOL    HW156076   5.201   7.571   0.048 -1.8388  0.1198  0.6432
17707SOL    HW256077   5.265   7.440   0.091  0.5178  0.9073 -0.3388
17708SOL     OW56078   2.992   3.930   0.592  0.0057 -0.2409  0.4467
17708SOL    HW156079   2.897   3.927   0.607 -0.6180  2.2339 -2.2073
17708SOL    HW256080   3.019   4.015   0.627  1.1908 -0.7264  0.7482
17709SOL     OW56081   8.369   2.406  10.119 -0.0398 -0.0499  0.0106
17709SOL    HW156082   8.430   2.414  10.193 -0.3111  2.5736  0.0477
17709SOL    HW256083   8.419   2.436  10.043 -0.1794 -1.4627 -0.6690
17710SOL     OW56084   1.588   5.557   9.875  0.1538 -0.4716 -0.1687
17710SOL    HW156085   1.637   5.520   9.948  0.0568 -0.6300 -0.1826
17710SOL    HW256086   1.539   5.629   9.913  0.1686 -0.5003 -0.0936
17711SOL     OW56087   0.974   5.407   1.571 -0.0035  0.1907 -0.1195
17711SOL    HW156088   1.009   5.448   1.492  1.3011 -1.6489 -0.5612
17711SOL    HW256089   0.994   5.468   1.642  1.6293  0.4643 -0.7782
17712SOL     OW56090  10.026   6.893   3.212  0.0491  0.4088  0.5760
17712SOL    HW156091   9.983   6.889   3.127  0.7014 -0.2147  0.2648
17712SOL    HW256092  10.024   6.986   3.235  0.8138  0.7478 -0.6268
17713SOL     OW56093   4.358   1.873   8.049  0.2634 -0.2694  0.0122
17713SOL    HW156094   4.377   1.869   7.956  0.4530 -0.0851  0.0400
17713SOL    HW256095   4.422   1.936   8.084  1.9649 -2.2592  0.7046
17714SOL     OW56096   5.884   7.202   6.804 -0.2237 -0.5388 -0.0774
17714SOL    HW156097   5.955   7.148   6.769  1.6820  0.7781  1.5374
17714SOL    HW256098   5.848   7.152   6.877 -0.3938 -0.8402 -0.3660
17715SOL     OW56099   8.942   6.850   8.680 -0.0952 -0.0118  0.2305
17715SOL    HW156100   9.033   6.832   8.703  0.2757  0.6535 -0.6526
17715SOL    HW256101   8.890   6.803   8.745  0.8788 -0.6687  0.5386
17716SOL     OW56102  10.345   7.725   6.837 -0.1620 -0.0515 -0.1839
17716SOL    HW156103  10.388   7.646   6.807 -0.5066  0.2265 -1.5011
17716SOL    HW256104  10.298   7.699   6.916  1.5925 -0.5798  0.7338
17717SOL     OW56105   7.047   8.646   2.204 -0.0732 -0.0723 -0.2849
17717SOL    HW156106   7.042   8.682   2.116  0.7185  0.1958 -0.2285
17717SOL    HW256107   6.984   8.697   2.255  0.6676  0.8837 -0.3224
17718SOL     OW56108   9.369   7.399  10.208  0.6905 -0.0019 -0.0870
17718SOL    HW156109   9.434   7.418  10.141  0.6624  1.7029  0.3173
17718SOL    HW256110   9.285   7.414  10.165  0.6422  0.1201  0.0501
17719SOL     OW56111   2.749   8.864  10.453  0.0196 -0.0459 -0.7448
17719SOL    HW156112   2.805   8.791  10.425 -0.2020  0.0120 -1.3535
17719SOL    HW256113   2.787   8.892  10.536 -0.1103 -1.0941 -0.3087
17720SOL     OW56114   4.225   7.725   6.601 -0.5488 -0.6617 -0.5535
17720SOL    HW156115   4.249   7.632   6.592 -0.2778 -0.5186 -1.3145
17720SOL    HW256116   4.135   7.730   6.569  0.2658 -0.2328 -3.0032
17721SOL     OW56117   1.697   0.353   2.523 -0.0409 -0.3109  0.0522
17721SOL    HW156118   1.670   0.262   2.532  1.8913 -0.8841  0.5913
17721SOL    HW256119   1.760   0.366   2.594 -0.1076  1.3874 -0.1566
17722SOL     OW56120   3.568   6.514   1.289 -0.4106  0.5345  0.0873
17722SOL    HW156121   3.511   6.503   1.213  1.8212 -0.4743 -1.5368
17722SOL    HW256122   3.534   6.452   1.354 -0.7793 -0.5297 -1.0893
17723SOL     OW56123   2.062   1.258   0.045 -0.3757  0.3521 -0.2785
17723SOL    HW156124   2.154   1.275   0.066 -0.4110 -1.0327  1.2465
17723SOL    HW256125   2.064   1.181  -0.011 -0.6115  0.0326  0.1447
17724SOL     OW56126  10.132   3.454   9.972  0.0983  0.6010 -0.0544
17724SOL    HW156127  10.181   3.374   9.955  0.6566  0.6997  1.0048
17724SOL    HW256128  10.050   3.424  10.011  0.6497  0.5533  1.1212
17725SOL     OW56129   5.645   7.751   9.425 -0.0825 -0.3790  0.2723
17725SOL    HW156130   5.622   7.745   9.518  0.3286 -2.4002  0.2990
17725SOL    HW256131   5.563   7.735   9.379 -0.5358  1.8046  0.2263
17726SOL     OW56132   6.562   5.936   9.449  0.0672  0.3245  0.5690
17726SOL    HW156133   6.497   5.922   9.380  1.0157  0.9450 -0.4702
17726SOL    HW256134   6.643   5.954   9.403  0.7523  0.6468  1.8519
17727SOL     OW56135   5.690   7.066   1.831 -0.0057  0.0712 -0.1084
17727SOL    HW156136   5.744   7.013   1.772 -0.0658 -0.2994  0.1654
17727SOL    HW256137   5.600   7.049   1.803  0.0509  1.5945 -1.3261
17728SOL     OW56138   0.408   2.367   4.361 -0.5419 -0.7407 -0.3275
17728SOL    HW156139   0.503   2.360   4.351 -0.4497  0.0247 -0.0453
17728SOL    HW256140   0.395   2.375   4.456 -0.8775 -0.7084 -0.3768
17729SOL     OW56141   9.560   2.779   4.709 -0.0884  0.6795  0.2098
17729SOL    HW156142   9.616   2.807   4.637  0.2097  0.2131  0.2646
17729SOL    HW256143   9.522   2.696   4.679 -1.1226  1.2195 -0.0306
17730SOL     OW56144   6.618   6.906   1.670  0.0671 -0.0410 -0.0982
17730SOL    HW156145   6.706   6.870   1.673  0.0029 -0.2783 -0.8797
17730SOL    HW256146   6.564   6.836   1.634 -0.0061  0.8859 -1.9111
17731SOL     OW56147   9.113   8.967   4.273  0.5249  0.0624 -0.3864
17731SOL    HW156148   9.169   9.003   4.341  0.1503  1.7158 -0.9191
17731SOL    HW256149   9.097   8.876   4.300  0.4606  0.6530  1.6846
17732SOL     OW56150   7.145   7.350  10.426 -0.6352 -0.0109 -0.4071
17732SOL    HW156151   7.049   7.353  10.433 -0.6527 -1.7445  0.9731
17732SOL    HW256152   7.174   7.325  10.514  1.0943  0.4538 -0.8090
17733SOL     OW56153   9.313   6.685   9.652 -0.0938 -0.6539 -0.1049
17733SOL    HW156154   9.351   6.688   9.564  0.8136  2.4308  0.2872
17733SOL    HW256155   9.219   6.694   9.637  0.1392  0.9159 -0.7541
17734SOL     OW56156   7.260   8.655  10.465 -0.3179  0.4350 -0.8975
17734SOL    HW156157   7.202   8.658  10.542 -2.0368  1.3555 -2.1615
17734SOL    HW256158   7.326   8.721  10.482  0.4806 -0.6817  0.6178
17735SOL     OW56159   9.065   8.050   3.881 -0.5762  0.5531 -0.0691
17735SOL    HW156160   9.051   7.996   3.804 -0.1216  1.0608 -0.5196
17735SOL    HW256161   9.141   8.104   3.859 -0.0656  0.2836  0.9659
17736SOL     OW56162   7.633   7.631  10.202  0.5986 -0.5168  0.6346
17736SOL    HW156163   7.618   7.672  10.287 -0.5693 -2.4348  1.3975
17736SOL    HW256164   7.548   7.634  10.159  0.8097 -0.9873  0.1778
17737SOL     OW56165   5.010   8.380   3.018  0.1983 -0.2404  0.6724
17737SOL    HW156166   5.075   8.310   3.030 -1.3577 -1.6800  1.0652
17737SOL    HW256167   4.928   8.342   3.050 -1.2539  0.8391 -1.5002
17738SOL     OW56168   4.569   8.811   5.916 -0.9574 -0.5891  0.1999
17738SOL    HW156169   4.485   8.800   5.962 -1.5240 -2.4262 -1.1791
17738SOL    HW256170   4.597   8.722   5.896  0.6202  0.0708 -0.6446
17739SOL     OW56171   0.239   4.999   0.743 -0.5554 -0.2271 -0.3432
17739SOL    HW156172   0.255   4.971   0.833 -1.7051 -0.0149 -0.0588
17739SOL    HW256173   0.146   4.981   0.728 -0.8352  1.4879 -0.8577
17740SOL     OW56174   6.005   7.865   2.664  0.4467 -0.7608 -0.5751
17740SOL    HW156175   6.002   7.902   2.575  1.9827 -0.1495 -0.4177
17740SOL    HW256176   5.923   7.818   2.674  0.6780 -1.7438 -2.7200
17741SOL     OW56177   2.159   9.465   9.678  0.7617 -0.0019  0.2366
17741SOL    HW156178   2.210   9.476   9.759  0.5274  0.4837  0.3234
17741SOL    HW256179   2.225   9.447   9.611  0.9248 -0.7982  0.6023
17742SOL     OW56180   7.747   5.915   7.121  0.0113 -0.2466  0.3082
17742SOL    HW156181   7.760   5.822   7.140 -0.3662 -0.6828 -1.3446
17742SOL    HW256182   7.836   5.950   7.112  0.1871 -0.9911 -1.2650
17743SOL     OW56183  10.531   9.060  10.620  0.2125 -0.4946  0.4246
17743SOL    HW156184  10.443   9.098  10.617 -1.1698 -3.4404 -0.6466
17743SOL    HW256185  10.548   9.047  10.714  0.5179  2.0866  0.7800
17744SOL     OW56186   7.503   4.681   5.220  0.3915 -0.8785 -0.3501
17744SOL    HW156187   7.475   4.726   5.300 -0.4050  3.2492 -2.6383
17744SOL    HW256188   7.425   4.635   5.190  0.4401 -1.6988  0.7126
17745SOL     OW56189   1.961   6.170   8.689 -0.3007  0.6933  0.2730
17745SOL    HW156190   2.022   6.097   8.693  0.4232  1.2606 -0.1495
17745SOL    HW256191   1.877   6.132   8.713 -0.1319 -0.4842 -0.9184
17746SOL     OW56192   2.654   7.128   5.462 -0.6343  0.1807 -0.3919
17746SOL    HW156193   2.655   7.049   5.517 -0.4144  0.0485 -0.5838
17746SOL    HW256194   2.632   7.198   5.523  1.5298  0.3398  0.3089
17747SOL     OW56195   6.041   9.139   0.636  0.3073 -0.5425  0.1738
17747SOL    HW156196   5.998   9.078   0.576  0.9691  0.9349 -1.9173
17747SOL    HW256197   6.053   9.088   0.717 -3.3626 -1.6809  0.2055
17748SOL     OW56198   2.490   6.646   0.467 -0.5302 -0.5024 -0.5996
17748SOL    HW156199   2.472   6.662   0.559 -1.5969  0.7866 -1.0069
17748SOL    HW256200   2.410   6.607   0.432 -1.0521  1.2124 -1.4610
17749SOL     OW56201   5.244   5.271   4.760  0.0258 -0.5261  0.6240
17749SOL    HW156202   5.256   5.342   4.823 -2.6693  0.0598  0.5826
17749SOL    HW256203   5.263   5.310   4.675  0.9458 -0.5616  0.8004
17750SOL     OW56204   6.838   2.642   6.166 -0.1700  0.5416 -0.3208
17750SOL    HW156205   6.910   2.583   6.143  0.5870  1.8426 -1.4286
17750SOL    HW256206   6.804   2.672   6.081 -0.9726  1.2061  0.2223
17751SOL     OW56207  10.010   2.432   1.038  0.3557 -0.1794 -0.7693
17751SOL    HW156208  10.018   2.520   1.077  1.5735 -0.7062  0.2200
17751SOL    HW256209   9.951   2.445   0.964  0.7171  1.5326 -0.8037
17752SOL     OW56210   0.021   1.729   5.715 -0.5538  0.7071  0.0593
17752SOL    HW156211  -0.029   1.680   5.650  2.7667 -1.4965 -1.0887
17752SOL    HW256212   0.082   1.782   5.663 -0.2004  1.6570  1.3884
17753SOL     OW56213   1.152   3.136   3.630 -0.4390  0.3081  0.5558
17753SOL    HW156214   1.240   3.172   3.623 -0.0887 -0.5220  0.6772
17753SOL    HW256215   1.160   3.062   3.689 -1.2266  0.2400  0.5923
17754SOL     OW56216   3.059   4.283   3.768 -0.0997  0.1367  0.4102
17754SOL    HW156217   3.129   4.347   3.778 -0.9145  0.9048  1.3854
17754SOL    HW256218   3.103   4.198   3.770  0.5613  0.3199  5.1616
17755SOL     OW56219   5.725   3.470   5.053  0.2417  0.1725 -0.2316
17755SOL    HW156220   5.632   3.471   5.030  0.1371 -0.1590  0.1825
17755SOL    HW256221   5.730   3.522   5.133  0.4920  0.6382 -0.5456
17756SOL     OW56222   5.722  10.388   8.927  0.3682  0.2548 -0.1196
17756SOL    HW156223   5.739  10.313   8.983 -1.4551  0.6064  0.9742
17756SOL    HW256224   5.738  10.355   8.838  1.9963 -0.6824  0.4683
17757SOL     OW56225   9.796   3.364   1.313 -0.2758 -0.4999 -0.1750
17757SOL    HW156226   9.760   3.275   1.319 -1.1424 -0.2162 -0.9899
17757SOL    HW256227   9.877   3.353   1.265 -0.0868 -0.9255  0.2274
17758SOL     OW56228   5.809   6.517   1.131 -0.2331 -0.1407 -0.0132
17758SOL    HW156229   5.738   6.467   1.170  0.7672 -1.2460  0.4605
17758SOL    HW256230   5.767   6.569   1.063 -1.7823  0.7209  1.5473
17759SOL     OW56231   2.069   0.860   8.039 -0.0726 -0.4194  0.2080
17759SOL    HW156232   2.152   0.862   8.085  0.2344  3.8257 -0.1245
17759SOL    HW256233   2.018   0.931   8.077 -1.3867  0.6418 -3.1349
17760SOL     OW56234   5.397   9.248   3.555 -0.3720  0.0810 -0.1119
17760SOL    HW156235   5.356   9.325   3.594 -1.0464 -0.7510  0.8944
17760SOL    HW256236   5.342   9.226   3.480 -0.0866  0.6678 -0.4930
17761SOL     OW56237   4.570   2.984   2.542  0.2354  0.1219 -0.1033
17761SOL    HW156238   4.502   3.049   2.526 -0.2700 -0.2604  0.4191
17761SOL    HW256239   4.641   3.007   2.482 -1.0951 -0.5677 -2.0571
17762SOL     OW56240   3.779  10.064   1.191  0.7890  0.4711  0.4260
17762SOL    HW156241   3.751  10.149   1.224 -0.4276 -0.1174  0.9633
17762SOL    HW256242   3.864  10.049   1.232  1.1458  1.5251  0.1153
17763SOL     OW56243   4.932   5.792   8.445 -0.4269 -0.5654 -0.8769
17763SOL    HW156244   4.996   5.758   8.382  1.7184  0.8836  0.3895
17763SOL    HW256245   4.951   5.886   8.449 -2.2887 -0.1863 -0.0083
17764SOL     OW56246   2.411   3.961   3.299  0.2438 -0.8369 -0.0612
17764SOL    HW156247   2.472   4.026   3.333 -1.0973  0.3714  0.1670
17764SOL    HW256248   2.376   3.918   3.377  0.3071 -1.0524 -0.1513
17765SOL     OW56249   3.474   6.810  10.491  0.3897  0.3063 -0.0404
17765SOL    HW156250   3.404   6.833  10.430 -1.8427 -2.6051  1.2215
17765SOL    HW256251   3.481   6.715  10.485  1.7153  0.1655  2.5622
17766SOL     OW56252   5.429   9.218   7.273 -0.1323 -0.3516 -0.0590
17766SOL    HW156253   5.482   9.166   7.213  1.4096 -1.0159  1.7339
17766SOL    HW256254   5.424   9.304   7.232  1.4541 -0.5867 -0.8472
17767SOL     OW56255   8.615   2.095   3.907  0.0405 -0.1648  0.6363
17767SOL    HW156256   8.698   2.141   3.893  0.7262 -0.8422  2.2416
17767SOL    HW256257   8.622   2.060   3.996 -2.0109 -0.1752  0.8294
17768SOL     OW56258   7.460   3.228   6.191 -0.0029  0.4090  0.3150
17768SOL    HW156259   7.457   3.309   6.140  0.9219 -0.2997 -0.9101
17768SOL    HW256260   7.420   3.163   6.134  1.4851 -0.5014  0.2882
17769SOL     OW56261   9.793   7.868   5.350  0.7353  0.0405  0.2644
17769SOL    HW156262   9.763   7.861   5.259  1.0834 -0.0300  0.1506
17769SOL    HW256263   9.862   7.801   5.357  0.1987 -0.4727  0.7949
17770SOL     OW56264   8.080   7.863   1.307 -0.7715 -0.1887  0.1724
17770SOL    HW156265   7.993   7.832   1.335 -1.7374  0.4819 -1.9156
17770SOL    HW256266   8.097   7.815   1.226  0.1091  0.8383 -0.2670
17771SOL     OW56267   3.819   3.846   2.954  0.5296 -0.3969  0.3856
17771SOL    HW156268   3.802   3.915   3.019  1.6098  0.6074 -0.3493
17771SOL    HW256269   3.776   3.768   2.990 -4.6306  1.5225 -0.7669
17772SOL     OW56270   4.972   0.144   9.386 -0.1269 -0.9719 -0.1096
17772SOL    HW156271   5.006   0.138   9.475 -3.2237 -3.4228  1.1403
17772SOL    HW256272   4.987   0.057   9.349  0.2116 -0.2891 -1.6353
17773SOL     OW56273   2.944   5.177   4.474  0.0659  0.1189 -0.0032
17773SOL    HW156274   2.903   5.185   4.387  1.1778 -0.5242 -0.6096
17773SOL    HW256275   2.872   5.155   4.532 -0.8009  1.1253 -0.6532
17774SOL     OW56276   7.584   0.756   7.500 -0.5868  0.2120  0.2993
17774SOL    HW156277   7.494   0.768   7.529 -0.3725  2.4688  0.2389
17774SOL    HW256278   7.634   0.822   7.548  1.2064 -1.4919  0.9084
17775SOL     OW56279   0.161   9.555   7.571  0.0155  0.4493 -0.1073
17775SOL    HW156280   0.193   9.468   7.545  0.6411  0.3857  0.8380
17775SOL    HW256281   0.071   9.557   7.539  0.0347 -0.4963 -0.2648
17776SOL     OW56282   1.202   2.054   7.530  0.4933  0.4842  0.2719
17776SOL    HW156283   1.200   2.148   7.550 -1.3888  0.5563 -0.0544
17776SOL    HW256284   1.188   2.050   7.435  1.2515 -0.1280  0.1707
17777SOL     OW56285   2.971   1.863   6.052 -0.2187 -0.0042 -0.5144
17777SOL    HW156286   2.911   1.917   6.000  0.1929 -0.8665 -1.9408
17777SOL    HW256287   2.918   1.789   6.080 -0.4042  0.3922  0.2125
17778SOL     OW56288   8.084   1.486   7.562 -0.1162 -0.2057 -0.3442
17778SOL    HW156289   8.158   1.484   7.501  0.6341 -2.6463  0.4951
17778SOL    HW256290   8.120   1.522   7.642 -0.4311  0.6283 -0.5714
17779SOL     OW56291   5.592   6.678   4.311 -0.1706 -0.9027 -0.0619
17779SOL    HW156292   5.504   6.657   4.281 -0.4022 -0.7681  0.5121
17779SOL    HW256293   5.580   6.744   4.379  0.4300 -0.2984 -0.5292
17780SOL     OW56294   9.263   4.700   4.130 -0.3291  0.0176  0.0998
17780SOL    HW156295   9.234   4.773   4.184  0.4803 -0.0615  0.6568
17780SOL    HW256296   9.244   4.728   4.040 -1.8061  0.0952  0.4125
17781SOL     OW56297   0.939  10.281   4.612  0.3677 -0.4464 -0.6170
17781SOL    HW156298   0.925  10.245   4.524 -2.9460 -1.9288  0.3634
17781SOL    HW256299   0.881  10.358   4.615  0.9672 -0.0140  0.0631
17782SOL     OW56300   6.639   5.202   0.458  0.0193 -0.5783 -0.6036
17782SOL    HW156301   6.562   5.160   0.419 -0.0055 -0.2005 -0.9709
17782SOL    HW256302   6.658   5.276   0.400  0.1151 -0.1312 -0.0136
17783SOL     OW56303   3.300   7.467   3.715 -0.6516  0.1654 -0.3079
17783SOL    HW156304   3.395   7.473   3.728 -0.3197 -2.2329 -1.1760
17783SOL    HW256305   3.263   7.506   3.795  1.0675  0.3601  0.4443
17784SOL     OW56306   1.038   6.621   7.589 -0.4398 -0.2229 -0.2779
17784SOL    HW156307   1.076   6.666   7.664 -0.0232 -0.8924 -0.0806
17784SOL    HW256308   0.946   6.609   7.612  0.0960 -2.2344  1.0334
17785SOL     OW56309   0.005  10.248   8.270 -0.9193  0.3890 -0.0002
17785SOL    HW156310  -0.048  10.194   8.212 -2.9712  2.1528  0.1193
17785SOL    HW256311  -0.001  10.337   8.234  1.2133  0.8429  0.5726
17786SOL     OW56312   6.493   9.143   9.991 -0.2195 -0.1656 -0.1136
17786SOL    HW156313   6.487   9.087  10.068  1.4692  1.3016  1.1563
17786SOL    HW256314   6.557   9.100   9.935 -1.1618 -1.0324 -0.5564
17787SOL     OW56315   4.119   7.943   7.585 -0.0362  0.3328  0.6280
17787SOL    HW156316   4.180   7.874   7.612  1.0025  1.2576  0.6861
17787SOL    HW256317   4.118   7.937   7.489  0.7996  0.8389  0.5750
17788SOL     OW56318   5.239   1.263   1.169  0.0820 -0.0290  0.2293
17788SOL    HW156319   5.161   1.243   1.220  0.2403 -0.4256  0.3254
17788SOL    HW256320   5.282   1.334   1.217  0.3751 -0.5876  0.8103
17789SOL     OW56321   5.236   3.117   6.694  0.5511 -0.2315  0.3907
17789SOL    HW156322   5.328   3.095   6.688  0.5920  0.0766 -0.1139
17789SOL    HW256323   5.192   3.054   6.637  0.4534 -0.3127  0.5513
17790SOL     OW56324   2.704   8.298   4.935 -0.2040  0.0975 -0.0340
17790SOL    HW156325   2.745   8.375   4.974  0.3727 -0.1134 -0.2114
17790SOL    HW256326   2.612   8.322   4.925  0.3116  1.4979 -1.9054
17791SOL     OW56327   3.267   1.092  10.357  0.2822 -0.7263  0.2219
17791SOL    HW156328   3.250   1.058  10.445  1.2261 -0.3234  0.5684
17791SOL    HW256329   3.238   1.183  10.360  0.9635 -0.5137  0.3206
17792SOL     OW56330  10.101   4.678   7.229  0.1336  0.6961  0.4715
17792SOL    HW156331  10.040   4.729   7.177  0.3357  0.2683 -0.1915
17792SOL    HW256332  10.065   4.589   7.230  0.7582  0.4282  0.0347
17793SOL     OW56333   9.337   0.218   1.541 -0.5091 -0.5068 -0.4745
17793SOL    HW156334   9.264   0.184   1.593 -1.2728 -0.2747 -1.3725
17793SOL    HW256335   9.393   0.142   1.526 -0.5440 -0.6830  0.2369
17794SOL     OW56336   6.943   8.794   9.224 -0.4788 -0.1653 -0.0315
17794SOL    HW156337   6.872   8.734   9.243  0.3810 -1.1601  0.1469
17794SOL    HW256338   6.913   8.844   9.147 -2.4276  1.3067  1.5719
17795SOL     OW56339   9.832   2.928   0.454 -0.2210 -0.3748 -1.0203
17795SOL    HW156340   9.750   2.974   0.436  0.2734  0.9645 -0.0608
17795SOL    HW256341   9.894   2.964   0.391  0.0269 -0.1701 -0.6595
17796SOL     OW56342   1.955   3.607   9.346 -0.1024 -0.5320  0.5344
17796SOL    HW156343   1.996   3.533   9.302  2.6372  1.1609 -0.0309
17796SOL    HW256344   1.971   3.592   9.439 -0.5650 -1.1820  0.5122
17797SOL     OW56345   7.712   0.198   1.236  0.2704  0.6073  0.0798
17797SOL    HW156346   7.754   0.174   1.318  2.3598 -0.1033 -1.1192
17797SOL    HW256347   7.696   0.292   1.244 -0.8105  0.3274  1.7767
17798SOL     OW56348   7.163   6.221   0.796  0.3275 -0.2128  0.1894
17798SOL    HW156349   7.213   6.140   0.799 -0.4987 -0.8404 -1.3778
17798SOL    HW256350   7.076   6.194   0.767  0.1446  1.2641 -0.7487
17799SOL     OW56351   2.854  10.553   8.411 -0.4179  0.4473 -0.4100
17799SOL    HW156352   2.857  10.597   8.326 -0.2574  1.4987  0.1150
17799SOL    HW256353   2.946  10.543   8.436 -0.4691  1.1333  0.1080
17800SOL     OW56354   7.878   6.200   8.411 -0.5257  0.2057  0.1451
17800SOL    HW156355   7.789   6.232   8.420 -1.0777 -1.3927  0.7436
17800SOL    HW256356   7.878   6.114   8.454  1.3982  0.3241  0.5031
17801SOL     OW56357   0.089   6.853   8.507  0.1095 -0.2482  0.6268
17801SOL    HW156358   0.027   6.884   8.572 -1.0860  0.2282 -0.6864
17801SOL    HW256359   0.074   6.759   8.502  0.7651 -0.4189  1.5757
17802SOL     OW56360   0.270   6.772   5.742 -0.3019  0.6411 -0.3136
17802SOL    HW156361   0.232   6.845   5.693  0.2139  1.5541  0.6284
17802SOL    HW256362   0.223   6.771   5.825  1.1867  1.3413  0.5871
17803SOL     OW56363   0.984   2.110   0.263 -0.2256  0.4513  0.5333
17803SOL    HW156364   0.928   2.043   0.224  0.7206 -1.6867  2.5352
17803SOL    HW256365   1.071   2.070   0.264  0.4974  1.9600  1.2979
17804SOL     OW56366   8.323   5.723   7.430  0.3123  0.2617  0.0679
17804SOL    HW156367   8.246   5.670   7.409 -0.1898  0.2878  1.6876
17804SOL    HW256368   8.288   5.810   7.446  0.5256  0.0948  1.6306
17805SOL     OW56369   0.423   1.883   5.354  0.1856  0.3974 -0.0680
17805SOL    HW156370   0.508   1.919   5.329  0.0929  0.5779 -0.1303
17805SOL    HW256371   0.361   1.930   5.298  0.0200  0.4661  0.1731
17806SOL     OW56372   7.467   4.156   2.329 -0.3491 -0.0964 -0.8652
17806SOL    HW156373   7.479   4.072   2.375  0.4080 -0.3419 -1.4935
17806SOL    HW256374   7.396   4.198   2.376 -2.6321 -2.2328 -2.1578
17807SOL     OW56375   2.451   8.384   0.251  0.6221 -0.1268  0.1720
17807SOL    HW156376   2.393   8.311   0.230 -1.0590  1.1336  0.2692
17807SOL    HW256377   2.458   8.383   0.346  0.5666 -0.1116  0.1757
17808SOL     OW56378  10.251   9.713   8.123  0.2460 -0.1486  0.6833
17808SOL    HW156379  10.282   9.673   8.204 -0.7267  1.1460  1.7532
17808SOL    HW256380  10.330   9.746   8.080  0.5568  2.8911  3.2322
17809SOL     OW56381   2.021   6.527   2.508 -0.6213  0.3355  0.1056
17809SOL    HW156382   1.949   6.567   2.556 -0.4876  1.2377 -0.4308
17809SOL    HW256383   2.081   6.599   2.489 -0.8885  0.1175 -1.8026
17810SOL     OW56384   1.858   0.069   8.911 -0.1545  0.5756 -0.2472
17810SOL    HW156385   1.918   0.048   8.839 -0.0076  1.1433 -0.2909
17810SOL    HW256386   1.903   0.137   8.960 -1.0196  1.4273 -0.6167
17811SOL     OW56387  10.193   7.287   6.334  0.5309 -0.5651 -0.2859
17811SOL    HW156388  10.201   7.196   6.305  0.5895 -0.7245  0.2329
17811SOL    HW256389  10.102   7.311   6.315  0.5910 -0.6437 -0.6720
17812SOL     OW56390   9.644   4.019   3.878 -0.5535 -0.1289  0.2569
17812SOL    HW156391   9.678   4.107   3.890  2.5197 -1.4459  2.3678
17812SOL    HW256392   9.660   4.000   3.785  1.5328  0.5201  0.4425
17813SOL     OW56393   6.838   5.293   3.736 -0.0792  0.4071 -0.1863
17813SOL    HW156394   6.829   5.373   3.685  1.8836 -0.3109 -1.7657
17813SOL    HW256395   6.810   5.223   3.677  2.9089 -0.5110 -0.6698
17814SOL     OW56396   9.769   1.415   0.311  0.1979  0.2239  0.6011
17814SOL    HW156397   9.691   1.384   0.265 -1.3856  0.9389  2.6452
17814SOL    HW256398   9.793   1.496   0.266 -0.2271 -0.0077 -0.0552
17815SOL     OW56399   7.648   8.287  10.224 -0.2076 -0.3456  0.6095
17815SOL    HW156400   7.588   8.362  10.225  0.5410  0.2760  0.2607
17815SOL    HW256401   7.637   8.248  10.137 -1.4037 -1.3267  1.1783
17816SOL     OW56402   5.574   4.868   5.424  0.8795 -0.0316 -0.1550
17816SOL    HW156403   5.532   4.812   5.359 -0.1701 -0.6777  1.0561
17816SOL    HW256404   5.667   4.846   5.417  0.7232 -0.4269 -1.1191
17817SOL     OW56405   6.952   1.526   2.102  0.0462 -0.2749 -0.8983
17817SOL    HW156406   6.882   1.530   2.037 -1.9597 -0.8380  1.1013
17817SOL    HW256407   6.955   1.614   2.140 -1.3243 -0.8174  0.6336
17818SOL     OW56408   8.426   0.829   8.649  0.2426 -0.1711 -0.4692
17818SOL    HW156409   8.492   0.853   8.714  2.2434 -1.7258 -1.8217
17818SOL    HW256410   8.475   0.817   8.568 -1.7340 -1.1951 -1.5792
17819SOL     OW56411   3.945   9.609   0.199 -0.0991  1.0308 -0.5427
17819SOL    HW156412   3.987   9.558   0.130  0.9698  1.1503  0.0061
17819SOL    HW256413   3.920   9.691   0.155  0.7608  1.1903 -0.7445
17820SOL     OW56414   1.685   3.119   4.373  0.1845  0.1586  0.1261
17820SOL    HW156415   1.654   3.064   4.445 -0.7161 -0.4616 -0.7130
17820SOL    HW256416   1.766   3.076   4.343  0.2889  0.1346  0.4416
17821SOL     OW56417   5.837   0.248   3.141 -0.7512 -0.1753  0.9970
17821SOL    HW156418   5.761   0.208   3.183 -2.9348  2.1172 -0.4915
17821SOL    HW256419   5.849   0.331   3.187  1.3765 -0.8113  1.6741
17822SOL     OW56420   6.072   1.773   3.051 -0.1344  0.1266 -0.0561
17822SOL    HW156421   6.123   1.699   3.085  2.3538  1.2505 -1.1279
17822SOL    HW256422   6.006   1.732   2.995  0.1127 -1.3634  0.6964
17823SOL     OW56423   6.704   0.354   2.465 -0.1975  0.1932  0.4875
17823SOL    HW156424   6.655   0.316   2.539 -0.5035 -0.7937 -0.2033
17823SOL    HW256425   6.724   0.279   2.409  0.3601  0.8821 -0.2487
17824SOL     OW56426   9.521   4.988   5.731  0.2525 -0.3739 -0.5482
17824SOL    HW156427   9.581   5.050   5.773  0.5198 -1.2459  0.4040
17824SOL    HW256428   9.446   5.041   5.705  0.5945  0.3956 -0.0014
17825SOL     OW56429   1.322   3.543   4.826  0.0173 -0.4223 -0.2846
17825SOL    HW156430   1.325   3.631   4.863  3.0416 -0.1917 -0.7916
17825SOL    HW256431   1.244   3.542   4.772 -0.1689  1.9004 -0.1564
17826SOL     OW56432   2.428   8.760   9.477  0.0216  0.5767  0.1385
17826SOL    HW156433   2.384   8.718   9.403  0.2415 -1.5295  1.1293
17826SOL    HW256434   2.513   8.715   9.483  1.0927  2.4711  0.1446
17827SOL     OW56435  10.483   0.314   1.814 -0.4138  0.4393 -0.0107
17827SOL    HW156436  10.441   0.386   1.766 -1.5623  0.8585  1.5297
17827SOL    HW256437  10.561   0.354   1.853 -0.5808  0.6290  0.1317
17828SOL     OW56438   6.493   0.461   4.875  0.1623 -0.1522 -0.6830
17828SOL    HW156439   6.574   0.466   4.824  1.3834  0.0786  1.1909
17828SOL    HW256440   6.503   0.383   4.929 -1.5904 -1.0196 -1.5184
17829SOL     OW56441   8.937   6.927   9.698  0.2990 -0.7133 -0.0752
17829SOL    HW156442   8.866   6.974   9.742 -0.0047 -1.5416  0.3583
17829SOL    HW256443   9.001   6.994   9.677 -1.3503  0.3512 -2.0322
17830SOL     OW56444   4.819   0.498   3.002  0.1502 -0.2309  0.4748
17830SOL    HW156445   4.834   0.588   2.973  0.4078 -0.2001  0.6979
17830SOL    HW256446   4.811   0.447   2.921  1.5152 -0.2585  0.3365
17831SOL     OW56447   7.390   2.892   3.791 -0.0835 -0.1244 -0.1685
17831SOL    HW156448   7.334   2.913   3.716  0.1416  0.9557 -0.0453
17831SOL    HW256449   7.393   2.796   3.793 -0.7295 -0.1700 -1.0610
17832SOL     OW56450  10.399   6.307   2.944  0.7295 -0.2432  0.2885
17832SOL    HW156451  10.355   6.278   3.024  1.4745  0.6270  1.0423
17832SOL    HW256452  10.474   6.248   2.935  0.5982 -0.3937  0.1864
17833SOL     OW56453   0.192   3.881   6.515  0.5915  0.3845  0.2923
17833SOL    HW156454   0.101   3.866   6.489  0.1736 -0.5971  2.1416
17833SOL    HW256455   0.200   3.976   6.520 -0.0123  0.5162 -0.9122
17834SOL     OW56456   8.023   7.195   6.546  0.7093 -0.6571 -0.1381
17834SOL    HW156457   8.001   7.115   6.498 -0.8662 -1.0092  1.0972
17834SOL    HW256458   8.115   7.184   6.570  0.5318 -2.0882 -0.0397
17835SOL     OW56459   6.719   5.367   9.930  0.4652 -0.0820 -0.4392
17835SOL    HW156460   6.762   5.450   9.910 -1.0545  1.2743  1.5433
17835SOL    HW256461   6.627   5.390   9.943  0.2282 -1.8120  1.4877
17836SOL     OW56462   1.718   8.423   8.155  0.1043 -0.3599  0.2023
17836SOL    HW156463   1.747   8.496   8.100 -0.3152 -0.0600  0.3668
17836SOL    HW256464   1.692   8.465   8.237  1.2266 -0.8542  0.8295
17837SOL     OW56465   1.994   2.003  10.279  0.0331  0.1709  0.2127
17837SOL    HW156466   1.969   1.946  10.207 -0.1296  0.6849 -0.1442
17837SOL    HW256467   1.971   2.091  10.249  1.1376  0.5289  0.3687
17838SOL     OW56468  10.373   5.540   8.785  0.7567  0.4819 -0.5905
17838SOL    HW156469  10.393   5.590   8.706 -0.4902  0.7616 -0.7542
17838SOL    HW256470  10.373   5.605   8.855 -0.4541  0.6712 -0.7399
17839SOL     OW56471   8.160   6.523   7.574 -0.5014 -0.3975  0.0968
17839SOL    HW156472   8.196   6.587   7.513  2.0466  0.3558  2.1820
17839SOL    HW256473   8.222   6.451   7.572 -0.7940 -0.6997  1.1658
17840SOL     OW56474   5.218   9.573   8.435  0.1910 -0.5267 -0.1792
17840SOL    HW156475   5.189   9.652   8.390 -0.8612  0.4148  2.0222
17840SOL    HW256476   5.216   9.595   8.528  1.3292 -2.6811  0.4429
17841SOL     OW56477   2.770   6.493   8.306  0.8999  0.1869  0.3035
17841SOL    HW156478   2.766   6.547   8.385  0.4860  0.9164 -0.2039
17841SOL    HW256479   2.773   6.556   8.234  0.3286 -0.4669 -0.3046
17842SOL     OW56480   2.895   9.581   3.872  0.3916 -0.0166 -0.1603
17842SOL    HW156481   2.810   9.541   3.892  0.2294  0.5193  0.2845
17842SOL    HW256482   2.876   9.642   3.801 -0.0900  1.6986  1.3337
17843SOL     OW56483   1.177   9.209   7.706  0.4042  0.6223 -0.1053
17843SOL    HW156484   1.268   9.234   7.691  0.6144 -0.0440  0.0415
17843SOL    HW256485   1.182   9.140   7.773 -0.4081  2.7804  2.3658
17844SOL     OW56486   6.181   9.268   9.186  0.0113  0.0687 -0.7169
17844SOL    HW156487   6.260   9.282   9.239 -0.3832 -0.8595  0.1646
17844SOL    HW256488   6.109   9.288   9.246 -0.4515 -0.9245 -0.9294
17845SOL     OW56489   0.898   8.638   5.081 -0.3244  0.2562  0.1695
17845SOL    HW156490   0.965   8.632   5.149 -2.4678  0.9262  2.5190
17845SOL    HW256491   0.945   8.666   5.003  2.0061  1.4375  1.8775
17846SOL     OW56492   4.096   2.560   1.327 -0.4331 -0.0107  0.0110
17846SOL    HW156493   4.100   2.506   1.406 -1.5985  0.3433  0.3314
17846SOL    HW256494   4.003   2.581   1.317  0.0155  2.2982  0.1256
17847SOL     OW56495   1.091   2.785   6.840 -0.6021  0.1137  0.0623
17847SOL    HW156496   1.109   2.691   6.845 -0.9311 -0.0407 -1.1657
17847SOL    HW256497   1.034   2.793   6.763  0.7392  1.5011 -0.8483
17848SOL     OW56498  10.256   3.745   4.798  0.0528 -0.4050  0.4932
17848SOL    HW156499  10.339   3.790   4.781  0.2624  0.5351  3.3692
17848SOL    HW256500  10.280   3.654   4.812  0.6578 -0.1167  1.4255
17849SOL     OW56501   8.731   9.380  10.255  0.1211  0.4843  0.5929
17849SOL    HW156502   8.742   9.383  10.350 -0.9325 -2.8026  0.9603
17849SOL    HW256503   8.648   9.424  10.240 -0.6676 -0.6339  1.4850
17850SOL     OW56504   9.716   1.661   1.732 -0.1122 -0.3427 -0.1999
17850SOL    HW156505   9.769   1.729   1.692  0.2400 -1.0583 -0.9920
17850SOL    HW256506   9.773   1.584   1.733 -0.4950 -0.6257  0.6911
17851SOL     OW56507   2.172   4.331   9.000 -0.6477  0.0912 -0.6568
17851SOL    HW156508   2.142   4.405   9.052 -1.0250  0.2390 -1.0754
17851SOL    HW256509   2.267   4.345   8.990 -0.5043 -0.1458  0.3026
17852SOL     OW56510   6.264   3.576   8.944 -0.0047 -0.1146  0.3461
17852SOL    HW156511   6.265   3.669   8.921 -2.0949 -0.9407 -4.0162
17852SOL    HW256512   6.344   3.541   8.907  0.6611 -0.1810  1.7776
17853SOL     OW56513   3.801   6.146  10.398  0.2803  0.8072  0.0020
17853SOL    HW156514   3.815   6.230  10.442  0.9382  0.0616  1.2797
17853SOL    HW256515   3.765   6.169  10.312  0.7702  2.4015  0.1948
17854SOL     OW56516   3.422   2.893   7.844  0.0552 -0.8452  0.3116
17854SOL    HW156517   3.485   2.868   7.777 -0.3866 -1.2655  0.0430
17854SOL    HW256518   3.368   2.961   7.802  1.7801  1.2482  1.3163
17855SOL     OW56519   7.676   9.387   9.935  0.2461 -0.3847  0.1152
17855SOL    HW156520   7.771   9.372   9.933  0.3510  0.0153  1.1899
17855SOL    HW256521   7.642   9.338   9.860  1.2322 -1.0591  0.0872
17856SOL     OW56522   1.911   5.589   6.486  0.1966 -0.4358  0.2727
17856SOL    HW156523   1.878   5.547   6.406  0.1391 -1.9613  1.0509
17856SOL    HW256524   1.955   5.668   6.456 -0.7858 -0.4007 -1.1576
17857SOL     OW56525   6.906   2.771   7.113  0.1291  0.3075 -0.2955
17857SOL    HW156526   6.813   2.780   7.134 -0.0853 -2.5952  0.3502
17857SOL    HW256527   6.914   2.809   7.025 -1.7185  0.3796 -0.4742
17858SOL     OW56528   4.384   2.494   1.716  0.3138 -0.2277  0.3523
17858SOL    HW156529   4.420   2.427   1.657  0.7020 -0.0795  0.4158
17858SOL    HW256530   4.315   2.449   1.764  2.7050 -1.5761  2.8000
17859SOL     OW56531   5.434   6.156   3.082  0.3307 -0.2418  0.3206
17859SOL    HW156532   5.352   6.108   3.074 -1.7615  2.9226  0.9990
17859SOL    HW256533   5.455   6.153   3.175  1.1266 -1.1417  0.1346
17860SOL     OW56534   4.261   2.722   1.801 -0.7394 -0.5998 -0.4180
17860SOL    HW156535   4.200   2.752   1.733  0.6362 -1.7955 -2.2451
17860SOL    HW256536   4.306   2.647   1.763  1.1805 -0.3967  1.2559
17861SOL     OW56537   8.750   6.479   4.511  0.1516 -0.5626 -0.4394
17861SOL    HW156538   8.777   6.560   4.466 -2.2044  0.1997 -0.6155
17861SOL    HW256539   8.748   6.413   4.442 -1.7650  0.2053 -1.1806
17862SOL     OW56540   7.522   4.657   8.056 -0.3569  0.0162 -0.2519
17862SOL    HW156541   7.479   4.587   8.007  0.8129  0.4084 -1.9332
17862SOL    HW256542   7.607   4.621   8.080 -0.7077  0.0236  1.0623
17863SOL     OW56543  10.683   7.108   3.337  1.1418 -0.1254  0.2323
17863SOL    HW156544  10.661   7.054   3.413 -0.4685  0.1648  0.0097
17863SOL    HW256545  10.642   7.193   3.356  0.1240 -0.2544 -1.2502
17864SOL     OW56546   3.478   6.339   8.878 -0.0579 -0.0735  0.2475
17864SOL    HW156547   3.519   6.422   8.902 -0.7186  0.3877 -0.1536
17864SOL    HW256548   3.522   6.312   8.797  1.4840 -1.1192  1.3997
17865SOL     OW56549   8.302   3.440   9.822 -0.6251  0.3617 -0.7248
17865SOL    HW156550   8.386   3.485   9.826 -0.2151 -0.1435 -2.6334
17865SOL    HW256551   8.241   3.504   9.785 -0.5652  0.0912 -1.3149
17866SOL     OW56552   1.953   5.730   7.532  0.0358 -0.2778  1.0124
17866SOL    HW156553   2.023   5.772   7.483 -0.2511  0.2542  1.0457
17866SOL    HW256554   1.997   5.682   7.602  0.3011  0.9863  1.7258
17867SOL     OW56555   5.500   6.710   1.805 -0.0399 -0.2886  0.4811
17867SOL    HW156556   5.592   6.719   1.830  0.0920 -0.2395 -0.0139
17867SOL    HW256557   5.498   6.730   1.711 -0.7200  0.7695  0.7023
17868SOL     OW56558   2.259   7.559   8.176  0.1755  0.9321 -0.1047
17868SOL    HW156559   2.260   7.648   8.143 -0.0623  1.3332  0.9057
17868SOL    HW256560   2.234   7.505   8.101  1.2293  1.5980 -0.9572
17869SOL     OW56561   9.428   0.605   9.519 -0.4576  0.4693  0.1359
17869SOL    HW156562   9.445   0.695   9.545  0.1295 -0.6650  4.3229
17869SOL    HW256563   9.366   0.572   9.583 -0.8230 -2.0965 -1.3918
17870SOL     OW56564   6.189   4.835   9.996  0.5827 -0.3494 -0.1398
17870SOL    HW156565   6.179   4.930  10.006  2.2689 -0.0608 -0.8411
17870SOL    HW256566   6.108   4.807   9.953 -0.4639  0.5540  1.1678
17871SOL     OW56567   2.913   4.893   7.231  0.3214  0.0468  0.1488
17871SOL    HW156568   2.951   4.831   7.169 -0.3832  0.6550 -0.9203
17871SOL    HW256569   2.866   4.838   7.294 -0.3853 -0.5106 -0.8418
17872SOL     OW56570   7.502   9.639   1.607  0.3158  0.3465 -0.4920
17872SOL    HW156571   7.519   9.703   1.538  0.5663  0.0239 -0.7348
17872SOL    HW256572   7.466   9.563   1.561 -0.0362  0.3357 -0.1994
17873SOL     OW56573   7.646   8.533   6.479  0.4311  0.2680 -0.0661
17873SOL    HW156574   7.616   8.531   6.388  2.3677 -1.8599 -0.7522
17873SOL    HW256575   7.643   8.442   6.507  0.2970  0.8300  1.8920
17874SOL     OW56576   1.096   2.132   4.174 -0.3436  0.1875 -0.0141
17874SOL    HW156577   1.175   2.156   4.223  0.5830 -1.0055 -0.8582
17874SOL    HW256578   1.113   2.162   4.085 -2.2102  2.7658  0.3969
17875SOL     OW56579   6.732   7.695   4.875  0.4348  0.5735  0.0187
17875SOL    HW156580   6.671   7.641   4.924  0.2234  1.3079  0.5959
17875SOL    HW256581   6.800   7.718   4.939  0.4217  1.1310 -0.1621
17876SOL     OW56582   1.311   8.746   9.193  0.4052  0.1074  0.0436
17876SOL    HW156583   1.231   8.703   9.222  0.6884  0.1770  0.9856
17876SOL    HW256584   1.358   8.766   9.275  1.2479  0.3126 -0.4756
17877SOL     OW56585   6.877   4.274  10.268 -0.0783  0.6255 -0.8102
17877SOL    HW156586   6.836   4.343  10.217 -2.4843  0.2061  0.4266
17877SOL    HW256587   6.815   4.201  10.265 -0.0107  0.3403  2.0430
17878SOL     OW56588   7.305   6.740   1.297  0.3940  0.4479  0.3467
17878SOL    HW156589   7.293   6.798   1.221  0.9409 -0.1036 -0.1756
17878SOL    HW256590   7.219   6.701   1.311  0.0528  1.2849  0.6237
17879SOL     OW56591   6.241   8.214   6.831  1.0634  0.2815  0.4708
17879SOL    HW156592   6.261   8.302   6.797  1.4155  0.4911  1.1908
17879SOL    HW256593   6.150   8.220   6.862  0.2073 -0.3436 -1.7618
17880SOL     OW56594   0.802   9.241   2.517  0.1055 -0.2926  0.4545
17880SOL    HW156595   0.781   9.221   2.608 -1.6837 -0.7530 -0.0330
17880SOL    HW256596   0.829   9.157   2.480 -0.3263 -0.3468  0.2614
17881SOL     OW56597   0.241   5.068   9.211  0.3667 -0.3065 -0.8875
17881SOL    HW156598   0.334   5.051   9.225  0.3355 -0.9652 -1.4068
17881SOL    HW256599   0.225   5.040   9.121 -0.5822 -1.3550 -0.4246
17882SOL     OW56600   9.992   4.258   4.064 -0.1663 -0.0091  0.6214
17882SOL    HW156601   9.988   4.323   4.134 -0.3222  1.4184 -0.6743
17882SOL    HW256602   9.902   4.251   4.032  0.0001 -0.2620  0.2020
17883SOL     OW56603   2.467   4.976   2.720 -0.7052 -0.1580 -0.2459
17883SOL    HW156604   2.498   4.970   2.811  0.4265  2.3339 -0.3723
17883SOL    HW256605   2.490   4.892   2.681 -0.0635 -0.8102  1.4485
17884SOL     OW56606   0.382  10.026   6.759 -0.7242  0.2312  0.1114
17884SOL    HW156607   0.314  10.053   6.697 -1.2651 -0.3087  0.4518
17884SOL    HW256608   0.413   9.942   6.725 -0.9381 -0.0083  0.4952
17885SOL     OW56609   3.471   8.301   7.658 -0.7810 -0.0491 -0.4882
17885SOL    HW156610   3.391   8.354   7.665  0.0045  1.2453 -0.9409
17885SOL    HW256611   3.537   8.362   7.628  0.1676 -1.3217 -1.0701
17886SOL     OW56612   0.835   9.212   5.196  0.5417  0.0689 -0.5694
17886SOL    HW156613   0.786   9.292   5.211  2.8909  1.5224 -0.1493
17886SOL    HW256614   0.801   9.178   5.113 -0.8948  1.1500 -0.4544
17887SOL     OW56615   6.803   7.865   9.812  0.4138 -0.1442  0.3888
17887SOL    HW156616   6.762   7.952   9.818  0.9687  0.0893  0.8270
17887SOL    HW256617   6.896   7.884   9.800  0.3814 -0.6640 -0.9162
17888SOL     OW56618   1.675   4.817   3.871  0.2448 -0.0633  0.8190
17888SOL    HW156619   1.672   4.722   3.859  1.3683 -0.2081  1.5313
17888SOL    HW256620   1.704   4.851   3.787  0.4512 -0.4077  0.7505
17889SOL     OW56621   7.360   0.955   5.428 -0.1329 -0.3713  0.1118
17889SOL    HW156622   7.296   1.022   5.402 -0.2880 -0.6887 -0.3560
17889SOL    HW256623   7.444   0.999   5.424 -0.3148  0.0238  0.6249
17890SOL     OW56624   1.250   7.152   3.544  0.0858  0.3240  0.1134
17890SOL    HW156625   1.166   7.175   3.505 -0.4419 -0.2505  0.8614
17890SOL    HW256626   1.238   7.168   3.638 -0.0114 -1.9480  0.5627
17891SOL     OW56627   5.201   9.399   6.686  0.4751 -0.0387  0.7727
17891SOL    HW156628   5.222   9.479   6.734  0.9670  0.3522 -0.0551
17891SOL    HW256629   5.192   9.332   6.753  1.7946  0.3494  1.3749
17892SOL     OW56630   5.144   7.621   8.945 -0.4464 -0.3396  0.0449
17892SOL    HW156631   5.058   7.618   8.986  0.6405 -0.7257  2.4935
17892SOL    HW256632   5.165   7.529   8.927 -0.2700 -0.3021  0.0583
17893SOL     OW56633   4.075   7.441   8.935  0.2946  0.1913  0.0874
17893SOL    HW156634   4.132   7.441   8.858  0.3042  0.3235  0.0946
17893SOL    HW256635   4.117   7.379   8.995  0.6789  0.6163  0.2684
17894SOL     OW56636   6.646   4.644   4.521  0.1312  0.4757 -0.0430
17894SOL    HW156637   6.590   4.708   4.477  0.2718 -1.0155 -2.5751
17894SOL    HW256638   6.663   4.682   4.607 -1.2919  2.9321 -0.7583
17895SOL     OW56639   9.667   0.793   6.143 -0.1460 -0.0841 -0.5955
17895SOL    HW156640   9.631   0.708   6.118  1.5259 -0.9858 -0.0910
17895SOL    HW256641   9.623   0.855   6.086 -2.5235 -1.0760  0.0577
17896SOL     OW56642   2.152  10.467   0.374 -0.4193 -0.4891 -0.0605
17896SOL    HW156643   2.150  10.561   0.395 -1.3888 -0.3824 -0.6075
17896SOL    HW256644   2.168  10.424   0.459  2.0823  0.2365 -0.0676
17897SOL     OW56645   3.993   2.698   5.184  0.2792  0.1143  0.0365
17897SOL    HW156646   3.994   2.695   5.088 -0.4602  2.1084 -0.0803
17897SOL    HW256647   3.996   2.791   5.205 -3.4097  0.0299  1.8287
17898SOL     OW56648   9.311  10.489   8.627  0.4129 -0.5374 -0.5057
17898SOL    HW156649   9.335  10.397   8.613 -0.0143 -0.6422 -0.5814
17898SOL    HW256650   9.325  10.530   8.542 -0.7611 -0.8522 -0.8759
17899SOL     OW56651   8.912   4.232  10.008 -0.1708  0.2796 -0.3043
17899SOL    HW156652   8.872   4.319  10.013 -1.9817 -0.5786  1.0416
17899SOL    HW256653   8.864   4.179  10.072  2.1930 -1.2246  0.3693
17900SOL     OW56654  10.685   6.454   7.962  0.1497  0.2973  0.3600
17900SOL    HW156655  10.682   6.499   7.878 -0.5088  0.3063  0.3840
17900SOL    HW256656  10.611   6.393   7.959  1.0163 -0.7907  0.3242
17901SOL     OW56657   7.127   0.847   7.956  0.0464 -0.5421  0.0088
17901SOL    HW156658   7.131   0.768   7.902  0.8252 -0.0213 -0.7195
17901SOL    HW256659   7.034   0.857   7.976 -0.0458 -1.7235  0.2467
17902SOL     OW56660   7.880   2.938   1.311 -0.2673  0.2243  0.1997
17902SOL    HW156661   7.906   3.031   1.313 -1.2715  0.5248 -0.0729
17902SOL    HW256662   7.854   2.923   1.221 -1.5698  0.1085  0.5723
17903SOL     OW56663   5.342   4.296   4.262 -0.3024 -0.0549  0.7395
17903SOL    HW156664   5.318   4.214   4.220  0.2708 -0.0620  0.4223
17903SOL    HW256665   5.393   4.270   4.339  1.6908  0.0287 -0.4880
17904SOL     OW56666   3.196   3.543   3.333 -0.6662 -0.2098  0.6856
17904SOL    HW156667   3.248   3.598   3.274 -0.1709 -2.7669 -1.4645
17904SOL    HW256668   3.233   3.560   3.420  0.2933  1.8226 -0.0553
17905SOL     OW56669   2.985   9.528   5.564 -0.1800 -0.2021 -0.1304
17905SOL    HW156670   3.012   9.553   5.653 -0.7112 -1.2576  0.3416
17905SOL    HW256671   2.954   9.610   5.525 -0.0040  0.2631  0.6755
17906SOL     OW56672   7.279   5.840   1.916  0.0381 -0.4867  0.2231
17906SOL    HW156673   7.299   5.762   1.864 -2.2151 -1.6459  0.9597
17906SOL    HW256674   7.246   5.805   1.998  1.3791  1.3117  1.5951
17907SOL     OW56675   1.625   4.633   9.623 -0.4103  0.7788 -0.3578
17907SOL    HW156676   1.541   4.593   9.647  0.0332 -0.6663 -1.1102
17907SOL    HW256677   1.613   4.727   9.641 -2.8288  0.9099 -2.1890
17908SOL     OW56678  10.150   0.049   4.094  0.1645 -0.5853 -0.3827
17908SOL    HW156679  10.072   0.044   4.038  0.3084  1.4691 -0.8645
17908SOL    HW256680  10.134   0.125   4.150  1.8742  0.0227 -0.6508
17909SOL     OW56681   8.954   7.882  10.425  0.3071 -0.2711  0.2408
17909SOL    HW156682   8.986   7.859  10.512 -0.1429 -1.7084  0.0531
17909SOL    HW256683   9.033   7.909  10.377  0.8962 -1.5459  0.4625
17910SOL     OW56684   9.466   7.381   6.750  0.3195 -0.1540  0.2171
17910SOL    HW156685   9.394   7.398   6.811  0.4028  0.7662  0.0803
17910SOL    HW256686   9.459   7.288   6.730  0.1140 -0.4145  1.3983
17911SOL     OW56687   1.049   9.286   0.514 -0.3832 -0.5576  0.8227
17911SOL    HW156688   0.976   9.285   0.452 -1.3688 -1.6275  1.9574
17911SOL    HW256689   1.067   9.379   0.529 -0.1702 -0.2737 -0.9810
17912SOL     OW56690   2.272   2.079   5.479  0.2300  0.1757 -0.1840
17912SOL    HW156691   2.216   2.050   5.406  0.8110  1.4393 -1.1774
17912SOL    HW256692   2.215   2.076   5.556 -0.3858 -1.2527 -0.6584
17913SOL     OW56693   2.726   5.085   1.940  0.8605  0.2352 -0.0088
17913SOL    HW156694   2.704   5.016   2.002  0.1845 -0.3995 -0.9355
17913SOL    HW256695   2.682   5.060   1.859  0.1782  2.0097 -0.2268
17914SOL     OW56696   4.407   6.846   0.727 -0.2206 -0.0584 -0.3402
17914SOL    HW156697   4.373   6.867   0.814 -0.2310  0.1245 -0.3873
17914SOL    HW256698   4.401   6.928   0.678  0.1275 -0.0681 -0.4019
17915SOL     OW56699   6.947   6.961   9.996  0.4700 -0.2047  0.1456
17915SOL    HW156700   6.903   6.922   9.921 -1.0595  1.7673 -0.0679
17915SOL    HW256701   6.982   6.887  10.045 -0.3215 -1.6497 -1.3988
17916SOL     OW56702   4.077   4.849  10.510  0.1560 -0.2231 -0.2116
17916SOL    HW156703   4.074   4.877  10.418  1.6570 -0.0432 -0.2329
17916SOL    HW256704   4.101   4.757  10.507  0.0309 -0.2637 -0.0031
17917SOL     OW56705   5.486   2.027   1.755  0.4776 -0.1899 -0.1462
17917SOL    HW156706   5.510   2.119   1.763  3.1190 -0.7715 -0.4102
17917SOL    HW256707   5.526   1.999   1.673 -0.4962 -1.5146 -0.1944
17918SOL     OW56708   9.533   9.311   7.234 -0.0128  0.5331  0.3679
17918SOL    HW156709   9.456   9.358   7.268 -0.0690  0.1005  0.8392
17918SOL    HW256710   9.535   9.334   7.141 -1.3894 -0.3582  0.0843
17919SOL     OW56711   7.261   8.013   4.384  0.2891  0.0269  0.2216
17919SOL    HW156712   7.189   7.979   4.330 -0.2232  0.9145  0.3288
17919SOL    HW256713   7.339   7.994   4.332 -0.1500  0.3830 -0.6000
17920SOL     OW56714   5.400   1.226   2.968 -0.8308 -0.7657  0.0048
17920SOL    HW156715   5.492   1.243   2.987 -0.8239  0.6053 -1.0630
17920SOL    HW256716   5.371   1.305   2.922 -2.8188 -0.7031  1.2591
17921SOL     OW56717   2.647   2.478   6.399  0.3513  0.3912  0.1487
17921SOL    HW156718   2.615   2.546   6.340 -0.7597  0.0816  0.3772
17921SOL    HW256719   2.662   2.523   6.482 -0.5438  0.3459  0.3482
17922SOL     OW56720   3.186   4.125   7.785  0.0139 -0.3050  0.1740
17922SOL    HW156721   3.130   4.196   7.816  1.5925  1.6062 -1.0773
17922SOL    HW256722   3.266   4.132   7.837  1.4433  0.9731 -1.9929
17923SOL     OW56723   9.896  10.472   1.183  0.5186  0.0760  0.5517
17923SOL    HW156724   9.857  10.471   1.270  0.5270 -0.3791  0.5531
17923SOL    HW256725   9.935  10.559   1.175  1.7316 -0.3444  1.5557
17924SOL     OW56726   5.166   1.656   9.457  0.1725  0.1057  0.1238
17924SOL    HW156727   5.151   1.683   9.366 -1.9299  1.9925  0.9461
17924SOL    HW256728   5.172   1.560   9.452 -1.7864 -0.0072 -1.8250
17925SOL     OW56729   4.034   5.937  10.409  0.0843 -0.1618  0.1037
17925SOL    HW156730   3.967   6.005  10.403  0.3462 -0.0148 -2.9047
17925SOL    HW256731   3.986   5.855  10.415 -0.2760  0.1088  1.0669
17926SOL     OW56732   4.173   9.681   8.345  0.1999 -0.6913 -0.7225
17926SOL    HW156733   4.199   9.606   8.399 -0.3382 -0.6824 -0.4482
17926SOL    HW256734   4.080   9.693   8.363  0.7908  1.6817  1.2726
17927SOL     OW56735  10.263   2.308   3.022  0.5901  0.3708 -0.0271
17927SOL    HW156736  10.281   2.283   3.113 -0.0497 -1.6741 -0.3969
17927SOL    HW256737  10.297   2.397   3.014  3.0159 -0.3101  1.5210
17928SOL     OW56738   5.397   3.258   2.995  0.7520  0.3272  0.1403
17928SOL    HW156739   5.466   3.204   3.035  1.0360  0.9850  0.5495
17928SOL    HW256740   5.392   3.336   3.051  0.0887  0.5609 -0.2338
17929SOL     OW56741   5.254   7.565   2.082  0.4190  0.3850 -0.0515
17929SOL    HW156742   5.286   7.646   2.123 -1.3995  1.2903 -0.3309
17929SOL    HW256743   5.290   7.495   2.137 -0.2324  1.4822  1.8636
17930SOL     OW56744   4.476   9.531   3.798 -0.0730 -0.5567 -0.2730
17930SOL    HW156745   4.422   9.568   3.729  1.3102 -0.3112 -1.2430
17930SOL    HW256746   4.530   9.465   3.755  1.2268  0.0009  0.4540
17931SOL     OW56747   1.021   5.241   0.885  0.1254 -0.6511 -0.6846
17931SOL    HW156748   1.046   5.269   0.797 -0.8181  2.8752  0.0269
17931SOL    HW256749   0.928   5.221   0.878  0.1549 -0.8435 -0.5527
17932SOL     OW56750   9.878   0.759   5.873 -0.2163 -0.2964 -0.2111
17932SOL    HW156751   9.827   0.778   5.794 -0.6847 -1.5977 -0.2379
17932SOL    HW256752   9.901   0.845   5.908 -0.8125  0.2996 -1.2425
17933SOL     OW56753   4.698   2.612   1.524 -0.7324  0.2455 -0.1640
17933SOL    HW156754   4.634   2.592   1.455  0.1275  0.0253 -0.9148
17933SOL    HW256755   4.649   2.663   1.588 -1.3749  1.0999 -1.3003
17934SOL     OW56756   4.956   9.963   7.108 -0.5438 -0.2569  0.2090
17934SOL    HW156757   4.876   9.940   7.060 -0.2532  0.6311 -0.7403
17934SOL    HW256758   5.024   9.910   7.065  0.0658  1.9613 -1.7440
17935SOL     OW56759  10.137  10.370   9.718  0.1926  0.2915 -0.3155
17935SOL    HW156760  10.060  10.410   9.677 -0.0718 -0.0645 -0.1789
17935SOL    HW256761  10.201  10.363   9.647  0.7980  2.2893 -0.0236
17936SOL     OW56762   5.531   2.943   3.524  0.3539  0.7475 -0.2337
17936SOL    HW156763   5.465   3.009   3.543  1.2150  1.1482  1.5204
17936SOL    HW256764   5.595   2.950   3.595  1.5466 -0.5932 -1.0992
17937SOL     OW56765   8.281   7.924   9.767  0.2621 -0.1730 -0.0844
17937SOL    HW156766   8.349   7.916   9.833 -1.1676  0.2064  1.5044
17937SOL    HW256767   8.202   7.892   9.810 -0.5346 -0.8469 -1.9507
17938SOL     OW56768   1.932   1.050   7.549  0.5591 -0.1125 -0.5045
17938SOL    HW156769   1.842   1.074   7.571  0.6979 -0.0674  0.0307
17938SOL    HW256770   1.924   0.980   7.485  0.1470  0.4965 -1.1215
17939SOL     OW56771   5.554   1.091   5.014 -0.0098  0.0317  0.2365
17939SOL    HW156772   5.636   1.060   4.976  0.8908  1.4389  0.9381
17939SOL    HW256773   5.486   1.034   4.975  1.1505 -0.4012 -1.2634
17940SOL     OW56774   2.360   1.215   0.049  0.2913  0.2643  0.2306
17940SOL    HW156775   2.353   1.216  -0.047 -0.8471 -0.5642  0.2872
17940SOL    HW256776   2.417   1.141   0.068  0.6305  0.5132  0.1993
17941SOL     OW56777   4.268   8.083   0.561  0.1231  0.3721  0.1867
17941SOL    HW156778   4.175   8.089   0.581 -0.2102  1.5012 -1.4872
17941SOL    HW256779   4.305   8.032   0.633 -1.9120 -0.7847  0.4912
17942SOL     OW56780   9.226   1.656   6.620  0.1066 -0.2630 -0.6400
17942SOL    HW156781   9.260   1.666   6.531 -1.4066 -1.3819 -1.3727
17942SOL    HW256782   9.187   1.741   6.641  1.3992  0.3470 -0.6029
17943SOL     OW56783   4.174   8.030   6.772  0.3639 -0.2794  0.0566
17943SOL    HW156784   4.107   7.976   6.730  2.3650 -1.3069 -1.9734
17943SOL    HW256785   4.150   8.120   6.748 -1.7229 -0.3508  1.6014
17944SOL     OW56786   2.216  10.170   0.973  0.5199 -0.1916 -0.1089
17944SOL    HW156787   2.145  10.143   0.915 -1.1559  0.4144  1.5787
17944SOL    HW256788   2.251  10.087   1.006 -0.0152 -0.4717 -0.2273
17945SOL     OW56789   9.677   9.697   4.285  0.7469 -0.2006  0.6497
17945SOL    HW156790   9.660   9.780   4.242 -0.1113 -1.3580 -1.4070
17945SOL    HW256791   9.604   9.641   4.259  1.4694 -1.6940  1.6885
17946SOL     OW56792   2.293   2.019   1.676 -0.4264  0.7551 -0.0853
17946SOL    HW156793   2.206   2.003   1.712 -0.0618  0.6199  0.7521
17946SOL    HW256794   2.282   2.007   1.582 -1.3074  0.7214  0.0141
17947SOL     OW56795   9.676   6.552   6.132  0.6991  0.1783 -0.1931
17947SOL    HW156796   9.727   6.587   6.205 -0.2522 -0.1387  0.6380
17947SOL    HW256797   9.729   6.480   6.098  1.1824  0.3829  0.1119
17948SOL     OW56798   4.629   5.227   8.881  0.5369 -0.1420 -0.4257
17948SOL    HW156799   4.618   5.220   8.786 -0.6350  2.1299 -0.5402
17948SOL    HW256800   4.543   5.253   8.913  1.3111  0.7099  1.0458
17949SOL     OW56801   1.114   1.244   6.372 -0.3533  0.4531 -0.1483
17949SOL    HW156802   1.183   1.178   6.378 -0.6603  0.2596  2.2135
17949SOL    HW256803   1.143   1.303   6.303  1.2076 -0.6874 -0.5172
17950SOL     OW56804   0.328   2.487   1.763 -0.0259 -0.1397 -0.1093
17950SOL    HW156805   0.402   2.514   1.709  0.2547  0.4343  0.5468
17950SOL    HW256806   0.353   2.511   1.852 -0.4491 -1.1350  0.2956
17951SOL     OW56807   3.992   4.064   0.497  0.1220  0.0135  0.1949
17951SOL    HW156808   3.937   4.009   0.442 -1.4519  1.3257  0.3677
17951SOL    HW256809   4.043   4.003   0.550 -1.1414 -1.2607  0.0008
17952SOL     OW56810   1.214   5.485   4.793 -0.5576 -0.0544  0.9435
17952SOL    HW156811   1.148   5.416   4.789 -0.0166 -0.6738  2.2573
17952SOL    HW256812   1.285   5.453   4.737 -1.2647  0.5353 -0.3337
17953SOL     OW56813   3.780   0.475   4.026 -0.0397  0.2161 -0.1937
17953SOL    HW156814   3.787   0.423   3.946 -2.1576  0.7181 -0.7820
17953SOL    HW256815   3.871   0.493   4.051  0.8342 -3.4441 -0.0890
17954SOL     OW56816   4.395   4.479   5.818 -0.1594 -0.2138 -0.1156
17954SOL    HW156817   4.466   4.540   5.841 -0.2922 -0.5303  1.1951
17954SOL    HW256818   4.429   4.430   5.744 -0.4041  2.0856 -1.8764
17955SOL     OW56819   1.863   6.453   1.920  0.6541  0.1430 -0.2756
17955SOL    HW156820   1.816   6.457   1.837 -0.7659 -1.3370  0.4030
17955SOL    HW256821   1.955   6.440   1.894  0.3361  0.3820 -1.6074
17956SOL     OW56822   8.282   9.615   0.660  0.3744  0.2395  0.0078
17956SOL    HW156823   8.305   9.660   0.741  2.1645 -2.5398  1.1768
17956SOL    HW256824   8.359   9.626   0.604  0.2076 -0.1047 -0.2901
17957SOL     OW56825   3.064   7.488   7.234 -0.0875 -0.4785 -0.7573
17957SOL    HW156826   3.023   7.475   7.320 -0.8988  2.2886 -0.6170
17957SOL    HW256827   3.115   7.568   7.245 -0.7950  0.3494 -3.0383
17958SOL     OW56828   6.401   4.806   8.102 -0.1388 -0.2941  0.1160
17958SOL    HW156829   6.460   4.814   8.176  0.0488 -3.0399  0.3563
17958SOL    HW256830   6.314   4.815   8.139 -0.0415 -1.5545  0.6717
17959SOL     OW56831   6.884   8.369   2.677 -0.0679  0.5162  0.2387
17959SOL    HW156832   6.964   8.320   2.694 -1.7008 -2.0466  1.0413
17959SOL    HW256833   6.866   8.353   2.584  0.3882  1.1985  0.0259
17960SOL     OW56834   3.801   9.298   6.712 -0.2415 -0.1465  0.3665
17960SOL    HW156835   3.871   9.287   6.776  0.2013 -1.5481 -0.3223
17960SOL    HW256836   3.723   9.265   6.756  0.0913 -1.2587  0.1636
17961SOL     OW56837   9.239   2.803   1.672  0.3025  0.6447 -0.0382
17961SOL    HW156838   9.327   2.840   1.666  0.6695 -0.3832 -2.2202
17961SOL    HW256839   9.253   2.715   1.707  0.5949 -0.5685 -2.9121
17962SOL     OW56840  10.383   2.464   6.619 -0.3935 -0.3841  0.1108
17962SOL    HW156841  10.312   2.526   6.610 -0.5654 -0.6931 -0.6942
17962SOL    HW256842  10.387   2.418   6.535 -0.3423 -1.5333  0.7170
17963SOL     OW56843   1.335   1.770   4.410  0.4699  0.0646  0.4207
17963SOL    HW156844   1.351   1.847   4.464  1.5249  1.4569 -1.7442
17963SOL    HW256845   1.277   1.801   4.340  0.9416 -1.0839 -0.5180
17964SOL     OW56846   5.249   8.070   0.905  0.2014 -0.5175  0.0895
17964SOL    HW156847   5.287   7.985   0.884  1.9754  0.2736 -0.1054
17964SOL    HW256848   5.323   8.123   0.934 -0.8613  0.9484  0.2488
17965SOL     OW56849   8.225   4.839  10.472  0.8427 -0.2261  0.6986
17965SOL    HW156850   8.231   4.760  10.418  3.6243  0.7937 -0.7083
17965SOL    HW256851   8.202   4.909  10.410 -3.2207  0.0144  2.1620
17966SOL     OW56852   4.430   0.150   0.619  0.8643  0.2202 -0.6220
17966SOL    HW156853   4.413   0.088   0.547  1.7973 -1.3954  0.4805
17966SOL    HW256854   4.399   0.234   0.586  0.4499 -0.6403 -2.5730
17967SOL     OW56855   6.890   5.745   1.280 -0.2422 -0.1604 -0.3743
17967SOL    HW156856   6.895   5.714   1.190  0.5219 -0.6216 -0.1832
17967SOL    HW256857   6.976   5.724   1.318 -0.3982  0.4127  0.3374
17968SOL     OW56858   4.887   3.351   6.165  0.2633 -0.2864 -0.2141
17968SOL    HW156859   4.833   3.297   6.222  0.3764  0.2327  0.4045
17968SOL    HW256860   4.970   3.360   6.212 -0.1608  1.4220  0.3013
17969SOL     OW56861   4.746   0.037   9.021 -0.1057  0.3540  0.7260
17969SOL    HW156862   4.697  -0.043   9.038  1.6923 -0.7052  1.1766
17969SOL    HW256863   4.709   0.101   9.082 -1.9813  0.0790 -0.0707
17970SOL     OW56864   7.528   9.574   3.147  0.1016 -0.0647 -0.2249
17970SOL    HW156865   7.619   9.548   3.135  0.9502  1.5157  2.0768
17970SOL    HW256866   7.503   9.612   3.063  1.3144 -1.0883 -1.1025
17971SOL     OW56867  10.232   7.911   1.456  0.2658  0.0688  0.3894
17971SOL    HW156868  10.324   7.885   1.459  0.4495  0.7535  0.9089
17971SOL    HW256869  10.191   7.847   1.398  1.2215  0.2375 -0.5131
17972SOL     OW56870   5.157   5.707   2.074 -0.0375  0.5878 -0.4414
17972SOL    HW156871   5.158   5.622   2.031  2.2274 -0.4858  1.4930
17972SOL    HW256872   5.190   5.767   2.007 -0.8038 -0.1800 -1.5478
17973SOL     OW56873   2.967   8.043   2.809  0.0269 -0.1694 -0.3330
17973SOL    HW156874   3.015   8.069   2.887  0.7971 -1.9697 -0.1550
17973SOL    HW256875   3.026   7.984   2.762 -0.7070  0.2642 -1.8951
17974SOL     OW56876   9.870   9.973   0.066  0.5672  0.8273  0.3627
17974SOL    HW156877   9.885   9.965  -0.028  0.2556  2.3482  0.1619
17974SOL    HW256878   9.936   9.916   0.106  0.2839 -0.3395 -0.7754
17975SOL     OW56879   0.994   7.030   3.246 -0.4691 -0.2294 -0.3144
17975SOL    HW156880   0.978   6.978   3.324  1.5725  0.3121  0.5123
17975SOL    HW256881   0.966   6.974   3.174 -0.6312 -1.4861  0.6857
17976SOL     OW56882   4.685  10.021   7.849 -0.1957  0.0120  0.2435
17976SOL    HW156883   4.625   9.957   7.813 -0.3787 -2.0823  3.7997
17976SOL    HW256884   4.634  10.102   7.856 -1.2588 -0.5715 -0.5618
17977SOL     OW56885   0.775   7.787   7.145 -0.3269 -0.3486 -0.1851
17977SOL    HW156886   0.704   7.793   7.210  1.1684  1.0634  1.4328
17977SOL    HW256887   0.815   7.875   7.145  1.4577 -1.1093 -0.9757
17978SOL     OW56888   4.805   3.268   5.520 -0.1615  0.0391 -0.6231
17978SOL    HW156889   4.769   3.240   5.435 -1.5935 -0.9490  0.2721
17978SOL    HW256890   4.743   3.235   5.584  0.3224  1.6938  0.7741
17979SOL     OW56891   2.279   3.199   1.545  0.2091  0.7490  0.1453
17979SOL    HW156892   2.225   3.275   1.521  0.5823  1.0799  0.3297
17979SOL    HW256893   2.277   3.143   1.468  0.0315  1.0098 -0.0436
17980SOL     OW56894   8.075   1.707   6.649 -0.0440  0.1844  0.3127
17980SOL    HW156895   8.112   1.629   6.607 -2.0784 -0.1989 -0.8921
17980SOL    HW256896   7.986   1.681   6.672 -0.0527  1.4877  1.8976
17981SOL     OW56897   1.841   5.156   3.460  0.1341 -0.2539 -0.0940
17981SOL    HW156898   1.761   5.167   3.409  1.8430  0.1787 -2.9183
17981SOL    HW256899   1.911   5.159   3.395  2.3683 -2.5581  1.9926
17982SOL     OW56900   5.643   9.918   1.254  0.5222 -0.5055 -0.3483
17982SOL    HW156901   5.608   9.865   1.183 -0.7864 -0.3226  0.1241
17982SOL    HW256902   5.593  10.000   1.250  2.3619  0.6688 -0.9476
17983SOL     OW56903   1.759   9.782   1.136  0.9621 -0.3449 -0.1980
17983SOL    HW156904   1.697   9.733   1.190  3.2020  0.3405  3.3878
17983SOL    HW256905   1.718   9.868   1.125  0.8967 -0.1167  1.5298
17984SOL     OW56906   2.212   5.159   6.470  0.3379  0.3027  0.3561
17984SOL    HW156907   2.209   5.088   6.534  0.3330  0.5103  0.5906
17984SOL    HW256908   2.186   5.237   6.520  1.8733  0.7555  0.4995
17985SOL     OW56909   2.909   9.696   0.002  0.0160  0.1364  0.6519
17985SOL    HW156910   2.882   9.787  -0.004 -2.3183 -0.5859 -2.5858
17985SOL    HW256911   3.003   9.698  -0.012 -0.2447  1.9717 -1.3196
17986SOL     OW56912   0.094   1.333   2.663 -0.3906  0.5473 -0.0741
17986SOL    HW156913   0.129   1.304   2.579  1.1138  0.7881  0.4477
17986SOL    HW256914   0.029   1.267   2.686  1.3089 -1.1576 -0.0076
17987SOL     OW56915   1.304  10.334   1.547 -0.2046 -0.3893  0.8217
17987SOL    HW156916   1.275  10.252   1.586 -1.5418 -0.9598 -1.2136
17987SOL    HW256917   1.232  10.360   1.490  0.6239  1.6889  0.6380
17988SOL     OW56918   1.571   4.660   0.072 -0.5800 -0.1246  0.4713
17988SOL    HW156919   1.547   4.749   0.049 -2.0822  0.0453  2.4260
17988SOL    HW256920   1.519   4.605   0.013  1.6749  0.1772 -1.9911
17989SOL     OW56921   8.177   2.164   4.185  0.2651  0.3615  0.2940
17989SOL    HW156922   8.208   2.239   4.133 -0.5215  1.3571  1.2220
17989SOL    HW256923   8.091   2.190   4.216 -0.0710 -0.9932  0.5483
17990SOL     OW56924   3.294   4.613   0.265 -0.2319 -0.1768 -0.2619
17990SOL    HW156925   3.291   4.522   0.295  0.1889 -0.3254 -0.6507
17990SOL    HW256926   3.220   4.621   0.205  0.7296 -0.7775 -1.5909
17991SOL     OW56927   7.106   0.167   8.118  0.6488 -0.9923 -0.2403
17991SOL    HW156928   7.073   0.078   8.107  3.2874 -1.9202 -1.7560
17991SOL    HW256929   7.069   0.215   8.044 -0.2243 -1.0041  0.1810
17992SOL     OW56930   0.403   9.677   6.922  0.0487  0.1985 -0.3244
17992SOL    HW156931   0.499   9.685   6.920  0.2100 -1.5870 -1.2831
17992SOL    HW256932   0.377   9.692   6.831 -0.3514 -1.5271 -0.5184
17993SOL     OW56933   9.214   6.697   4.062  0.0266  0.3225  0.1528
17993SOL    HW156934   9.145   6.696   3.996  0.6764 -0.6565 -0.5381
17993SOL    HW256935   9.285   6.746   4.021  0.7760 -1.0672 -0.2724
17994SOL     OW56936   5.518   8.596   5.747  0.0449 -0.0081 -0.7073
17994SOL    HW156937   5.549   8.511   5.714  1.3230  0.5040 -0.8979
17994SOL    HW256938   5.581   8.659   5.712  0.0033  0.8481  0.6852
17995SOL     OW56939  10.049  10.130   7.964 -0.0970  0.1694  0.0309
17995SOL    HW156940  10.037  10.043   8.001 -1.6960  0.2869 -0.1781
17995SOL    HW256941   9.985  10.136   7.894 -0.9465  1.9973  0.9077
17996SOL     OW56942   5.996   9.717   9.299 -0.2088  0.0867  0.8760
17996SOL    HW156943   5.978   9.653   9.230  0.6885  0.8295 -0.0690
17996SOL    HW256944   5.917   9.716   9.353 -0.5619 -1.1784  0.3831
17997SOL     OW56945   6.391   7.995   5.432  0.4110 -0.3448  0.2063
17997SOL    HW156946   6.487   7.999   5.428  0.3163  1.1198 -1.6913
17997SOL    HW256947   6.370   8.026   5.520  1.6374  0.7363  0.1521
17998SOL     OW56948   2.920   0.208   2.652  0.2483  0.0442  0.2056
17998SOL    HW156949   2.844   0.249   2.610 -0.2592 -1.0710  0.0103
17998SOL    HW256950   2.912   0.115   2.631  1.1408 -0.2279  1.0094
17999SOL     OW56951   1.309   8.354   2.925  0.2913  0.3941 -0.6807
17999SOL    HW156952   1.256   8.431   2.939 -1.0639 -0.4925 -0.7586
17999SOL    HW256953   1.293   8.299   3.002  0.2459 -0.3469 -1.2064
18000SOL     OW56954   9.729   5.496   6.211 -0.2124  0.2493 -0.1919
18000SOL    HW156955   9.651   5.441   6.221  0.9674 -1.7475 -1.2433
18000SOL    HW256956   9.753   5.487   6.118  0.6061  1.7792 -0.1676
18001SOL     OW56957   6.021   2.779   9.063 -0.1956  0.5346  0.5706
18001SOL    HW156958   6.101   2.782   9.011 -2.0572 -1.7375 -2.7687
18001SOL    HW256959   5.956   2.826   9.011 -1.5250  0.7529  2.3132
18002SOL     OW56960   5.985   2.875   3.879 -0.0750 -0.0919  0.4720
18002SOL    HW156961   6.048   2.810   3.914 -0.2320  0.1562  1.2383
18002SOL    HW256962   6.038   2.930   3.821  0.4457  0.1645  1.1726
18003SOL     OW56963   5.470   9.955   6.751 -0.0769  0.4684  0.0104
18003SOL    HW156964   5.455   9.972   6.658  3.2855  1.4543 -0.4884
18003SOL    HW256965   5.514   9.869   6.752 -0.2495  0.3893  0.7105
18004SOL     OW56966   8.848   5.637   1.103  0.2301  0.0479  0.0414
18004SOL    HW156967   8.940   5.639   1.076 -0.0404 -1.0681 -1.0551
18004SOL    HW256968   8.807   5.574   1.043 -1.2355  0.4803  0.5591
18005SOL     OW56969   0.467   8.383   5.457 -0.4760  0.0021 -0.3045
18005SOL    HW156970   0.456   8.307   5.401 -1.0494 -1.1324  1.2698
18005SOL    HW256971   0.377   8.412   5.475 -0.4617 -1.1319  1.8991
18006SOL     OW56972   7.310   9.025   4.982 -0.2455  0.0355  0.9081
18006SOL    HW156973   7.395   8.982   4.986 -1.4066 -2.5038  0.3365
18006SOL    HW256974   7.293   9.055   5.071  1.7770  1.8787  0.7622
18007SOL     OW56975   4.390   3.776   2.505  0.1509 -0.4394  0.1513
18007SOL    HW156976   4.473   3.730   2.493 -0.6446 -2.0379  0.4470
18007SOL    HW256977   4.334   3.712   2.549 -1.5340  0.2732 -0.8785
18008SOL     OW56978   4.973   8.970   2.784 -0.0808 -0.1609  0.7062
18008SOL    HW156979   5.067   8.977   2.771 -0.5268  1.0284 -2.8172
18008SOL    HW256980   4.956   8.876   2.790  1.1394 -0.5414 -1.0446
18009SOL     OW56981   1.965   0.019   8.348  0.7722 -0.5543 -0.1071
18009SOL    HW156982   1.968   0.112   8.327 -1.0725 -0.3662  0.2613
18009SOL    HW256983   1.997  -0.024   8.269 -1.3326  0.3212 -1.5489
18010SOL     OW56984   1.479   8.905   5.364  0.6146  0.6045 -0.4043
18010SOL    HW156985   1.549   8.953   5.408 -0.0952  0.3487  1.0749
18010SOL    HW256986   1.447   8.966   5.297  0.5855  1.7275  0.5885
18011SOL     OW56987   9.249   3.927   3.931 -0.0916 -0.1456 -0.1913
18011SOL    HW156988   9.337   3.889   3.936 -0.4883 -0.9229  1.9508
18011SOL    HW256989   9.263   4.020   3.945  0.3657 -0.3157  0.5314
18012SOL     OW56990   0.057   4.360  10.158 -0.2722 -0.2002 -0.0146
18012SOL    HW156991   0.083   4.346  10.067  1.8000  0.1806  0.4652
18012SOL    HW256992   0.062   4.455  10.170  0.8781 -0.3455  0.8514
18013SOL     OW56993   9.803  10.154   5.871 -0.0232  0.1615 -0.0979
18013SOL    HW156994   9.741  10.169   5.942 -2.4503  2.5732 -2.4888
18013SOL    HW256995   9.872  10.219   5.885 -0.6425  0.8223 -0.0387
18014SOL     OW56996   9.208   5.951   3.686  0.2783  0.3582  0.2642
18014SOL    HW156997   9.285   5.999   3.714  0.4708  0.5810 -0.6160
18014SOL    HW256998   9.224   5.930   3.594 -0.4592 -0.0810  0.2213
18015SOL     OW56999  10.240   1.769   0.544 -0.0079 -0.0119  0.2189
18015SOL    HW157000  10.149   1.794   0.557  0.5886  1.9694  1.1439
18015SOL    HW257001  10.281   1.847   0.506  1.1880 -1.0826 -0.7950
18016SOL     OW57002   6.001   1.829   3.297  0.2854 -0.0485 -0.4226
18016SOL    HW157003   5.933   1.896   3.296  0.2496 -0.0760  0.0902
18016SOL    HW257004   6.042   1.836   3.211 -0.7018 -0.3710 -0.9422
18017SOL     OW57005   5.917   3.104   1.223  0.4165 -0.4308  0.4826
18017SOL    HW157006   5.978   3.134   1.291  1.6272 -0.2431 -0.6516
18017SOL    HW257007   5.953   3.020   1.194 -1.0615 -1.3675  1.2500
18018SOL     OW57008   1.338   0.739   8.732  0.0892 -0.3171  0.0938
18018SOL    HW157009   1.256   0.693   8.715  0.0408  0.0105 -0.5905
18018SOL    HW257010   1.313   0.813   8.788  0.1526 -1.0484  1.1117
18019SOL     OW57011   3.910   0.013   9.373  0.6936 -0.1719 -0.2519
18019SOL    HW157012   3.958   0.057   9.303  0.0675 -0.0425 -0.6043
18019SOL    HW257013   3.819   0.038   9.359  0.4741 -0.7043  0.1975
18020SOL     OW57014   9.497   2.210   5.434  0.2811  0.1740  0.0244
18020SOL    HW157015   9.511   2.281   5.371  1.9228 -1.1825 -1.2157
18020SOL    HW257016   9.422   2.162   5.399  0.3152  0.2332 -0.1321
18021SOL     OW57017   3.408   8.906   0.212 -0.2443  0.2131 -0.1654
18021SOL    HW157018   3.436   8.994   0.187 -1.9435  0.5240 -1.1412
18021SOL    HW257019   3.400   8.910   0.308  0.7897  0.7675 -0.0942
18022SOL     OW57020  10.115   7.229  10.313 -0.2633  0.6688  0.1547
18022SOL    HW157021  10.052   7.272  10.371 -0.6101 -0.3770  0.5810
18022SOL    HW257022  10.062   7.168  10.262  0.3720 -0.1558  0.4567
18023SOL     OW57023   2.795   9.353  10.051 -0.3452  0.3115  0.3892
18023SOL    HW157024   2.825   9.424  10.108 -0.7991  0.7075  0.1383
18023SOL    HW257025   2.719   9.316  10.097  0.2229 -0.3893  0.7969
18024SOL     OW57026   4.651   3.415  10.503 -0.0189  0.5297 -0.4755
18024SOL    HW157027   4.729   3.393  10.452  0.9546  3.6987 -0.5575
18024SOL    HW257028   4.656   3.359  10.580  1.2776 -0.7048 -1.4157
18025SOL     OW57029   0.927  10.002   5.890 -0.1441  0.6841 -0.1130
18025SOL    HW157030   0.853   9.945   5.913  0.6067  0.6998  2.6594
18025SOL    HW257031   1.002   9.943   5.885 -0.2823  0.6132 -3.2726
18026SOL     OW57032   0.677   9.684   4.462  0.0968  0.0699 -0.1572
18026SOL    HW157033   0.705   9.600   4.498  1.3897  0.9093  0.8870
18026SOL    HW257034   0.583   9.687   4.479 -0.0151 -1.2501 -0.4313
18027SOL     OW57035   3.367   2.483   6.793 -0.2587 -0.4892  0.2033
18027SOL    HW157036   3.305   2.540   6.747  0.8521  0.4936 -0.1285
18027SOL    HW257037   3.325   2.464   6.877 -1.0897 -0.0118 -0.0917
18028SOL     OW57038   8.595   1.039   5.751  0.4085 -0.1843 -0.0225
18028SOL    HW157039   8.598   1.132   5.727  0.6051  0.4419  2.1852
18028SOL    HW257040   8.517   1.031   5.806  0.0017 -1.5120 -0.7433
18029SOL     OW57041   1.424  10.509   8.701 -0.3636 -0.1937  0.2120
18029SOL    HW157042   1.448  10.522   8.792 -0.5618  1.2037  0.0802
18029SOL    HW257043   1.451  10.419   8.681 -0.0671 -0.4098  1.5545
18030SOL     OW57044   5.501   5.165   0.099  0.0832 -0.3287 -0.4920
18030SOL    HW157045   5.462   5.114   0.028 -2.2011 -1.3201  1.3596
18030SOL    HW257046   5.474   5.120   0.179 -0.0344  2.4351  1.1623
18031SOL     OW57047   5.518   3.193   2.275 -0.0635  0.0156  0.2550
18031SOL    HW157048   5.560   3.274   2.303 -1.7880  1.1427 -0.2311
18031SOL    HW257049   5.572   3.123   2.312  1.1018  1.3826  1.2364
18032SOL     OW57050   6.711   4.265   4.417  0.2452 -0.0225  0.3501
18032SOL    HW157051   6.720   4.360   4.417 -2.5423  0.3685  2.7273
18032SOL    HW257052   6.693   4.243   4.326 -0.5658  1.9369 -0.0177
18033SOL     OW57053   3.128   3.436   1.470  0.9650  0.2503 -0.8311
18033SOL    HW157054   3.181   3.453   1.547  2.7549  0.1738 -2.0008
18033SOL    HW257055   3.151   3.505   1.408 -0.7575  0.5630 -1.1881
18034SOL     OW57056   5.056   0.790   7.997 -0.3618  0.6924 -0.5293
18034SOL    HW157057   5.099   0.729   7.938  1.1394  0.8082  0.3873
18034SOL    HW257058   5.123   0.812   8.062 -1.2286  2.3901 -0.1445
18035SOL     OW57059   4.842   8.936   7.613 -0.1071  0.2086  0.2725
18035SOL    HW157060   4.761   8.952   7.661 -0.2418 -0.0498  0.1352
18035SOL    HW257061   4.817   8.948   7.521 -0.9406 -3.3968 -0.1450
18036SOL     OW57062   7.850   3.555   6.203 -0.2056 -0.0786 -0.4582
18036SOL    HW157063   7.890   3.639   6.226  1.2222 -0.3366 -1.8406
18036SOL    HW257064   7.900   3.490   6.252 -2.0171 -0.1137  1.4895
18037SOL     OW57065   6.729   2.609   3.471 -0.0718 -0.0942  0.5405
18037SOL    HW157066   6.642   2.573   3.454 -0.8501  0.8990  2.1794
18037SOL    HW257067   6.726   2.637   3.562  2.0758 -0.2699  0.7244
18038SOL     OW57068   9.483   3.888   7.364  0.0205  0.2839 -0.1874
18038SOL    HW157069   9.439   3.905   7.280 -0.7070  1.4321  0.3965
18038SOL    HW257070   9.570   3.858   7.340 -0.5108 -0.3738 -1.3695
18039SOL     OW57071   8.740   6.871   6.700  0.2757  0.1493  0.0543
18039SOL    HW157072   8.777   6.832   6.779  0.4428 -0.0986 -0.1458
18039SOL    HW257073   8.680   6.938   6.733  0.3559  0.0602  0.3911
18040SOL     OW57074   1.492   6.410   3.392 -0.6250 -0.3219  0.4756
18040SOL    HW157075   1.417   6.378   3.342 -0.8333  0.5974  0.1850
18040SOL    HW257076   1.559   6.343   3.380 -1.0619 -0.6600 -0.1016
18041SOL     OW57077   0.550   1.636   5.276  0.5681  1.0085  0.6115
18041SOL    HW157078   0.585   1.686   5.202 -1.5521 -0.2067 -1.3816
18041SOL    HW257079   0.528   1.702   5.341  1.6594  2.2391 -0.2174
18042SOL     OW57080  10.019   2.083   2.424 -0.1388 -0.1075  0.4160
18042SOL    HW157081  10.091   2.054   2.481  2.6713  0.3530 -2.5576
18042SOL    HW257082   9.949   2.020   2.439  1.4097 -1.4553  2.5099
18043SOL     OW57083   6.745   4.594   7.658 -0.0224  0.1801  0.0899
18043SOL    HW157084   6.755   4.541   7.737  0.0230  2.4128  1.6708
18043SOL    HW257085   6.831   4.592   7.617 -0.0202 -0.9243  0.1132
18044SOL     OW57086   7.113   3.410   0.563  0.8136 -0.6055 -0.2181
18044SOL    HW157087   7.159   3.377   0.641 -0.2659 -0.5188  0.4872
18044SOL    HW257088   7.064   3.486   0.595 -0.7020 -1.3518 -0.6391
18045SOL     OW57089   1.792   2.656   5.879  0.1369  0.5995  0.1664
18045SOL    HW157090   1.808   2.680   5.970  0.7240  3.8132 -0.6652
18045SOL    HW257091   1.790   2.560   5.879 -0.7801  0.4956  3.6627
18046SOL     OW57092   9.535   8.149   3.460 -0.8704 -0.9647 -1.1172
18046SOL    HW157093   9.469   8.086   3.490  0.5495 -1.5953  0.8982
18046SOL    HW257094   9.487   8.231   3.450 -2.3137 -1.8269 -1.6119
18047SOL     OW57095   8.523   5.800   6.550 -0.4372 -0.5492  0.7162
18047SOL    HW157096   8.447   5.760   6.592 -0.7900 -0.1353  0.4831
18047SOL    HW257097   8.517   5.772   6.458 -0.9104  0.3229  0.4571
18048SOL     OW57098   4.326   9.398   9.367  0.1877  0.0131 -0.5461
18048SOL    HW157099   4.358   9.320   9.412 -0.4740  0.4379  0.7052
18048SOL    HW257100   4.365   9.471   9.414 -0.1989  0.4621 -0.9083
18049SOL     OW57101   5.588   8.014   5.453  0.4727 -0.1344  0.1328
18049SOL    HW157102   5.624   7.944   5.398  1.5359  0.0544  0.5630
18049SOL    HW257103   5.536   7.969   5.519  0.0708 -0.4325 -0.3841
18050SOL     OW57104   6.402  10.298   5.541 -0.3576  0.0215  0.0144
18050SOL    HW157105   6.444  10.213   5.528 -0.0921  0.2520 -0.7142
18050SOL    HW257106   6.373  10.297   5.632  1.1119 -0.2019  0.5139
18051SOL     OW57107   8.434   7.314  10.021 -0.0436  0.0022  0.4855
18051SOL    HW157108   8.462   7.234   9.977  1.0877  0.8175 -0.3666
18051SOL    HW257109   8.508   7.374  10.009 -1.2187  1.4650  0.3007
18052SOL     OW57110   0.587  10.241   9.589  0.1106  0.1795 -0.0138
18052SOL    HW157111   0.596  10.290   9.507 -1.0846  0.4536  0.0043
18052SOL    HW257112   0.628  10.157   9.572 -1.5509 -0.3931 -1.4474
18053SOL     OW57113   6.485   9.579   1.818 -0.4352  0.2769  0.0613
18053SOL    HW157114   6.515   9.494   1.787  0.0194  0.1333  0.8557
18053SOL    HW257115   6.442   9.559   1.902  1.7903  1.0661  1.4964
18054SOL     OW57116   0.658   7.060   3.070 -0.1042 -0.5026 -0.2785
18054SOL    HW157117   0.723   7.130   3.065  0.3807 -1.0484 -2.9066
18054SOL    HW257118   0.644   7.048   3.164  1.2526  1.7520  0.2939
18055SOL     OW57119   7.055   3.178   7.205 -0.2370 -0.3368  0.2888
18055SOL    HW157120   6.973   3.170   7.253 -1.7761  0.9672 -1.9093
18055SOL    HW257121   7.086   3.089   7.194 -0.0240 -0.7221  3.1779
18056SOL     OW57122   9.679  10.667   2.760  0.0497  0.7465 -0.1453
18056SOL    HW157123   9.664  10.712   2.677  1.5248  1.8246  0.1356
18056SOL    HW257124   9.774  10.667   2.771 -0.1250  1.0063  1.7423
18057SOL     OW57125   9.123   9.101   6.892  0.5557 -0.0754  0.2164
18057SOL    HW157126   9.067   9.028   6.918 -1.9210  1.7842  0.5005
18057SOL    HW257127   9.168   9.126   6.973 -1.6794  1.1684  1.1855
18058SOL     OW57128   4.176   2.103   8.161 -0.3801 -0.3984  0.2720
18058SOL    HW157129   4.195   2.034   8.225 -1.1054 -0.0125  0.9292
18058SOL    HW257130   4.164   2.182   8.214  1.8305  0.5665 -0.5698
18059SOL     OW57131   6.055   6.169   5.151 -0.1184 -0.0461  0.6527
18059SOL    HW157132   5.981   6.188   5.209 -1.3477 -1.4657 -0.3809
18059SOL    HW257133   6.090   6.255   5.127 -1.0077  0.6213  1.6845
18060SOL     OW57134   1.541   1.386   3.755  0.0511 -0.3692  0.6957
18060SOL    HW157135   1.517   1.335   3.677  2.5315 -2.2135  1.0378
18060SOL    HW257136   1.496   1.341   3.827 -0.9259  0.3559  0.5593
18061SOL     OW57137  10.591   1.389   6.413  0.6198  0.1533 -0.1813
18061SOL    HW157138  10.581   1.336   6.492  1.3828  0.2135 -0.0281
18061SOL    HW257139  10.570   1.330   6.341 -0.9090  0.3322  0.0926
18062SOL     OW57140   3.748   3.584   4.445 -0.0625 -0.0059  0.1232
18062SOL    HW157141   3.700   3.639   4.507  0.2726 -0.4614  0.7849
18062SOL    HW257142   3.838   3.582   4.478 -0.0275 -0.7906 -0.0069
18063SOL     OW57143   4.974   6.191   3.834  0.5865 -0.8192 -0.6434
18063SOL    HW157144   5.034   6.211   3.762  1.2648 -0.7471 -0.0663
18063SOL    HW257145   4.950   6.099   3.820 -0.4731 -0.3950 -1.8063
18064SOL     OW57146   3.584   5.198   5.631  0.3002 -0.5204  0.8193
18064SOL    HW157147   3.509   5.193   5.690 -0.3157 -0.9308  0.0279
18064SOL    HW257148   3.619   5.109   5.629  0.0412 -0.6137  0.2268
18065SOL     OW57149   7.275   4.714   6.492 -0.7494 -1.3858  0.3333
18065SOL    HW157150   7.350   4.665   6.527 -0.9977 -1.8371  0.2472
18065SOL    HW257151   7.251   4.774   6.562  0.8066  0.0486 -0.2894
18066SOL     OW57152   6.245   4.295   7.916 -0.9061  0.1451  0.5776
18066SOL    HW157153   6.196   4.291   7.998 -2.1422  1.2953 -0.0749
18066SOL    HW257154   6.191   4.246   7.853 -0.1431 -0.4204  0.3441
18067SOL     OW57155   7.988   4.980   1.199 -0.3709 -0.5116 -0.0019
18067SOL    HW157156   8.081   5.000   1.214 -0.4595  1.2046 -1.3618
18067SOL    HW257157   7.974   4.896   1.242  2.0394 -1.2736 -0.5708
18068SOL     OW57158   3.873   8.472   9.569 -0.6998  0.0613  0.3378
18068SOL    HW157159   3.796   8.528   9.564 -0.1545  0.7320 -1.2791
18068SOL    HW257160   3.946   8.533   9.578 -0.1756 -0.4426 -0.4165
18069SOL     OW57161   5.074   6.326   0.268  0.3362  0.2105  0.1322
18069SOL    HW157162   5.135   6.292   0.203  0.6041  1.9058 -0.5729
18069SOL    HW257163   5.126   6.333   0.348  0.9600  1.1837 -0.3395
18070SOL     OW57164   1.242   8.584   8.556 -0.5494  0.0461  0.1425
18070SOL    HW157165   1.149   8.563   8.550  0.0215 -2.3596 -1.2555
18070SOL    HW257166   1.244   8.678   8.578 -3.2696  0.1590  0.1819
18071SOL     OW57167   9.368   5.365  10.500  0.2869 -0.3119 -0.0639
18071SOL    HW157168   9.377   5.378  10.406  0.9490 -1.1391 -0.1224
18071SOL    HW257169   9.414   5.283  10.518 -0.7631 -0.7385  0.8142
18072SOL     OW57170  10.608   0.547   5.123 -0.2007  0.2656  0.2201
18072SOL    HW157171  10.679   0.581   5.177  1.1263 -0.9568 -0.7086
18072SOL    HW257172  10.636   0.459   5.098 -1.1411  0.4791 -1.7628
18073SOL     OW57173  10.672   8.647   2.444  0.4810  0.4758  0.5954
18073SOL    HW157174  10.686   8.730   2.399  1.3972  0.0284  0.0088
18073SOL    HW257175  10.757   8.626   2.483 -0.1597  0.6013  2.1402
18074SOL     OW57176   5.319   2.345   0.091 -0.0548 -0.2806  0.0676
18074SOL    HW157177   5.235   2.321   0.053 -0.5561  0.5480  0.6365
18074SOL    HW257178   5.383   2.321   0.024 -0.8303  0.0810 -0.8166
18075SOL     OW57179   3.708   7.718   1.904  0.3668  0.1822 -0.1879
18075SOL    HW157180   3.623   7.675   1.891  1.3743 -2.0833  0.2737
18075SOL    HW257181   3.720   7.719   1.999  1.3993 -0.6586 -0.2943
18076SOL     OW57182   8.239   6.641   6.374 -0.0676 -0.2576  0.3371
18076SOL    HW157183   8.168   6.677   6.427 -0.3027  1.2124 -0.9106
18076SOL    HW257184   8.205   6.640   6.285  0.7906 -1.4201 -0.0080
18077SOL     OW57185   0.608   4.469   1.795  0.0055  0.0709 -0.4399
18077SOL    HW157186   0.602   4.421   1.712  0.9296  0.5325 -0.7908
18077SOL    HW257187   0.696   4.508   1.793  1.1334 -2.0515  1.9309
18078SOL     OW57188  10.239   2.206   9.375 -0.1405  0.1163  0.5034
18078SOL    HW157189  10.329   2.174   9.383 -0.1104 -0.2317 -1.0003
18078SOL    HW257190  10.188   2.129   9.351 -0.6149  0.5592  0.0557
18079SOL     OW57191   1.794   7.627   5.158  0.0770 -0.0063  0.3829
18079SOL    HW157192   1.720   7.683   5.181 -0.9171 -0.9825 -0.3165
18079SOL    HW257193   1.833   7.670   5.081 -1.5028 -0.9096 -0.9941
18080SOL     OW57194   3.012   0.724   7.108  0.2180 -0.0532 -0.5529
18080SOL    HW157195   2.989   0.713   7.200  1.4091 -1.0183 -0.3498
18080SOL    HW257196   2.964   0.654   7.063  1.1887 -0.8580 -0.3784
18081SOL     OW57197   3.519   0.854   5.312 -0.1846  0.1816  0.1654
18081SOL    HW157198   3.486   0.923   5.255 -2.9226 -0.8115  0.3939
18081SOL    HW257199   3.506   0.888   5.401  3.2153  1.3469  0.3685
18082SOL     OW57200   8.154   6.218   2.848 -0.0426 -0.0758  0.0531
18082SOL    HW157201   8.094   6.151   2.882  0.1538 -0.6329 -0.6793
18082SOL    HW257202   8.100   6.296   2.838 -0.9273 -0.8518 -1.5927
18083SOL     OW57203   6.772   8.729   2.113  0.4538 -0.6693  0.3069
18083SOL    HW157204   6.760   8.679   2.032  0.5377  0.1958 -0.2493
18083SOL    HW257205   6.733   8.814   2.095  2.9124  0.5305  0.1462
18084SOL     OW57206   3.269   4.795   9.549  0.0430  0.5118 -0.1433
18084SOL    HW157207   3.250   4.797   9.643 -1.4558 -0.1575 -0.3992
18084SOL    HW257208   3.211   4.861   9.512  0.1719  0.3310 -0.6737
18085SOL     OW57209   3.330   0.326   0.098  0.8496 -0.4299  0.1074
18085SOL    HW157210   3.267   0.363   0.036  2.3796  1.5794 -0.3714
18085SOL    HW257211   3.416   0.342   0.057  1.7292 -3.4023  0.5473
18086SOL     OW57212   5.233   6.333   1.330  0.3779 -0.0866  0.0066
18086SOL    HW157213   5.266   6.247   1.354 -1.2933 -1.6870 -2.9359
18086SOL    HW257214   5.149   6.341   1.375 -0.0216 -0.5411 -0.6446
18087SOL     OW57215   0.943   0.321   5.892  0.5845  0.2399 -0.3367
18087SOL    HW157216   0.858   0.360   5.876  1.0050  1.3338  0.0134
18087SOL    HW257217   0.950   0.317   5.988  0.2951 -1.3013 -0.3516
18088SOL     OW57218  10.690   7.266   7.061 -0.8551  0.1516  0.2511
18088SOL    HW157219  10.709   7.297   6.973 -2.4011  0.6099  0.0550
18088SOL    HW257220  10.688   7.345   7.115 -0.1462 -0.1025  0.6581
18089SOL     OW57221   3.005   0.761   9.269 -0.5583 -0.3190 -0.0502
18089SOL    HW157222   2.986   0.769   9.176 -1.8913  0.5970  0.2724
18089SOL    HW257223   3.100   0.769   9.276 -0.5021  0.1315 -1.2714
18090SOL     OW57224   2.324   4.567   0.517 -0.4089  0.3775 -0.3321
18090SOL    HW157225   2.400   4.541   0.569 -0.1121 -0.8795 -1.3347
18090SOL    HW257226   2.269   4.616   0.578 -0.4551 -1.6763  1.4166
18091SOL     OW57227   5.811   4.977   2.782 -0.0565 -1.0944 -0.5940
18091SOL    HW157228   5.780   4.976   2.872  2.0404 -1.0188  0.1760
18091SOL    HW257229   5.803   5.068   2.755  4.1596  0.0967  1.4141
18092SOL     OW57230   4.991   0.800  10.207 -0.0495  0.9060  0.0545
18092SOL    HW157231   4.991   0.865  10.278  1.9829  0.7407  0.2800
18092SOL    HW257232   4.911   0.750  10.221 -0.5443  1.9478  1.2251
18093SOL     OW57233  10.583   4.285   3.970 -0.4450 -0.0004 -0.3071
18093SOL    HW157234  10.631   4.217   4.017 -0.4323  0.5135  0.4534
18093SOL    HW257235  10.541   4.336   4.039 -3.4995 -1.4045 -0.9673
18094SOL     OW57236   0.227   7.622   3.717 -0.1994  0.6693  0.3319
18094SOL    HW157237   0.306   7.578   3.686 -0.1255  1.1670 -0.2073
18094SOL    HW257238   0.160   7.553   3.717  0.5703 -0.1480  2.3107
18095SOL     OW57239   4.183   6.276   3.215 -0.3156  0.0217  0.0596
18095SOL    HW157240   4.108   6.305   3.163  0.1238 -1.3976 -1.4270
18095SOL    HW257241   4.144   6.227   3.288 -0.8451 -0.4665 -0.5468
18096SOL     OW57242   8.730   3.720   8.379  0.2713 -0.2918  0.2354
18096SOL    HW157243   8.640   3.689   8.375  0.4847 -1.1508  1.5475
18096SOL    HW257244   8.744   3.744   8.470  0.1377  3.8610 -0.6536
18097SOL     OW57245   6.647   9.236   1.252 -0.0626  0.4172 -0.0944
18097SOL    HW157246   6.679   9.162   1.200 -0.3999 -0.9423  1.5476
18097SOL    HW257247   6.605   9.196   1.328 -0.2987  2.3147  0.8447
18098SOL     OW57248   5.425   1.941   4.364  0.2312 -0.2788 -0.5538
18098SOL    HW157249   5.464   1.871   4.415 -0.3178 -1.0775 -1.2000
18098SOL    HW257250   5.467   2.021   4.396  0.1370 -0.7829  0.8896
18099SOL     OW57251   2.891   6.253   3.765  0.4064  0.1257 -0.9448
18099SOL    HW157252   2.868   6.337   3.725  0.1944  0.4074 -0.2455
18099SOL    HW257253   2.967   6.271   3.819  0.5463 -0.2011 -1.0255
18100SOL     OW57254   1.133   8.697   7.023 -0.6192 -0.2789 -0.3850
18100SOL    HW157255   1.176   8.640   6.960  1.1149  1.9538 -1.3421
18100SOL    HW257256   1.095   8.768   6.970 -2.1910 -0.1769  0.7968
18101SOL     OW57257   9.820   5.399   7.402 -0.8393  0.3508 -0.6009
18101SOL    HW157258   9.776   5.321   7.434  1.9786 -1.1614 -0.1264
18101SOL    HW257259   9.789   5.469   7.460 -1.6578 -0.8488  0.4649
18102SOL     OW57260   3.784   4.578   1.850  0.3473  0.1644  0.3731
18102SOL    HW157261   3.822   4.647   1.905 -0.4110  0.2922  0.7496
18102SOL    HW257262   3.800   4.498   1.899 -0.0804  0.2458  0.6486
18103SOL     OW57263   8.716   4.075   6.520  0.0016 -0.5883  0.2482
18103SOL    HW157264   8.697   4.118   6.603  1.0454  0.8589 -0.2175
18103SOL    HW257265   8.667   3.993   6.523 -0.2594 -0.3976  2.1297
18104SOL     OW57266   2.882  10.641   4.968  0.7090 -0.1393  0.1090
18104SOL    HW157267   2.967  10.652   5.010  1.0299  1.8223 -0.9286
18104SOL    HW257268   2.904  10.613   4.879  0.2968  0.7081 -0.2646
18105SOL     OW57269   4.208   1.259   3.380 -0.0578  0.2625 -0.1179
18105SOL    HW157270   4.193   1.210   3.299  1.5879 -0.1271 -0.2098
18105SOL    HW257271   4.144   1.223   3.442  0.4015 -1.2558 -0.4936
18106SOL     OW57272   9.345   8.972   5.253  0.0486  0.3681  0.0841
18106SOL    HW157273   9.303   8.889   5.275  0.5663  0.1060  0.0703
18106SOL    HW257274   9.401   8.953   5.178  0.2636  0.7038  0.1565
18107SOL     OW57275   1.654   4.448   9.400 -0.3807  0.9687 -0.0373
18107SOL    HW157276   1.619   4.505   9.470  1.2196  2.6093 -0.4860
18107SOL    HW257277   1.636   4.496   9.319  1.0573  0.8968 -0.4290
18108SOL     OW57278   9.059   6.310   4.518  0.6999 -0.0288 -0.2502
18108SOL    HW157279   8.979   6.325   4.568  0.8567 -1.1737  0.3872
18108SOL    HW257280   9.045   6.226   4.474  0.9826  0.4584 -1.3181
18109SOL     OW57281   1.259   6.984   8.122 -0.3040  0.2504  0.2458
18109SOL    HW157282   1.175   6.938   8.118 -1.1362  1.7666 -0.8064
18109SOL    HW257283   1.244   7.055   8.185  0.2805  0.3306  0.2942
18110SOL     OW57284   7.648  10.005   3.371 -0.4204  0.5809 -0.0693
18110SOL    HW157285   7.629   9.920   3.412 -0.9695  0.8222  0.1935
18110SOL    HW257286   7.737  10.026   3.399 -0.1777 -0.0377 -0.3654
18111SOL     OW57287   6.042   4.467   6.510 -0.4224  0.7688  0.1970
18111SOL    HW157288   5.965   4.428   6.552  0.2428 -0.4624  0.2915
18111SOL    HW257289   6.006   4.539   6.458 -1.6923 -0.0499 -0.1049
18112SOL     OW57290   8.583   8.820  10.665 -0.1885 -0.3158 -0.6035
18112SOL    HW157291   8.614   8.899  10.710  0.5760  0.7295 -2.8422
18112SOL    HW257292   8.646   8.752  10.690 -1.0713 -0.3883  1.6498
18113SOL     OW57293   1.840   4.023   4.949 -0.0088  0.3813  0.3251
18113SOL    HW157294   1.828   4.105   4.996 -0.4186 -0.4618  1.7730
18113SOL    HW257295   1.787   3.960   4.998  1.1876 -0.9834 -0.0639
18114SOL     OW57296   9.038   6.687   2.988 -0.3101  0.4643  0.0462
18114SOL    HW157297   9.104   6.746   2.952 -1.5317  0.6677 -2.0250
18114SOL    HW257298   9.062   6.677   3.080  2.4320  0.6864 -0.5775
18115SOL     OW57299   4.228   3.125   1.783 -0.0913  0.6630 -0.2791
18115SOL    HW157300   4.165   3.194   1.763 -1.4173 -0.0431  1.2847
18115SOL    HW257301   4.308   3.172   1.808 -1.4983  1.7628  2.5173
18116SOL     OW57302   1.030   2.082  10.585 -0.0591  0.1976  0.6643
18116SOL    HW157303   1.007   2.163  10.540  0.0701  1.6057  2.9689
18116SOL    HW257304   1.118   2.097  10.618  0.5103 -1.4453  0.0003
18117SOL     OW57305   3.202   0.873  10.194 -0.5425  0.4581  0.0459
18117SOL    HW157306   3.249   0.951  10.223 -0.9954  1.2426 -1.2550
18117SOL    HW257307   3.118   0.906  10.162 -0.0760 -0.3394 -2.1338
18118SOL     OW57308   2.655   6.470   1.841  0.6785  0.2737 -0.5800
18118SOL    HW157309   2.610   6.386   1.844  0.1202  0.5816  0.2447
18118SOL    HW257310   2.743   6.450   1.811 -0.2446 -0.2324 -3.2745
18119SOL     OW57311   9.816   3.608   4.772  0.1344  0.2128 -0.3797
18119SOL    HW157312   9.868   3.687   4.789  1.6084 -0.7079 -0.4491
18119SOL    HW257313   9.877   3.536   4.786 -0.5578 -0.8471 -2.4631
18120SOL     OW57314   9.434   2.659   7.703 -0.4502 -0.2274 -0.2202
18120SOL    HW157315   9.345   2.626   7.713 -0.7673  0.3365 -1.1418
18120SOL    HW257316   9.426   2.736   7.646  0.6894 -0.5442 -0.8462
18121SOL     OW57317   8.078   9.122   3.839 -0.5334  0.3988  0.4770
18121SOL    HW157318   8.004   9.115   3.900 -0.0088  1.4503  1.2678
18121SOL    HW257319   8.048   9.079   3.760 -1.7715  0.2612  1.0019
18122SOL     OW57320   4.864   7.000   5.144 -0.9213 -0.0530  0.3174
18122SOL    HW157321   4.777   7.039   5.136 -1.1377 -0.5014  0.4296
18122SOL    HW257322   4.847   6.909   5.170 -0.4169 -0.1238  0.4119
18123SOL     OW57323   2.655   5.698   9.410 -0.2856  0.4446 -0.4065
18123SOL    HW157324   2.673   5.718   9.502 -0.0263  1.9658 -0.7744
18123SOL    HW257325   2.610   5.613   9.413  0.3704  0.1173  1.0640
18124SOL     OW57326   9.630   9.204   3.687  0.3436 -0.3979  0.6638
18124SOL    HW157327   9.584   9.121   3.699 -0.1907 -0.4937 -1.5728
18124SOL    HW257328   9.569   9.271   3.719  1.1451 -0.8453  3.3533
18125SOL     OW57329   6.615   2.150   8.827 -0.3489 -0.3663  0.0971
18125SOL    HW157330   6.709   2.129   8.831 -0.2608  0.1764  1.1613
18125SOL    HW257331   6.612   2.235   8.784 -0.3064 -0.1726  0.4679
18126SOL     OW57332   9.372   0.469   1.648 -0.0325  0.0471  0.4128
18126SOL    HW157333   9.453   0.511   1.621  1.2512 -1.0298  2.3575
18126SOL    HW257334   9.371   0.385   1.603  1.4392 -1.1737  2.5071
18127SOL     OW57335   8.956   7.539   0.022 -0.0634  0.3549 -0.1216
18127SOL    HW157336   8.986   7.604   0.085  0.3892 -0.1740  0.2194
18127SOL    HW257337   8.862   7.532   0.037 -0.0370  0.5924  0.1567
18128SOL     OW57338   3.407   8.132   9.283  0.1556  0.1309 -0.4322
18128SOL    HW157339   3.419   8.044   9.248 -0.4232  0.4057 -1.3533
18128SOL    HW257340   3.496   8.164   9.299  0.3962 -0.3457 -0.8010
18129SOL     OW57341   7.529   4.251   3.497 -0.1207 -0.7460 -0.4036
18129SOL    HW157342   7.562   4.247   3.407  3.0250 -1.1976  0.6470
18129SOL    HW257343   7.515   4.344   3.513 -2.2524 -0.7667 -1.7894
18130SOL     OW57344   6.974   5.541   4.003 -0.3578  0.2624 -0.3281
18130SOL    HW157345   7.041   5.512   3.941 -2.0737 -2.9669 -0.9329
18130SOL    HW257346   6.897   5.558   3.948 -1.6917 -1.9420  0.6954
18131SOL     OW57347   3.192   3.905   2.426  0.0192 -0.0731 -0.1998
18131SOL    HW157348   3.276   3.918   2.382 -0.0063 -0.8100 -0.4808
18131SOL    HW257349   3.207   3.833   2.487 -0.8761 -1.5611 -1.6286
18132SOL     OW57350   1.546   3.590   5.815 -0.3075  0.0900  0.3807
18132SOL    HW157351   1.585   3.608   5.901 -0.6854 -1.1294  0.8333
18132SOL    HW257352   1.455   3.619   5.824  0.0168  1.3020 -0.0976
18133SOL     OW57353   4.394   9.174   5.003  0.3953  0.7408 -0.4322
18133SOL    HW157354   4.433   9.136   5.081  0.9089  2.4504  0.2008
18133SOL    HW257355   4.398   9.269   5.018 -0.4067  1.0803 -2.0963
18134SOL     OW57356   6.075   5.054   3.996 -0.4424  0.6516  0.0007
18134SOL    HW157357   6.038   4.999   3.926  0.2386 -0.1329  0.2450
18134SOL    HW257358   6.155   5.090   3.959  0.3615 -0.4333  0.6420
18135SOL     OW57359  10.246   5.453   9.860  0.1993 -0.1530  0.0129
18135SOL    HW157360  10.323   5.498   9.826 -0.1684  0.9498  0.5585
18135SOL    HW257361  10.180   5.465   9.792 -0.0638  0.6561  0.3947
18136SOL     OW57362  10.165   9.987   6.306  0.3851  0.5525  0.6756
18136SOL    HW157363  10.086   9.936   6.286 -1.4223  3.3023  0.2152
18136SOL    HW257364  10.237   9.926   6.293 -1.5262 -1.4835 -1.1863
18137SOL     OW57365   6.298   8.144   7.611  0.4194 -0.1348 -0.4010
18137SOL    HW157366   6.369   8.175   7.668 -0.6036 -1.8740  1.9621
18137SOL    HW257367   6.311   8.050   7.606 -0.6304 -0.2328 -1.5403
18138SOL     OW57368   7.420   0.087   4.554  0.2063  0.2129  0.1246
18138SOL    HW157369   7.336   0.122   4.524  1.4569  1.6278 -1.9325
18138SOL    HW257370   7.484   0.117   4.490  1.9827 -2.8168  0.2598
18139SOL     OW57371   3.382   7.812   3.350 -0.0044 -0.1535 -0.1750
18139SOL    HW157372   3.402   7.901   3.321 -1.7276 -0.4889 -2.6419
18139SOL    HW257373   3.333   7.823   3.431  0.6921  1.0861  0.0952
18140SOL     OW57374   2.716   2.725   5.189 -0.1440 -0.3462 -0.0681
18140SOL    HW157375   2.635   2.686   5.223 -0.2471 -0.8403 -0.8548
18140SOL    HW257376   2.786   2.673   5.230 -0.2035  0.3075  0.8881
18141SOL     OW57377   6.524   4.752   0.556 -0.6678 -0.0651  0.3252
18141SOL    HW157378   6.439   4.710   0.567 -1.5204  1.0403 -1.6432
18141SOL    HW257379   6.519   4.796   0.472  1.6405  0.5880  0.4574
18142SOL     OW57380   2.242   2.664   6.298 -0.6846  0.4247 -0.7703
18142SOL    HW157381   2.251   2.581   6.343 -0.2693  0.1153 -1.4103
18142SOL    HW257382   2.278   2.649   6.211  0.8179  1.6725 -0.4223
18143SOL     OW57383   1.356   3.622   6.623  0.1265 -0.0982  0.1100
18143SOL    HW157384   1.282   3.563   6.623 -1.1881  1.4757 -0.8735
18143SOL    HW257385   1.399   3.607   6.707  0.1414 -2.7244 -0.2873
18144SOL     OW57386   8.579   1.654   9.061 -0.2504  0.0456  0.4934
18144SOL    HW157387   8.496   1.667   9.108  0.5846  1.4093  1.6681
18144SOL    HW257388   8.562   1.686   8.973 -0.8019  0.8966  0.8992
18145SOL     OW57389   1.417   3.032   4.207  0.6323  0.1291 -0.3659
18145SOL    HW157390   1.349   2.998   4.265  1.3197 -0.4392  0.1406
18145SOL    HW257391   1.481   3.072   4.266  0.3412  1.3967 -0.8913
18146SOL     OW57392   0.077   3.095  10.130 -0.0027  0.2249  0.0420
18146SOL    HW157393   0.154   3.047  10.160  0.4967  1.2966  0.5346
18146SOL    HW257394   0.091   3.108  10.036 -0.1295 -0.5378 -0.0911
18147SOL     OW57395   6.133   0.758   0.402  0.7036  0.0625  0.4165
18147SOL    HW157396   6.053   0.784   0.446  1.2081  1.3460  0.6228
18147SOL    HW257397   6.179   0.840   0.385  1.3983 -0.5456 -0.8198
18148SOL     OW57398   1.828   0.184   1.709  0.1514  0.1745 -0.0668
18148SOL    HW157399   1.753   0.127   1.695  0.3383  0.0564 -0.6472
18148SOL    HW257400   1.815   0.222   1.796  0.6919 -1.7622  0.9127
18149SOL     OW57401   2.017   3.828   3.851 -0.7007  0.1508  0.3021
18149SOL    HW157402   1.932   3.785   3.839  0.2624 -1.2703 -2.4121
18149SOL    HW257403   2.070   3.796   3.778  2.7269 -0.2879  2.7372
18150SOL     OW57404   1.460   3.867   6.799  0.1696 -0.5229 -0.2128
18150SOL    HW157405   1.454   3.776   6.771  1.5373  0.3367 -3.9225
18150SOL    HW257406   1.385   3.910   6.758  1.3964  0.5650 -1.4132
18151SOL     OW57407   5.741   8.737   7.567 -0.1357 -0.2331 -0.4769
18151SOL    HW157408   5.795   8.786   7.505  1.0624  1.7875  1.9672
18151SOL    HW257409   5.752   8.645   7.542  1.5048  0.3896 -2.2766
18152SOL     OW57410   9.737   3.839   7.213  0.4080 -0.2101 -0.2463
18152SOL    HW157411   9.793   3.762   7.202  1.6590  0.9560 -2.7036
18152SOL    HW257412   9.702   3.856   7.125 -1.8792  0.5821  0.7312
18153SOL     OW57413   9.311   3.086   6.240  0.0654 -0.0507 -0.2413
18153SOL    HW157414   9.355   3.134   6.170 -1.2165  0.8984 -0.4424
18153SOL    HW257415   9.295   2.999   6.203 -0.8912  0.5364 -1.2829
18154SOL     OW57416   6.667   0.596   0.357  0.2647 -0.6931 -0.1950
18154SOL    HW157417   6.601   0.530   0.336 -0.6882  0.1709 -0.0104
18154SOL    HW257418   6.723   0.554   0.422 -0.9879 -0.9607  0.7551
18155SOL     OW57419   4.847   8.056   5.947 -0.5766 -0.9512 -0.0006
18155SOL    HW157420   4.777   8.122   5.952  0.7221  0.6069 -1.2528
18155SOL    HW257421   4.814   7.983   5.998 -1.8633  0.8963  2.0144
18156SOL     OW57422   2.076   8.683   3.341  0.0584  0.0099 -0.5441
18156SOL    HW157423   2.064   8.723   3.255  2.9095  1.0696 -0.5518
18156SOL    HW257424   2.072   8.589   3.324  1.3642  0.1777 -2.0290
18157SOL     OW57425   8.145   8.788   2.489 -0.0399  0.7064  0.0218
18157SOL    HW157426   8.163   8.694   2.483  0.7238  0.6990  1.8273
18157SOL    HW257427   8.055   8.793   2.522 -0.1490  0.6330 -0.2531
18158SOL     OW57428   2.754   4.089   6.278  0.4284  0.0566  0.1438
18158SOL    HW157429   2.698   4.012   6.269  0.9318 -0.3233  0.2426
18158SOL    HW257430   2.773   4.094   6.372  1.3585 -0.3928 -0.0112
18159SOL     OW57431   9.418   6.055   3.883  0.0445 -0.1422 -0.7584
18159SOL    HW157432   9.501   6.019   3.853  2.6047  1.2519  3.5743
18159SOL    HW257433   9.424   6.148   3.862 -0.4346 -0.0588 -0.5356
18160SOL     OW57434   1.513   0.003   0.256 -0.1667 -0.3646  0.1222
18160SOL    HW157435   1.478  -0.054   0.187  0.6860 -1.3055  0.4357
18160SOL    HW257436   1.565  -0.056   0.311  1.4220  0.8540 -0.0000
18161SOL     OW57437   8.858   3.055  10.305 -0.6305 -0.9481  0.2746
18161SOL    HW157438   8.944   3.061  10.346 -1.0648  1.5446  0.9371
18161SOL    HW257439   8.853   3.130  10.246 -2.2307 -1.2057  0.0261
18162SOL     OW57440   3.885   9.859   9.902 -0.1018  0.1109  0.0511
18162SOL    HW157441   3.880   9.954   9.895  1.6089  0.2379  0.2005
18162SOL    HW257442   3.952   9.843   9.968  1.3779 -1.2010 -1.6691
18163SOL     OW57443   1.479   1.300   7.757 -0.5526 -0.3361 -0.1765
18163SOL    HW157444   1.412   1.341   7.702 -1.6159  1.0305  1.9622
18163SOL    HW257445   1.535   1.373   7.784  1.6452 -1.4088 -1.6396
18164SOL     OW57446   7.878   9.520   4.229  0.2964  0.3608 -0.3258
18164SOL    HW157447   7.924   9.603   4.245 -1.1884  0.8399  1.9272
18164SOL    HW257448   7.926   9.457   4.283 -0.6276  0.5095  0.6918
18165SOL     OW57449   2.131   1.239   8.501 -0.2181 -0.2490 -0.2032
18165SOL    HW157450   2.048   1.219   8.544  0.5505 -1.1213  0.9546
18165SOL    HW257451   2.170   1.308   8.555  0.9509 -1.6531  0.8614
18166SOL     OW57452   7.655   7.498   5.730 -0.5931  0.4405  0.2463
18166SOL    HW157453   7.605   7.574   5.701  0.0245  0.3262 -1.2046
18166SOL    HW257454   7.624   7.481   5.819 -2.0083  1.3117 -0.0482
18167SOL     OW57455  10.362   5.144   7.658 -0.2371  0.1499 -0.3270
18167SOL    HW157456  10.412   5.213   7.702 -0.8798  0.2556  0.2517
18167SOL    HW257457  10.330   5.088   7.729 -1.8474  0.6964 -0.5710
18168SOL     OW57458   6.699   5.463   5.532 -0.1012  0.7044 -0.6151
18168SOL    HW157459   6.675   5.504   5.449 -2.4906  1.0343  0.1668
18168SOL    HW257460   6.616   5.435   5.570  1.0477 -0.6051  1.0876
18169SOL     OW57461   0.112   9.133   4.002 -0.0280  0.0499 -0.1399
18169SOL    HW157462   0.190   9.077   4.000  0.9106  1.2844  0.8099
18169SOL    HW257463   0.100   9.154   4.094 -0.9021  0.6908 -0.3943
18170SOL     OW57464   2.883   3.813   6.211 -0.3790  0.2275 -0.4617
18170SOL    HW157465   2.894   3.890   6.156  0.6888 -1.1598 -2.3363
18170SOL    HW257466   2.915   3.740   6.157 -0.2415 -1.3836  1.6435
18171SOL     OW57467   9.529   2.190   4.258 -0.2015  0.3657 -0.2840
18171SOL    HW157468   9.442   2.224   4.239 -0.9795 -0.0124  2.2387
18171SOL    HW257469   9.523   2.096   4.239 -0.7064  0.1491  0.8362
18172SOL     OW57470   9.081   5.004   8.183  0.1403 -0.3638 -0.0602
18172SOL    HW157471   9.114   5.013   8.272  0.4523 -0.1090 -0.2019
18172SOL    HW257472   8.987   5.020   8.191  0.3928  1.1994 -0.0179
18173SOL     OW57473   7.190   7.894   8.294 -0.4369  0.2347  0.0931
18173SOL    HW157474   7.147   7.943   8.224 -0.2299  1.9185  1.0736
18173SOL    HW257475   7.172   7.945   8.373 -0.5435 -1.5274  1.2687
18174SOL     OW57476   9.847   1.989   3.790 -0.8867 -0.5811 -0.2562
18174SOL    HW157477   9.794   1.921   3.832 -2.7610  0.1118 -1.3734
18174SOL    HW257478   9.904   2.021   3.860 -0.3676 -2.8549  0.4371
18175SOL     OW57479   4.851   3.327   0.442  0.3443  0.7703 -0.0525
18175SOL    HW157480   4.887   3.266   0.378  0.5496 -0.2885  1.0399
18175SOL    HW257481   4.772   3.283   0.475  1.0962  0.5658  1.5537
18176SOL     OW57482   9.094  10.591   5.205  0.4923 -0.1915  0.0882
18176SOL    HW157483   9.027  10.523   5.211  0.9214 -0.5589  1.0124
18176SOL    HW257484   9.151  10.562   5.133  1.6804 -1.7822  1.5925
18177SOL     OW57485   0.998  10.606   4.893  0.4895 -0.2324  0.2090
18177SOL    HW157486   0.973  10.521   4.928 -0.3500 -0.2257 -0.3414
18177SOL    HW257487   1.033  10.587   4.806  2.0868 -0.1963  0.8124
18178SOL     OW57488   4.117   3.258   9.180 -0.1785 -0.2592 -0.2505
18178SOL    HW157489   4.172   3.219   9.248  2.4869  0.6008 -1.7440
18178SOL    HW257490   4.089   3.342   9.215  1.0254  0.0966 -0.1124
18179SOL     OW57491   7.629   2.460   1.503  0.0228  0.6811 -0.2001
18179SOL    HW157492   7.614   2.405   1.581  3.1298 -1.6052 -1.0159
18179SOL    HW257493   7.541   2.480   1.471 -1.3177 -0.9836  2.0789
18180SOL     OW57494   7.994   0.602   4.736  0.2909  0.6061  0.1673
18180SOL    HW157495   8.066   0.596   4.673 -0.9121  0.2113 -1.2211
18180SOL    HW257496   7.920   0.562   4.691 -1.4562  3.1493  0.5779
18181SOL     OW57497   8.135   1.693   2.989  0.6512 -0.8233  0.0965
18181SOL    HW157498   8.187   1.736   3.057 -0.1639 -0.7364  0.6801
18181SOL    HW257499   8.186   1.704   2.909  1.9173 -1.4560  0.7922
18182SOL     OW57500   7.830  10.471   7.198 -0.2581  0.3133 -0.2949
18182SOL    HW157501   7.779  10.429   7.268 -1.2028 -1.0009 -1.7130
18182SOL    HW257502   7.797  10.431   7.117  0.1734  2.4300 -1.5801
18183SOL     OW57503   1.664   3.913   6.377  0.1339  0.1391 -0.1926
18183SOL    HW157504   1.570   3.933   6.379 -0.4099 -2.0408 -0.7407
18183SOL    HW257505   1.694   3.930   6.466 -0.9008  0.3831  0.1241
18184SOL     OW57506   1.370   0.588   9.550  0.1281 -0.2142  0.8010
18184SOL    HW157507   1.458   0.580   9.515 -0.8411 -0.8442 -1.6862
18184SOL    HW257508   1.374   0.665   9.608  1.4402  2.3692 -2.3952
18185SOL     OW57509  10.034   2.001   2.814  0.6296  0.4612  0.1443
18185SOL    HW157510  10.028   1.942   2.889  0.5769  0.5280  0.1926
18185SOL    HW257511   9.946   2.001   2.776  1.0792 -0.9680 -0.9812
18186SOL     OW57512   6.447   5.465  10.021 -0.9539  0.5398 -0.3327
18186SOL    HW157513   6.393   5.416   9.958 -2.1931  0.1690  0.9511
18186SOL    HW257514   6.470   5.546   9.975 -2.1451  0.4469 -1.1382
18187SOL     OW57515   6.227   2.608   3.615 -0.0151  0.0058 -0.2199
18187SOL    HW157516   6.287   2.676   3.587 -0.0532  0.6411  1.1766
18187SOL    HW257517   6.155   2.612   3.552  0.9463 -0.1474 -1.3567
18188SOL     OW57518   3.156  10.077   3.780 -0.4552 -0.4810 -0.4878
18188SOL    HW157519   3.093  10.045   3.716 -0.3906 -1.1361 -0.2395
18188SOL    HW257520   3.184   9.998   3.827  0.4076 -0.1764 -0.4687
18189SOL     OW57521   2.054   3.272   5.772 -0.0768  0.0104 -0.3288
18189SOL    HW157522   2.129   3.331   5.758  0.9509 -0.8444  1.2574
18189SOL    HW257523   1.978   3.330   5.772  0.7778  1.1797 -0.0827
18190SOL     OW57524   4.945   8.886   1.143 -0.2516  0.5038  0.6183
18190SOL    HW157525   4.995   8.965   1.168 -0.9477  1.6290 -1.3179
18190SOL    HW257526   4.856   8.904   1.174 -0.9731  1.6300 -1.8603
18191SOL     OW57527   2.226   9.990   9.462 -0.4506  0.5721 -0.0678
18191SOL    HW157528   2.218   9.912   9.406 -0.6856  0.2306  0.4394
18191SOL    HW257529   2.277  10.052   9.409 -1.9961  0.8496 -1.3104
18192SOL     OW57530   5.043   8.144   5.756  0.1341  0.1900  0.3186
18192SOL    HW157531   5.131   8.154   5.792  0.1205  0.8468  0.1913
18192SOL    HW257532   4.988   8.127   5.833  0.1865  1.0419  0.5578
18193SOL     OW57533   6.787   0.081   8.270  0.0207 -0.2756 -0.0285
18193SOL    HW157534   6.722   0.010   8.271  1.3074 -1.5061  0.8853
18193SOL    HW257535   6.864   0.042   8.230 -0.5464  1.9832 -3.7425
18194SOL     OW57536   3.839   7.914  10.523 -0.5724  0.2727  0.0090
18194SOL    HW157537   3.929   7.881  10.524  0.3757  2.6300 -0.8683
18194SOL    HW257538   3.807   7.897  10.611  0.8149 -0.3589  0.4270
18195SOL     OW57539   5.698   4.621   1.176 -0.4916 -0.0080  0.2375
18195SOL    HW157540   5.604   4.635   1.166 -0.2468  1.6033 -0.1345
18195SOL    HW257541   5.736   4.708   1.162  1.0900 -0.7248 -0.0701
18196SOL     OW57542   3.182   1.226   6.878  0.2484 -0.3076 -0.2308
18196SOL    HW157543   3.175   1.312   6.836  1.1460 -0.1269 -0.0358
18196SOL    HW257544   3.266   1.229   6.925 -0.6646 -0.5257  1.5227
18197SOL     OW57545   1.084   5.173   0.381  0.1608  0.5732  0.2995
18197SOL    HW157546   1.013   5.209   0.327  1.2216  1.7111 -0.3934
18197SOL    HW257547   1.162   5.221   0.353  0.9230  0.5253  2.1761
18198SOL     OW57548   0.099   2.715   1.930 -0.0097 -0.1226 -0.5174
18198SOL    HW157549   0.046   2.693   1.853  0.5745 -2.1972 -0.4042
18198SOL    HW257550   0.163   2.644   1.935 -0.1190 -0.1265  1.9530
18199SOL     OW57551   7.105   8.262  10.144  0.4471 -0.1900  0.0316
18199SOL    HW157552   7.097   8.323  10.218  1.7264 -0.9038  0.7838
18199SOL    HW257553   7.162   8.307  10.082  2.2941 -0.9874  1.0588
18200SOL     OW57554   1.947   3.678   5.655  0.0152  0.0979  0.0627
18200SOL    HW157555   2.012   3.610   5.671  0.0143  0.4283  1.5531
18200SOL    HW257556   1.992   3.760   5.677 -0.6325  0.4072  0.2633
18201SOL     OW57557   2.480   5.998   1.127 -0.2300  0.3232  0.3168
18201SOL    HW157558   2.427   5.981   1.205  0.7174  0.9418  1.1197
18201SOL    HW257559   2.429   6.062   1.078  0.5152  2.3252  1.9751
18202SOL     OW57560   0.275   3.623   1.857  0.4757  0.3667  0.0587
18202SOL    HW157561   0.233   3.620   1.943 -0.2214  1.2046 -0.2288
18202SOL    HW257562   0.360   3.582   1.870  0.0108 -0.3668  0.9273
18203SOL     OW57563   7.476   5.277   5.257  0.1197 -0.0582 -0.3252
18203SOL    HW157564   7.478   5.207   5.322 -2.3522  0.3430  0.2592
18203SOL    HW257565   7.465   5.357   5.308  0.4202  0.5061 -1.1253
18204SOL     OW57566   5.701   9.511   0.295 -0.7194  0.2891  0.7867
18204SOL    HW157567   5.772   9.472   0.347 -2.2361 -0.8109  2.1334
18204SOL    HW257568   5.645   9.437   0.273 -0.7246  0.9193 -1.5302
18205SOL     OW57569   7.495   7.130   4.279 -0.2559  0.1407  0.5635
18205SOL    HW157570   7.524   7.099   4.193 -0.0367  2.2747 -0.1854
18205SOL    HW257571   7.496   7.051   4.334 -0.0118 -1.1990 -1.2657
18206SOL     OW57572   9.066   0.281   1.055  0.1818  0.4402  0.0643
18206SOL    HW157573   9.160   0.293   1.073  0.2509  1.5331 -0.8872
18206SOL    HW257574   9.056   0.309   0.964 -0.8341 -1.0636 -0.3198
18207SOL     OW57575   9.108   3.771   8.259 -0.3884  0.3566 -0.1802
18207SOL    HW157576   9.153   3.787   8.342 -0.9077 -1.6801  0.5567
18207SOL    HW257577   9.134   3.683   8.234 -0.6023  0.7593 -1.9854
18208SOL     OW57578   1.316   7.706   6.967  0.2569  0.2344  0.8633
18208SOL    HW157579   1.332   7.744   6.881 -0.3156 -0.1670  0.5693
18208SOL    HW257580   1.306   7.781   7.025 -0.7271  0.5446  0.3187
18209SOL     OW57581   9.277   9.777   3.442  0.3299  0.2816 -0.2381
18209SOL    HW157582   9.238   9.863   3.454 -0.6606 -0.0930 -0.7343
18209SOL    HW257583   9.371   9.795   3.436  0.2442  1.2094  0.7161
18210SOL     OW57584  10.695   0.301   6.059  0.1882  0.0807 -0.0295
18210SOL    HW157585  10.780   0.258   6.049 -1.2200 -2.8130 -0.3469
18210SOL    HW257586  10.688   0.319   6.153  1.4760  1.2174 -0.1106
18211SOL     OW57587   2.981   6.108   8.346 -0.1222  0.4094  0.2752
18211SOL    HW157588   3.021   6.188   8.312 -1.0426  0.0141 -1.9572
18211SOL    HW257589   3.003   6.107   8.439  0.6917  2.7680  0.1749
18212SOL     OW57590   2.967   6.554   4.085  0.0989  0.5859 -0.5312
18212SOL    HW157591   2.987   6.483   4.146 -0.8515 -0.8504 -1.8145
18212SOL    HW257592   2.878   6.579   4.105  0.7732  2.2009  0.6161
18213SOL     OW57593   5.920   8.549   4.071 -0.1167  0.0935  0.0764
18213SOL    HW157594   5.995   8.530   4.128  0.8382 -0.3753 -1.2975
18213SOL    HW257595   5.908   8.469   4.020 -0.6528  0.6709 -0.7175
18214SOL     OW57596   7.591   4.319   4.294 -0.2692 -0.1791  0.3574
18214SOL    HW157597   7.610   4.231   4.327 -1.8228 -1.6487 -2.3490
18214SOL    HW257598   7.549   4.304   4.210  1.4330  3.2316 -1.2676
18215SOL     OW57599   0.579   8.094   5.076  0.1299  0.4171  0.6773
18215SOL    HW157600   0.488   8.071   5.096  0.0510  0.6024  0.5318
18215SOL    HW257601   0.621   8.011   5.056 -0.3899  0.4894 -0.8127
18216SOL     OW57602   7.907   8.242   2.083  0.2966  0.2859 -0.2258
18216SOL    HW157603   7.943   8.235   2.172 -0.5770  2.6603  0.3824
18216SOL    HW257604   7.907   8.336   2.065 -2.5344  0.1326 -1.4553
18217SOL     OW57605   2.335  10.588   3.782 -0.4466  0.6667 -0.0033
18217SOL    HW157606   2.404  10.654   3.770 -0.3235  0.2016 -2.2901
18217SOL    HW257607   2.263  10.619   3.728 -0.7522 -0.5865 -0.3317
18218SOL     OW57608   6.087   9.272   4.561 -0.0836 -0.5742  0.0326
18218SOL    HW157609   6.022   9.225   4.509  0.9470 -0.9527 -0.9588
18218SOL    HW257610   6.165   9.273   4.506  0.3246  1.1591  0.5803
18219SOL     OW57611   5.969   7.325   6.517 -0.2738  0.3245 -0.2949
18219SOL    HW157612   6.064   7.336   6.518 -0.3100  0.7265 -0.7238
18219SOL    HW257613   5.952   7.260   6.585  0.3148  0.1826 -0.2730
18220SOL     OW57614  10.369   3.260   2.790 -0.0355  0.2093  0.4247
18220SOL    HW157615  10.411   3.340   2.821  0.7534  0.4993 -1.2971
18220SOL    HW257616  10.382   3.261   2.696  0.5119 -2.2609  0.4133
18221SOL     OW57617   1.039   3.170   0.700  0.3771  0.0177 -0.7281
18221SOL    HW157618   0.945   3.152   0.692  0.6556 -2.4400  0.4345
18221SOL    HW257619   1.060   3.226   0.625 -1.8428 -0.0809 -1.4835
18222SOL     OW57620   1.554   2.037  10.200  0.4485  0.2254 -0.6957
18222SOL    HW157621   1.602   2.033  10.283  0.0494  0.9421 -0.4231
18222SOL    HW257622   1.556   2.129  10.175 -0.7161  0.2606 -0.7205
18223SOL     OW57623   7.917  10.083   5.446 -0.6427 -0.4801 -0.6996
18223SOL    HW157624   7.847  10.141   5.415 -0.2824 -1.2053 -3.0311
18223SOL    HW257625   7.998  10.124   5.416 -0.0977 -0.2952  0.9093
18224SOL     OW57626   7.875   9.370   2.132  0.5389  0.0610 -0.6007
18224SOL    HW157627   7.836   9.456   2.147  0.9489  0.2702 -0.7036
18224SOL    HW257628   7.923   9.352   2.213  1.6315  0.5793 -1.1096
18225SOL     OW57629   1.653   9.716   8.203 -0.1809  0.4576 -0.4445
18225SOL    HW157630   1.686   9.751   8.120  2.6557 -0.1067  0.3090
18225SOL    HW257631   1.608   9.789   8.245 -1.1238  0.9175 -2.1757
18226SOL     OW57632   8.096   9.470   6.423 -0.0993  0.0979  0.0248
18226SOL    HW157633   8.101   9.433   6.335  0.7011  0.4426 -0.0830
18226SOL    HW257634   8.039   9.409   6.471  0.3249 -0.6854 -0.4395
18227SOL     OW57635  10.416   8.843  10.066 -0.0479  0.4160  0.6954
18227SOL    HW157636  10.470   8.854  10.145  0.7113  1.0431  0.1160
18227SOL    HW257637  10.411   8.931  10.029  0.1909  0.0155 -0.3232
18228SOL     OW57638   5.792   5.941   0.388  0.3573  0.1292  0.7080
18228SOL    HW157639   5.718   5.896   0.346  0.2191 -0.7951  1.9024
18228SOL    HW257640   5.827   5.997   0.319  0.0200 -1.1872 -0.5978
18229SOL     OW57641   0.954   6.270   2.673 -0.2728  0.0229 -0.2071
18229SOL    HW157642   0.964   6.247   2.581 -2.4825  1.3122 -0.8239
18229SOL    HW257643   0.891   6.206   2.707  0.4673 -0.3939  0.4349
18230SOL     OW57644   3.989   2.100   2.066 -0.2359  0.3779  0.4988
18230SOL    HW157645   4.017   2.024   2.015  0.9337 -0.1722  1.8923
18230SOL    HW257646   3.935   2.151   2.006  0.3534 -0.6942 -0.9908
18231SOL     OW57647   2.206   2.729   3.856  0.3328 -0.4921  0.1704
18231SOL    HW157648   2.217   2.676   3.778  0.3301 -1.7943  1.0290
18231SOL    HW257649   2.134   2.688   3.903  0.1021  0.4803  0.7007
18232SOL     OW57650   5.032   4.582   5.626  0.9301  0.6359  0.4637
18232SOL    HW157651   5.020   4.487   5.626  1.2349  0.5756 -0.8819
18232SOL    HW257652   4.965   4.614   5.686  0.5739 -0.4007  0.6484
18233SOL     OW57653   2.896   7.113   7.178 -0.6503 -0.2055 -0.6077
18233SOL    HW157654   2.898   7.056   7.254 -0.2828  1.1857  0.4778
18233SOL    HW257655   2.982   7.101   7.137  0.6384  1.7094  1.3332
18234SOL     OW57656   9.772   7.128   4.411  0.0918 -0.2063  0.1365
18234SOL    HW157657   9.835   7.180   4.460  0.3752  0.4089 -0.8444
18234SOL    HW257658   9.759   7.049   4.464  0.9227  0.1078  0.8314
18235SOL     OW57659   4.478   4.240   3.735 -0.2286  0.1815  0.3550
18235SOL    HW157660   4.435   4.155   3.725  0.1198 -0.1240  1.2920
18235SOL    HW257661   4.565   4.227   3.696 -0.7164  0.5880 -0.9057
18236SOL     OW57662   9.617   3.978  10.055  0.2257 -0.1697  0.5440
18236SOL    HW157663   9.641   3.923   9.981 -1.2072  1.3620 -1.1386
18236SOL    HW257664   9.667   4.058  10.044 -1.6970  1.0072 -0.1595
18237SOL     OW57665   7.969   5.959   7.817 -0.3750 -0.2830 -0.6693
18237SOL    HW157666   7.880   5.925   7.806 -1.4958  1.7602  1.2069
18237SOL    HW257667   8.009   5.899   7.881 -1.2847  0.1276  0.3266
18238SOL     OW57668   0.267   7.053   3.309  0.5653  0.3390  1.0564
18238SOL    HW157669   0.286   7.050   3.403 -1.0789 -3.1297  1.4111
18238SOL    HW257670   0.174   7.076   3.304  0.7036  0.7499  0.2526
18239SOL     OW57671   2.580   0.132   7.515 -0.3489 -0.6300  0.0290
18239SOL    HW157672   2.619   0.165   7.434 -0.5783 -1.7730 -0.5770
18239SOL    HW257673   2.494   0.173   7.520 -1.2304 -2.1399 -1.4696
18240SOL     OW57674   0.511   9.975   0.691 -0.3085 -0.6420 -0.0588
18240SOL    HW157675   0.499   9.917   0.766  0.4407 -0.7141  0.0177
18240SOL    HW257676   0.606   9.990   0.688 -0.3627 -0.4354 -0.8381
18241SOL     OW57677   0.380   4.400   9.594  0.0200 -0.3893  0.2258
18241SOL    HW157678   0.418   4.483   9.619  1.0970 -0.6794 -0.3953
18241SOL    HW257679   0.449   4.336   9.609  0.0721 -0.8278 -1.6304
18242SOL     OW57680   3.480   0.439   6.662 -0.4147  0.0456 -0.7486
18242SOL    HW157681   3.408   0.404   6.714 -0.3168  2.2379  1.0312
18242SOL    HW257682   3.448   0.524   6.632  1.2361  0.8542 -0.3121
18243SOL     OW57683   5.359   9.163   2.841 -0.1714  0.1395 -0.6823
18243SOL    HW157684   5.381   9.184   2.750  0.8214 -0.7542 -0.6684
18243SOL    HW257685   5.315   9.078   2.835 -0.1098  0.0820 -0.3275
18244SOL     OW57686   4.676  10.555   4.909  0.3216 -0.6184 -0.6058
18244SOL    HW157687   4.719  10.489   4.855 -1.1070 -0.7948 -1.5821
18244SOL    HW257688   4.747  10.610   4.942  1.4485 -2.0697 -0.5325
18245SOL     OW57689  10.159   5.287  10.077  0.3116  0.3955 -0.9131
18245SOL    HW157690  10.205   5.357  10.030  1.9454  0.1483  0.2280
18245SOL    HW257691  10.195   5.206  10.040  0.3067  0.1901 -0.4675
18246SOL     OW57692   4.180   6.946   6.238  0.0757  0.3606 -0.0011
18246SOL    HW157693   4.242   7.006   6.198 -0.0854 -1.7722 -3.8912
18246SOL    HW257694   4.106   6.944   6.178 -1.3265 -1.3373  1.6555
18247SOL     OW57695   3.004   5.903   5.279  0.6642  0.3715  0.0407
18247SOL    HW157696   2.954   5.894   5.197  2.0408  0.6408 -0.8532
18247SOL    HW257697   2.976   5.827   5.332  0.7608 -0.5802 -1.2216
18248SOL     OW57698   1.450   6.407   5.626 -0.0784 -0.5029  0.7418
18248SOL    HW157699   1.410   6.491   5.603  1.1780 -0.2351 -0.6363
18248SOL    HW257700   1.454   6.408   5.721  1.4815  1.8117  0.7280
18249SOL     OW57701   1.697   8.795   2.591  0.8374 -0.2318  0.2273
18249SOL    HW157702   1.612   8.759   2.565  0.9984 -1.2754  1.0950
18249SOL    HW257703   1.754   8.777   2.516  0.4178  0.0892 -0.1828
18250SOL     OW57704   8.346   0.022   9.103  0.4403  0.3417 -0.4574
18250SOL    HW157705   8.338  -0.020   9.188 -0.9098  1.4393 -0.0085
18250SOL    HW257706   8.381  -0.047   9.046 -0.8047 -1.1247  0.4574
18251SOL     OW57707   6.867   3.265   5.285  0.6674  0.5685 -0.2848
18251SOL    HW157708   6.806   3.317   5.337  1.5339  1.5484 -0.2256
18251SOL    HW257709   6.854   3.175   5.316 -1.0522  0.6793 -0.5963
18252SOL     OW57710   0.755   7.988   6.419 -0.6671  0.2136 -0.0560
18252SOL    HW157711   0.714   7.951   6.497 -0.3203  0.8965  0.4585
18252SOL    HW257712   0.841   7.946   6.415 -0.7754  0.0040 -0.2059
18253SOL     OW57713   8.516   2.854   1.005  0.2670 -0.3984  0.1981
18253SOL    HW157714   8.436   2.802   1.004 -1.2946  1.7344  2.4016
18253SOL    HW257715   8.515   2.903   0.922 -1.4032  0.4858  0.7016
18254SOL     OW57716   8.913   1.938   0.398 -0.4553 -0.3632  0.4890
18254SOL    HW157717   8.984   2.003   0.393  0.0062 -0.7897  1.3026
18254SOL    HW257718   8.926   1.882   0.322  0.4083 -0.7467  0.8999
18255SOL     OW57719  10.089   1.600   7.850  0.1018 -0.1324  0.3313
18255SOL    HW157720  10.167   1.556   7.885 -0.4915  0.3402  2.3736
18255SOL    HW257721  10.123   1.665   7.788  1.4030  0.5725  1.7414
18256SOL     OW57722   6.439   4.717   3.751  0.4582  0.0664 -0.9550
18256SOL    HW157723   6.520   4.691   3.795 -0.9811 -0.5320  1.5572
18256SOL    HW257724   6.431   4.656   3.678  2.0469 -0.1237 -1.0017
18257SOL     OW57725   0.517   6.815   9.268  0.6315  0.2485 -0.3270
18257SOL    HW157726   0.522   6.751   9.340  0.8008 -0.5652 -1.0480
18257SOL    HW257727   0.424   6.821   9.247  0.4658  1.2381  0.6043
18258SOL     OW57728   0.836   8.636   4.280 -0.0949  0.1727  0.2282
18258SOL    HW157729   0.910   8.582   4.307  0.9719  1.8027  0.6692
18258SOL    HW257730   0.768   8.616   4.345  0.2313 -0.7274  0.3070
18259SOL     OW57731   7.098   7.151   4.083  0.3205  0.7571 -0.2312
18259SOL    HW157732   7.182   7.194   4.103  0.8190 -0.0827 -0.4647
18259SOL    HW257733   7.035   7.223   4.080  1.4941  1.8293 -2.8982
18260SOL     OW57734   1.527   4.422   1.654 -0.2480  0.6320  0.2620
18260SOL    HW157735   1.544   4.448   1.745  0.5453 -0.1273  0.3369
18260SOL    HW257736   1.466   4.489   1.622 -1.6579  0.1426  1.7648
18261SOL     OW57737   8.024   5.401   4.376  0.2871 -0.3657  0.8676
18261SOL    HW157738   8.114   5.384   4.349  0.6271 -0.7191  2.1368
18261SOL    HW257739   8.032   5.437   4.465 -0.8462 -1.2006  1.3320
18262SOL     OW57740   4.246   6.781   0.308 -0.3249  0.1194  0.2924
18262SOL    HW157741   4.291   6.699   0.331  2.6330  1.7379  0.8702
18262SOL    HW257742   4.292   6.813   0.231 -2.2156  0.6995 -0.6449
18263SOL     OW57743   9.933   4.421   4.870  0.4319 -0.3509 -0.1088
18263SOL    HW157744   9.973   4.432   4.957 -0.5470  2.0221  0.1402
18263SOL    HW257745   9.946   4.506   4.828  1.3665 -1.6164 -2.5668
18264SOL     OW57746   7.618   1.004   3.180  0.1414  0.4346 -0.6562
18264SOL    HW157747   7.664   0.928   3.145  0.7112  0.3768  0.1782
18264SOL    HW257748   7.613   0.987   3.275 -0.0277  1.2754 -0.5069
18265SOL     OW57749   8.643   8.511   6.561 -0.6465  0.4998 -0.2151
18265SOL    HW157750   8.708   8.533   6.628 -0.8355  1.4076 -0.3195
18265SOL    HW257751   8.635   8.416   6.566 -0.7419  0.5619  1.1189
18266SOL     OW57752   3.964   2.048   4.263  0.0558 -0.6661 -0.2761
18266SOL    HW157753   3.964   1.965   4.215  1.8097 -0.4427 -0.7509
18266SOL    HW257754   4.020   2.105   4.210 -0.0986  0.4140  0.7070
18267SOL     OW57755   7.871   1.545   7.868  0.2131 -0.7677  0.0008
18267SOL    HW157756   7.822   1.464   7.863 -1.4434  0.2487 -1.0688
18267SOL    HW257757   7.947   1.531   7.811  0.7005 -1.9966  0.9003
18268SOL     OW57758   8.843   8.724   2.278 -0.1896 -0.3396 -0.0674
18268SOL    HW157759   8.907   8.755   2.343 -0.4281 -1.2623  0.6211
18268SOL    HW257760   8.772   8.788   2.283  0.4147  0.3852 -0.4463
18269SOL     OW57761   7.540   5.108  10.232  0.3516 -0.0729 -0.2659
18269SOL    HW157762   7.514   5.142  10.146 -4.3264 -2.2443 -0.0041
18269SOL    HW257763   7.524   5.181  10.292 -0.6932  0.1104 -0.7445
18270SOL     OW57764   5.662   4.424   7.143 -0.9917  0.7726 -0.1155
18270SOL    HW157765   5.716   4.431   7.222 -1.0997 -3.1628  0.5071
18270SOL    HW257766   5.710   4.474   7.077  0.3912  2.1373  1.8168
18271SOL     OW57767   5.529   8.049   5.745 -0.4393 -0.5790 -0.1323
18271SOL    HW157768   5.495   7.971   5.701 -1.3945 -0.2490  0.0081
18271SOL    HW257769   5.595   8.014   5.806 -0.1406 -1.1710 -0.7732
18272SOL     OW57770   1.704   5.385   0.609 -0.5268 -0.6708  0.7662
18272SOL    HW157771   1.714   5.346   0.696  2.0665 -0.9009  0.4492
18272SOL    HW257772   1.790   5.376   0.569 -0.9185  1.8246 -0.8418
18273SOL     OW57773   0.219   4.525   0.291  0.1548 -0.3071 -0.2157
18273SOL    HW157774   0.159   4.454   0.312  0.9167 -2.0197 -3.1912
18273SOL    HW257775   0.305   4.483   0.286  1.0000  1.3055  0.1324
18274SOL     OW57776   7.212   2.867   9.450 -0.1939  0.2065 -0.0796
18274SOL    HW157777   7.161   2.929   9.503  0.1884 -0.7532  1.4507
18274SOL    HW257778   7.296   2.860   9.495  0.1918 -0.5279 -0.8912
18275SOL     OW57779   1.946   7.987  10.259 -0.2640  0.2400 -0.4021
18275SOL    HW157780   2.025   7.992  10.205 -0.8779  0.5337 -1.2736
18275SOL    HW257781   1.977   7.948  10.341  0.9161  0.9648 -0.4784
18276SOL     OW57782   0.155   5.325   2.190  0.0856  0.1078  0.5272
18276SOL    HW157783   0.214   5.375   2.135  0.5654 -0.3370  0.6267
18276SOL    HW257784   0.192   5.333   2.278 -0.0636 -0.0803  0.6077
18277SOL     OW57785   5.332   2.350   1.920 -0.0179  0.3813 -0.2683
18277SOL    HW157786   5.254   2.295   1.923 -0.1377  0.5665  0.0699
18277SOL    HW257787   5.378   2.323   1.841 -0.5339  0.4213 -0.5808
18278SOL     OW57788   0.356   6.933   9.737 -0.5346 -0.3536  0.2504
18278SOL    HW157789   0.418   6.883   9.790  0.9921  0.6776 -0.4782
18278SOL    HW257790   0.369   7.024   9.765  1.0688  0.3741 -2.4978
18279SOL     OW57791   9.362   0.027   7.378 -0.0785 -0.4682  0.2633
18279SOL    HW157792   9.294  -0.020   7.428  0.1792 -0.8172  0.2931
18279SOL    HW257793   9.349  -0.001   7.288  0.3552 -0.9488  0.3442
18280SOL     OW57794   9.903   3.651   5.730 -0.3198 -0.2978 -0.4120
18280SOL    HW157795   9.842   3.598   5.680 -1.1405 -0.6469  0.9033
18280SOL    HW257796   9.899   3.615   5.819 -0.0304  1.2093  0.2470
18281SOL     OW57797   7.822   4.467   4.246 -0.3041  0.4869  0.2740
18281SOL    HW157798   7.748   4.413   4.274  0.1162  0.2971  1.0301
18281SOL    HW257799   7.793   4.504   4.162 -0.4632 -1.2288 -0.4879
18282SOL     OW57800   1.307   9.329   2.775  0.2095 -0.1090 -0.4887
18282SOL    HW157801   1.370   9.285   2.831 -0.1834 -0.3907 -0.2561
18282SOL    HW257802   1.274   9.260   2.717 -0.3651 -0.1220 -0.1613
18283SOL     OW57803   7.638   3.092   1.799  0.0344  0.1044 -0.2284
18283SOL    HW157804   7.598   3.021   1.750 -1.6001  0.1326  0.9847
18283SOL    HW257805   7.601   3.172   1.760  0.0469  0.1885 -0.0714
18284SOL     OW57806  10.651   6.697   4.084 -0.4161  0.5257 -0.4268
18284SOL    HW157807  10.629   6.674   4.175  2.5010 -2.6848 -0.3304
18284SOL    HW257808  10.584   6.655   4.031 -1.0716  0.7970  0.1806
18285SOL     OW57809   8.611   2.233   1.299 -0.4807  0.3543  0.2785
18285SOL    HW157810   8.599   2.296   1.370  1.7468  2.0962 -0.7785
18285SOL    HW257811   8.666   2.165   1.336 -0.2640  0.6711  0.5404
18286SOL     OW57812   6.444   9.711   5.523  0.8844 -0.5772  0.1412
18286SOL    HW157813   6.526   9.697   5.570 -0.2749 -1.4746  2.0348
18286SOL    HW257814   6.377   9.704   5.590 -0.9265 -2.2788 -1.6905
18287SOL     OW57815   9.008   7.454   9.160  0.0294 -0.2797  0.0165
18287SOL    HW157816   8.926   7.480   9.201 -0.4305 -1.5293 -0.0865
18287SOL    HW257817   9.012   7.359   9.172  0.5191 -0.5034 -1.6765
18288SOL     OW57818   4.770   3.062  10.348  0.9314  0.2379  0.4676
18288SOL    HW157819   4.690   3.038  10.394  1.7130  0.0138  1.7579
18288SOL    HW257820   4.802   2.980  10.310  0.6044  0.3113  0.0282
18289SOL     OW57821   5.016   9.392   7.317 -0.0300 -0.6787  0.6719
18289SOL    HW157822   4.936   9.371   7.270 -0.0588 -2.3110  1.3561
18289SOL    HW257823   5.085   9.346   7.269  0.4209  0.2212  0.4346
18290SOL     OW57824   6.019   6.988   6.554 -0.2370 -0.0920  0.1169
18290SOL    HW157825   6.029   6.893   6.564 -2.6997 -0.3069  1.2865
18290SOL    HW257826   6.088   7.025   6.607  0.5154 -1.2200 -0.0268
18291SOL     OW57827   6.736   6.558   9.453  0.1418 -0.0074  0.0908
18291SOL    HW157828   6.794   6.489   9.484  1.3350  0.6963 -0.5199
18291SOL    HW257829   6.695   6.592   9.532  1.3149  0.1388  0.6566
18292SOL     OW57830   4.512   5.928   0.660  0.1031  0.1111 -0.2796
18292SOL    HW157831   4.553   5.872   0.727  0.7196 -1.4231 -1.8712
18292SOL    HW257832   4.586   5.966   0.613 -0.1949 -2.0215 -2.6414
18293SOL     OW57833   4.846   3.818   8.077  0.1544 -0.3490 -0.4201
18293SOL    HW157834   4.919   3.796   8.019  1.2404  0.4387  0.5923
18293SOL    HW257835   4.877   3.793   8.164 -0.2167  1.2514  0.2002
18294SOL     OW57836   3.837   2.343   6.600  0.2594  0.5348  0.1383
18294SOL    HW157837   3.901   2.411   6.578  1.4766 -0.8807 -0.9367
18294SOL    HW257838   3.769   2.353   6.534  1.1238 -0.1411 -0.8828
18295SOL     OW57839   9.055   9.454   5.587 -0.1490 -0.2112  0.0241
18295SOL    HW157840   9.065   9.359   5.585  1.2668 -0.0956  0.5110
18295SOL    HW257841   8.963   9.469   5.565 -0.6074 -1.7243  0.7785
18296SOL     OW57842   4.969   0.871   4.329 -0.3850 -0.4225 -0.2696
18296SOL    HW157843   4.942   0.779   4.322  1.1497 -0.9001 -0.2989
18296SOL    HW257844   5.039   0.880   4.264 -0.2740  0.6790 -0.0096
18297SOL     OW57845   7.282   1.287   3.779 -0.1673  0.1933 -0.2052
18297SOL    HW157846   7.292   1.305   3.872 -0.0113 -1.3930  0.1133
18297SOL    HW257847   7.220   1.354   3.748 -0.4320  0.5758  1.0829
18298SOL     OW57848   9.868   3.651   0.450 -0.1632 -0.5957  0.0084
18298SOL    HW157849   9.909   3.580   0.400 -1.0093 -0.7313 -0.5087
18298SOL    HW257850   9.941   3.697   0.490  0.4314 -1.4994 -0.0015
18299SOL     OW57851  10.035   6.501   2.989 -0.4294  0.1110 -0.2675
18299SOL    HW157852  10.099   6.558   3.031 -0.6461 -0.3894  0.7546
18299SOL    HW257853  10.014   6.435   3.054 -1.0593 -0.4652 -1.0303
18300SOL     OW57854   1.311   7.288   6.248 -0.1376  0.2953 -0.3115
18300SOL    HW157855   1.307   7.357   6.314  1.9548  0.8244 -0.6617
18300SOL    HW257856   1.398   7.296   6.210  0.1539 -2.4749 -0.4560
18301SOL     OW57857   8.488   3.409   3.383 -0.6915  0.5955  0.1451
18301SOL    HW157858   8.452   3.436   3.299  0.2584  1.0957 -0.1174
18301SOL    HW257859   8.578   3.441   3.382  0.1238 -1.5163  0.3221
18302SOL     OW57860   9.371   3.424   8.840 -0.0575 -0.0232 -0.0234
18302SOL    HW157861   9.451   3.475   8.859  0.1471 -0.5642  0.5889
18302SOL    HW257862   9.303   3.468   8.890 -0.2448  0.7183 -0.9127
18303SOL     OW57863   3.825   1.964  10.437  0.0527  0.4425 -0.2040
18303SOL    HW157864   3.849   2.045  10.393  0.6768 -0.2044 -1.1097
18303SOL    HW257865   3.757   1.989  10.499  0.3246  1.6720 -0.3739
18304SOL     OW57866   9.389   1.488   6.825 -0.1430  0.3926 -0.2259
18304SOL    HW157867   9.476   1.513   6.795  0.5776 -2.4486 -0.8109
18304SOL    HW257868   9.329   1.528   6.762  1.0294 -0.9320 -2.2787
18305SOL     OW57869   6.684   6.540   0.484  0.6015  0.1319 -0.1012
18305SOL    HW157870   6.623   6.471   0.460  2.5136 -1.4515 -0.6078
18305SOL    HW257871   6.643   6.582   0.561 -0.7048 -1.3999  0.0908
18306SOL     OW57872   7.416   9.963   7.536 -0.2462  0.1546 -0.1844
18306SOL    HW157873   7.386   9.872   7.538  0.1854 -0.0168 -1.0324
18306SOL    HW257874   7.417   9.986   7.443  0.8350  0.6258 -0.0742
18307SOL     OW57875   3.033   2.388   3.621  0.1840 -0.0880 -0.1851
18307SOL    HW157876   3.026   2.470   3.573 -0.6193  0.7739  1.3021
18307SOL    HW257877   2.956   2.388   3.678 -0.4427 -2.4352 -0.9638
18308SOL     OW57878   7.835   6.415   8.169  0.4155  0.3009 -0.5011
18308SOL    HW157879   7.845   6.323   8.143 -1.3992  0.1281 -0.7542
18308SOL    HW257880   7.772   6.451   8.106  0.3322  1.4450  0.2103
18309SOL     OW57881   8.411  10.677   1.393  0.5469  0.6133 -0.5288
18309SOL    HW157882   8.432  10.625   1.471  1.0788  0.3855 -0.8216
18309SOL    HW257883   8.391  10.764   1.427 -3.8130 -0.5099  0.3767
18310SOL     OW57884   4.010   1.584   3.478  0.4093 -0.1976 -0.4858
18310SOL    HW157885   4.105   1.577   3.472  0.3884 -1.5778  0.4613
18310SOL    HW257886   3.988   1.546   3.563 -1.1287 -1.4836 -1.3966
18311SOL     OW57887   5.625   4.965   3.739  0.2828  0.4196  0.2665
18311SOL    HW157888   5.541   5.001   3.712 -0.0667 -1.0287 -0.6549
18311SOL    HW257889   5.662   5.032   3.797 -0.5932  1.9819 -0.9109
18312SOL     OW57890   1.140   0.315   1.730  0.1268 -0.0513 -0.3639
18312SOL    HW157891   1.219   0.365   1.711  0.6183 -0.5234  0.4063
18312SOL    HW257892   1.130   0.321   1.825 -2.0661  1.9407 -0.6007
18313SOL     OW57893   3.208  10.264   1.287 -0.7182  0.0315  0.0714
18313SOL    HW157894   3.260  10.185   1.273  0.1890  0.5979  0.2115
18313SOL    HW257895   3.264  10.336   1.260 -1.3511  0.6744  0.4207
18314SOL     OW57896   5.335   8.650   2.399  0.1744 -0.3919  0.1830
18314SOL    HW157897   5.333   8.608   2.314  0.8634  0.2839 -0.1859
18314SOL    HW257898   5.265   8.608   2.449 -1.2741  0.2494 -1.2027
18315SOL     OW57899   0.050   2.408   2.560  0.2159 -0.0754  0.6599
18315SOL    HW157900   0.048   2.349   2.484  1.6254  0.9184 -0.2010
18315SOL    HW257901   0.120   2.375   2.615  0.4251  0.2789  0.6093
18316SOL     OW57902   7.137   5.092   9.677  0.1977  0.1189 -0.3164
18316SOL    HW157903   7.076   5.109   9.748  1.9001  1.9746  0.8068
18316SOL    HW257904   7.088   5.039   9.615 -2.0941  0.4282  1.1327
18317SOL     OW57905   3.679   8.050   4.536  0.8301 -0.1987 -0.5115
18317SOL    HW157906   3.635   7.969   4.510 -1.2971  0.2825  1.2690
18317SOL    HW257907   3.678   8.104   4.457 -1.2718 -0.4922 -0.7541
18318SOL     OW57908   8.563   6.189   0.204  0.2296 -0.2632 -0.6509
18318SOL    HW157909   8.636   6.184   0.143 -0.4215 -1.0763 -1.3819
18318SOL    HW257910   8.490   6.145   0.159 -0.6161  0.2267  0.1946
18319SOL     OW57911   8.348   9.489   9.593 -0.4184  0.3820  0.3309
18319SOL    HW157912   8.381   9.528   9.674  0.5927  0.9129 -0.3077
18319SOL    HW257913   8.281   9.550   9.563 -1.0984 -0.0376  0.9818
18320SOL     OW57914   9.052   9.718   9.882 -0.2374 -0.7892  0.0422
18320SOL    HW157915   9.056   9.626   9.854 -0.8742 -1.4788  2.0713
18320SOL    HW257916   9.117   9.725   9.951 -0.3238  0.2597  0.0345
18321SOL     OW57917  10.609   1.982  10.013  0.6873 -0.2205 -0.2272
18321SOL    HW157918  10.558   1.920  10.067  2.2317  0.6511  2.4243
18321SOL    HW257919  10.544   2.025   9.958 -0.6627 -2.9377 -0.9304
18322SOL     OW57920   8.818   2.859   1.337 -0.5171 -0.6906 -0.2919
18322SOL    HW157921   8.828   2.764   1.332 -0.1080 -0.6325 -0.5965
18322SOL    HW257922   8.736   2.877   1.289 -0.1372 -0.8089 -1.0059
18323SOL     OW57923   1.534   3.860  10.057  0.1301 -0.2452 -0.8642
18323SOL    HW157924   1.605   3.865  10.122  0.2357  0.7945 -1.0305
18323SOL    HW257925   1.566   3.801   9.990  0.7849  0.0888 -0.8541
18324SOL     OW57926   9.802   1.913   1.651 -0.1085 -0.2400  0.1462
18324SOL    HW157927   9.741   1.985   1.667  0.8038  0.5194  0.2921
18324SOL    HW257928   9.868   1.921   1.720  1.2249  0.1459 -1.1353
18325SOL     OW57929   0.808   6.967   0.605 -0.5678  0.1987  0.3356
18325SOL    HW157930   0.858   6.915   0.667 -0.2458  0.4403  0.2816
18325SOL    HW257931   0.798   7.052   0.648  0.1981  0.5694 -0.2001
18326SOL     OW57932   0.114   9.086   3.717  0.3307  0.4596  0.8443
18326SOL    HW157933   0.101   9.077   3.812  0.2509  1.6458  0.9631
18326SOL    HW257934   0.121   9.180   3.703 -2.5938  0.5901 -0.6908
18327SOL     OW57935   6.404   2.978   1.476  0.1774 -0.6688 -0.2920
18327SOL    HW157936   6.378   2.973   1.568 -1.3994 -0.3325 -0.6907
18327SOL    HW257937   6.469   2.908   1.466 -0.3797 -1.3751  0.8378
18328SOL     OW57938   8.582   5.704   2.808  0.5496  0.2129 -0.1629
18328SOL    HW157939   8.497   5.738   2.837 -0.6757 -0.2649 -2.8912
18328SOL    HW257940   8.633   5.695   2.888 -2.2221 -0.1716  1.6919
18329SOL     OW57941   5.116   3.161   2.420 -0.1331 -0.6774 -0.6507
18329SOL    HW157942   5.177   3.198   2.355 -2.2732 -0.5582 -2.7095
18329SOL    HW257943   5.152   3.074   2.438  1.5052 -0.0299 -0.5572
18330SOL     OW57944   9.967   6.027   0.619 -0.1023 -0.3956  0.0906
18330SOL    HW157945   9.881   6.041   0.580  0.0736  1.6168  0.2898
18330SOL    HW257946   9.950   5.978   0.700 -0.6594 -2.9503 -1.4850
18331SOL     OW57947   8.943   8.098   5.742 -0.2774 -0.0252 -0.3132
18331SOL    HW157948   9.038   8.104   5.740 -0.2356 -0.5305  0.1836
18331SOL    HW257949   8.918   8.128   5.830 -0.5518 -0.2497 -0.3129
18332SOL     OW57950   4.979   5.240   5.158 -0.2533  0.2083  0.0160
18332SOL    HW157951   4.903   5.194   5.125 -1.2413  1.3697  0.5867
18332SOL    HW257952   4.954   5.333   5.156  2.0439  0.9161 -2.1950
18333SOL     OW57953   4.820   1.877   8.063 -0.4176 -0.2869  0.0420
18333SOL    HW157954   4.897   1.897   8.011 -1.1401  0.6603 -0.6775
18333SOL    HW257955   4.750   1.932   8.027 -1.5661 -1.4821  0.3461
18334SOL     OW57956   8.189   4.003   4.847 -0.2859  0.6086 -0.4709
18334SOL    HW157957   8.267   4.012   4.793  2.0169 -2.4771  1.9340
18334SOL    HW257958   8.194   4.075   4.909  0.5415  0.5606 -0.4720
18335SOL     OW57959   5.413   0.591   4.835 -0.3692 -0.1435 -0.2126
18335SOL    HW157960   5.354   0.634   4.773 -0.8913 -1.5485 -0.7482
18335SOL    HW257961   5.439   0.510   4.790 -2.0977 -2.0548  1.9874
18336SOL     OW57962   0.191   6.016   2.091  0.3223 -0.2306 -0.0447
18336SOL    HW157963   0.262   6.029   2.028 -0.2444 -1.1280 -0.8981
18336SOL    HW257964   0.111   6.019   2.038 -0.2382  0.1359  0.8053
18337SOL     OW57965   7.076   1.474   8.779  0.4936  0.3386 -0.4673
18337SOL    HW157966   7.110   1.563   8.773 -0.6012  0.9340  1.3440
18337SOL    HW257967   6.985   1.485   8.808  0.3858 -1.3657 -0.0771
18338SOL     OW57968   2.733   4.173   9.986  0.2164 -0.2924 -0.3112
18338SOL    HW157969   2.761   4.086  10.016  3.0886  0.4651 -0.4176
18338SOL    HW257970   2.686   4.157   9.904  0.4261 -1.7658 -0.1682
18339SOL     OW57971   5.051   5.632   7.728  0.0814  0.1569  0.6082
18339SOL    HW157972   5.123   5.671   7.678  0.9420 -1.5606  0.4289
18339SOL    HW257973   4.979   5.627   7.665  0.0084  1.2130  0.5804
18340SOL     OW57974   7.579  10.219  10.255  0.0817  0.4659 -0.2792
18340SOL    HW157975   7.486  10.198  10.246 -0.9354  3.8941  0.7704
18340SOL    HW257976   7.603  10.188  10.342  0.1657 -1.0014 -0.7967
18341SOL     OW57977   3.452   9.881   0.900  0.2170  0.4919 -0.2477
18341SOL    HW157978   3.361   9.865   0.925  0.2599  0.9508  0.2062
18341SOL    HW257979   3.502   9.869   0.981  0.8420 -1.8629 -0.8759
18342SOL     OW57980   4.000   6.667   7.705 -0.3768 -0.4100  0.3252
18342SOL    HW157981   3.976   6.614   7.781 -0.1465 -0.7015  0.1984
18342SOL    HW257982   4.081   6.710   7.732 -0.3118 -0.4897  0.2583
18343SOL     OW57983   0.999   5.881   7.033 -0.3628  0.0588  0.1964
18343SOL    HW157984   0.910   5.853   7.052 -0.6711  1.3620  0.7736
18343SOL    HW257985   1.005   5.970   7.068  1.2296 -0.0718  0.3465
18344SOL     OW57986   9.696   5.019   1.913 -0.1513 -0.2900  0.0227
18344SOL    HW157987   9.743   4.979   1.986 -0.0913  1.3731  0.9498
18344SOL    HW257988   9.655   5.097   1.951 -0.7085  0.2358 -1.5713
18345SOL     OW57989   1.517   4.732   7.263 -0.1645  0.6381 -0.2477
18345SOL    HW157990   1.546   4.820   7.237  1.4864  0.2687  0.1885
18345SOL    HW257991   1.449   4.747   7.328  0.3810  1.6165  0.1270
18346SOL     OW57992  10.370   2.104   2.055 -0.5805  0.2795 -0.3565
18346SOL    HW157993  10.387   2.198   2.056  2.5303 -0.1487 -0.7734
18346SOL    HW257994  10.378   2.077   2.146  0.3432  0.1985 -0.4525
18347SOL     OW57995   2.363   5.460  10.005  0.4625  0.7684  0.1923
18347SOL    HW157996   2.293   5.452  10.070  0.1611  0.9242 -0.1141
18347SOL    HW257997   2.319   5.454   9.921  0.9252 -0.0287 -0.0060
18348SOL     OW57998  10.240   1.751   5.592  0.9313 -0.0206 -0.0886
18348SOL    HW157999  10.207   1.696   5.522 -1.3639  1.6078 -0.4081
18348SOL    HW258000  10.262   1.834   5.549  0.0763  0.7961  0.9809
18349SOL     OW58001   6.667   8.383   6.316 -0.4246 -0.7120 -0.3328
18349SOL    HW158002   6.683   8.310   6.375  0.9834 -0.7251 -0.6999
18349SOL    HW258003   6.702   8.355   6.232 -0.9610 -0.0793 -0.7801
18350SOL     OW58004   5.504   3.764   0.733 -0.0415  0.5224  0.4668
18350SOL    HW158005   5.433   3.808   0.779 -0.4304  2.1547 -1.5181
18350SOL    HW258006   5.496   3.795   0.642  1.4524 -1.4985 -0.4343
18351SOL     OW58007  10.632   2.708   4.095 -0.0015  0.5832  0.1608
18351SOL    HW158008  10.678   2.756   4.026 -0.4022  1.3916  0.4424
18351SOL    HW258009  10.690   2.714   4.171  1.0180 -1.3550 -0.4048
18352SOL     OW58010   5.225   4.469   9.105 -0.1589  0.0543 -0.4402
18352SOL    HW158011   5.197   4.378   9.094  0.1713  0.1099 -1.9499
18352SOL    HW258012   5.162   4.520   9.055  0.2094  0.5713 -0.3865
18353SOL     OW58013   4.923   6.780   4.173 -0.9987 -0.5531 -0.6478
18353SOL    HW158014   5.015   6.761   4.152 -0.5820 -2.0808  2.1075
18353SOL    HW258015   4.877   6.699   4.151 -1.1724 -0.7897  0.5204
18354SOL     OW58016   7.337   4.707  10.593  0.6646 -0.5568 -0.4876
18354SOL    HW158017   7.256   4.733  10.638  1.8401  0.7449  1.0109
18354SOL    HW258018   7.328   4.612  10.581 -1.1340 -0.4196 -0.5173
18355SOL     OW58019   4.238   6.424   7.887 -0.5393  0.2792  0.1514
18355SOL    HW158020   4.312   6.365   7.873  0.1246  1.3150 -0.8403
18355SOL    HW258021   4.278   6.506   7.916 -1.2309  1.0542 -1.0154
18356SOL     OW58022   7.479   5.396   9.813  0.1148  0.0835  0.1637
18356SOL    HW158023   7.532   5.471   9.786 -0.7197  0.3954 -0.6708
18356SOL    HW258024   7.389   5.421   9.792 -0.1799 -1.1631 -0.1899
18357SOL     OW58025   0.175   5.720   2.585 -0.4562  0.1424 -0.1500
18357SOL    HW158026   0.139   5.644   2.539 -1.7357  0.7183 -0.1264
18357SOL    HW258027   0.103   5.782   2.590  0.1360  0.7688  1.1758
18358SOL     OW58028  10.485   9.350   2.048  0.5080 -0.4000  0.4302
18358SOL    HW158029  10.462   9.397   1.968  1.0234  0.4336  0.7578
18358SOL    HW258030  10.566   9.304   2.026  1.5231  1.0870  0.9173
18359SOL     OW58031   0.274   2.437   6.109  0.0316 -0.6418  0.2636
18359SOL    HW158032   0.345   2.472   6.056  0.2532  0.5725  1.3098
18359SOL    HW258033   0.216   2.394   6.047  0.1720  0.9086 -1.0033
18360SOL     OW58034  10.600   5.580   7.665 -0.5851  0.3408 -0.1847
18360SOL    HW158035  10.584   5.507   7.724 -1.6952  1.9268  1.5989
18360SOL    HW258036  10.538   5.569   7.594  1.5334 -2.2314 -1.8067
18361SOL     OW58037   2.124   2.720   2.368  0.8442 -0.4264 -0.3062
18361SOL    HW158038   2.078   2.769   2.436  1.1771 -1.5922  0.7980
18361SOL    HW258039   2.098   2.762   2.286 -0.3588  0.3767  0.4573
18362SOL     OW58040   6.951   8.458   8.010  0.0527 -0.1190  0.3993
18362SOL    HW158041   6.863   8.422   8.007 -0.7588  1.7054  0.8613
18362SOL    HW258042   6.956   8.516   7.935  0.6702  0.1998  0.6748
18363SOL     OW58043   3.624   0.059   6.001 -0.5237  0.0685  0.0537
18363SOL    HW158044   3.665   0.098   6.079  2.1105  1.6754 -1.9530
18363SOL    HW258045   3.537   0.098   5.998 -0.5705  0.2156  1.9818
18364SOL     OW58046   1.693   8.608   9.474 -0.5379 -0.0639 -0.3022
18364SOL    HW158047   1.755   8.657   9.528  1.0457 -0.9279 -1.2425
18364SOL    HW258048   1.645   8.674   9.425 -0.0330  0.6162  0.1172
18365SOL     OW58049   5.344  10.056   0.590  0.0859  0.6202  0.4566
18365SOL    HW158050   5.349  10.045   0.495  0.9966  0.4905  0.5163
18365SOL    HW258051   5.434  10.050   0.620 -0.2241  0.4129  1.3673
18366SOL     OW58052  10.022   8.447   0.385 -0.7779 -0.3055  0.1260
18366SOL    HW158053  10.039   8.453   0.291  1.2348  1.4267  0.5251
18366SOL    HW258054   9.983   8.531   0.408  3.2915  1.4643  1.5374
18367SOL     OW58055  10.217   7.746   8.512  0.4719 -0.0670  0.2455
18367SOL    HW158056  10.299   7.758   8.559  0.1130 -0.8945  1.1258
18367SOL    HW258057  10.212   7.651   8.496 -0.2375 -0.0067  0.0716
18368SOL     OW58058   4.819   1.118   6.028  0.5861 -0.1529 -0.0541
18368SOL    HW158059   4.880   1.045   6.021  1.5539  0.6883 -0.5781
18368SOL    HW258060   4.756   1.104   5.956 -0.0060 -1.1509  0.6380
18369SOL     OW58061   5.899   3.689   2.386  0.2818 -0.3627 -0.0647
18369SOL    HW158062   5.941   3.692   2.473  0.8735  0.9817 -0.3818
18369SOL    HW258063   5.833   3.758   2.389  0.2738 -0.3424 -0.6659
18370SOL     OW58064   8.185   0.485   8.124 -0.5267 -0.4441 -0.2113
18370SOL    HW158065   8.192   0.433   8.044  0.8845  1.1719 -1.2215
18370SOL    HW258066   8.156   0.423   8.191  1.2213 -2.5694 -1.2881
18371SOL     OW58067   2.664   2.892   4.748 -0.0545 -0.5191  0.4403
18371SOL    HW158068   2.732   2.829   4.725  2.1028  0.6365  3.0733
18371SOL    HW258069   2.638   2.931   4.665  1.6346 -1.8613 -0.7809
18372SOL     OW58070   8.971   2.302   0.577  0.3954 -0.6648 -0.2298
18372SOL    HW158071   9.064   2.282   0.565  0.4453 -0.3413 -0.3927
18372SOL    HW258072   8.962   2.317   0.672  0.5246 -0.6271 -0.2228
18373SOL     OW58073   9.546   1.281   6.958 -0.7532 -0.6543  0.1185
18373SOL    HW158074   9.568   1.345   6.891 -0.9199 -0.3515  0.3465
18373SOL    HW258075   9.625   1.272   7.011 -1.3334  0.8814  1.3007
18374SOL     OW58076   1.913   8.523   5.999 -0.7814 -0.2975  0.4071
18374SOL    HW158077   1.948   8.600   5.954 -1.5688  0.9115  1.7888
18374SOL    HW258078   1.845   8.490   5.941  0.9219 -1.2360 -1.1675
18375SOL     OW58079   1.826   6.182   0.428  0.7148 -0.0280  0.3886
18375SOL    HW158080   1.870   6.152   0.507 -0.6927 -0.1972  1.1524
18375SOL    HW258081   1.777   6.105   0.398 -0.5979  0.6465  0.6986
18376SOL     OW58082   0.724   1.838   9.291 -0.3950 -0.1806  0.5802
18376SOL    HW158083   0.768   1.829   9.206  0.4478  2.8545  0.5904
18376SOL    HW258084   0.786   1.803   9.354  0.5261  0.8585  0.2645
18377SOL     OW58085   3.835   4.692   8.422  0.1315  0.5911  0.0020
18377SOL    HW158086   3.877   4.612   8.390 -1.9691  0.0312 -1.5708
18377SOL    HW258087   3.781   4.662   8.495 -1.7178  0.2419 -1.4407
18378SOL     OW58088   5.789   8.227   0.718 -0.2044  0.2148  0.5509
18378SOL    HW158089   5.788   8.181   0.633  1.3072 -0.3684  0.8221
18378SOL    HW258090   5.805   8.158   0.782  1.2800  0.9858  1.0524
18379SOL     OW58091   2.272   9.351   5.225  0.3351  0.1003  0.0523
18379SOL    HW158092   2.356   9.335   5.269  1.2487  1.6656 -1.0300
18379SOL    HW258093   2.291   9.336   5.133 -0.9498 -0.8490 -0.0779
18380SOL     OW58094   0.961   9.057   8.781 -0.0647  0.1073 -0.2123
18380SOL    HW158095   0.922   8.973   8.757  0.6524 -0.4859  0.6252
18380SOL    HW258096   1.004   9.040   8.865 -0.1504  1.3908  0.1036
18381SOL     OW58097   7.881   8.397   4.882 -0.8458 -0.2752  0.2939
18381SOL    HW158098   7.817   8.388   4.811 -1.1072 -1.8964  0.7116
18381SOL    HW258099   7.964   8.367   4.844 -0.3042  1.6555 -0.1917
18382SOL     OW58100   4.454   1.432   5.822  0.1281 -0.3581 -0.0271
18382SOL    HW158101   4.369   1.469   5.847  0.1717 -1.0507  1.1915
18382SOL    HW258102   4.517   1.502   5.839 -0.2959  0.6585 -2.2089
18383SOL     OW58103   1.123   9.402   9.257 -0.3355 -0.5533  0.1509
18383SOL    HW158104   1.210   9.424   9.290 -0.0562 -0.5402 -0.5711
18383SOL    HW258105   1.113   9.455   9.177  0.1391 -2.5853 -1.3387
18384SOL     OW58106   0.099   6.562   8.737 -0.3887  0.0799  0.4105
18384SOL    HW158107   0.041   6.630   8.704 -0.1231  0.6836  1.1695
18384SOL    HW258108   0.065   6.541   8.824  0.9023  0.9351  1.1645
18385SOL     OW58109   9.192   6.941   0.475 -0.0828  0.6205  0.9503
18385SOL    HW158110   9.181   7.035   0.458 -0.5791  0.4809  0.4571
18385SOL    HW258111   9.113   6.916   0.522 -0.0184  0.4241  0.9512
18386SOL     OW58112   4.522   9.778   0.903  0.3601 -0.0549 -0.1453
18386SOL    HW158113   4.601   9.785   0.956  0.8856 -2.4491 -0.5245
18386SOL    HW258114   4.450   9.780   0.967  0.7902  0.6941  0.3236
18387SOL     OW58115   5.752   4.369   9.506  0.1715 -0.1871 -0.3813
18387SOL    HW158116   5.661   4.349   9.482  0.3676  0.1905 -1.5397
18387SOL    HW258117   5.787   4.287   9.539  0.5767 -1.5347 -3.7910
18388SOL     OW58118   8.859   9.239   8.582  0.2994  0.3786  0.6444
18388SOL    HW158119   8.811   9.177   8.636 -1.4232  0.8844 -0.1856
18388SOL    HW258120   8.790   9.296   8.545  1.2301 -0.3962 -2.6299
18389SOL     OW58121   2.061   4.100   5.932 -0.3056  0.0429 -0.1563
18389SOL    HW158122   2.104   4.097   6.018 -0.9636 -0.2347  0.1647
18389SOL    HW258123   1.994   4.167   5.941  1.3839  2.0195 -1.2918
18390SOL     OW58124   4.367   8.942   3.135 -0.0410  0.3032 -0.6147
18390SOL    HW158125   4.302   9.012   3.141 -0.3059 -0.0033  0.1728
18390SOL    HW258126   4.442   8.975   3.184  1.1262  1.4147 -2.9997
18391SOL     OW58127   1.170   3.747   5.279 -0.6599  0.1548  0.0951
18391SOL    HW158128   1.086   3.726   5.318 -0.5689  0.3421  0.3936
18391SOL    HW258129   1.219   3.665   5.279 -0.9617 -0.0311 -0.3858
18392SOL     OW58130   2.697   1.171   1.927 -0.5214  0.4482  0.1989
18392SOL    HW158131   2.602   1.162   1.932 -0.4147 -2.7017 -0.9407
18392SOL    HW258132   2.715   1.188   1.834  0.0807 -1.8116 -0.1524
18393SOL     OW58133   0.087   7.754   2.751 -0.2048 -0.1799  0.0675
18393SOL    HW158134   0.109   7.719   2.837  0.6819 -0.3287 -0.2021
18393SOL    HW258135   0.106   7.682   2.690  0.9458  0.5054 -0.4205
18394SOL     OW58136  10.038   6.037  10.449 -0.3986 -0.2416  0.3836
18394SOL    HW158137   9.979   5.964  10.471 -0.6433 -0.6535 -1.5186
18394SOL    HW258138  10.088   6.006  10.374 -0.5321  1.5520 -0.4937
18395SOL     OW58139   8.155   2.089  10.665  0.0232 -0.7123  0.6826
18395SOL    HW158140   8.075   2.134  10.690  0.7960 -0.3583  2.7371
18395SOL    HW258141   8.126   2.013  10.616 -1.4535  0.4239 -0.2978
18396SOL     OW58142   7.167   8.191   8.628  0.4391 -0.1974  0.1209
18396SOL    HW158143   7.133   8.256   8.688  0.3024 -1.6984  1.7624
18396SOL    HW258144   7.101   8.184   8.559  0.2247  0.9994  0.1862
18397SOL     OW58145   7.303   8.265   8.141 -0.3925 -0.0115 -0.1282
18397SOL    HW158146   7.295   8.356   8.114 -2.2341  0.2335  1.0323
18397SOL    HW258147   7.247   8.217   8.079  1.5618 -0.6066 -1.5473
18398SOL     OW58148   2.459   7.657   5.401 -0.4485  0.4905 -0.4368
18398SOL    HW158149   2.533   7.694   5.353  1.5101 -1.8056  0.5932
18398SOL    HW258150   2.444   7.719   5.473  1.7482  0.1235  0.4132
18399SOL     OW58151   4.373   0.280   9.136  0.0117 -0.4241  0.1093
18399SOL    HW158152   4.320   0.359   9.144 -1.1906 -1.3252  2.0251
18399SOL    HW258153   4.411   0.285   9.049 -0.0367  2.2269  0.1511
18400SOL     OW58154   5.914   0.318   5.373 -0.0315  0.1834  0.1781
18400SOL    HW158155   5.980   0.347   5.310 -0.9253 -0.3167 -1.0337
18400SOL    HW258156   5.837   0.371   5.353 -0.4045 -0.1533  0.6982
18401SOL     OW58157   5.268   4.690   1.401 -0.1158  0.3078 -0.0868
18401SOL    HW158158   5.255   4.785   1.406  2.0901  0.7064 -0.7780
18401SOL    HW258159   5.305   4.667   1.486 -1.6229 -0.1503  0.4725
18402SOL     OW58160   4.453   4.666   6.680  0.4672  0.1563 -0.2331
18402SOL    HW158161   4.464   4.703   6.768  0.8016  0.4217 -0.3823
18402SOL    HW258162   4.389   4.596   6.691  2.2324 -1.4175  0.6645
18403SOL     OW58163   2.810   4.407   9.938 -0.0958  0.1122 -0.3145
18403SOL    HW158164   2.770   4.322   9.956  0.3081  0.0709  0.3937
18403SOL    HW258165   2.850   4.397   9.852  2.4451 -1.3616  0.9446
18404SOL     OW58166   3.078   5.643   2.057  0.3903  0.6528  0.5497
18404SOL    HW158167   3.151   5.684   2.010 -0.3006 -0.0762 -1.2546
18404SOL    HW258168   3.111   5.556   2.080 -0.1533  0.0142 -1.0007
18405SOL     OW58169   6.450   8.617   9.114  0.1516  0.4234 -0.0572
18405SOL    HW158170   6.482   8.706   9.130  1.4653  0.0509 -0.5263
18405SOL    HW258171   6.364   8.615   9.157  0.9738  1.2914  1.7660
18406SOL     OW58172   6.061   7.301   5.286  0.4833  0.7644  0.2541
18406SOL    HW158173   6.115   7.355   5.344  2.1624 -0.4646 -0.0817
18406SOL    HW258174   6.037   7.225   5.339  1.4231 -0.0140 -0.3799
18407SOL     OW58175   9.158   3.090   0.735  0.1593  0.4141 -0.0605
18407SOL    HW158176   9.069   3.053   0.741 -0.1745  1.1322 -0.4949
18407SOL    HW258177   9.151   3.159   0.670  0.5812  1.8085  1.3210
18408SOL     OW58178   6.019   6.120   7.080  0.4358 -0.3778  0.5126
18408SOL    HW158179   5.971   6.037   7.082  0.1113 -0.2564 -1.1713
18408SOL    HW258180   6.090   6.109   7.143 -0.6231 -1.2918  1.5862
18409SOL     OW58181   2.257   5.588   9.260 -0.7921  0.7027  0.0471
18409SOL    HW158182   2.199   5.637   9.319 -0.7348  0.1922  0.5307
18409SOL    HW258183   2.223   5.607   9.173 -1.9202  0.1283  0.3446
18410SOL     OW58184   2.484   6.049   4.197  0.5363  0.4516 -0.1898
18410SOL    HW158185   2.573   6.068   4.165  0.2953 -0.2225 -1.3346
18410SOL    HW258186   2.497   6.015   4.285  1.3707  0.8571 -0.1389
18411SOL     OW58187   0.574   3.958   7.550 -0.4874  0.1353  0.7000
18411SOL    HW158188   0.669   3.966   7.539 -0.3983 -1.6910 -0.3504
18411SOL    HW258189   0.537   4.013   7.481 -0.0267 -3.0770 -2.4033
18412SOL     OW58190   3.386   2.464  10.189 -0.1928  0.5636 -0.3328
18412SOL    HW158191   3.310   2.438  10.137 -0.7569  0.7479  0.3803
18412SOL    HW258192   3.392   2.559  10.179  1.0513  0.3649 -1.8444
18413SOL     OW58193   9.125   5.041   4.861 -0.2256 -0.0537  0.1593
18413SOL    HW158194   9.215   5.052   4.893  0.0611 -1.8107  0.0350
18413SOL    HW258195   9.125   5.083   4.775  0.9099 -1.3299 -0.5008
18414SOL     OW58196   4.380   3.428   8.064  0.4816 -0.5444 -0.0086
18414SOL    HW158197   4.464   3.458   8.099  0.7877 -0.8996 -0.4271
18414SOL    HW258198   4.360   3.489   7.993  1.2555 -1.4631 -1.0636
18415SOL     OW58199   3.450   9.556   4.256  0.0217  0.7478 -0.3898
18415SOL    HW158200   3.384   9.514   4.201 -0.8244  1.7504 -0.1865
18415SOL    HW258201   3.420   9.647   4.264  0.4875  0.7983  1.1531
18416SOL     OW58202   2.383   1.841   4.965 -0.2055 -0.3172  0.1661
18416SOL    HW158203   2.376   1.923   5.014 -0.7596  0.8765 -1.8183
18416SOL    HW258204   2.348   1.775   5.025 -0.8121  1.0466  1.3984
18417SOL     OW58205   2.113   0.245   8.349 -0.4884 -0.3163 -0.6581
18417SOL    HW158206   2.156   0.276   8.429  1.0101  0.4892 -1.7377
18417SOL    HW258207   2.178   0.190   8.306 -2.1568 -2.8547 -0.1572
18418SOL     OW58208  10.505   3.842   5.390 -0.0745 -0.1183 -0.5250
18418SOL    HW158209  10.482   3.933   5.409  2.5669  0.7681 -1.1198
18418SOL    HW258210  10.485   3.795   5.471  0.5230  1.4535  0.5916
18419SOL     OW58211   0.162   4.777   4.581  0.0691 -0.8518  0.1492
18419SOL    HW158212   0.217   4.809   4.652  0.3029 -0.5370 -0.1721
18419SOL    HW258213   0.222   4.729   4.525  0.4336  1.1244 -1.2478
18420SOL     OW58214   5.594   4.269   2.789 -0.0154 -0.0021 -0.1046
18420SOL    HW158215   5.621   4.269   2.880 -2.7389  1.8568  0.8382
18420SOL    HW258216   5.642   4.342   2.750  0.2783 -0.0578  0.1510
18421SOL     OW58217   2.858   7.444   5.944  0.0300 -0.0897  0.4070
18421SOL    HW158218   2.829   7.354   5.928 -0.5073  0.0093  0.7988
18421SOL    HW258219   2.868   7.449   6.039  1.5211 -0.1739  0.2706
18422SOL     OW58220   2.893   6.732   1.485 -0.6455  0.2841 -0.4654
18422SOL    HW158221   2.846   6.690   1.557  2.9336  0.6543  2.4360
18422SOL    HW258222   2.841   6.809   1.462 -2.1466 -0.0937  1.4563
18423SOL     OW58223   4.416   4.252   0.223  0.0624 -0.4164  0.4135
18423SOL    HW158224   4.446   4.255   0.132  2.2402  0.2308  1.0983
18423SOL    HW258225   4.394   4.160   0.238 -0.0366 -0.5840 -0.6712
18424SOL     OW58226   3.843  10.229   5.835  0.0410 -0.5394  0.0561
18424SOL    HW158227   3.912  10.283   5.797  2.5326 -2.8138  1.0575
18424SOL    HW258228   3.799  10.189   5.760 -0.9598  1.7106 -0.6397
18425SOL     OW58229   0.193   1.836   2.837  0.2528  0.2750 -0.5574
18425SOL    HW158230   0.131   1.830   2.765  0.1216  0.1829 -0.4364
18425SOL    HW258231   0.279   1.827   2.795  0.2194  1.0142 -0.8041
18426SOL     OW58232   4.391   9.300   9.955  0.6053 -0.7491 -0.0318
18426SOL    HW158233   4.472   9.350   9.966 -0.2528  0.4367  1.4629
18426SOL    HW258234   4.324   9.367   9.938 -0.4367 -1.4429  1.1330
18427SOL     OW58235   3.876   1.986   7.082 -0.5213 -0.0067  0.2417
18427SOL    HW158236   3.795   1.935   7.084 -1.1328  0.9753  1.0065
18427SOL    HW258237   3.868   2.048   7.155  0.1660  1.2633 -0.7331
18428SOL     OW58238   4.578   7.635   4.771  0.2445  0.7428 -0.0631
18428SOL    HW158239   4.554   7.596   4.855 -1.8101 -1.3191 -1.4581
18428SOL    HW258240   4.570   7.730   4.785 -0.5138  0.4301  1.9392
18429SOL     OW58241   5.821   8.332   1.284 -0.4133  0.0114  0.0224
18429SOL    HW158242   5.889   8.367   1.226 -1.2413  0.1930 -0.8580
18429SOL    HW258243   5.786   8.256   1.237 -0.5089 -0.3537  0.6778
18430SOL     OW58244   0.808   2.362   5.019 -0.2477  0.0498 -1.2205
18430SOL    HW158245   0.725   2.379   5.065  1.6719 -0.1790  2.8194
18430SOL    HW258246   0.838   2.448   4.991 -0.6784  0.5066 -0.3387
18431SOL     OW58247   4.571   3.923   1.579 -0.0144  0.0323 -0.2792
18431SOL    HW158248   4.486   3.922   1.535 -0.1575 -2.2509 -0.1105
18431SOL    HW258249   4.608   4.009   1.561 -2.3781  1.0978 -0.3201
18432SOL     OW58250   0.553   3.013   4.869 -0.3071 -0.3932 -0.0560
18432SOL    HW158251   0.502   2.951   4.921  0.9894 -0.1683  1.5894
18432SOL    HW258252   0.569   2.969   4.786 -1.9582 -1.0095 -0.0793
18433SOL     OW58253   6.499   5.048   7.889  0.3930  0.0661  0.3914
18433SOL    HW158254   6.438   4.993   7.939 -0.6479 -0.2501 -1.1700
18433SOL    HW258255   6.551   4.986   7.839  0.2489  0.4380 -0.2222
18434SOL     OW58256   8.606   6.636   9.043  0.4458  0.1292  0.5416
18434SOL    HW158257   8.560   6.702   9.094 -0.4491 -1.7210  2.2600
18434SOL    HW258258   8.664   6.593   9.105 -0.5392 -2.0768  0.0308
18435SOL     OW58259   4.421   6.093   3.772  0.3861  0.2447 -0.1948
18435SOL    HW158260   4.406   6.164   3.709  1.3891 -0.8450 -1.7575
18435SOL    HW258261   4.497   6.122   3.823  0.2763  0.6478 -0.2582
18436SOL     OW58262   4.147   4.282   2.685  0.1824 -0.1562 -0.7425
18436SOL    HW158263   4.238   4.294   2.661 -0.0014  0.8217 -0.9946
18436SOL    HW258264   4.100   4.276   2.602  0.2833 -3.1546 -0.6635
18437SOL     OW58265   5.399  10.194   6.194 -0.6934 -0.1008 -0.1574
18437SOL    HW158266   5.402  10.116   6.138 -0.9390  0.2247 -0.6335
18437SOL    HW258267   5.485  10.196   6.235 -0.5858 -0.4716 -0.3524
18438SOL     OW58268   4.283   2.395   7.307  0.7126  0.3159 -0.4251
18438SOL    HW158269   4.378   2.390   7.312  0.7014  0.3239 -0.2094
18438SOL    HW258270   4.263   2.387   7.213  0.9094  0.0357 -0.4439
18439SOL     OW58271   4.428   5.120   3.319 -0.0232 -0.1007 -0.5656
18439SOL    HW158272   4.379   5.170   3.254  0.2448  0.0649 -0.6436
18439SOL    HW258273   4.442   5.182   3.392 -0.0296 -0.1819 -0.4954
18440SOL     OW58274   1.463   8.176   0.480 -0.4737  0.2453 -0.1832
18440SOL    HW158275   1.448   8.083   0.498  1.0488  0.2548  1.4069
18440SOL    HW258276   1.432   8.221   0.558 -1.2745  1.0975 -0.9759
18441SOL     OW58277   5.411   2.890   1.971 -0.0683  0.1179 -0.0620
18441SOL    HW158278   5.319   2.913   1.980  0.0471  0.7557 -0.5400
18441SOL    HW258279   5.435   2.854   2.057 -0.6380  0.3637  0.1995
18442SOL     OW58280   9.258   0.377   7.189  0.0383 -0.3976  0.3061
18442SOL    HW158281   9.327   0.354   7.251  0.9639 -0.0268 -0.5721
18442SOL    HW258282   9.189   0.416   7.244  0.1054 -1.6151  1.3018
18443SOL     OW58283   6.980   2.148   7.388  0.3240 -0.4056 -0.3977
18443SOL    HW158284   7.066   2.147   7.346 -0.9059 -0.5723 -3.1152
18443SOL    HW258285   6.941   2.232   7.362 -1.0739 -1.1838 -0.9568
18444SOL     OW58286   1.261   4.572   8.839 -0.3225 -0.3006  0.1734
18444SOL    HW158287   1.239   4.518   8.762  0.4918 -0.1652 -0.1611
18444SOL    HW258288   1.177   4.584   8.884 -0.7456 -0.7083 -0.4830
18445SOL     OW58289  10.668   2.117   1.592  0.6021 -0.6365 -0.2312
18445SOL    HW158290  10.733   2.171   1.636 -0.6774 -0.1260  1.0839
18445SOL    HW258291  10.681   2.136   1.499  2.7796 -1.0908 -0.0718
18446SOL     OW58292   4.190   8.597   8.916  0.6048 -0.1283  0.2125
18446SOL    HW158293   4.276   8.634   8.894  0.0486  1.1846  0.1043
18446SOL    HW258294   4.134   8.674   8.931 -0.5037 -0.9533  0.4858
18447SOL     OW58295   8.345   6.447   0.267 -0.6911 -0.1372  0.0230
18447SOL    HW158296   8.387   6.370   0.230 -0.9466 -1.6301  2.5882
18447SOL    HW258297   8.418   6.501   0.299 -0.5623  0.1096 -0.6665
18448SOL     OW58298   0.279   1.098   7.890 -0.0761 -0.1673  0.6313
18448SOL    HW158299   0.320   1.042   7.824 -0.0092 -0.4641  0.9206
18448SOL    HW258300   0.298   1.055   7.973 -0.4041  0.0511  0.8223
18449SOL     OW58301   3.568   8.424   6.247  0.5798 -0.7478 -0.1152
18449SOL    HW158302   3.483   8.382   6.235 -0.3217  1.3120 -1.5362
18449SOL    HW258303   3.547   8.509   6.288  1.8820 -0.0024 -0.9315
18450SOL     OW58304   2.291   3.276   6.029 -0.2368 -0.4324 -0.2260
18450SOL    HW158305   2.229   3.333   5.984  1.5336  0.2381 -1.9758
18450SOL    HW258306   2.343   3.335   6.083  0.9953 -0.4579 -1.3311
18451SOL     OW58307   5.006   4.784   8.177  0.2612 -0.0929 -0.0701
18451SOL    HW158308   4.974   4.795   8.267 -0.8729  0.2097 -0.4888
18451SOL    HW258309   4.938   4.823   8.123 -0.3676 -2.5576 -1.2197
18452SOL     OW58310   8.359   7.427   9.478 -0.4685 -0.5151  0.0942
18452SOL    HW158311   8.355   7.523   9.473 -1.8015 -0.5436  0.1690
18452SOL    HW258312   8.447   7.408   9.510  0.7783  0.5446 -2.4781
18453SOL     OW58313   9.338   9.876   1.239 -0.0027 -0.0844  0.0757
18453SOL    HW158314   9.245   9.860   1.224 -0.0070  0.1231 -0.1285
18453SOL    HW258315   9.346   9.891   1.333 -0.0410 -0.9889  0.2322
18454SOL     OW58316   2.160  10.060   3.906  0.0222  0.6515  0.0078
18454SOL    HW158317   2.115  10.102   3.833  1.3232  3.3868  0.6798
18454SOL    HW258318   2.220  10.126   3.940 -1.1300 -0.1651  4.1692
18455SOL     OW58319   4.659   9.459   4.547  0.1861  0.3277  0.2817
18455SOL    HW158320   4.619   9.403   4.613  0.4673  0.5103  0.6132
18455SOL    HW258321   4.592   9.469   4.479 -0.1922  0.3358  0.6523
18456SOL     OW58322   7.929   4.160   5.074  0.0262 -0.3587  0.1674
18456SOL    HW158323   7.909   4.155   5.168  2.8905 -1.3326  0.8322
18456SOL    HW258324   7.944   4.253   5.057 -2.9671  0.1939 -0.0129
18457SOL     OW58325   5.936   9.901   5.684 -0.2403  0.6357  0.2707
18457SOL    HW158326   5.954   9.831   5.748  2.5353  2.0038  1.1427
18457SOL    HW258327   5.916   9.977   5.738 -1.2898  0.9971 -0.6192
18458SOL     OW58328   7.547   3.652   7.488  0.2152 -0.0162  0.1142
18458SOL    HW158329   7.581   3.737   7.516  0.2871 -0.1190  0.3419
18458SOL    HW258330   7.619   3.590   7.504 -0.0379 -0.2171  0.5018
18459SOL     OW58331   0.945   9.924   3.207 -0.1298  0.3729 -0.1479
18459SOL    HW158332   0.994   9.901   3.286 -0.0203  0.7591 -0.1024
18459SOL    HW258333   0.937   9.841   3.159  1.2594  0.4373 -0.5312
18460SOL     OW58334   7.282   8.251   9.671  0.4666 -0.2926  0.0371
18460SOL    HW158335   7.302   8.168   9.628  1.5984 -0.4301  0.7915
18460SOL    HW258336   7.328   8.317   9.619 -2.0122  0.1790 -1.7499
18461SOL     OW58337   3.765   4.025   3.985 -0.0261 -0.3907 -0.1804
18461SOL    HW158338   3.743   4.113   3.954  0.6683 -0.0071  0.3675
18461SOL    HW258339   3.708   3.966   3.936  0.4906  0.2494 -1.6145
18462SOL     OW58340   7.118   8.210   2.107 -0.7550  0.5437 -0.3938
18462SOL    HW158341   7.116   8.277   2.176 -0.3271  0.5319 -0.3671
18462SOL    HW258342   7.031   8.215   2.066 -0.7905  0.9928 -0.2740
18463SOL     OW58343   5.845   8.091   6.677  0.3000  0.1044 -0.2201
18463SOL    HW158344   5.755   8.080   6.709  0.9123  0.3526  1.7054
18463SOL    HW258345   5.835   8.105   6.582 -1.5571 -1.5316 -0.3319
18464SOL     OW58346   6.010   9.404  10.420 -0.1160  0.6995 -0.2139
18464SOL    HW158347   6.054   9.333  10.466 -0.8008  0.2778 -0.2018
18464SOL    HW258348   6.013   9.479  10.480 -1.6753 -0.0521  0.8598
18465SOL     OW58349   3.137   7.223   3.658 -0.4004 -0.0282 -0.0784
18465SOL    HW158350   3.104   7.265   3.737 -1.2012  1.2089 -1.0351
18465SOL    HW258351   3.223   7.262   3.644  0.1121 -0.8708  0.6256
18466SOL     OW58352   3.067   5.993  10.333 -0.3266 -0.4234 -0.1592
18466SOL    HW158353   3.063   5.996  10.429  0.6415 -1.2186 -0.0797
18466SOL    HW258354   3.100   5.906  10.313  0.0418 -0.0605 -1.1974
18467SOL     OW58355   9.540   9.334   6.503 -0.2345  0.5085  0.1342
18467SOL    HW158356   9.618   9.368   6.459  0.1000  0.6219  0.8031
18467SOL    HW258357   9.575   9.276   6.571 -0.7074  1.1716  0.9508
18468SOL     OW58358   0.318   9.314   1.968  0.3276  0.3675 -0.2113
18468SOL    HW158359   0.245   9.352   1.920  1.6711 -0.1441 -2.8562
18468SOL    HW258360   0.278   9.264   2.039 -1.6959  2.3430  0.1346
18469SOL     OW58361   9.227   6.197   9.042 -0.3221  0.5823  0.4071
18469SOL    HW158362   9.170   6.174   9.115 -0.3534  0.3214  0.3026
18469SOL    HW258363   9.301   6.243   9.082 -0.7117  1.1184  0.5194
18470SOL     OW58364   5.794   0.540   0.659 -0.0899  0.4736 -0.4047
18470SOL    HW158365   5.716   0.523   0.606 -0.2144  0.3664 -0.1913
18470SOL    HW258366   5.827   0.452   0.680 -1.4883  0.4064  1.8202
18471SOL     OW58367   9.899   7.550   2.995  0.3907  0.2507 -0.6530
18471SOL    HW158368   9.852   7.467   2.997  2.2964 -0.9012 -0.7869
18471SOL    HW258369   9.867   7.594   2.917 -1.1884 -0.0170 -0.1758
18472SOL     OW58370   2.327   6.096   8.971  0.0740 -0.1862 -0.6723
18472SOL    HW158371   2.363   6.018   9.013 -0.7829 -0.6497 -0.7805
18472SOL    HW258372   2.253   6.122   9.028  0.4404  0.6376 -0.5518
18473SOL     OW58373   7.922   2.350   0.449  0.5258  0.1980  0.0105
18473SOL    HW158374   8.015   2.372   0.451  0.3594  0.8755  0.6910
18473SOL    HW258375   7.878   2.425   0.488 -0.4336  0.4788 -1.4819
18474SOL     OW58376  10.586   2.663  10.556 -0.0340  0.5301 -0.1150
18474SOL    HW158377  10.622   2.715  10.627  1.7573  0.4030 -0.8931
18474SOL    HW258378  10.593   2.719  10.479 -0.9820  0.2702 -0.4147
18475SOL     OW58379   1.983   5.720   3.119 -0.0825 -0.8652  0.0322
18475SOL    HW158380   1.926   5.693   3.191  1.0827 -0.5135  1.1241
18475SOL    HW258381   2.070   5.691   3.146  0.6146  0.6419 -0.5160
18476SOL     OW58382   6.463   4.716   8.583 -0.1213 -0.2574 -0.5443
18476SOL    HW158383   6.415   4.633   8.580  1.8434 -1.4303 -1.1404
18476SOL    HW258384   6.488   4.725   8.675  0.8299 -1.0767 -0.6993
18477SOL     OW58385   6.787   4.573   1.539 -0.6060  0.7963 -0.3913
18477SOL    HW158386   6.769   4.494   1.488 -0.0569  1.7154 -2.1010
18477SOL    HW258387   6.842   4.627   1.482  1.1956  1.3392  1.6966
18478SOL     OW58388  10.267   4.974   1.340 -0.2379 -0.0230 -0.6257
18478SOL    HW158389  10.331   4.907   1.365  0.6696  0.4374 -1.6432
18478SOL    HW258390  10.183   4.939   1.369  0.6435  0.2317  2.5563
18479SOL     OW58391   3.050   1.519   3.262  0.5217  0.4297  0.4982
18479SOL    HW158392   3.002   1.470   3.329  2.1112 -0.7102  0.8639
18479SOL    HW258393   3.110   1.574   3.312  0.2972  1.1105  0.0318
18480SOL     OW58394   9.585   2.509   3.893  0.3607  0.2717 -0.4617
18480SOL    HW158395   9.679   2.527   3.893  0.5159 -0.2134 -2.9252
18480SOL    HW258396   9.578   2.415   3.911  0.2896  0.4013  0.2291
18481SOL     OW58397   2.274   1.567   6.509 -0.3960  0.0810 -0.0667
18481SOL    HW158398   2.295   1.532   6.595  0.5785  0.4645 -0.1395
18481SOL    HW258399   2.201   1.626   6.524 -1.1352 -0.8918  0.2752
18482SOL     OW58400   9.671   8.887   4.054 -0.9355 -0.1973  0.2212
18482SOL    HW158401   9.751   8.902   4.105 -0.2206  1.4629 -1.2627
18482SOL    HW258402   9.634   8.974   4.042 -0.9529 -0.4501 -2.1821
18483SOL     OW58403   1.817   7.876   1.933 -0.0572  0.2222 -0.1907
18483SOL    HW158404   1.771   7.828   2.001 -1.7199  1.1912 -0.5439
18483SOL    HW258405   1.770   7.854   1.852  1.4407 -0.3696 -0.9478
18484SOL     OW58406  10.483   8.769   5.204 -0.0788 -0.1062 -0.3379
18484SOL    HW158407  10.511   8.769   5.112 -1.3008  1.6798 -0.7468
18484SOL    HW258408  10.545   8.709   5.247  1.1369 -0.2229 -2.1238
18485SOL     OW58409   5.290   4.116   3.680 -0.1374 -0.0918  0.3465
18485SOL    HW158410   5.385   4.114   3.669  0.2383  0.5941  2.8396
18485SOL    HW258411   5.272   4.048   3.745 -1.5687 -1.1927 -1.1325
18486SOL     OW58412   1.621   1.703   7.173 -0.1505 -0.3425  0.0962
18486SOL    HW158413   1.679   1.765   7.129 -2.5625  0.8857 -1.5895
18486SOL    HW258414   1.590   1.645   7.104 -2.5273  0.4154  0.4334
18487SOL     OW58415   7.449   4.628   6.043  0.4438 -0.5358  0.0657
18487SOL    HW158416   7.504   4.615   6.120  0.3711  1.2931  0.4638
18487SOL    HW258417   7.360   4.632   6.077  0.3212 -0.6526 -0.2340
18488SOL     OW58418   9.117   2.179   3.484 -0.0528 -0.0649 -0.2250
18488SOL    HW158419   9.041   2.205   3.432 -0.0186 -1.5020 -1.0482
18488SOL    HW258420   9.121   2.084   3.475 -0.5017 -0.5154  3.0840
18489SOL     OW58421   8.494   5.571   5.474 -0.4145  0.5650 -0.0977
18489SOL    HW158422   8.416   5.625   5.491 -1.6191 -0.8171 -0.9722
18489SOL    HW258423   8.479   5.533   5.387  0.1244 -1.5387  0.6548
18490SOL     OW58424   2.965   2.216   0.231 -0.2110 -0.4074  0.2275
18490SOL    HW158425   2.940   2.309   0.233 -0.3279 -0.4400  0.3030
18490SOL    HW258426   2.900   2.176   0.174  0.7290 -0.1849 -1.0352
18491SOL     OW58427   8.633   9.702   9.629  0.0715  0.3858 -0.1978
18491SOL    HW158428   8.556   9.737   9.675 -1.0976 -2.6232  0.3694
18491SOL    HW258429   8.707   9.748   9.668 -1.1933  0.8699  1.7975
18492SOL     OW58430   1.450   6.660   0.492  0.0072  0.8282  0.2139
18492SOL    HW158431   1.363   6.624   0.511  0.2751 -0.4717 -0.8657
18492SOL    HW258432   1.496   6.588   0.448  0.4882  2.5783 -2.3321
18493SOL     OW58433   4.567   6.942   2.464 -0.0076 -0.4649  0.3904
18493SOL    HW158434   4.572   6.930   2.559  0.1544 -0.6645  0.3571
18493SOL    HW258435   4.577   7.036   2.452  0.6730 -0.5163  0.5276
18494SOL     OW58436   5.411   3.090   7.049  0.0845  0.0935  0.6988
18494SOL    HW158437   5.468   3.050   7.114 -0.3288 -0.5263  0.6872
18494SOL    HW258438   5.405   3.182   7.075  1.3893  0.2569  0.4871
18495SOL     OW58439   5.301   5.271   2.365 -0.4850 -0.0499 -0.2100
18495SOL    HW158440   5.209   5.251   2.383 -0.1301 -0.5627  1.1518
18495SOL    HW258441   5.323   5.218   2.289 -1.2269 -0.1937 -0.3276
18496SOL     OW58442   2.384   3.279   7.284 -0.5549  0.1760 -0.2383
18496SOL    HW158443   2.402   3.203   7.228  1.2540 -0.1922  0.7806
18496SOL    HW258444   2.436   3.350   7.245  0.3176  0.0438  0.6467
18497SOL     OW58445  10.227   4.933   5.855  0.5804  0.2413  0.1575
18497SOL    HW158446  10.200   4.874   5.784 -0.5454  0.8472  0.0647
18497SOL    HW258447  10.237   5.018   5.812  0.4114  0.4989  0.6263
18498SOL     OW58448   4.415  10.471   3.456  0.5220 -0.6584 -0.3216
18498SOL    HW158449   4.364  10.503   3.381  0.8141  1.9216  0.4874
18498SOL    HW258450   4.350  10.430   3.514  0.0261 -1.0731 -1.1509
18499SOL     OW58451   8.659   1.008   9.972  0.5407  0.0620  0.1875
18499SOL    HW158452   8.582   0.971   9.930  2.6806 -3.6224 -1.0694
18499SOL    HW258453   8.649   0.985  10.065  0.9716 -2.3378 -0.2959
18500SOL     OW58454   0.165   6.947   2.843  0.6451  0.8029  0.3135
18500SOL    HW158455   0.143   6.929   2.752  0.1990 -0.3969  0.6379
18500SOL    HW258456   0.080   6.953   2.888  0.7767  2.9892  0.4138
18501SOL     OW58457  10.681   6.858   1.467  0.3459 -0.3527 -0.7832
18501SOL    HW158458  10.620   6.930   1.453  0.9716  0.3320 -0.0848
18501SOL    HW258459  10.632   6.794   1.519  0.4086  0.4588  0.2928
18502SOL     OW58460   6.472   1.198   7.036  0.7057  0.6224  0.1086
18502SOL    HW158461   6.487   1.117   6.988  1.7688  0.0958  1.2719
18502SOL    HW258462   6.446   1.169   7.124  2.2460  1.5086  0.8874
18503SOL     OW58463   9.531   5.716   1.272  0.7096  0.6337 -0.2009
18503SOL    HW158464   9.554   5.715   1.365  1.1799  0.9729 -0.3072
18503SOL    HW258465   9.542   5.625   1.244 -0.7694  0.2519  0.3800
18504SOL     OW58466   1.206   7.052   8.971 -0.3862 -0.0315 -0.1229
18504SOL    HW158467   1.136   7.002   8.930 -0.8330  0.7838 -0.3782
18504SOL    HW258468   1.174   7.142   8.973  0.8691  0.4671 -0.7715
18505SOL     OW58469   4.724   6.447   2.098 -0.9590 -0.3697 -0.3614
18505SOL    HW158470   4.744   6.524   2.045 -1.4028 -0.3156 -0.4555
18505SOL    HW258471   4.793   6.384   2.077  0.1890  0.4815  0.7167
18506SOL     OW58472   6.710   4.246   9.895 -0.4714 -0.3330  0.5925
18506SOL    HW158473   6.727   4.307   9.966 -0.6495 -1.0867  1.2892
18506SOL    HW258474   6.656   4.177   9.933 -0.9475 -0.5196 -0.3801
18507SOL     OW58475   9.604   4.261   6.292  0.3605  0.3219  0.4414
18507SOL    HW158476   9.524   4.217   6.321 -1.3088  2.2550 -0.8908
18507SOL    HW258477   9.631   4.314   6.367  0.4222 -0.3769  0.9166
18508SOL     OW58478   1.956   6.743   5.419 -0.1922 -0.4484 -0.3803
18508SOL    HW158479   1.957   6.734   5.514  1.1082  1.0324 -0.2133
18508SOL    HW258480   1.863   6.748   5.397 -0.5142 -0.7999  0.8147
18509SOL     OW58481   5.250   9.713   6.223 -0.4054  0.0201 -0.2061
18509SOL    HW158482   5.328   9.719   6.278 -0.6194  0.1621  0.0802
18509SOL    HW258483   5.210   9.799   6.230 -1.5047 -0.5628  0.9942
18510SOL     OW58484   7.364   2.623   3.797 -0.4052 -0.5891 -0.3126
18510SOL    HW158485   7.337   2.601   3.886 -1.8072 -0.9846 -0.8084
18510SOL    HW258486   7.310   2.568   3.741 -0.1406  0.2530 -1.4358
18511SOL     OW58487   3.551   0.010   4.599  0.0732  0.0121 -0.2367
18511SOL    HW158488   3.528   0.100   4.621  1.1665  0.2789 -0.1650
18511SOL    HW258489   3.599  -0.023   4.674  1.5324  0.0782 -1.0975
18512SOL     OW58490   8.032  10.258   6.667 -0.4842  0.2533  0.1578
18512SOL    HW158491   8.068  10.336   6.709 -1.3801  0.2956  0.8729
18512SOL    HW258492   8.092  10.240   6.595 -0.4636  1.8061 -0.2416
18513SOL     OW58493   5.837   7.504   5.430  0.8229  0.5497  0.4705
18513SOL    HW158494   5.880   7.529   5.512  0.3458 -0.1428  0.9470
18513SOL    HW258495   5.798   7.418   5.449  0.4569  0.5169 -0.3930
18514SOL     OW58496   1.824   1.283   5.838 -0.1108  0.1392 -0.4207
18514SOL    HW158497   1.856   1.198   5.870 -0.8987 -0.1316 -0.3334
18514SOL    HW258498   1.888   1.309   5.771  1.1580  0.3572  0.8079
18515SOL     OW58499   4.607   2.812   2.256 -0.0710 -0.0293  0.1298
18515SOL    HW158500   4.548   2.884   2.235  0.9260  1.1049  0.9993
18515SOL    HW258501   4.684   2.855   2.294  0.6963 -1.5442  0.3838
18516SOL     OW58502   3.880   4.872   3.716  0.4046 -0.0360  0.5598
18516SOL    HW158503   3.944   4.881   3.787  0.5874 -1.7992  0.6627
18516SOL    HW258504   3.824   4.949   3.724  1.0851  0.3435  1.9420
18517SOL     OW58505   2.336   0.187   3.402 -0.2321  0.2857 -0.0216
18517SOL    HW158506   2.328   0.248   3.329 -1.0663  1.2697  0.8570
18517SOL    HW258507   2.258   0.132   3.396  0.3808 -0.5331 -0.6511
18518SOL     OW58508   7.825  10.565   5.708 -0.9509  0.0302 -0.1630
18518SOL    HW158509   7.788  10.646   5.673 -0.5565  0.8464  1.2399
18518SOL    HW258510   7.752  10.503   5.708 -1.1405  0.2009 -1.6921
18519SOL     OW58511   8.309  10.110   3.319  0.8421 -0.3825 -0.1493
18519SOL    HW158512   8.220  10.084   3.294  1.2246 -0.7347 -1.2007
18519SOL    HW258513   8.353  10.027   3.339  0.7536 -0.1596  1.0397
18520SOL     OW58514   5.885   8.424   7.727  0.4450 -0.1708  0.7163
18520SOL    HW158515   5.847   8.447   7.642  0.2543 -0.2988  0.7660
18520SOL    HW258516   5.963   8.374   7.705  1.6086  1.6232  0.5781
18521SOL     OW58517   0.038   6.073   8.419  0.0596  0.5451 -0.3052
18521SOL    HW158518   0.074   6.110   8.338 -1.6434 -0.5944 -1.6759
18521SOL    HW258519   0.108   6.017   8.452  0.8935  1.2411 -0.8364
18522SOL     OW58520   8.001   0.348   1.470  0.1550 -0.3739  0.0262
18522SOL    HW158521   7.909   0.320   1.471  0.6747 -2.2938  1.6623
18522SOL    HW258522   8.018   0.375   1.560  1.3487 -0.5937 -0.1217
18523SOL     OW58523   2.821   5.629  10.187 -0.3967 -0.1338 -0.1612
18523SOL    HW158524   2.757   5.559  10.173  0.5036 -0.4608 -3.5046
18523SOL    HW258525   2.771   5.710  10.178 -0.9790 -0.3178  1.1675
18524SOL     OW58526   9.135   0.385  10.224  0.1230 -0.3386 -0.1066
18524SOL    HW158527   9.109   0.317  10.286 -0.0355  0.2763  0.5193
18524SOL    HW258528   9.068   0.382  10.155  0.1532 -0.8551 -0.1135
18525SOL     OW58529   0.854  10.694   6.213  0.4715  0.0515  0.3901
18525SOL    HW158530   0.871  10.784   6.186 -0.2527  0.1891  0.3668
18525SOL    HW258531   0.766  10.675   6.179  0.9931 -0.9889 -0.4591
18526SOL     OW58532   7.015   1.369   4.359 -0.4169 -0.6967 -0.3409
18526SOL    HW158533   6.995   1.415   4.277 -1.3027 -0.9050 -0.2475
18526SOL    HW258534   7.110   1.355   4.356 -0.2524  0.4105 -0.7450
18527SOL     OW58535   4.170   9.875   0.498  0.1111  0.2053  0.1373
18527SOL    HW158536   4.252   9.907   0.459  0.1630  0.9537  0.8393
18527SOL    HW258537   4.169   9.781   0.477 -0.9015  0.8717 -3.4894
18528SOL     OW58538   6.464   1.222   4.129 -0.2913  0.7692 -0.3179
18528SOL    HW158539   6.544   1.191   4.087 -0.1010 -0.6433  0.9769
18528SOL    HW258540   6.493   1.264   4.209 -0.7724  1.5839 -0.5553
18529SOL     OW58541   3.515   3.933   3.904 -0.1685  0.2042  0.0718
18529SOL    HW158542   3.441   3.929   3.844 -1.3179 -0.4967  1.4735
18529SOL    HW258543   3.477   3.914   3.990  1.7710 -1.0062  0.7193
18530SOL     OW58544   5.235   6.974   0.571 -0.1591 -0.5089 -0.2762
18530SOL    HW158545   5.271   6.943   0.488 -1.4622  1.4243 -1.6696
18530SOL    HW258546   5.176   6.905   0.600 -0.8396 -0.6021 -1.7874
18531SOL     OW58547   8.096   9.416  10.117 -0.1188 -0.0088 -0.0828
18531SOL    HW158548   8.034   9.371  10.175  0.3770 -0.0659  0.4127
18531SOL    HW258549   8.046   9.434  10.038 -0.3909 -1.2574 -0.2130
18532SOL     OW58550   8.292   4.070   7.306  0.3429 -0.1957  0.0801
18532SOL    HW158551   8.228   4.016   7.260  0.1472 -1.5611  1.8601
18532SOL    HW258552   8.354   4.007   7.344  1.1345  0.9461  0.7498
18533SOL     OW58553   3.095   3.062   4.757 -0.7863 -0.3398 -0.4426
18533SOL    HW158554   3.002   3.082   4.750 -1.3004 -1.8133  1.4429
18533SOL    HW258555   3.111   3.053   4.851  0.9408 -1.5388 -0.8070
18534SOL     OW58556   1.195   1.099   0.394  0.1764 -0.0075  0.1052
18534SOL    HW158557   1.258   1.097   0.467 -0.0075  3.0208  0.4713
18534SOL    HW258558   1.186   1.007   0.369  2.1983 -0.9140  2.2099
18535SOL     OW58559   0.930   8.489   0.157 -0.0432 -0.1565  0.2517
18535SOL    HW158560   0.902   8.479   0.248 -0.3477 -1.0526  0.0686
18535SOL    HW258561   1.005   8.430   0.149  0.0626  0.0195 -0.0483
18536SOL     OW58562   1.423   2.603   4.832 -0.2407 -0.2622 -0.2451
18536SOL    HW158563   1.519   2.600   4.823  0.0997  2.5921  1.0769
18536SOL    HW258564   1.391   2.619   4.744  0.3734 -2.0507 -0.8429
18537SOL     OW58565   9.315   9.332   9.974  0.1684 -0.4151  0.1458
18537SOL    HW158566   9.356   9.252   9.940 -0.1969 -0.6708  0.3028
18537SOL    HW258567   9.221   9.317   9.963  0.1343  0.6396 -1.2756
18538SOL     OW58568   8.473   8.085   0.074  0.5308 -0.3242 -0.0424
18538SOL    HW158569   8.428   8.158   0.117 -0.4359 -1.2569  0.5812
18538SOL    HW258570   8.403   8.028   0.044  1.2730 -1.0624 -0.4092
18539SOL     OW58571   1.168   6.002   4.197  0.0477 -0.3159 -0.4443
18539SOL    HW158572   1.223   6.002   4.118  1.9660  1.3054  0.7962
18539SOL    HW258573   1.162   5.909   4.222  0.8852 -0.6800 -1.5126
18540SOL     OW58574   0.866   5.534   7.080  0.3934 -0.6695 -0.2969
18540SOL    HW158575   0.921   5.529   7.002  0.5976 -1.8690 -0.0957
18540SOL    HW258576   0.925   5.509   7.152 -0.2755 -1.4707 -0.0129
18541SOL     OW58577  10.424   7.083   0.096  0.6482  0.0538 -0.2520
18541SOL    HW158578  10.350   7.072   0.156 -0.0271 -1.1813 -1.2592
18541SOL    HW258579  10.500   7.091   0.153 -0.1228  0.2212  0.7885
18542SOL     OW58580   1.536   1.564   5.266  0.0521  0.1380  0.5866
18542SOL    HW158581   1.490   1.634   5.312 -0.9777  0.1534 -0.4136
18542SOL    HW258582   1.517   1.580   5.173  1.3416 -0.3955  0.2176
18543SOL     OW58583   7.807   3.700   3.016 -0.4617 -0.6335 -0.0123
18543SOL    HW158584   7.757   3.714   2.936 -0.1158  1.7627  0.1130
18543SOL    HW258585   7.755   3.639   3.067 -2.8432  1.0353 -0.2784
18544SOL     OW58586   6.940   4.321   3.930  0.5342  0.1265 -0.0788
18544SOL    HW158587   6.878   4.295   3.997  0.7266  0.5872  0.2868
18544SOL    HW258588   6.887   4.357   3.860  0.4301  1.3763  0.6220
18545SOL     OW58589   9.200   5.526   2.115  0.4283  0.5715  0.0910
18545SOL    HW158590   9.197   5.606   2.063  1.1377  0.0130 -0.8551
18545SOL    HW258591   9.293   5.504   2.121  0.4016  0.8082  1.9387
18546SOL     OW58592   5.011   2.193   0.243  0.0343 -0.4546  0.1148
18546SOL    HW158593   5.008   2.262   0.177  1.6462  0.4259  0.9096
18546SOL    HW258594   5.053   2.119   0.199  0.4076 -0.1337 -0.0758
18547SOL     OW58595   1.388   1.714   8.556  0.3310  0.6162 -0.1737
18547SOL    HW158596   1.397   1.765   8.475  2.0989  0.1074 -0.3544
18547SOL    HW258597   1.331   1.767   8.612  1.3327  2.3478 -0.7006
18548SOL     OW58598   0.041   5.773  10.221 -0.1488  0.1190 -0.2405
18548SOL    HW158599   0.068   5.783  10.312  1.4580 -0.7422 -0.5903
18548SOL    HW258600   0.069   5.853  10.178  1.8772 -0.7009 -0.5679
18549SOL     OW58601   7.645   2.657   8.727  0.6383  0.4138 -0.0774
18549SOL    HW158602   7.693   2.725   8.679  0.8280 -0.2138 -0.7995
18549SOL    HW258603   7.647   2.581   8.669 -1.7317  0.5220 -0.3681
18550SOL     OW58604   4.106   9.094   3.541 -0.3882 -0.1451  0.2565
18550SOL    HW158605   4.172   9.159   3.518  2.0952 -0.7269  4.6615
18550SOL    HW258606   4.023   9.141   3.541  0.9152  2.2745  0.4515
18551SOL     OW58607   5.736   6.427   9.544 -0.2872 -0.8675 -0.2324
18551SOL    HW158608   5.742   6.377   9.462  2.0663 -1.3929  0.1735
18551SOL    HW258609   5.823   6.466   9.554 -0.8983  0.1843  1.4322
18552SOL     OW58610   6.727   1.735   6.810  0.0848 -0.4047  0.1690
18552SOL    HW158611   6.661   1.667   6.792 -0.1935 -0.3364  0.8919
18552SOL    HW258612   6.724   1.791   6.733  0.4883 -1.3435 -0.5459
18553SOL     OW58613   3.583   0.878   0.391  0.3920 -0.1526 -0.5254
18553SOL    HW158614   3.521   0.952   0.397  0.0795 -0.4940  1.1274
18553SOL    HW258615   3.667   0.919   0.372 -0.0075  0.5072 -0.9216
18554SOL     OW58616   1.601  10.400   8.904  0.4093  0.1323  0.5070
18554SOL    HW158617   1.562  10.322   8.945 -0.2732  0.9036  1.3744
18554SOL    HW258618   1.641  10.367   8.824 -2.4188 -0.6839 -0.6993
18555SOL     OW58619   7.582   4.197   3.259 -0.4572 -0.3209 -0.3014
18555SOL    HW158620   7.492   4.221   3.239 -1.5293 -3.3197  0.3949
18555SOL    HW258621   7.586   4.103   3.243  1.8416 -0.7366  2.0420
18556SOL     OW58622   1.662   1.519   7.885  0.4327 -0.1408 -0.1438
18556SOL    HW158623   1.708   1.517   7.801  0.3756  0.5952 -0.1948
18556SOL    HW258624   1.705   1.451   7.937 -1.0490 -2.2613 -1.5399
18557SOL     OW58625   0.485   8.245   0.944 -0.3428  0.2244  0.2743
18557SOL    HW158626   0.523   8.196   1.016 -1.0759 -1.6173 -0.5328
18557SOL    HW258627   0.394   8.261   0.971 -0.3222  0.4814  0.2007
18558SOL     OW58628   5.985   7.873   6.413 -0.1774  0.1363  0.1275
18558SOL    HW158629   6.048   7.803   6.398  0.2531  0.0689  2.0108
18558SOL    HW258630   6.034   7.940   6.460 -1.3847  0.2738  1.2594
18559SOL     OW58631   4.195   6.647   5.801 -0.5324  0.3373  0.2576
18559SOL    HW158632   4.108   6.682   5.783 -0.6141  0.0523  0.0989
18559SOL    HW258633   4.216   6.679   5.889 -0.6645  0.6660  0.1710
18560SOL     OW58634   7.394   0.351   5.102  0.1231  0.0111  0.1234
18560SOL    HW158635   7.439   0.268   5.083  0.4124  0.2164 -0.0965
18560SOL    HW258636   7.428   0.412   5.037  0.9969  0.6834  1.1773
18561SOL     OW58637   8.538   2.425   1.484 -0.0848  0.8198 -0.1763
18561SOL    HW158638   8.506   2.514   1.469  0.3789  0.9097 -0.6886
18561SOL    HW258639   8.569   2.426   1.574 -0.9850  0.8898  0.1418
18562SOL     OW58640   6.206   2.073   4.777  0.2499 -0.3933 -0.4687
18562SOL    HW158641   6.285   2.115   4.743  1.4061 -1.8347  0.3019
18562SOL    HW258642   6.137   2.097   4.716  1.3984  0.4837 -1.4576
18563SOL     OW58643   8.747   3.839   1.955  0.3617  0.7155  0.4268
18563SOL    HW158644   8.701   3.829   2.039  0.2905 -0.6172  0.2354
18563SOL    HW258645   8.786   3.754   1.938  0.9080  1.1532 -0.6043
18564SOL     OW58646   7.763   3.500   3.922  0.0487 -0.0406  0.0238
18564SOL    HW158647   7.752   3.427   3.862  1.0736  1.3920 -2.0163
18564SOL    HW258648   7.704   3.568   3.890  1.3904  1.1395 -0.0679
18565SOL     OW58649   0.928   6.262   8.058  0.2714  0.3877 -0.3371
18565SOL    HW158650   0.949   6.343   8.012  1.8596  1.2707  1.7629
18565SOL    HW258651   1.010   6.212   8.058  0.6228  0.8210  2.1714
18566SOL     OW58652   6.512   2.306   3.006 -0.2254 -0.2606 -0.5229
18566SOL    HW158653   6.588   2.287   3.062 -0.3381  1.1573  0.1670
18566SOL    HW258654   6.443   2.249   3.040  0.7110 -2.1804 -1.6921
18567SOL     OW58655   7.481   7.987   6.774  0.0638  0.1920  0.0979
18567SOL    HW158656   7.428   7.962   6.849  0.7126 -3.5061 -0.4810
18567SOL    HW258657   7.564   8.016   6.811 -0.5519  1.0303  0.8476
18568SOL     OW58658   5.500  10.048   4.510 -0.3647 -0.3162  0.2274
18568SOL    HW158659   5.568   9.983   4.528 -0.6771 -0.5826  0.4558
18568SOL    HW258660   5.453  10.057   4.593 -1.0725 -0.6739 -0.1223
18569SOL     OW58661   2.271   7.748   2.551 -0.2912  0.4141 -0.1845
18569SOL    HW158662   2.350   7.800   2.568  0.6404 -0.5937 -1.3040
18569SOL    HW258663   2.204   7.791   2.604  0.8749  1.6023  0.4189
18570SOL     OW58664  10.201   0.848   5.753 -0.6760 -0.0093  0.6737
18570SOL    HW158665  10.134   0.876   5.814 -1.9601  0.0329 -0.7065
18570SOL    HW258666  10.158   0.846   5.668  1.2443  0.7051 -0.3917
18571SOL     OW58667   9.573   2.088   5.065  0.1165  0.4843 -0.8206
18571SOL    HW158668   9.629   2.073   5.141 -0.7596 -0.1183 -0.2745
18571SOL    HW258669   9.570   2.183   5.055 -1.2601  0.6983  1.0777
18572SOL     OW58670   5.184   0.800   4.740 -0.0728  0.1627  0.4863
18572SOL    HW158671   5.116   0.867   4.734 -1.4278 -1.2402 -1.4495
18572SOL    HW258672   5.174   0.749   4.659  2.4162 -0.9521  0.7879
18573SOL     OW58673   2.694   3.365  10.142  0.7422 -0.8050  0.3024
18573SOL    HW158674   2.606   3.365  10.180  0.6204 -0.4768  0.0301
18573SOL    HW258675   2.718   3.273  10.137 -1.0986 -1.2600 -3.0719
18574SOL     OW58676   0.116   4.978   9.439 -0.1607 -0.0618 -0.4233
18574SOL    HW158677   0.134   5.040   9.368 -1.0092  0.8201  0.1069
18574SOL    HW258678   0.202   4.947   9.467  0.3376  1.5419 -0.1292
18575SOL     OW58679   8.744   6.488   8.337  0.1353  0.3068 -0.5143
18575SOL    HW158680   8.811   6.441   8.386 -0.1307  2.3511  2.0223
18575SOL    HW258681   8.695   6.420   8.291  2.9311 -1.3615 -1.2205
18576SOL     OW58682  10.309   5.203   5.755  0.0339 -0.3494 -0.1127
18576SOL    HW158683  10.335   5.260   5.827  1.4609  2.0926 -2.3675
18576SOL    HW258684  10.243   5.254   5.707  1.6318 -0.2828 -2.4117
18577SOL     OW58685   9.172   7.875   7.145 -0.4929 -0.0482 -0.3359
18577SOL    HW158686   9.128   7.872   7.060  0.5987 -0.6333 -0.8947
18577SOL    HW258687   9.228   7.953   7.141 -2.2493  1.3490  0.7957
18578SOL     OW58688   3.303   0.462   5.286  0.4645 -0.6360  0.4081
18578SOL    HW158689   3.265   0.548   5.300  0.7518 -0.4606  0.1227
18578SOL    HW258690   3.275   0.411   5.362  1.0397 -0.0327  1.0335
18579SOL     OW58691   0.853   8.179   6.230  0.0731  0.0114  0.0371
18579SOL    HW158692   0.884   8.245   6.168  1.2176 -1.6612 -1.2648
18579SOL    HW258693   0.929   8.121   6.242 -0.6806 -0.6909  1.6761
18580SOL     OW58694   0.481   1.008   5.358  0.1434  0.1675  0.6884
18580SOL    HW158695   0.558   0.952   5.364  0.0007 -0.1787 -0.4784
18580SOL    HW258696   0.513   1.096   5.379  1.2383  0.3135 -1.4177
18581SOL     OW58697   1.490   6.673   6.321 -0.3217 -0.1636 -0.5712
18581SOL    HW158698   1.495   6.589   6.367 -0.7251 -0.1052 -0.4120
18581SOL    HW258699   1.526   6.736   6.383  0.0919 -0.2357 -0.7371
18582SOL     OW58700   5.632   7.702   5.330  0.6152 -0.0415  0.7510
18582SOL    HW158701   5.681   7.627   5.363  0.9390 -0.2782 -0.2130
18582SOL    HW258702   5.679   7.728   5.250 -2.4639 -2.2657 -2.1075
18583SOL     OW58703   4.320   8.743   6.011 -0.2390  0.5538 -0.3695
18583SOL    HW158704   4.300   8.656   5.978 -4.0344  1.6998 -1.5645
18583SOL    HW258705   4.346   8.729   6.102 -1.3624 -1.7854 -0.3548
18584SOL     OW58706   7.780   3.941   6.975 -0.3328  0.3236  0.1872
18584SOL    HW158707   7.809   3.894   6.897  1.8745  1.8719 -0.0198
18584SOL    HW258708   7.762   4.030   6.943 -1.6961  0.3778  1.0458
18585SOL     OW58709   7.393   0.432   1.308  0.0744 -0.4819 -0.6093
18585SOL    HW158710   7.394   0.475   1.394 -1.0279 -0.8644 -0.3870
18585SOL    HW258711   7.409   0.504   1.246 -1.2353  0.1866 -0.2098
18586SOL     OW58712   5.287   8.894   2.471 -0.1118 -0.2352 -0.2752
18586SOL    HW158713   5.301   8.800   2.458  2.6447  0.1823 -0.9933
18586SOL    HW258714   5.375   8.929   2.487 -0.9298  2.3784 -1.0617
18587SOL     OW58715   3.946   3.312   5.242  0.1597 -0.3412 -0.3874
18587SOL    HW158716   3.880   3.316   5.173  0.0920  0.0065 -0.3064
18587SOL    HW258717   4.029   3.323   5.196  0.3362 -2.7082 -0.7358
18588SOL     OW58718   1.606   2.903   4.519  0.1745  0.4163  0.2127
18588SOL    HW158719   1.566   2.894   4.432 -1.2594 -2.0801  1.0460
18588SOL    HW258720   1.685   2.850   4.515  0.2873  0.5717  0.3496
18589SOL     OW58721   5.633  10.578   1.181  0.1824  0.4094  0.3528
18589SOL    HW158722   5.680  10.539   1.107  0.6517  0.2082  0.7490
18589SOL    HW258723   5.551  10.528   1.187  0.2659  0.2455  0.1433
18590SOL     OW58724   2.158   5.448   4.505  0.2268  0.3844 -0.4153
18590SOL    HW158725   2.064   5.466   4.500  0.2953  1.3479  1.0654
18590SOL    HW258726   2.166   5.375   4.566  0.3542 -0.8170 -1.8303
18591SOL     OW58727   1.292   2.437   4.422  0.1367  0.3932  0.0517
18591SOL    HW158728   1.214   2.491   4.408 -0.2101 -0.0389  0.2668
18591SOL    HW258729   1.336   2.476   4.497 -0.8113 -0.3743  1.0490
18592SOL     OW58730   3.208   7.533  10.662 -0.0458 -0.7925  0.2346
18592SOL    HW158731   3.252   7.470  10.719  1.7712  0.7004  0.5781
18592SOL    HW258732   3.174   7.600  10.722  3.1080  1.5562 -0.3087
18593SOL     OW58733   8.857   4.161   9.010 -0.0315  0.3533  0.7792
18593SOL    HW158734   8.797   4.222   9.052 -1.2594  0.1270 -0.5635
18593SOL    HW258735   8.803   4.087   8.983  1.0218 -0.3146  0.3877
18594SOL     OW58736   7.107   5.645   3.712 -0.0049 -0.0794  0.0773
18594SOL    HW158737   7.128   5.729   3.670  0.4618 -1.1795 -1.9978
18594SOL    HW258738   7.176   5.633   3.777  0.8263  0.4241 -0.6914
18595SOL     OW58739   5.012   0.887   9.743  0.0045 -0.8818  0.3242
18595SOL    HW158740   5.045   0.898   9.832 -1.5398 -2.5409  1.1906
18595SOL    HW258741   5.090   0.883   9.688  0.9706  1.2130  1.4144
18596SOL     OW58742   1.480   8.191   2.342  0.4795  0.1371  0.0025
18596SOL    HW158743   1.539   8.116   2.354  0.5158  0.3327  1.1521
18596SOL    HW258744   1.418   8.162   2.276  1.9862  0.0078 -1.4058
18597SOL     OW58745  10.040   2.798   5.039  0.1856 -0.0431 -0.4524
18597SOL    HW158746  10.018   2.879   5.085  1.4225  0.2006 -0.2373
18597SOL    HW258747  10.094   2.749   5.102  0.1999 -0.6272 -0.9109
18598SOL     OW58748   2.096   8.421   8.774  0.0920  0.3224  0.5169
18598SOL    HW158749   2.066   8.501   8.818 -0.4162  1.7687 -2.1835
18598SOL    HW258750   2.191   8.431   8.768  0.1734  0.0696  1.3448
18599SOL     OW58751   5.706   7.615   1.928 -0.0066 -0.3135  0.5660
18599SOL    HW158752   5.689   7.524   1.902 -0.6356 -1.4017  4.2465
18599SOL    HW258753   5.800   7.625   1.915  0.0728 -1.4630  0.0435
18600SOL     OW58754   9.790   8.103   9.287 -0.1092  0.4855 -0.0597
18600SOL    HW158755   9.799   8.098   9.382 -0.1464  1.8037  0.0244
18600SOL    HW258756   9.878   8.125   9.256 -0.4625  1.7745 -0.1813
18601SOL     OW58757   4.902   5.939   3.807 -0.5051 -0.2231  0.5505
18601SOL    HW158758   4.841   5.945   3.733  1.0194  1.0182 -0.6678
18601SOL    HW258759   4.979   5.896   3.771  0.5124  0.9770  1.2235
18602SOL     OW58760   4.508   3.730   3.868 -0.4678 -0.1718  0.0384
18602SOL    HW158761   4.571   3.787   3.825  1.4204 -1.5116  0.8567
18602SOL    HW258762   4.423   3.771   3.852  0.4909  1.1963 -1.9397
18603SOL     OW58763   6.476   3.628   2.494  0.2365  0.2284  0.5152
18603SOL    HW158764   6.483   3.551   2.551 -1.9707  0.0318  0.6120
18603SOL    HW258765   6.394   3.669   2.520 -1.0152  0.0209 -2.6473
18604SOL     OW58766   3.272   3.742   6.734 -0.3579 -0.4242 -0.3265
18604SOL    HW158767   3.220   3.671   6.699  0.1085  0.2128 -2.4625
18604SOL    HW258768   3.363   3.716   6.718  0.0300 -0.9768  2.2536
18605SOL     OW58769   7.161   8.391   8.993 -0.0688 -0.6713 -0.1863
18605SOL    HW158770   7.257   8.393   8.993 -0.0333 -1.2243 -1.2013
18605SOL    HW258771   7.137   8.360   9.080  0.5415  2.3016  1.1530
18606SOL     OW58772   8.350   8.295   7.721  0.7115  0.8297  0.4271
18606SOL    HW158773   8.415   8.359   7.749  1.1229  0.9788 -0.7806
18606SOL    HW258774   8.381   8.212   7.756  0.6920  1.1409  1.1972
18607SOL     OW58775   4.818   1.397   3.046 -0.7386  0.0735 -0.0822
18607SOL    HW158776   4.792   1.314   3.087 -1.2368  0.7708  1.0719
18607SOL    HW258777   4.781   1.393   2.958 -0.8655 -0.8820  0.0031
18608SOL     OW58778   6.541   5.244   7.509 -0.0072 -0.8019 -0.3013
18608SOL    HW158779   6.518   5.283   7.425 -0.8928 -0.5118  0.0606
18608SOL    HW258780   6.524   5.151   7.498  0.0195 -0.7850 -0.4866
18609SOL     OW58781   7.829   6.757   7.240  0.4039 -0.2232  0.0106
18609SOL    HW158782   7.846   6.725   7.151 -0.9270 -0.7556 -0.0858
18609SOL    HW258783   7.754   6.704   7.270 -1.1691  2.0214  0.2724
18610SOL     OW58784   7.055   5.451   3.174  0.9487 -0.2886  0.0784
18610SOL    HW158785   7.018   5.367   3.147  1.2444 -0.0731 -1.0461
18610SOL    HW258786   6.992   5.486   3.236  0.0892 -0.6908 -0.5497
18611SOL     OW58787   0.693   8.750   8.048 -0.2169 -0.5661 -0.4403
18611SOL    HW158788   0.678   8.657   8.063 -0.6769 -0.7826 -2.0516
18611SOL    HW258789   0.615   8.779   8.000  0.2060  0.5153 -0.4992
18612SOL     OW58790   5.468   2.571   4.766 -0.3793 -0.1867 -0.5441
18612SOL    HW158791   5.500   2.531   4.685  0.8009 -0.6641  0.1303
18612SOL    HW258792   5.373   2.577   4.753 -0.0259  1.8832 -2.8737
18613SOL     OW58793   0.585   8.158   0.530  0.0771 -0.3543  0.5525
18613SOL    HW158794   0.636   8.206   0.465  1.3232  1.9065  3.0144
18613SOL    HW258795   0.604   8.066   0.512  2.3980  0.2949 -0.7302
18614SOL     OW58796   3.726   8.391   7.526  0.4862 -0.2780 -0.3934
18614SOL    HW158797   3.780   8.312   7.525 -1.1261 -1.4731 -2.3832
18614SOL    HW258798   3.751   8.438   7.447 -1.0774 -0.6792 -1.1582
18615SOL     OW58799   4.956   4.998   2.853 -0.4421 -0.3612  0.0400
18615SOL    HW158800   4.963   5.020   2.946  0.1386 -0.0803 -0.0662
18615SOL    HW258801   4.989   5.075   2.808  1.0700 -1.2034 -0.3581
18616SOL     OW58802   3.352   7.836   7.980 -0.4274 -0.4814 -0.2833
18616SOL    HW158803   3.373   7.918   7.936  1.3823  0.0383  1.4127
18616SOL    HW258804   3.312   7.863   8.063  3.7231 -0.9545  2.1681
18617SOL     OW58805   9.824   6.807   6.758 -0.6341 -0.5949 -0.0492
18617SOL    HW158806   9.850   6.826   6.668 -1.3725  0.0533 -0.1326
18617SOL    HW258807   9.733   6.837   6.765 -1.4314 -2.8317  0.2186
18618SOL     OW58808   3.859   2.962   8.313  0.6095  0.3483 -0.9186
18618SOL    HW158809   3.839   3.056   8.305  1.4047  0.4823 -1.4309
18618SOL    HW258810   3.775   2.919   8.302  0.3759  0.9607 -1.6535
18619SOL     OW58811   3.215   6.934   2.491 -0.3053 -0.2129  0.8207
18619SOL    HW158812   3.244   6.894   2.409  1.1933  1.4006  0.5167
18619SOL    HW258813   3.142   6.990   2.465  0.2258  0.3658  0.5620
18620SOL     OW58814   9.351   9.297   1.483 -0.4086 -0.1409 -0.0661
18620SOL    HW158815   9.395   9.282   1.399  0.5878 -0.6531  0.5334
18620SOL    HW258816   9.258   9.282   1.465 -0.1472 -0.7153 -0.9604
18621SOL     OW58817   9.916   6.887   7.740  0.4671 -0.4118 -0.5108
18621SOL    HW158818   9.953   6.940   7.811  3.4239 -0.7713 -1.6094
18621SOL    HW258819   9.970   6.807   7.740 -2.0159 -2.1921 -0.7101
18622SOL     OW58820   7.092   3.669   1.806 -0.6245  0.1174  0.7144
18622SOL    HW158821   7.035   3.687   1.881  1.1276  2.2616  1.6288
18622SOL    HW258822   7.167   3.622   1.843 -0.9252 -1.1129 -0.1743
18623SOL     OW58823   0.077   3.972   2.732 -0.3315  0.5958  0.3161
18623SOL    HW158824   0.157   4.023   2.741 -0.5430  1.1342 -0.7129
18623SOL    HW258825   0.016   4.030   2.688 -0.3703 -0.7460 -1.5081
18624SOL     OW58826   0.598   0.607   3.379 -0.2188  0.3032 -0.2177
18624SOL    HW158827   0.515   0.573   3.345 -0.1094 -0.2792  0.0834
18624SOL    HW258828   0.634   0.535   3.431 -0.1316  0.9969  0.7020
18625SOL     OW58829   5.472   9.116   8.039  0.1986 -0.4259  0.2316
18625SOL    HW158830   5.550   9.124   8.094 -0.4638  1.2574  1.0078
18625SOL    HW258831   5.502   9.135   7.951  0.9440 -1.4112  0.2505
18626SOL     OW58832   3.585   2.431   2.895 -0.0366  0.5368 -0.2351
18626SOL    HW158833   3.512   2.421   2.834 -0.6738  0.6219  0.4932
18626SOL    HW258834   3.575   2.520   2.929  0.8920  0.8412 -0.7318
18627SOL     OW58835   2.830   4.669   6.234  0.4631  0.4961  0.3613
18627SOL    HW158836   2.738   4.648   6.220 -0.1351  3.0139  0.0476
18627SOL    HW258837   2.830   4.738   6.301  2.1538  0.2762  0.6462
18628SOL     OW58838   5.887   7.905   1.786  0.1082  0.0652 -0.5510
18628SOL    HW158839   5.815   7.862   1.739  0.2116  0.1918 -0.8280
18628SOL    HW258840   5.940   7.833   1.819  0.3352 -0.0263 -1.0968
18629SOL     OW58841  10.223  10.117   7.280 -0.0449 -0.2432 -0.0121
18629SOL    HW158842  10.299  10.070   7.315 -0.4427  0.3248  1.7511
18629SOL    HW258843  10.161  10.048   7.256 -0.6132 -0.7100  2.5236
18630SOL     OW58844   4.549   8.839   0.740  0.1658  0.2407  0.0802
18630SOL    HW158845   4.479   8.903   0.750  0.0950  0.0193  1.0580
18630SOL    HW258846   4.518   8.781   0.670 -0.6550  0.1208  0.5286
18631SOL     OW58847   5.010   3.895   3.242  0.5942  0.1672  0.1462
18631SOL    HW158848   4.958   3.976   3.238  0.0795 -0.1507  0.2881
18631SOL    HW258849   5.059   3.902   3.324 -0.1907 -0.1055  0.6441
18632SOL     OW58850   9.635  10.629   4.479  0.0305 -0.2917 -0.1290
18632SOL    HW158851   9.548  10.631   4.438 -0.3895 -0.1422  0.7596
18632SOL    HW258852   9.623  10.576   4.558  0.5255  0.5512  0.5186
18633SOL     OW58853   5.037   1.846   2.444 -0.0003 -0.1215  0.3130
18633SOL    HW158854   4.991   1.764   2.462  1.5295 -0.9362  0.7092
18633SOL    HW258855   5.037   1.892   2.529  0.1975 -0.2737  0.3965
18634SOL     OW58856   9.048   8.790   1.555 -0.1187 -0.3604  0.4663
18634SOL    HW158857   9.135   8.820   1.582  0.3823  0.2290 -1.6566
18634SOL    HW258858   9.011   8.865   1.509 -0.4639 -1.6545 -1.4382
18635SOL     OW58859   2.444   1.154   6.229 -0.0058 -0.3866  0.1691
18635SOL    HW158860   2.360   1.172   6.187 -0.2997 -1.8358  0.0852
18635SOL    HW258861   2.433   1.068   6.269  1.3383 -0.4659  0.4261
18636SOL     OW58862   1.493   9.087   5.699 -0.6366 -0.7268 -0.0120
18636SOL    HW158863   1.510   8.993   5.700  0.6994 -0.7410  5.2222
18636SOL    HW258864   1.576   9.126   5.671  0.1876 -1.1575  1.6993
18637SOL     OW58865   4.864   2.470   9.401  0.2173  0.2336  0.1541
18637SOL    HW158866   4.934   2.405   9.400  0.1344  0.1312  0.6302
18637SOL    HW258867   4.810   2.445   9.476 -0.3416  0.2960 -0.2259
18638SOL     OW58868   3.791   8.033   0.887 -0.2674  0.6368 -0.0136
18638SOL    HW158869   3.775   8.059   0.978 -0.3958  3.0233 -0.6551
18638SOL    HW258870   3.777   7.938   0.887 -2.2045  0.8268  2.0481
18639SOL     OW58871   2.965   3.360  10.279 -0.0235  0.2451 -0.2115
18639SOL    HW158872   2.892   3.421  10.288 -0.8969 -0.7694 -0.1854
18639SOL    HW258873   2.927   3.283  10.236  1.5226  0.5247 -2.1979
18640SOL     OW58874   2.909  10.665   1.350 -0.3520 -0.6253 -0.6312
18640SOL    HW158875   2.933  10.572   1.343  0.5554 -0.2968 -2.3842
18640SOL    HW258876   2.979  10.711   1.303 -1.2663  0.8896 -0.5559
18641SOL     OW58877   8.287   3.572   4.508  0.0655 -0.2026  0.0588
18641SOL    HW158878   8.209   3.516   4.497 -0.3024  0.1516  0.7929
18641SOL    HW258879   8.253   3.651   4.551  0.8212 -0.0031  0.2890
18642SOL     OW58880   2.394   8.174   6.505 -0.0593 -0.1969 -0.1989
18642SOL    HW158881   2.376   8.159   6.598  1.0249 -0.3442  0.0105
18642SOL    HW258882   2.325   8.127   6.459 -0.2705 -0.6239  0.5318
18643SOL     OW58883   2.308   6.331   2.079  0.0376  0.6285 -0.5284
18643SOL    HW158884   2.310   6.412   2.129 -1.7821 -0.9270  2.3215
18643SOL    HW258885   2.391   6.288   2.099 -0.2610  0.4710  0.4226
18644SOL     OW58886   4.043   0.997   1.323 -0.5304 -0.1001  0.6661
18644SOL    HW158887   3.950   0.972   1.326  0.1213 -2.7692  0.8004
18644SOL    HW258888   4.050   1.050   1.243 -1.9938 -0.6604  0.1193
18645SOL     OW58889   4.897   6.738   9.749  0.6400 -0.2503  0.4169
18645SOL    HW158890   4.922   6.664   9.694 -0.0093  0.0349 -0.2912
18645SOL    HW258891   4.802   6.728   9.760  0.0216  1.8159 -1.8592
18646SOL     OW58892   9.127   3.063   5.884 -0.2375  0.0504  0.1283
18646SOL    HW158893   9.172   3.120   5.822 -0.5602 -0.9505 -1.0715
18646SOL    HW258894   9.101   3.121   5.956  0.4464  1.1741 -0.5047
18647SOL     OW58895   0.489   8.255   7.695 -0.8271 -0.3732  0.0514
18647SOL    HW158896   0.539   8.174   7.687 -0.3954 -0.3593  1.9794
18647SOL    HW258897   0.404   8.228   7.729 -0.2522  0.0412  1.9305
18648SOL     OW58898   7.345   1.133   7.257 -0.4811 -0.0376 -0.0108
18648SOL    HW158899   7.431   1.165   7.281  0.5399 -1.7029 -1.2056
18648SOL    HW258900   7.297   1.211   7.228  0.7931  0.8273  0.1508
18649SOL     OW58901   4.338   7.218   5.592  0.1548 -0.3584  0.1435
18649SOL    HW158902   4.298   7.169   5.663 -0.4137  1.5690  1.2230
18649SOL    HW258903   4.414   7.260   5.631  1.2788 -1.2351 -1.0353
18650SOL     OW58904   0.013   9.467  10.480 -0.7144 -0.0663 -0.4033
18650SOL    HW158905   0.042   9.508  10.562  0.7291 -0.1083 -0.8601
18650SOL    HW258906  -0.082   9.463  10.488 -0.7574  1.5540  0.5119
18651SOL     OW58907   4.247   7.895   3.587 -0.2359 -0.0292  0.9357
18651SOL    HW158908   4.225   7.832   3.518  2.4800  0.3646 -0.4094
18651SOL    HW258909   4.201   7.975   3.562  1.4149  0.3846 -1.0250
18652SOL     OW58910   1.244   8.403   5.442 -0.0929 -0.5718 -0.1112
18652SOL    HW158911   1.149   8.397   5.442 -0.0594 -1.3221 -0.8522
18652SOL    HW258912   1.263   8.496   5.424 -0.6819 -0.4730 -0.2318
18653SOL     OW58913   4.313   5.224  10.540 -0.1391  0.6141  0.1525
18653SOL    HW158914   4.380   5.268  10.488 -0.9283 -0.9438 -2.3468
18653SOL    HW258915   4.312   5.134  10.508 -2.4986  0.2431  1.0438
18654SOL     OW58916   0.807   4.639   2.845 -0.0052  0.6138  0.2155
18654SOL    HW158917   0.882   4.694   2.871 -0.4489  0.8886  0.9437
18654SOL    HW258918   0.738   4.702   2.825  0.0822  0.3765 -0.8962
18655SOL     OW58919   8.156   7.886   1.597 -0.1179 -0.1570  0.3734
18655SOL    HW158920   8.073   7.844   1.620  0.7577 -1.3098  1.6114
18655SOL    HW258921   8.158   7.886   1.502 -2.3208  1.5374  0.2514
18656SOL     OW58922  10.491   7.038   1.380  0.1154  0.2269  0.4211
18656SOL    HW158923  10.423   7.003   1.438 -0.0316 -0.9611 -0.4400
18656SOL    HW258924  10.462   7.016   1.292  1.6918 -0.4930  0.0351
18657SOL     OW58925   8.952   2.319   9.265  0.3088 -0.6771 -0.4609
18657SOL    HW158926   8.918   2.331   9.177  3.5793  1.1439 -1.6494
18657SOL    HW258927   8.977   2.407   9.294 -0.7386 -1.1980  2.3823
18658SOL     OW58928   7.793   1.663   2.810  0.0594  0.3297  0.6384
18658SOL    HW158929   7.784   1.725   2.883 -0.7293  1.6417 -0.5383
18658SOL    HW258930   7.715   1.676   2.757  0.9225 -0.1347 -0.7991
18659SOL     OW58931   7.422   2.841   7.450 -0.2256 -0.0306  0.6649
18659SOL    HW158932   7.479   2.873   7.519 -0.9658  0.8102  0.9005
18659SOL    HW258933   7.369   2.916   7.426  0.7467  0.0288 -1.5892
18660SOL     OW58934  10.555   7.704   5.700 -0.0880 -0.3222  0.8758
18660SOL    HW158935  10.645   7.677   5.719  1.0470  1.9226 -0.8541
18660SOL    HW258936  10.502   7.657   5.765  2.2561 -1.9927  1.7327
18661SOL     OW58937   6.699   2.901   0.710  0.3609  0.0459  0.4054
18661SOL    HW158938   6.642   2.935   0.640  0.8439 -0.9333 -0.4896
18661SOL    HW258939   6.691   2.806   0.704  0.6969 -0.0645  1.4637
18662SOL     OW58940  10.565   7.178   7.949 -0.0242 -0.0329 -0.4095
18662SOL    HW158941  10.633   7.111   7.942  2.3713  2.0413  1.3103
18662SOL    HW258942  10.580   7.237   7.876  2.6311  2.4579  1.8824
18663SOL     OW58943   9.036   4.928   4.550 -0.1764  0.3343  0.1632
18663SOL    HW158944   9.061   5.020   4.543 -0.0683  0.4777  1.9508
18663SOL    HW258945   9.051   4.892   4.463  0.4256  1.8478 -0.3866
18664SOL     OW58946   3.600   7.344   6.896 -0.1299 -0.6285 -0.1343
18664SOL    HW158947   3.613   7.439   6.908  2.1199 -0.3912 -3.1125
18664SOL    HW258948   3.635   7.305   6.976 -0.4599  1.0114  0.8680
18665SOL     OW58949   9.983   7.449   3.294  0.0503  0.3027  0.5038
18665SOL    HW158950  10.029   7.465   3.211 -3.2801 -0.7817 -1.7276
18665SOL    HW258951  10.005   7.525   3.348  0.8857  2.0318 -2.0732
18666SOL     OW58952   8.957   5.856   3.348 -0.1790  0.1027 -0.0881
18666SOL    HW158953   9.047   5.854   3.316 -0.5001  2.0082 -1.2823
18666SOL    HW258954   8.958   5.922   3.418 -0.7724  0.7909 -0.7007
18667SOL     OW58955   8.270   7.116   7.493  0.2254  0.4700 -0.3000
18667SOL    HW158956   8.343   7.060   7.519  1.0812  0.9940 -1.4390
18667SOL    HW258957   8.193   7.060   7.501  0.9679 -0.6713 -0.7456
18668SOL     OW58958   1.656   0.132   5.306 -0.1613  0.1853 -0.0102
18668SOL    HW158959   1.675   0.065   5.372 -1.3248  1.6002  1.8354
18668SOL    HW258960   1.594   0.090   5.246 -1.8965 -0.0572  1.8555
18669SOL     OW58961   7.838   8.980   7.388  0.1013 -0.4551 -0.3288
18669SOL    HW158962   7.921   9.011   7.351 -1.3620 -0.0238 -3.5554
18669SOL    HW258963   7.828   9.031   7.469  1.3386  2.0754 -1.6526
18670SOL     OW58964   7.914   3.565   9.550 -0.0124 -0.0857  0.4862
18670SOL    HW158965   7.883   3.653   9.571 -1.7343 -0.4656 -0.3109
18670SOL    HW258966   7.979   3.578   9.481 -1.4970  0.4710 -0.8552
18671SOL     OW58967   9.038   4.301   3.283 -0.4164 -0.3661 -0.3198
18671SOL    HW158968   9.056   4.379   3.335 -0.3883 -1.1159  0.8291
18671SOL    HW258969   9.119   4.250   3.286 -0.6094 -0.6995 -0.5943
18672SOL     OW58970   9.562   3.172  10.011  0.3581 -0.0347 -0.0678
18672SOL    HW158971   9.528   3.262  10.010 -0.3165 -0.2818 -0.7312
18672SOL    HW258972   9.517   3.129   9.938 -2.4272 -2.0572  2.5911
18673SOL     OW58973   3.640   9.066   1.876  0.5133 -0.0357  0.0586
18673SOL    HW158974   3.680   9.086   1.961 -0.1820  0.7863  0.2049
18673SOL    HW258975   3.563   9.122   1.872  0.2947 -0.3872 -0.9357
18674SOL     OW58976   0.606   1.234   2.938 -0.1170  0.3191  0.6779
18674SOL    HW158977   0.686   1.183   2.951 -0.6642 -0.2933  1.7319
18674SOL    HW258978   0.629   1.297   2.870  0.9189 -0.5956  0.1462
18675SOL     OW58979   2.964   7.056   8.075 -0.7205  0.4147  0.0594
18675SOL    HW158980   2.956   6.997   8.001  0.1973 -1.7628  1.6012
18675SOL    HW258981   3.058   7.069   8.086 -0.7817 -0.1730  1.4758
18676SOL     OW58982   9.837  10.102   4.408 -0.0780 -0.7751  0.3754
18676SOL    HW158983   9.926  10.137   4.400 -0.1750 -0.7036 -0.5490
18676SOL    HW258984   9.843  10.014   4.370 -0.4631 -0.6587  0.0374
18677SOL     OW58985   6.244   5.981   2.341 -0.0026 -0.6619  0.0329
18677SOL    HW158986   6.167   6.037   2.353 -0.2509 -0.8342 -0.7310
18677SOL    HW258987   6.248   5.965   2.247 -0.4971 -2.7073  0.3124
18678SOL     OW58988   2.979   0.576   6.218 -0.6274  0.7773  0.5896
18678SOL    HW158989   2.930   0.494   6.216 -2.0674  1.5538  1.8817
18678SOL    HW258990   2.920   0.638   6.261  0.8538  2.2085  0.6517
18679SOL     OW58991   6.091  10.141  10.648  0.6459 -0.0119  0.2068
18679SOL    HW158992   6.070  10.186  10.730 -1.3030 -1.6055  0.6531
18679SOL    HW258993   6.006  10.123  10.608  1.5175 -0.2845 -1.6471
18680SOL     OW58994   6.017   6.581   3.086  0.2727  0.5160 -0.0634
18680SOL    HW158995   5.937   6.575   3.034 -0.1301 -1.3949  0.6988
18680SOL    HW258996   5.993   6.634   3.162 -0.6863 -1.1066  0.8111
18681SOL     OW58997   1.911   8.036   2.634  0.7452 -0.5675 -0.6336
18681SOL    HW158998   1.921   8.112   2.576  4.0182 -1.4163 -1.3801
18681SOL    HW258999   1.960   7.966   2.591  0.0619 -2.3620  1.3277
18682SOL     OW59000   1.637   9.918   2.859 -0.3723  0.2146 -0.0140
18682SOL    HW159001   1.719   9.871   2.844  0.9492  2.6959 -1.2226
18682SOL    HW259002   1.586   9.904   2.779  0.2656  1.2294 -0.6207
18683SOL     OW59003   7.331   3.904   8.979 -0.1905 -0.0818  0.0125
18683SOL    HW159004   7.277   3.967   8.931  0.8850  1.6269  0.9548
18683SOL    HW259005   7.366   3.953   9.053  0.0873 -2.0177  1.2430
18684SOL     OW59006   5.610   5.730   9.501 -0.3720 -0.5288 -0.1760
18684SOL    HW159007   5.569   5.806   9.541  1.2667 -0.4889  1.5799
18684SOL    HW259008   5.687   5.765   9.455 -0.1973 -1.0084 -0.2553
18685SOL     OW59009   8.246   9.207   8.842 -0.3868  0.3854  0.0912
18685SOL    HW159010   8.174   9.148   8.862 -0.7213  1.7496  3.5427
18685SOL    HW259011   8.210   9.294   8.855  0.8081  1.3536 -2.3603
18686SOL     OW59012   7.289   4.424   1.807  0.5637  0.2789 -0.3881
18686SOL    HW159013   7.347   4.440   1.732  0.0113 -2.0279 -1.3787
18686SOL    HW259014   7.223   4.363   1.774  0.1847 -0.6663  1.9316
18687SOL     OW59015   0.955   8.249   1.379 -0.0672 -0.5030 -0.4589
18687SOL    HW159016   0.931   8.321   1.437  1.7869  1.4718 -1.9875
18687SOL    HW259017   0.873   8.205   1.359 -1.3184  1.4197  0.2181
18688SOL     OW59018   5.732   8.058   2.363 -0.6852  0.2074 -0.2729
18688SOL    HW159019   5.797   7.990   2.344 -0.6255 -0.0094  0.6482
18688SOL    HW259020   5.774   8.140   2.339 -0.0519  0.0710  0.3421
18689SOL     OW59021   4.634   5.111   9.400  0.1359  0.6731  0.6068
18689SOL    HW159022   4.622   5.125   9.306  3.7101  1.3744  0.1178
18689SOL    HW259023   4.674   5.024   9.406  0.4431  0.8594  1.4104
18690SOL     OW59024   0.159   7.114   3.702 -0.1561  0.7874  0.6819
18690SOL    HW159025   0.093   7.099   3.769 -1.2761  1.9027 -0.1310
18690SOL    HW259026   0.241   7.123   3.750 -0.4341 -1.2944  1.6667
18691SOL     OW59027   7.024   3.794   3.662 -0.3609 -0.1507  0.0137
18691SOL    HW159028   7.013   3.699   3.662  2.4150 -0.5912 -1.6028
18691SOL    HW259029   6.990   3.822   3.747 -1.6027 -2.4983  0.3919
18692SOL     OW59030   2.378   3.961   2.622  0.1562  0.2699  0.0743
18692SOL    HW159031   2.461   4.004   2.603  1.4024 -1.9489  0.1506
18692SOL    HW259032   2.343   3.938   2.536  0.9458 -1.0720  0.0788
18693SOL     OW59033   9.239   3.504   2.179 -0.3989  0.0233 -0.0946
18693SOL    HW159034   9.251   3.554   2.098  0.5227  0.8620  0.5319
18693SOL    HW259035   9.165   3.547   2.222 -1.1401 -0.6640 -0.6478
18694SOL     OW59036   9.607   8.604   0.381  0.2435 -0.0394 -0.1922
18694SOL    HW159037   9.647   8.586   0.466 -1.3820  0.2609  0.6613
18694SOL    HW259038   9.613   8.699   0.371 -0.1987 -0.0039 -0.1045
18695SOL     OW59039   6.840   5.262   5.266  0.0625  0.3632 -0.4439
18695SOL    HW159040   6.803   5.196   5.326  0.6054 -0.1867 -0.7022
18695SOL    HW259041   6.816   5.346   5.306  0.6481  0.0144  0.6988
18696SOL     OW59042   0.264   9.985   3.878  0.0402  0.0260 -0.3176
18696SOL    HW159043   0.236   9.894   3.867  0.4229 -0.2859  1.1596
18696SOL    HW259044   0.188  10.036   3.850 -0.1968 -0.7348 -1.1155
18697SOL     OW59045   0.844   0.190   6.889  0.3413  0.0938 -0.4621
18697SOL    HW159046   0.927   0.226   6.859  0.2005  0.0173 -0.9447
18697SOL    HW259047   0.827   0.116   6.831  1.9657 -2.5268  2.1248
18698SOL     OW59048   7.555   4.769   7.113  0.1313  0.3404  0.3912
18698SOL    HW159049   7.522   4.689   7.152 -1.7361  0.6669 -0.3995
18698SOL    HW259050   7.528   4.764   7.021  2.1855  0.7395 -0.2768
18699SOL     OW59051   5.086   7.834   4.022  0.0927 -0.1215  0.1171
18699SOL    HW159052   5.170   7.803   3.989  0.9529  2.7815 -0.7227
18699SOL    HW259053   5.037   7.859   3.944 -1.2997 -1.0414  0.6522
18700SOL     OW59054   9.956   3.817   8.741 -0.3341 -0.5596 -0.6907
18700SOL    HW159055  10.045   3.807   8.710  0.0665 -1.7522  0.7237
18700SOL    HW259056   9.955   3.904   8.783  0.5329 -1.0225  0.3494
18701SOL     OW59057   9.289   8.081   4.603 -0.1276 -0.4695  0.1603
18701SOL    HW159058   9.350   8.009   4.614 -0.0149 -0.0503  2.9876
18701SOL    HW259059   9.341   8.151   4.562  0.4879 -1.0621 -0.0753
18702SOL     OW59060   3.511   7.970   2.014 -0.1832 -0.0047  0.5883
18702SOL    HW159061   3.595   8.017   2.013  1.4074 -2.5917  1.0027
18702SOL    HW259062   3.506   7.927   1.929 -1.0580  0.0572  0.6010
18703SOL     OW59063   4.261   1.521   8.213  0.2811  0.1942 -0.3932
18703SOL    HW159064   4.324   1.559   8.152  0.3369  2.4678  0.9604
18703SOL    HW259065   4.313   1.501   8.291 -0.6058  2.1702  0.7730
18704SOL     OW59066   8.533   8.496   0.930  0.7337  0.0777  0.3093
18704SOL    HW159067   8.503   8.460   0.846  0.6480  0.0062  0.3708
18704SOL    HW259068   8.621   8.460   0.941  0.1010 -1.3219  1.0850
18705SOL     OW59069   2.430   9.479   0.314 -0.0947 -0.0991 -0.4458
18705SOL    HW159070   2.359   9.502   0.255 -1.4594 -2.1198  0.3276
18705SOL    HW259071   2.388   9.435   0.387  1.9436 -1.4292  0.0219
18706SOL     OW59072   2.400   1.968   9.974  0.1284 -0.1486  0.7636
18706SOL    HW159073   2.396   1.931  10.063  0.4218  0.3477  0.9871
18706SOL    HW259074   2.326   1.929   9.929 -0.8488  0.6395  1.6301
18707SOL     OW59075   6.342   5.091   8.779  0.1996 -0.3504  1.3985
18707SOL    HW159076   6.438   5.086   8.782  0.2642  0.5696  1.2557
18707SOL    HW259077   6.324   5.180   8.750 -0.7252 -0.0649  2.7881
18708SOL     OW59078  10.652  10.485   8.084  0.0120  0.2055 -0.7281
18708SOL    HW159079  10.571  10.455   8.042 -0.2500 -1.2214  0.6632
18708SOL    HW259080  10.716  10.490   8.014 -0.4948 -1.7307 -1.3999
18709SOL     OW59081   7.713  10.653   0.304  0.5981  0.9347  0.6195
18709SOL    HW159082   7.698  10.645   0.399  2.4071  0.0141  0.8646
18709SOL    HW259083   7.807  10.662   0.296  0.6994 -1.0335 -1.2152
18710SOL     OW59084   5.413   6.620  10.594 -0.3781 -0.2940 -0.1569
18710SOL    HW159085   5.357   6.694  10.617  2.9138  1.5622  2.7910
18710SOL    HW259086   5.451   6.645  10.510  0.8605  1.6101  0.9002
18711SOL     OW59087   3.458   3.957   1.757  0.3094  0.2918  0.1138
18711SOL    HW159088   3.378   3.988   1.799  0.2539  0.2989  0.0040
18711SOL    HW259089   3.440   3.965   1.663  0.2588 -0.1698  0.0856
18712SOL     OW59090   6.748   2.692   7.851 -0.1535  0.1872  0.1173
18712SOL    HW159091   6.795   2.674   7.932 -0.5376 -0.2757  0.2428
18712SOL    HW259092   6.674   2.630   7.852 -1.7358  1.9914  0.7374
18713SOL     OW59093   5.447   2.561   5.459  0.1630 -0.4672 -0.2521
18713SOL    HW159094   5.418   2.635   5.406 -2.8180 -0.1674  1.5540
18713SOL    HW259095   5.406   2.485   5.419 -1.8181 -0.2804  1.2370
18714SOL     OW59096   1.218   7.197   0.096  0.4180 -0.2657  0.7698
18714SOL    HW159097   1.125   7.188   0.116  0.5598 -1.6081  0.8839
18714SOL    HW259098   1.249   7.262   0.159 -0.4707  0.3494  0.5978
18715SOL     OW59099   0.029   6.741   0.239 -0.4390 -0.3750  0.0970
18715SOL    HW159100   0.041   6.742   0.144  1.0921 -3.5113  0.1175
18715SOL    HW259101  -0.043   6.679   0.254  0.5475 -1.3454  1.0010
18716SOL     OW59102   3.165   6.206   1.166 -0.2320  0.3819 -0.5645
18716SOL    HW159103   3.175   6.112   1.184  0.3724  0.1379 -2.0268
18716SOL    HW259104   3.254   6.240   1.171 -0.3510  0.7286 -0.8391
18717SOL     OW59105   0.869  10.508   6.470 -0.0003  0.3301  0.4358
18717SOL    HW159106   0.933  10.572   6.499 -1.0623  1.8526 -0.4268
18717SOL    HW259107   0.796  10.560   6.436 -0.3989 -1.3253 -1.4540
18718SOL     OW59108   3.570   5.569   5.134 -0.1922 -0.0938 -0.2625
18718SOL    HW159109   3.546   5.529   5.051  0.2401  0.3108 -0.5855
18718SOL    HW259110   3.660   5.599   5.122  0.6501 -1.8770  1.0277
18719SOL     OW59111   7.135   4.136   2.754  0.1421 -0.1922  0.1285
18719SOL    HW159112   7.054   4.086   2.746  0.5059 -0.6975 -0.5337
18719SOL    HW259113   7.107   4.225   2.774 -0.4809 -0.8346  2.2652
18720SOL     OW59114  10.260   9.643   3.298  0.0332  0.2002 -0.2127
18720SOL    HW159115  10.173   9.641   3.257 -0.1851 -0.2898  0.2586
18720SOL    HW259116  10.252   9.706   3.369  0.3838  0.9730 -0.8359
18721SOL     OW59117   0.479   4.608   7.499  0.0339  0.0123 -0.3988
18721SOL    HW159118   0.414   4.538   7.494 -0.2973  0.0675  1.8693
18721SOL    HW259119   0.563   4.562   7.504 -0.1842 -0.2959  1.1016
18722SOL     OW59120   5.149  10.074   8.331 -0.4094  0.2193  0.6670
18722SOL    HW159121   5.151  10.133   8.255 -0.1456 -0.5421  0.0649
18722SOL    HW259122   5.064  10.092   8.372 -0.3380  1.0086  0.4967
18723SOL     OW59123   1.591   6.711   3.358 -0.0223  0.0280 -0.0608
18723SOL    HW159124   1.642   6.691   3.279 -0.4625  0.8394 -0.5590
18723SOL    HW259125   1.535   6.635   3.370 -1.3561  0.6892 -1.6700
18724SOL     OW59126   2.578   6.734   1.268 -0.2669  0.5233 -0.4097
18724SOL    HW159127   2.614   6.783   1.342 -0.9918  0.1384  0.2073
18724SOL    HW259128   2.487   6.718   1.291 -0.5640  0.5653 -1.4823
18725SOL     OW59129   4.553   8.326   4.729 -0.2875 -0.6116 -1.2631
18725SOL    HW159130   4.578   8.321   4.821  2.7452 -0.5166 -1.9599
18725SOL    HW259131   4.481   8.389   4.726 -0.5554 -0.7365  1.0248
18726SOL     OW59132   5.307   3.270  10.528  0.2084  0.0956  0.5893
18726SOL    HW159133   5.386   3.316  10.554  2.2978 -0.7219 -3.4316
18726SOL    HW259134   5.253   3.338  10.487  1.5006 -0.1499 -1.7206
18727SOL     OW59135   1.303   8.423   7.297  0.4171 -0.1903  0.0427
18727SOL    HW159136   1.310   8.393   7.207  0.8616 -0.5098  0.1817
18727SOL    HW259137   1.240   8.495   7.294  0.4204 -0.2118 -0.5166
18728SOL     OW59138   6.998   0.068   3.965 -0.4792 -0.1749 -0.1041
18728SOL    HW159139   6.904   0.074   3.947 -0.3110  0.3090 -0.8402
18728SOL    HW259140   7.030   0.158   3.960  0.1862 -0.4361 -0.7725
18729SOL     OW59141   5.578   1.779   4.814  0.5871 -0.0138  0.3115
18729SOL    HW159142   5.673   1.791   4.817  0.6764  0.1966 -2.0165
18729SOL    HW259143   5.566   1.684   4.821  0.9481 -0.0316  0.7406
18730SOL     OW59144   5.210   8.693   0.190  0.0105  0.5080 -0.6943
18730SOL    HW159145   5.265   8.760   0.150  0.3048  0.9585  0.4175
18730SOL    HW259146   5.173   8.736   0.267  0.9168 -0.8496  0.5574
18731SOL     OW59147   5.178   4.757   7.822 -0.4739  0.5587 -0.2193
18731SOL    HW159148   5.111   4.793   7.764 -1.7095 -0.0848  0.7733
18731SOL    HW259149   5.193   4.826   7.887 -0.3056  0.6210 -0.3225
18732SOL     OW59150   5.390   7.352   6.356  0.6355  0.3332 -0.3773
18732SOL    HW159151   5.478   7.374   6.386 -0.4414  0.8863  2.7291
18732SOL    HW259152   5.381   7.258   6.373  0.7368  0.1748 -1.1364
18733SOL     OW59153   7.883   2.931   8.181  0.5915 -0.0187  0.0302
18733SOL    HW159154   7.884   2.954   8.273  0.7262 -1.6898  0.4792
18733SOL    HW259155   7.971   2.901   8.162  0.1606 -1.2090 -0.2002
18734SOL     OW59156   6.871   0.859   6.371 -0.3492  0.4269  0.3524
18734SOL    HW159157   6.821   0.896   6.298 -0.0198 -1.4540 -0.8789
18734SOL    HW259158   6.948   0.916   6.379 -0.9982  1.3720  0.0826
18735SOL     OW59159   4.156   0.122   1.700  0.3845  0.3312  0.0767
18735SOL    HW159160   4.217   0.129   1.627  2.2339  1.0288  1.5965
18735SOL    HW259161   4.085   0.182   1.678  1.8496  1.9931 -0.3098
18736SOL     OW59162   7.738   6.340  10.573  0.1556  0.0159 -0.1695
18736SOL    HW159163   7.709   6.378  10.490  2.3801  1.1958 -0.4923
18736SOL    HW259164   7.807   6.279  10.548  1.0144  0.5604  0.8074
18737SOL     OW59165   4.200   6.073   1.581  0.3572  0.6429 -0.3150
18737SOL    HW159166   4.209   5.999   1.521 -2.0420 -0.4367  0.5342
18737SOL    HW259167   4.116   6.113   1.557 -0.2803  0.6672  1.7561
18738SOL     OW59168   9.658   8.095   5.476 -0.5250 -0.5660  0.1580
18738SOL    HW159169   9.718   8.038   5.429  0.3811  0.8341 -0.4281
18738SOL    HW259170   9.712   8.166   5.510 -1.5552 -0.2513  1.2343
18739SOL     OW59171   5.766   9.950   4.977  0.1553  0.4133  0.5345
18739SOL    HW159172   5.747   9.999   5.057  1.8200  1.3201  0.4141
18739SOL    HW259173   5.716   9.996   4.908 -1.0929 -0.2314  0.9694
18740SOL     OW59174   9.207   5.382   5.345 -0.5374  0.2129 -0.4935
18740SOL    HW159175   9.292   5.359   5.383 -0.9298 -1.4713 -0.5933
18740SOL    HW259176   9.145   5.321   5.384 -1.3537  0.0319 -1.9939
18741SOL     OW59177   2.912   1.349   8.586  0.2374  0.1878  0.1192
18741SOL    HW159178   2.900   1.315   8.675 -1.0979 -1.0585 -0.5004
18741SOL    HW259179   2.995   1.312   8.557 -0.2482 -0.9832  0.1695
18742SOL     OW59180   5.259   6.838  10.640 -0.5283 -0.0826 -0.2327
18742SOL    HW159181   5.335   6.895  10.630  1.6049 -2.6485  0.2642
18742SOL    HW259182   5.205   6.881  10.707  0.8514  1.4190 -0.0287
18743SOL     OW59183   3.538   3.383   8.932 -0.1879 -0.4273  0.5993
18743SOL    HW159184   3.617   3.341   8.897 -0.8602 -0.1045 -1.4389
18743SOL    HW259185   3.570   3.462   8.975  0.6152 -0.0401 -0.6304
18744SOL     OW59186   6.171   9.547   2.276 -0.0340  0.0559  0.2917
18744SOL    HW159187   6.232   9.518   2.209 -0.0772 -0.6383  0.5414
18744SOL    HW259188   6.164   9.642   2.263  0.1589 -0.0308 -0.5080
18745SOL     OW59189   0.031   2.790   9.673  0.0399 -0.2295 -0.0526
18745SOL    HW159190   0.005   2.739   9.596  0.2065 -0.1383 -0.1690
18745SOL    HW259191  -0.000   2.879   9.654  0.2072 -0.1756 -0.0781
18746SOL     OW59192  10.523   5.817   7.457 -0.5618 -0.1399 -0.2850
18746SOL    HW159193  10.604   5.838   7.503 -0.8266  0.7295 -0.2141
18746SOL    HW259194  10.502   5.895   7.407 -0.6492 -0.8301 -1.3687
18747SOL     OW59195   4.058   2.745   1.595  0.0007  0.1646  0.2002
18747SOL    HW159196   4.056   2.727   1.501 -0.4883  1.6488 -0.1119
18747SOL    HW259197   4.092   2.835   1.601 -2.2963  1.0589  1.2254
18748SOL     OW59198   5.936   1.596   4.091 -0.1059 -0.6957  0.2403
18748SOL    HW159199   5.950   1.627   4.001  0.8399  0.4066  0.7337
18748SOL    HW259200   5.909   1.675   4.139  2.8185 -0.4110  1.6384
18749SOL     OW59201   2.169   5.937   5.885 -0.5814 -0.2055  0.1187
18749SOL    HW159202   2.201   6.004   5.945 -0.7142 -0.4063  0.4139
18749SOL    HW259203   2.132   5.869   5.941 -0.9764 -0.2565 -0.1982
18750SOL     OW59204   2.156   0.980   1.956  0.4669 -0.2042  0.2978
18750SOL    HW159205   2.182   1.030   2.033 -0.1886 -0.9440  1.0110
18750SOL    HW259206   2.183   0.890   1.975 -1.4378 -0.7661  0.5349
18751SOL     OW59207   8.354  10.335   5.054 -0.3868  0.3679  0.3840
18751SOL    HW159208   8.359  10.276   4.979  3.2241  1.9921 -0.8651
18751SOL    HW259209   8.376  10.279   5.129  0.3996 -0.4151 -0.4039
18752SOL     OW59210   4.498  10.057   9.659  0.2674  0.1450 -0.1711
18752SOL    HW159211   4.588  10.084   9.679  0.6200  0.5676 -2.0640
18752SOL    HW259212   4.464  10.126   9.603 -1.9136  0.8587  1.8764
18753SOL     OW59213   9.417   1.153  10.625 -1.0399 -0.3109 -0.3451
18753SOL    HW159214   9.378   1.212  10.690  0.7866  0.0910  0.4466
18753SOL    HW259215   9.499   1.196  10.599 -1.5477 -0.6317 -2.6998
18754SOL     OW59216   3.802   4.073   7.130  0.3366 -0.3650  0.1870
18754SOL    HW159217   3.833   3.984   7.146  2.0353 -0.3882 -2.5910
18754SOL    HW259218   3.715   4.062   7.093  0.4480 -0.8694  0.0660
18755SOL     OW59219   7.281   0.933   1.214  0.1928  0.3630  0.1686
18755SOL    HW159220   7.252   0.879   1.141 -0.2463 -0.5950  1.0176
18755SOL    HW259221   7.374   0.947   1.198 -0.2062  1.4557 -1.3480
18756SOL     OW59222   3.119   6.162   7.467  0.1696 -0.4926 -0.1261
18756SOL    HW159223   3.100   6.237   7.411  0.1345 -1.6582 -1.7217
18756SOL    HW259224   3.044   6.157   7.527  0.0417  0.5543 -0.1766
18757SOL     OW59225   5.223   5.539   0.658  0.1036 -0.1079  0.1847
18757SOL    HW159226   5.235   5.628   0.692 -0.6048  0.0248  0.0899
18757SOL    HW259227   5.135   5.538   0.622 -0.5152 -1.3011  1.6091
18758SOL     OW59228   5.587   9.908   3.125  0.4355 -0.0097 -0.1450
18758SOL    HW159229   5.661   9.937   3.071  1.5793  0.9349  1.8151
18758SOL    HW259230   5.576   9.978   3.190 -1.0493 -0.9554  0.6747
18759SOL     OW59231   9.224   7.245   0.953  0.1086 -0.1335  0.0276
18759SOL    HW159232   9.249   7.170   0.899 -0.4817 -0.5556  0.3274
18759SOL    HW259233   9.220   7.209   1.042  1.6930  0.6925  0.4745
18760SOL     OW59234   2.340   3.853   0.319 -0.5517  0.3083  0.3451
18760SOL    HW159235   2.358   3.940   0.286 -0.3261  0.7170  1.5079
18760SOL    HW259236   2.384   3.849   0.404  0.1581 -1.2309 -0.0493
18761SOL     OW59237   7.900   7.645   0.733 -0.4074  0.2066  0.1830
18761SOL    HW159238   7.809   7.618   0.736 -0.6470  1.0307  0.8340
18761SOL    HW259239   7.948   7.574   0.775 -0.5493 -0.9331 -1.5145
18762SOL     OW59240   8.679   8.916   4.970  0.1505  0.0096 -0.2491
18762SOL    HW159241   8.616   8.884   5.035  0.4410 -0.4043 -0.1666
18762SOL    HW259242   8.635   8.989   4.927 -0.1131  0.1732  0.2945
18763SOL     OW59243   4.951   6.501   9.625  0.5910 -0.3552  0.1146
18763SOL    HW159244   4.873   6.454   9.595 -0.5140  0.0313  2.2496
18763SOL    HW259245   5.021   6.436   9.620  0.0028 -0.9363 -1.0888
18764SOL     OW59246   9.821   2.643   9.115  0.7313  0.2873 -0.0721
18764SOL    HW159247   9.801   2.619   9.206 -0.3177  1.5029  0.0534
18764SOL    HW259248   9.755   2.596   9.064 -0.6058  1.8790  0.0833
18765SOL     OW59249   2.572   7.072   2.236 -0.3808  0.1505  0.0981
18765SOL    HW159250   2.641   7.114   2.287  0.8789 -0.9154 -0.6575
18765SOL    HW259251   2.573   6.981   2.264  0.4934 -0.5122 -1.9365
18766SOL     OW59252   8.103   8.268   7.845 -0.0547 -0.2308 -0.1824
18766SOL    HW159253   8.190   8.275   7.806  0.1995  0.5554  0.5075
18766SOL    HW259254   8.085   8.354   7.882 -0.8711 -0.5530  0.2118
18767SOL     OW59255   0.823   8.326   5.905 -0.2685  0.1416 -0.0408
18767SOL    HW159256   0.906   8.288   5.875  0.1176  1.8480 -1.2637
18767SOL    HW259257   0.756   8.262   5.878  0.2784  0.5891 -2.7928
18768SOL     OW59258   1.915   6.425   8.981 -0.1894  0.1726 -0.0280
18768SOL    HW159259   1.979   6.465   8.922 -1.4688  1.1258 -0.8101
18768SOL    HW259260   1.904   6.488   9.052  0.2158 -0.2938  0.4639
18769SOL     OW59261   9.248   7.998   6.155  0.1051 -0.2090  0.5211
18769SOL    HW159262   9.275   8.081   6.195 -0.4257  0.7358 -0.9910
18769SOL    HW259263   9.161   7.981   6.192 -0.0985  0.3117  0.2995
18770SOL     OW59264   2.085   8.106   0.733  0.1559 -0.1015  0.8889
18770SOL    HW159265   2.157   8.160   0.768 -2.2717  3.4795  0.8222
18770SOL    HW259266   2.117   8.076   0.648  2.7336 -1.4257  2.1938
18771SOL     OW59267   2.507   3.755  10.159 -0.5755  0.3901 -0.0974
18771SOL    HW159268   2.469   3.771  10.072 -1.2264  0.7690  0.2527
18771SOL    HW259269   2.598   3.731  10.141 -1.1248 -1.1468 -0.9936
18772SOL     OW59270   6.411   1.720   7.567  0.1817  0.5718 -0.1318
18772SOL    HW159271   6.434   1.759   7.651 -2.7553  2.7723 -0.1948
18772SOL    HW259272   6.476   1.754   7.506  0.4747  1.5426  0.7068
18773SOL     OW59273   2.871   0.045   6.968  0.0370  0.0055  0.1505
18773SOL    HW159274   2.837   0.003   7.047  1.5357  0.3337  1.0237
18773SOL    HW259275   2.900   0.131   6.998 -0.2933  0.5275 -0.9846
18774SOL     OW59276   0.751   6.761   9.974 -0.0152  0.9459  0.1100
18774SOL    HW159277   0.735   6.690  10.036 -0.6524  1.8648  1.0307
18774SOL    HW259278   0.757   6.718   9.889 -0.0012 -0.2447  0.6928
18775SOL     OW59279   6.678   3.397   5.443  0.4264  0.7045 -0.1708
18775SOL    HW159280   6.710   3.475   5.490 -0.4450  1.1879 -0.3567
18775SOL    HW259281   6.632   3.347   5.510  0.0350  0.9037 -0.2876
18776SOL     OW59282   8.594   9.277   4.663  0.0414 -0.0255 -0.1153
18776SOL    HW159283   8.656   9.253   4.594 -0.0062 -0.6363  0.0529
18776SOL    HW259284   8.569   9.367   4.642 -0.6424 -0.4810 -1.4199
18777SOL     OW59285   1.056   2.013   0.892  0.2323 -0.2935  0.0388
18777SOL    HW159286   1.075   2.107   0.901 -0.9506 -0.0723  0.3145
18777SOL    HW259287   0.961   2.008   0.886  0.3440 -1.3861 -1.1747
18778SOL     OW59288   8.811   5.514   0.721 -0.1994  0.1215  0.0986
18778SOL    HW159289   8.832   5.466   0.801  0.6016  1.8521  0.9661
18778SOL    HW259290   8.760   5.589   0.750 -1.2462 -0.0555 -1.2026
18779SOL     OW59291   7.069   1.847   4.125  0.2695  0.3727 -0.1575
18779SOL    HW159292   7.096   1.837   4.217  1.7196 -0.0219 -0.6011
18779SOL    HW259293   7.130   1.791   4.076  0.0400  1.2168 -1.4384
18780SOL     OW59294   1.843   9.284   7.628  0.3282  0.9344 -0.7589
18780SOL    HW159295   1.843   9.241   7.543 -0.5387 -0.6060 -0.0274
18780SOL    HW259296   1.933   9.315   7.640  0.6633  0.4325 -1.8511
18781SOL     OW59297  10.472   5.633   9.817 -0.1042 -0.3865  0.5644
18781SOL    HW159298  10.457   5.658   9.725  1.3567 -0.1270  0.3664
18781SOL    HW259299  10.532   5.701   9.850  0.8430 -1.4827  1.1625
18782SOL     OW59300   6.965   6.082   3.348 -0.0473 -0.1048  0.3065
18782SOL    HW159301   7.006   6.117   3.269  1.1058 -0.9987  0.4766
18782SOL    HW259302   6.997   6.138   3.418 -1.5604  1.0739  0.1003
18783SOL     OW59303   8.468   6.373   9.557  0.1554 -0.4276 -0.1486
18783SOL    HW159304   8.563   6.384   9.559  0.3480 -1.8319  1.4775
18783SOL    HW259305   8.436   6.420   9.634 -0.0411 -2.5765  1.1928
18784SOL     OW59306   2.552   5.843   5.288 -0.1541  0.7017  0.3352
18784SOL    HW159307   2.500   5.779   5.240  0.4397 -0.4161  1.1271
18784SOL    HW259308   2.614   5.878   5.225  0.1852 -0.2618  0.1297
18785SOL     OW59309   9.182   8.104   0.269 -0.1306  0.1427  0.0280
18785SOL    HW159310   9.147   8.087   0.357  1.4240  1.0209  0.8639
18785SOL    HW259311   9.206   8.017   0.236 -0.9442 -0.2242  0.3585
18786SOL     OW59312   7.124   2.873   5.112 -0.0395 -0.2003  0.0462
18786SOL    HW159313   7.180   2.880   5.189 -0.7185 -2.9326  0.8873
18786SOL    HW259314   7.183   2.849   5.041  0.4327  1.3199 -0.1217
18787SOL     OW59315   9.439   7.893   5.202  0.3154  0.0793 -0.0528
18787SOL    HW159316   9.525   7.899   5.161  1.3665 -0.3962  1.9113
18787SOL    HW259317   9.434   7.970   5.259 -0.4852  0.0113 -0.0222
18788SOL     OW59318   1.856   6.006   0.755  0.3127  0.0127 -0.2525
18788SOL    HW159319   1.835   5.959   0.674  0.2115  0.2911 -0.3923
18788SOL    HW259320   1.778   6.060   0.772 -0.0325 -0.7134  0.5269
18789SOL     OW59321   9.872   6.573   8.997 -0.0170  0.1106 -0.1461
18789SOL    HW159322   9.815   6.630   9.048 -0.5028  1.0233 -1.6630
18789SOL    HW259323   9.954   6.622   8.988  0.4871 -0.5481  0.7289
18790SOL     OW59324   0.266   0.159   6.033  0.0605 -0.0019 -0.7750
18790SOL    HW159325   0.344   0.212   6.015  0.7043 -0.8554 -0.5653
18790SOL    HW259326   0.292   0.069   6.011 -0.2410 -0.5745  1.0323
18791SOL     OW59327   9.818   9.929   0.665  1.0054 -0.3161 -0.4191
18791SOL    HW159328   9.810   9.919   0.760  0.7845 -2.2856 -0.5983
18791SOL    HW259329   9.779  10.015   0.646 -1.2469 -0.9444  1.0026
18792SOL     OW59330   2.628   2.929   4.470  0.1630  0.0833 -0.0461
18792SOL    HW159331   2.673   3.001   4.426  0.7042 -1.5989 -2.4568
18792SOL    HW259332   2.536   2.942   4.449  0.1332  0.6216  0.4013
18793SOL     OW59333   4.263   6.861   5.466  0.4600  0.2568  0.0347
18793SOL    HW159334   4.221   6.904   5.540  3.0764  0.7727  1.3673
18793SOL    HW259335   4.232   6.771   5.469 -1.7057  0.9364 -0.0860
18794SOL     OW59336   3.434   5.617   3.436 -0.2807  0.3836  0.1609
18794SOL    HW159337   3.377   5.545   3.409 -0.2418  0.7032 -0.8143
18794SOL    HW259338   3.522   5.580   3.435 -0.2702  0.4125 -0.2589
18795SOL     OW59339   8.791   5.951   0.455 -0.0911 -0.3277 -0.2868
18795SOL    HW159340   8.847   5.898   0.512 -0.0874 -0.6849 -0.6162
18795SOL    HW259341   8.851   6.013   0.414 -0.0009 -0.4380 -0.3252
18796SOL     OW59342   7.794   4.602  10.626 -0.0605 -0.3666  0.4997
18796SOL    HW159343   7.776   4.686  10.669  0.5096 -0.3437  0.7036
18796SOL    HW259344   7.763   4.614  10.537 -1.3218 -0.4324  0.9009
18797SOL     OW59345   7.960   0.264   5.879  0.0040  0.0095  0.5703
18797SOL    HW159346   8.010   0.233   5.954  0.4955 -1.8661 -0.4562
18797SOL    HW259347   7.869   0.242   5.899  0.2438 -1.4183  0.2535
18798SOL     OW59348   1.423   1.850   8.318  0.0755 -0.4336 -0.6889
18798SOL    HW159349   1.331   1.856   8.291 -0.7149 -0.5527  1.7821
18798SOL    HW259350   1.465   1.923   8.272 -1.2737 -0.2631 -1.7433
18799SOL     OW59351   5.362   3.581   3.394  0.1173 -0.0141  0.2017
18799SOL    HW159352   5.454   3.563   3.379  0.0691  0.4102 -0.6628
18799SOL    HW259353   5.357   3.676   3.399 -0.2379 -0.0462  0.4787
18800SOL     OW59354   6.942   1.127   4.891  0.0110 -0.2836 -0.1255
18800SOL    HW159355   6.865   1.072   4.903  0.2468 -0.7422 -0.7067
18800SOL    HW259356   6.985   1.127   4.977  0.2282 -1.3359 -0.2297
18801SOL     OW59357   1.041   4.083   4.639  0.5376 -0.2188 -0.1367
18801SOL    HW159358   1.046   4.078   4.544 -0.1984  1.9046 -0.3565
18801SOL    HW259359   0.990   4.007   4.665  0.7090 -0.7968 -1.4377
18802SOL     OW59360   0.857   4.948   7.344  0.4555 -0.4170  0.2869
18802SOL    HW159361   0.772   4.966   7.304  0.5122 -1.9351 -0.5857
18802SOL    HW259362   0.837   4.921   7.434 -0.0282 -1.2723 -0.0757
18803SOL     OW59363   7.796   8.798   9.122 -0.6142  0.2943 -0.4856
18803SOL    HW159364   7.711   8.754   9.116  0.7042 -2.2520 -2.5618
18803SOL    HW259365   7.798   8.835   9.211 -2.3999 -2.8676  1.0466
18804SOL     OW59366   0.730   9.921   0.352 -0.3751 -0.5132  0.0903
18804SOL    HW159367   0.688   9.842   0.320 -2.4730  0.9911 -1.1495
18804SOL    HW259368   0.662   9.988   0.348  1.2089  1.3107  1.3778
18805SOL     OW59369   8.187   5.197   2.641 -0.1631  0.0952  0.4539
18805SOL    HW159370   8.170   5.264   2.575 -0.7687 -0.8782 -0.4116
18805SOL    HW259371   8.099   5.166   2.665  0.1629 -1.6625 -0.5239
18806SOL     OW59372  10.271   9.070   8.960 -0.3950  0.4294 -0.1612
18806SOL    HW159373  10.252   8.976   8.953  0.6787  0.3067 -1.8939
18806SOL    HW259374  10.253   9.091   9.052  0.1844 -1.6586  0.4830
18807SOL     OW59375  10.109   1.839   6.317 -0.5315  0.0731  0.5006
18807SOL    HW159376  10.133   1.755   6.357 -1.2001 -0.8849 -1.0073
18807SOL    HW259377  10.139   1.832   6.227 -1.5011  1.0517  0.0755
18808SOL     OW59378   9.061   5.317   6.697  0.4026  0.0201 -0.1365
18808SOL    HW159379   9.144   5.291   6.657  1.5324  0.9280  1.5042
18808SOL    HW259380   9.010   5.237   6.702  1.4678 -0.6981 -0.5357
18809SOL     OW59381   4.002  10.487  10.120  0.6114  0.2059  0.3374
18809SOL    HW159382   4.067  10.530  10.175  1.4282 -1.4229  0.6866
18809SOL    HW259383   3.927  10.473  10.177  1.0536 -0.5173  0.7425
18810SOL     OW59384   3.818   4.860   6.035  0.1668  0.0221  0.2839
18810SOL    HW159385   3.875   4.931   6.006  0.4594 -0.3313 -0.0199
18810SOL    HW259386   3.859   4.827   6.115 -0.0452  0.2880  0.5009
18811SOL     OW59387   5.494   2.035   4.784 -0.3435 -0.6401 -0.4493
18811SOL    HW159388   5.494   2.070   4.873 -2.0288  0.7826 -0.9602
18811SOL    HW259389   5.513   1.942   4.794  0.5949 -0.2963  1.2798
18812SOL     OW59390   5.162   8.504   2.528 -0.4399  0.2105  0.4031
18812SOL    HW159391   5.148   8.531   2.619  0.1066  0.7692  0.3284
18812SOL    HW259392   5.073   8.495   2.492 -0.6597 -0.3319  1.0780
18813SOL     OW59393   8.906   7.472   8.902 -0.6034 -0.0583  0.2270
18813SOL    HW159394   8.927   7.475   8.996  0.9101  2.4216 -0.0946
18813SOL    HW259395   8.852   7.549   8.887 -1.0816 -0.5953 -0.9225
18814SOL     OW59396   9.221   8.101   1.960 -0.9264  0.3107 -0.3612
18814SOL    HW159397   9.250   8.191   1.970 -1.0645  0.5502 -1.7977
18814SOL    HW259398   9.241   8.059   2.043 -1.6723  1.8876  0.6513
18815SOL     OW59399   2.889   0.965   3.844 -0.0356  0.6889 -0.3930
18815SOL    HW159400   2.978   0.968   3.809  1.3062  0.8484  2.6833
18815SOL    HW259401   2.900   0.931   3.933 -2.8798  2.1385  0.6260
18816SOL     OW59402   8.250   9.463   1.893 -0.1527 -0.3173 -0.2065
18816SOL    HW159403   8.252   9.415   1.976 -0.0177 -0.6631 -0.4042
18816SOL    HW259404   8.289   9.402   1.830 -1.5133 -0.5876 -0.8029
18817SOL     OW59405   8.337   8.805   5.018 -0.5543  0.0677  0.3669
18817SOL    HW159406   8.337   8.827   5.111 -2.0398 -0.6017  0.5521
18817SOL    HW259407   8.313   8.887   4.974 -2.2419 -0.1828  0.7688
18818SOL     OW59408   8.702   3.676   4.414 -0.4987  0.2994 -0.1625
18818SOL    HW159409   8.634   3.612   4.396 -0.5708 -0.2163  1.7672
18818SOL    HW259410   8.783   3.626   4.417 -0.3156  0.5774 -0.3559
18819SOL     OW59411   8.976   5.640   1.563  0.6896  0.4329 -0.1033
18819SOL    HW159412   8.940   5.727   1.546  0.5471  0.2341 -0.8524
18819SOL    HW259413   8.909   5.579   1.531  0.1653  0.0086  1.6736
18820SOL     OW59414   6.118   8.409   2.681  0.2064 -0.2925 -0.1002
18820SOL    HW159415   6.044   8.349   2.687 -0.6015  0.8029  1.5586
18820SOL    HW259416   6.091   8.486   2.730  2.2809  0.3232  0.1907
18821SOL     OW59417   5.747   4.942   5.834 -0.3141 -0.4009  0.1144
18821SOL    HW159418   5.710   4.935   5.922  0.2260 -0.2110  0.3615
18821SOL    HW259419   5.675   4.919   5.776 -0.8167 -0.0629  0.5857
18822SOL     OW59420   1.796   7.541   2.620  0.3780 -0.1464  0.5006
18822SOL    HW159421   1.832   7.542   2.531 -0.5357 -2.1148  0.0502
18822SOL    HW259422   1.720   7.600   2.616  0.1031 -0.5413 -0.1344
18823SOL     OW59423   7.249   0.958   3.139  0.3032 -0.2856  0.1449
18823SOL    HW159424   7.180   0.977   3.202  2.0818 -0.4208  2.2523
18823SOL    HW259425   7.329   0.951   3.192  1.4555 -3.2872 -1.7497
18824SOL     OW59426   8.653   3.063   3.604  0.1239 -0.0450 -0.2866
18824SOL    HW159427   8.630   3.097   3.690 -0.3182  0.7865 -0.7129
18824SOL    HW259428   8.600   3.115   3.543  0.7455 -0.3200 -1.0809
18825SOL     OW59429   2.830   7.072   8.341  0.4513 -0.2263 -0.2928
18825SOL    HW159430   2.738   7.060   8.362 -0.0128  3.1351  0.0652
18825SOL    HW259431   2.831   7.108   8.253  1.1473  2.3534  0.6883
18826SOL     OW59432  10.219  10.606   1.315 -0.2412 -0.6697 -0.4225
18826SOL    HW159433  10.229  10.514   1.291 -0.6949 -0.6635 -0.6525
18826SOL    HW259434  10.299  10.648   1.285 -0.3197 -0.8702 -0.9110
18827SOL     OW59435   4.030   1.660   8.257  0.8185 -0.2343  0.1309
18827SOL    HW159436   4.102   1.601   8.237  2.0843  0.5298  2.0923
18827SOL    HW259437   4.070   1.747   8.261 -0.7695  0.6458 -1.5003
18828SOL     OW59438   8.769   0.660   8.667 -0.1692 -0.0484  0.7246
18828SOL    HW159439   8.725   0.731   8.713  1.4012 -0.0243  2.3076
18828SOL    HW259440   8.855   0.697   8.643 -0.2844 -0.6341 -0.6910
18829SOL     OW59441   5.739   2.254   0.625 -0.2208 -0.7562  0.4250
18829SOL    HW159442   5.783   2.332   0.592 -0.5538 -0.3358  0.9736
18829SOL    HW259443   5.794   2.181   0.596 -0.2284 -0.3695 -0.6187
18830SOL     OW59444   6.917   3.213   1.684 -0.3177 -0.0568 -0.1944
18830SOL    HW159445   6.950   3.236   1.597 -0.0290 -1.9047 -0.6151
18830SOL    HW259446   6.946   3.123   1.698 -2.8623 -0.8573  0.5619
18831SOL     OW59447   2.033   2.903   0.060  0.3442 -0.9935 -0.2015
18831SOL    HW159448   2.050   2.868  -0.027 -1.5497  0.7052 -1.3380
18831SOL    HW259449   1.952   2.862   0.088  0.8943 -1.4689  0.7729
18832SOL     OW59450   4.920   7.259   5.376  0.2456  0.0216  0.4029
18832SOL    HW159451   4.995   7.211   5.341  0.4995 -0.1966  1.2239
18832SOL    HW259452   4.957   7.318   5.441  0.0409  1.9159 -1.0968
18833SOL     OW59453   7.156  10.078   2.960  0.2611  0.3039  0.5717
18833SOL    HW159454   7.180   9.991   2.927 -2.1696 -0.1790 -0.1651
18833SOL    HW259455   7.238  10.127   2.959  1.3648 -1.4094 -0.8110
18834SOL     OW59456   2.960   4.051   2.803 -0.1523 -0.2748 -0.7594
18834SOL    HW159457   2.996   4.139   2.809 -2.6173  0.7625  0.0630
18834SOL    HW259458   2.918   4.048   2.716  1.2705 -1.2354 -1.4480
18835SOL     OW59459   6.974   9.006   4.121  0.2683  0.7494 -0.2654
18835SOL    HW159460   7.040   8.952   4.078  0.8542  2.3508 -1.5056
18835SOL    HW259461   6.890   8.973   4.088  0.4105 -1.1038  1.0917
18836SOL     OW59462   3.307   4.971   5.422  0.1994 -0.0622 -0.2447
18836SOL    HW159463   3.247   4.904   5.390  1.2601 -1.7358  1.0716
18836SOL    HW259464   3.308   5.038   5.354 -1.1696 -1.2204 -1.4577
18837SOL     OW59465   4.855   0.825   4.701 -0.6172  0.0273 -0.8528
18837SOL    HW159466   4.924   0.783   4.649  0.0319  0.0157 -0.0068
18837SOL    HW259467   4.793   0.755   4.721  1.2747 -1.0539  1.9432
18838SOL     OW59468   4.627   3.759   9.369 -0.0631  0.1371  0.5030
18838SOL    HW159469   4.657   3.847   9.390 -1.6048  1.0421 -0.7454
18838SOL    HW259470   4.549   3.746   9.424  0.0580 -0.3802  0.5601
18839SOL     OW59471  10.164   9.719   8.912  0.0583 -0.1806  0.2157
18839SOL    HW159472  10.141   9.730   9.005  0.7213 -3.0841  0.8159
18839SOL    HW259473  10.118   9.640   8.885  2.3444 -1.1757 -1.0187
18840SOL     OW59474   1.936   0.436   6.590 -0.0503 -0.4247  0.4400
18840SOL    HW159475   1.954   0.370   6.657  0.8465  0.1390  0.7728
18840SOL    HW259476   1.853   0.476   6.617  0.1382 -0.4274  1.0342
18841SOL     OW59477   5.648   0.338   9.257 -0.2312  0.3019 -0.3281
18841SOL    HW159478   5.649   0.299   9.345  0.0586  0.1232 -0.4082
18841SOL    HW259479   5.738   0.330   9.226 -0.4261 -0.0530 -0.8214
18842SOL     OW59480   8.714   6.988   2.574 -0.6933  0.7205 -0.0334
18842SOL    HW159481   8.638   6.953   2.621 -1.1057  1.1684 -0.3588
18842SOL    HW259482   8.787   6.975   2.634 -1.0289  0.2960  0.2912
18843SOL     OW59483   2.305   9.335   0.513  0.3078  0.4009 -0.5767
18843SOL    HW159484   2.278   9.252   0.475  0.3642  0.0087  0.2162
18843SOL    HW259485   2.232   9.360   0.570  1.4006 -0.4957  1.3236
18844SOL     OW59486  10.233   1.489   1.386  0.0517 -0.0889  0.0992
18844SOL    HW159487  10.149   1.463   1.425  0.0256 -1.4128 -0.8071
18844SOL    HW259488  10.299   1.445   1.439  0.1972  0.8615  0.7407
18845SOL     OW59489   4.971   9.283   5.318  0.4216 -0.0742 -0.1530
18845SOL    HW159490   4.888   9.250   5.281 -0.7202  0.7591  1.5352
18845SOL    HW259491   4.976   9.242   5.404  2.0532 -0.4858 -0.4213
18846SOL     OW59492   0.453   5.625   5.656  0.1569 -0.5704 -0.7214
18846SOL    HW159493   0.417   5.545   5.694  0.7433 -0.9851 -1.0122
18846SOL    HW259494   0.413   5.629   5.569  0.9273 -1.1297 -1.1151
18847SOL     OW59495   3.415   3.922   7.675 -0.2052  0.0169  0.0268
18847SOL    HW159496   3.324   3.941   7.652 -0.4292  0.3799  1.1913
18847SOL    HW259497   3.418   3.928   7.770  0.7180 -1.4206  0.1237
18848SOL     OW59498   1.930   2.069   5.784  1.0136  0.1130  0.7018
18848SOL    HW159499   1.854   2.100   5.833  0.0206  0.6402 -1.0755
18848SOL    HW259500   1.921   2.110   5.697  2.0429 -1.7024 -0.3187
18849SOL     OW59501   9.642   7.082   9.313 -0.5790  0.9587  0.3857
18849SOL    HW159502   9.575   7.055   9.251  0.1988  0.2990 -0.1867
18849SOL    HW259503   9.613   7.045   9.397 -0.8771  0.5940  0.1278
18850SOL     OW59504   0.148   0.156   3.101  0.0549 -0.6476 -0.1268
18850SOL    HW159505   0.155   0.250   3.118  0.2694 -1.1487  3.1979
18850SOL    HW259506   0.237   0.130   3.075  0.2707 -0.0927  0.0329
18851SOL     OW59507   0.076   4.377   7.552  0.3720 -0.0393  0.3717
18851SOL    HW159508   0.143   4.389   7.485  0.5008  1.1300  0.6874
18851SOL    HW259509   0.068   4.462   7.594  1.0065 -0.9605  2.5166
18852SOL     OW59510   2.522   3.216   3.985 -0.0230  0.2657  0.3826
18852SOL    HW159511   2.582   3.244   3.916 -0.9602 -0.2117 -0.6457
18852SOL    HW259512   2.450   3.174   3.939  0.0622 -1.4858  1.7375
18853SOL     OW59513   4.379   4.072   7.622  0.5562  0.1977  0.6297
18853SOL    HW159514   4.311   4.134   7.647  0.2640 -0.2637  0.9745
18853SOL    HW259515   4.344   3.986   7.645  1.1753 -0.0578  0.6403
18854SOL     OW59516   7.719   3.824   8.715 -0.6798 -0.7143 -0.1212
18854SOL    HW159517   7.670   3.743   8.730 -1.4222 -0.9295 -3.1576
18854SOL    HW259518   7.653   3.888   8.689 -0.1696  1.1242  2.6111
18855SOL     OW59519   2.393   0.906   6.354  0.2757 -0.3943  0.0241
18855SOL    HW159520   2.301   0.931   6.367 -0.0507 -1.1114 -0.8801
18855SOL    HW259521   2.392   0.811   6.347  1.2694 -0.5411  1.3487
18856SOL     OW59522   2.910   5.844   2.720  0.1450 -0.4218 -0.3358
18856SOL    HW159523   2.870   5.916   2.671 -0.1164 -0.1996  0.1969
18856SOL    HW259524   2.838   5.782   2.733 -0.4402  0.6171  1.8527
18857SOL     OW59525   1.331   7.512   9.685  0.7255 -0.6147 -0.2776
18857SOL    HW159526   1.420   7.503   9.652  0.9090 -1.1772  0.3644
18857SOL    HW259527   1.341   7.525   9.779  0.2489  1.8392 -0.4776
18858SOL     OW59528   2.009   8.876   7.716 -0.0535  0.2044 -0.0268
18858SOL    HW159529   1.952   8.938   7.761  0.2890  0.9115 -0.5418
18858SOL    HW259530   1.974   8.790   7.739 -2.4260  0.6157 -1.6885
18859SOL     OW59531   9.275   2.086   3.928 -0.0284 -0.1562  0.0251
18859SOL    HW159532   9.329   2.032   3.986  1.3243  0.5551 -0.5250
18859SOL    HW259533   9.300   2.176   3.949 -1.4505  0.2358  0.1556
18860SOL     OW59534   7.331   1.150  10.444  0.2461  0.1072 -0.7151
18860SOL    HW159535   7.341   1.155  10.539 -0.9444 -0.1230 -0.5611
18860SOL    HW259536   7.249   1.102  10.431  0.1006  0.6230 -1.8451
18861SOL     OW59537   9.501   6.834   6.298 -0.8364 -0.1654  0.6100
18861SOL    HW159538   9.431   6.896   6.278  0.1742  0.4036 -1.4875
18861SOL    HW259539   9.494   6.768   6.228 -1.3293 -1.9797  2.2884
18862SOL     OW59540   1.073   5.059   1.085 -0.8067  0.2331  0.0024
18862SOL    HW159541   1.086   5.127   1.019  0.7703 -0.9293 -0.9564
18862SOL    HW259542   0.979   5.057   1.099 -1.0530  1.3779 -1.2873
18863SOL     OW59543   2.476   7.557   2.873  0.4988  0.6003 -0.0387
18863SOL    HW159544   2.414   7.537   2.802  1.1028  0.0506 -0.4234
18863SOL    HW259545   2.490   7.473   2.917  1.8455  0.4562 -0.6795
18864SOL     OW59546   4.880   6.671   8.087 -0.3687 -0.5643 -0.5358
18864SOL    HW159547   4.817   6.665   8.014 -1.1457 -2.5883  0.2444
18864SOL    HW259548   4.891   6.581   8.116  2.0558 -0.1131  0.1167
18865SOL     OW59549   0.892   9.061   0.217  0.2959  0.1060 -0.6534
18865SOL    HW159550   0.912   8.968   0.231 -0.4055 -0.2385 -1.8171
18865SOL    HW259551   0.933   9.082   0.133 -0.1519  0.6499 -0.7394
18866SOL     OW59552   7.845   8.930   6.539 -0.0248 -0.0194  0.4257
18866SOL    HW159553   7.853   8.952   6.446 -1.2879 -0.6289  0.1612
18866SOL    HW259554   7.774   8.986   6.571 -0.4778 -0.7514  0.7136
18867SOL     OW59555   7.248   2.390   9.718  0.1203 -0.5852  0.6974
18867SOL    HW159556   7.173   2.414   9.772 -0.1133 -3.1184  1.6631
18867SOL    HW259557   7.264   2.298   9.739  0.7621 -1.3931 -2.7109
18868SOL     OW59558   1.080   7.097   4.358  0.0846  0.9077  0.3281
18868SOL    HW159559   1.054   7.112   4.449  0.3100 -0.0229  0.5544
18868SOL    HW259560   1.134   7.172   4.336 -0.8792  1.7013  0.5968
18869SOL     OW59561  10.439   7.107   0.866 -0.5685  0.2000  1.0939
18869SOL    HW159562  10.367   7.083   0.808 -0.2199  1.5063  0.0654
18869SOL    HW259563  10.510   7.045   0.844 -0.0270  1.3865 -0.7849
18870SOL     OW59564   2.129   3.157   9.996  0.5959  0.0886  0.5134
18870SOL    HW159565   2.129   3.077   9.944 -1.0365 -0.7924  1.8003
18870SOL    HW259566   2.104   3.226   9.934  1.3917 -0.4645 -0.4575
18871SOL     OW59567   8.355   5.192   1.669  0.0790  0.2765  0.0556
18871SOL    HW159568   8.397   5.110   1.696 -1.2823 -0.4472  0.0791
18871SOL    HW259569   8.398   5.259   1.722  0.3851 -0.5915  0.9464
18872SOL     OW59570   3.852   7.981   2.696  0.2115 -0.2580 -0.1467
18872SOL    HW159571   3.778   7.921   2.706  1.2123 -1.5227 -0.0118
18872SOL    HW259572   3.922   7.926   2.660  1.0253  0.9587 -0.4795
18873SOL     OW59573   8.010  10.012  10.095 -0.0619  0.9111  0.3032
18873SOL    HW159574   8.013  10.023  10.000 -1.2884  0.5261  0.1924
18873SOL    HW259575   7.949   9.939  10.108  0.2028  0.8720  1.3784
18874SOL     OW59576   5.751   1.939   1.086  0.4098  0.2798 -0.1869
18874SOL    HW159577   5.820   1.979   1.139  0.1998  0.3768  0.0186
18874SOL    HW259578   5.675   1.996   1.100 -0.5928 -1.4594  2.0224
18875SOL     OW59579   8.037   0.023   3.129 -0.0815 -0.0720 -0.0995
18875SOL    HW159580   8.038   0.084   3.055 -0.8946  2.2866  1.7265
18875SOL    HW259581   7.960  -0.032   3.114 -0.9155  1.1559 -0.4397
18876SOL     OW59582   7.189   7.277   2.226 -0.6297 -0.2847  0.3694
18876SOL    HW159583   7.152   7.201   2.182 -2.5900  0.1749  1.0935
18876SOL    HW259584   7.169   7.350   2.167  0.8331 -0.2378 -0.1054
18877SOL     OW59585   3.350   9.909   0.169  0.4449  0.2150  0.2237
18877SOL    HW159586   3.358  10.004   0.181  0.1944  0.2223  0.3495
18877SOL    HW259587   3.438   9.875   0.182  0.3598  0.3300  1.1084
18878SOL     OW59588   7.760   3.428   8.587 -0.0633 -0.8756 -0.2186
18878SOL    HW159589   7.779   3.512   8.545 -0.0781 -0.4209  0.6635
18878SOL    HW259590   7.751   3.449   8.680 -1.6187 -1.6106 -0.1746
18879SOL     OW59591   1.659   3.219   0.757 -0.2287  0.2813 -0.1894
18879SOL    HW159592   1.742   3.239   0.714 -0.6760  1.4486 -0.5712
18879SOL    HW259593   1.675   3.139   0.806  0.8366 -0.0511 -1.0433
18880SOL     OW59594   5.829   1.032   9.920 -0.7008 -0.4094  0.3672
18880SOL    HW159595   5.842   1.004  10.011 -0.4611  0.3675  0.5874
18880SOL    HW259596   5.909   1.008   9.875 -0.9829 -1.1715  0.2539
18881SOL     OW59597   2.426   3.153   9.299  0.4008 -0.1784  0.2043
18881SOL    HW159598   2.396   3.215   9.232  0.9493  0.0771  0.1861
18881SOL    HW259599   2.360   3.084   9.300  0.8763 -0.7008 -1.3059
18882SOL     OW59600   6.539  10.587   1.392 -0.0021 -0.7182  0.6775
18882SOL    HW159601   6.444  10.580   1.390 -0.3584  2.4843  0.2277
18882SOL    HW259602   6.568  10.557   1.306 -1.0662  1.7987 -0.6499
18883SOL     OW59603   8.265   3.251   3.832 -0.2410  0.2364  0.1745
18883SOL    HW159604   8.270   3.339   3.870 -2.0898  1.4627 -2.0891
18883SOL    HW259605   8.226   3.265   3.746  1.2916 -2.6236 -1.1165
18884SOL     OW59606   7.647   6.167   7.819  0.0360 -0.2046 -0.5420
18884SOL    HW159607   7.587   6.127   7.755 -0.1036  0.3225 -0.7413
18884SOL    HW259608   7.694   6.234   7.770  2.4712 -2.1233 -0.9881
18885SOL     OW59609   6.244   0.663   4.444  0.0832 -0.0936 -0.5937
18885SOL    HW159610   6.312   0.695   4.503 -0.4927 -0.8005  0.4880
18885SOL    HW259611   6.212   0.742   4.399  1.5299  0.2515 -1.0520
18886SOL     OW59612   5.346   1.613  10.206  0.1546 -0.1199  0.6199
18886SOL    HW159613   5.441   1.624  10.214  0.0724  1.3347 -0.0908
18886SOL    HW259614   5.330   1.619  10.112 -0.2984 -3.8720  0.2795
18887SOL     OW59615   2.447   5.253   2.143 -0.1206 -0.4198 -0.3780
18887SOL    HW159616   2.445   5.245   2.238 -1.6081 -2.3245 -0.5039
18887SOL    HW259617   2.530   5.297   2.124 -0.4251  1.3036  1.8351
18888SOL     OW59618   8.789   0.469   2.067  0.1292 -0.0080 -0.0513
18888SOL    HW159619   8.780   0.395   2.008  0.1269  0.7072 -0.9625
18888SOL    HW259620   8.738   0.444   2.145 -1.3974 -0.2209 -1.0694
18889SOL     OW59621  10.453   8.338   5.256 -0.0784 -0.2698 -0.0886
18889SOL    HW159622  10.413   8.416   5.217 -1.2995  0.1366  1.8304
18889SOL    HW259623  10.397   8.266   5.228 -1.6007  0.1538  1.6437
18890SOL     OW59624   0.659   6.386   3.223 -0.1431  0.1832 -0.4983
18890SOL    HW159625   0.712   6.452   3.269 -0.0206  0.1767 -0.6312
18890SOL    HW259626   0.624   6.432   3.147 -1.5276  0.6125  0.3716
18891SOL     OW59627   7.457   8.649   7.990  0.3444 -0.6453 -0.4472
18891SOL    HW159628   7.447   8.741   7.968  0.2446 -0.7706 -0.9506
18891SOL    HW259629   7.385   8.630   8.050  0.9285 -0.1688  0.4162
18892SOL     OW59630   6.708   9.272   5.712 -0.4001 -0.0348  0.1212
18892SOL    HW159631   6.666   9.186   5.713 -0.9028  0.2008 -0.0636
18892SOL    HW259632   6.662   9.320   5.643 -0.1094  0.3774  0.2068
18893SOL     OW59633   8.441   7.971   9.435 -0.7301 -0.0566 -0.5936
18893SOL    HW159634   8.434   8.045   9.495  1.9963 -1.4561  1.6733
18893SOL    HW259635   8.404   7.897   9.484  0.1240 -0.9349 -1.2406
18894SOL     OW59636   6.827   2.290   2.911 -0.4143 -0.3644 -0.1506
18894SOL    HW159637   6.820   2.263   2.819  1.6345 -2.1649  0.1453
18894SOL    HW259638   6.802   2.212   2.960  1.2294 -0.3325  0.7841
18895SOL     OW59639   0.007   7.157  10.460 -0.3310 -0.4174 -0.4380
18895SOL    HW159640   0.061   7.106  10.521  0.5320 -0.8159 -1.4950
18895SOL    HW259641   0.045   7.140  10.374 -2.1617 -0.7069 -1.2413
18896SOL     OW59642   5.219   9.504   3.062  0.5388 -0.0325 -0.7984
18896SOL    HW159643   5.139   9.454   3.074 -0.1374  1.1325 -0.1891
18896SOL    HW259644   5.288   9.439   3.052  0.1054 -1.1790  2.4333
18897SOL     OW59645   2.846   1.237   9.972  0.1539  0.0062 -0.2542
18897SOL    HW159646   2.909   1.273  10.034 -1.2648  0.9796  0.6894
18897SOL    HW259647   2.892   1.165   9.929  2.0805  1.0445 -0.0302
18898SOL     OW59648   0.928   0.136   5.511 -0.9463 -0.1840  0.4158
18898SOL    HW159649   1.012   0.109   5.547 -0.4888  0.0626 -0.4415
18898SOL    HW259650   0.915   0.225   5.544 -0.4694  0.0874 -0.1119
18899SOL     OW59651   4.010   2.805   4.126  0.3175 -0.6929  0.0448
18899SOL    HW159652   4.106   2.815   4.127  0.3575 -1.0637  1.1556
18899SOL    HW259653   3.994   2.739   4.058  0.7278  0.3362 -1.0929
18900SOL     OW59654   2.382   5.764   1.302  0.4444  0.1814 -0.3915
18900SOL    HW159655   2.333   5.695   1.257  1.5369 -0.8373 -0.0523
18900SOL    HW259656   2.325   5.788   1.376  0.7652 -1.5978  0.5035
18901SOL     OW59657   5.833   7.583   3.206 -0.0645 -0.7045  0.6256
18901SOL    HW159658   5.758   7.540   3.245 -0.5711  0.5159  1.0209
18901SOL    HW259659   5.879   7.623   3.279 -1.6781  2.6301 -0.0120
18902SOL     OW59660   9.312   7.493  10.483 -0.0134  0.1038 -0.0505
18902SOL    HW159661   9.224   7.459  10.466  0.6862 -1.0106 -1.7017
18902SOL    HW259662   9.368   7.446  10.421  1.8647  0.3068  1.4201
18903SOL     OW59663   0.517   1.201   3.575 -0.7054  0.0807  0.1873
18903SOL    HW159664   0.502   1.274   3.514 -0.1412 -0.0934 -0.1569
18903SOL    HW259665   0.542   1.128   3.519 -3.8202 -1.1867  0.2264
18904SOL     OW59666   9.504   1.452   7.390  0.1487  0.0380  0.3217
18904SOL    HW159667   9.599   1.442   7.400  0.3215 -2.1960 -2.2701
18904SOL    HW259668   9.470   1.451   7.479  2.4958 -0.0164  1.2829
18905SOL     OW59669   9.672   4.279   6.786 -0.9305 -0.0586 -0.3101
18905SOL    HW159670   9.651   4.366   6.817  0.6717  0.2656 -0.0528
18905SOL    HW259671   9.594   4.227   6.804 -1.5167  1.0732  0.4770
18906SOL     OW59672   9.469   4.448   0.264  0.2363 -0.4445 -1.0113
18906SOL    HW159673   9.421   4.468   0.183 -0.4128 -0.8196 -0.7258
18906SOL    HW259674   9.405   4.405   0.320  0.6393 -0.0362 -0.2246
18907SOL     OW59675   0.373  10.637   3.569  0.0057 -0.1258 -0.4464
18907SOL    HW159676   0.322  10.608   3.494  0.7747  2.4858 -2.1017
18907SOL    HW259677   0.454  10.586   3.565  0.7961  1.1809 -2.5175
18908SOL     OW59678   3.392   2.404   2.226  0.2092 -0.1473  0.1783
18908SOL    HW159679   3.401   2.482   2.280 -0.5743 -0.2841  0.5160
18908SOL    HW259680   3.460   2.345   2.259 -1.0457 -0.7090  1.8844
18909SOL     OW59681   4.720   5.411   8.159 -0.1927 -0.1627 -0.6515
18909SOL    HW159682   4.748   5.483   8.102 -0.4072  0.5605  0.1387
18909SOL    HW259683   4.703   5.338   8.099 -0.2795  0.5396 -1.4957
18910SOL     OW59684   8.837   2.179   4.367  0.7158  0.1722 -0.3936
18910SOL    HW159685   8.807   2.252   4.314  1.2452  0.4316 -0.3495
18910SOL    HW259686   8.815   2.203   4.457 -2.6287 -1.4520 -0.6389
18911SOL     OW59687   7.605   6.546   9.795  0.2650 -0.6422 -0.0091
18911SOL    HW159688   7.622   6.639   9.802  1.4984 -0.8784  0.4243
18911SOL    HW259689   7.520   6.534   9.838 -0.7828  0.4998 -1.6458
18912SOL     OW59690   2.138   9.758   4.224 -0.1688 -0.0674  0.2230
18912SOL    HW159691   2.095   9.688   4.274 -0.5917  1.0579  1.4788
18912SOL    HW259692   2.094   9.838   4.253  0.2892  0.7264 -1.2176
18913SOL     OW59693   8.905   7.914   4.803  0.0501  0.0734 -0.0098
18913SOL    HW159694   8.908   8.010   4.803  0.1569  0.0710 -0.1050
18913SOL    HW259695   8.983   7.888   4.853  0.5347  0.0239 -0.7748
18914SOL     OW59696   5.957   3.595   5.458  0.1186  0.7288 -0.3465
18914SOL    HW159697   5.952   3.520   5.517  1.4573 -0.2673 -1.4406
18914SOL    HW259698   6.050   3.608   5.442 -0.1561  1.7035 -1.3303
18915SOL     OW59699   0.531   2.624   6.866 -0.8786  0.1690  0.7125
18915SOL    HW159700   0.538   2.719   6.864  0.9637  0.0899 -1.1110
18915SOL    HW259701   0.531   2.599   6.773 -1.1331 -1.6156  1.1601
18916SOL     OW59702   0.716   2.333  10.583  0.6849  0.0033 -0.1072
18916SOL    HW159703   0.802   2.331  10.540  1.0052  0.9155  0.4661
18916SOL    HW259704   0.733   2.306  10.673  0.2885 -0.2772 -0.1134
18917SOL     OW59705   0.213   4.754   5.748 -0.4253  0.5309 -0.3733
18917SOL    HW159706   0.147   4.816   5.780 -3.0529 -2.3107  0.2193
18917SOL    HW259707   0.172   4.712   5.672  1.1872 -0.5443 -0.6967
18918SOL     OW59708   0.397   5.771   0.181 -0.3204  0.7573 -0.2668
18918SOL    HW159709   0.424   5.723   0.103  1.4035  0.8068  0.2521
18918SOL    HW259710   0.476   5.777   0.235 -1.2270  1.5401  1.0665
18919SOL     OW59711   5.879   8.861   8.474  0.0717 -0.1838  0.0768
18919SOL    HW159712   5.785   8.873   8.479  0.1444 -0.1612  1.9023
18919SOL    HW259713   5.893   8.769   8.500  0.5491 -0.2436 -0.3591
18920SOL     OW59714   4.790   3.231   3.557 -0.0763 -0.1410  0.3341
18920SOL    HW159715   4.878   3.193   3.559 -0.3790 -0.9159 -0.2955
18920SOL    HW259716   4.751   3.195   3.477  0.1315  2.6968 -1.1890
18921SOL     OW59717   8.255   4.082   2.960 -0.0232 -0.3618 -0.5102
18921SOL    HW159718   8.162   4.074   2.982  0.1212 -2.2583 -0.4322
18921SOL    HW259719   8.268   4.176   2.943 -2.6331 -0.3950 -3.5111
18922SOL     OW59720   0.152   1.086   9.317  0.3676  0.0552 -0.4723
18922SOL    HW159721   0.108   1.068   9.233  0.1912  1.9659 -0.8358
18922SOL    HW259722   0.099   1.039   9.382 -0.6351  0.1040 -1.2246
18923SOL     OW59723   6.016   0.080   3.901 -0.0057 -0.2811  0.2763
18923SOL    HW159724   6.031   0.098   3.809 -2.3099 -0.0780 -0.1294
18923SOL    HW259725   6.102   0.086   3.942  0.8201  1.3295 -1.5647
18924SOL     OW59726   6.325   4.465   8.507  0.4795  0.2050 -0.0437
18924SOL    HW159727   6.390   4.487   8.440  0.3806 -0.4027 -0.3472
18924SOL    HW259728   6.265   4.404   8.463  0.8529 -0.8083  0.8062
18925SOL     OW59729   6.546   0.986   4.554  0.5526  0.0541 -0.3521
18925SOL    HW159730   6.570   0.953   4.468  1.6981  1.1793 -0.4865
18925SOL    HW259731   6.530   1.079   4.541  3.4561  0.8658  1.0966
18926SOL     OW59732   4.550   3.586   1.655 -0.5972 -0.3805 -0.0297
18926SOL    HW159733   4.531   3.674   1.688 -0.6705  0.0568 -1.2193
18926SOL    HW259734   4.465   3.552   1.626 -0.8379 -1.4284  1.7342
18927SOL     OW59735   1.276   3.861   3.217  0.1618 -0.3242  0.0855
18927SOL    HW159736   1.194   3.827   3.254 -1.4245  1.5907 -1.4662
18927SOL    HW259737   1.309   3.789   3.163 -1.4667 -0.5645 -0.6651
18928SOL     OW59738   9.005   4.439   6.793 -0.4012  0.6828 -0.1528
18928SOL    HW159739   8.958   4.478   6.867  0.0847  0.3578  0.3415
18928SOL    HW259740   8.961   4.473   6.715  0.0744  2.2931  0.2444
18929SOL     OW59741   3.412   8.611   3.972  0.0574 -0.2769 -0.6398
18929SOL    HW159742   3.481   8.589   3.910  1.3206  0.7514  0.3604
18929SOL    HW259743   3.389   8.701   3.951  1.0371  0.3472  0.8438
18930SOL     OW59744   9.874   3.427   7.576 -0.8364 -0.5168 -0.4623
18930SOL    HW159745   9.847   3.486   7.647  1.1554 -0.0619 -0.0035
18930SOL    HW259746   9.856   3.339   7.610 -0.3922 -0.2820  0.4213
18931SOL     OW59747   1.943   5.447   8.398 -0.9142 -0.3251  0.1435
18931SOL    HW159748   1.895   5.526   8.422 -2.0948 -1.3219  1.2918
18931SOL    HW259749   1.919   5.384   8.466 -1.2839 -2.1495 -1.5868
18932SOL     OW59750   3.200   5.799   4.361  0.3556  0.4694  0.3296
18932SOL    HW159751   3.252   5.723   4.335  0.2149  0.7230 -0.7263
18932SOL    HW259752   3.226   5.868   4.299 -1.6406  0.4450 -0.5820
18933SOL     OW59753   7.272   2.071   7.568 -0.3990 -0.2078  0.2818
18933SOL    HW159754   7.288   1.996   7.512 -1.8568  0.1245 -0.6551
18933SOL    HW259755   7.344   2.072   7.630  1.4933 -0.4026 -1.7968
18934SOL     OW59756   9.699   0.396  10.387  0.0704  0.0533  0.0021
18934SOL    HW159757   9.760   0.387  10.314  0.7571 -1.5701  0.7204
18934SOL    HW259758   9.755   0.405  10.464 -0.6007 -0.3226  0.5460
18935SOL     OW59759   8.068   4.675   1.887  0.3393  0.2313 -0.9986
18935SOL    HW159760   7.996   4.640   1.939  0.8325  0.9203  0.1890
18935SOL    HW259761   8.109   4.597   1.848  1.1636 -0.5581  1.2620
18936SOL     OW59762   7.805   0.822   8.789 -0.1834 -0.1168  0.2205
18936SOL    HW159763   7.853   0.739   8.791  2.1031  1.1036  2.7293
18936SOL    HW259764   7.862   0.881   8.739  0.3484  0.9949  2.0571
18937SOL     OW59765   3.750   0.460   6.596  0.7148  0.1586  0.1368
18937SOL    HW159766   3.782   0.536   6.644  0.3281  0.1377  0.4306
18937SOL    HW259767   3.657   0.478   6.581  0.8140  0.1238 -0.5309
18938SOL     OW59768   5.295   3.616   6.644  0.1257 -0.1691 -0.4536
18938SOL    HW159769   5.388   3.636   6.652  0.0192  1.6188 -2.6079
18938SOL    HW259770   5.292   3.523   6.620  1.2460 -0.5423  0.7517
18939SOL     OW59771   5.607   8.951   2.864 -0.3175  0.1445 -0.2709
18939SOL    HW159772   5.690   8.983   2.829 -0.5079  2.4817  1.1891
18939SOL    HW259773   5.569   9.027   2.910 -1.7008 -1.7316  1.9229
18940SOL     OW59774   2.889   1.744   8.620  0.1246 -0.1304 -0.3566
18940SOL    HW159775   2.905   1.832   8.585 -1.5744 -0.4012 -2.0181
18940SOL    HW259776   2.926   1.685   8.554 -0.1279 -0.6471 -0.0450
18941SOL     OW59777   8.947   4.811   6.218  0.2432 -0.4093 -0.0217
18941SOL    HW159778   8.953   4.860   6.137  0.0635 -1.4235 -0.6720
18941SOL    HW259779   8.869   4.846   6.262 -0.5589 -0.8916 -1.0204
18942SOL     OW59780  10.067   9.054   2.256 -0.1143  0.3424 -0.2923
18942SOL    HW159781  10.072   9.017   2.168  0.1004  1.1999 -0.6476
18942SOL    HW259782  10.127   9.129   2.254  0.5498 -0.1410  0.8409
18943SOL     OW59783   5.321  10.017   7.941  0.5995 -0.0537 -0.3454
18943SOL    HW159784   5.293  10.056   8.024  1.2147 -1.9285  0.7993
18943SOL    HW259785   5.247  10.031   7.882  0.5936  2.3328  0.1243
18944SOL     OW59786   0.364   2.342   6.351 -0.3290  0.0612  0.1078
18944SOL    HW159787   0.459   2.329   6.351 -0.6847 -3.2531 -0.1458
18944SOL    HW259788   0.346   2.383   6.267  0.9087  1.5484  0.5165
18945SOL     OW59789   4.101   1.388   5.806  0.6831  0.7668 -0.1270
18945SOL    HW159790   4.130   1.379   5.716  2.8850 -0.5744  0.6428
18945SOL    HW259791   4.099   1.483   5.822  3.3440  0.9878 -0.7148
18946SOL     OW59792   7.050   7.529   0.038 -0.0956 -0.4116 -0.3107
18946SOL    HW159793   7.062   7.434   0.039  0.3607 -0.4248  3.1148
18946SOL    HW259794   7.134   7.564   0.069 -0.6772  1.0429 -0.3107
18947SOL     OW59795   6.442   4.793   0.073  0.1212 -0.0687  0.8584
18947SOL    HW159796   6.512   4.742   0.032  0.1219  0.9232 -0.4052
18947SOL    HW259797   6.378   4.806   0.004  0.0472  1.5316  1.2024
18948SOL     OW59798   0.146   8.295   0.537 -0.8260 -0.2542 -0.1215
18948SOL    HW159799   0.215   8.319   0.598  1.1336 -0.1780 -2.2242
18948SOL    HW259800   0.096   8.375   0.524 -1.3178 -0.2969  1.3877
18949SOL     OW59801   1.678   9.370  10.017  0.5471 -0.0464 -0.4217
18949SOL    HW159802   1.721   9.379   9.932  1.9551 -2.5377 -0.0636
18949SOL    HW259803   1.724   9.298  10.060  0.1960  1.3935  2.6758
18950SOL     OW59804   6.277   2.054   1.638 -0.6963 -0.2951 -0.1004
18950SOL    HW159805   6.280   2.135   1.690 -0.4201  0.3837 -1.1425
18950SOL    HW259806   6.368   2.037   1.614 -0.2093 -2.8783  2.9598
18951SOL     OW59807  10.587   7.220   9.267  0.4096  0.4357  0.1025
18951SOL    HW159808  10.651   7.212   9.338 -1.0051 -0.1269  1.3525
18951SOL    HW259809  10.543   7.136   9.264  1.0307  0.1172 -2.0980
18952SOL     OW59810   6.947   2.944  10.112 -0.3591  0.0049 -0.4451
18952SOL    HW159811   7.000   2.890  10.170 -0.8346  0.3460  0.3236
18952SOL    HW259812   6.961   2.906  10.025 -1.1963 -1.8236  0.1419
18953SOL     OW59813   2.938   2.445   4.685  0.1304  0.4171  0.1792
18953SOL    HW159814   3.031   2.451   4.707  0.1171  1.1014  0.0611
18953SOL    HW259815   2.895   2.425   4.768  0.4117 -0.2765  0.1700
18954SOL     OW59816   5.013   5.926   0.247 -0.1428  0.1596 -0.3959
18954SOL    HW159817   5.085   5.864   0.255  0.8736  1.3727  0.2732
18954SOL    HW259818   5.052   6.003   0.205 -1.1452  0.6784 -0.4084
18955SOL     OW59819   5.674   7.347   3.183 -0.1440 -0.1559 -0.3659
18955SOL    HW159820   5.612   7.306   3.243  0.8656 -2.8351 -1.0077
18955SOL    HW259821   5.625   7.418   3.143 -2.4059 -1.3712  0.0665
18956SOL     OW59822   7.018   4.924   1.059  0.1337 -0.4094  0.9707
18956SOL    HW159823   6.976   4.999   1.102 -0.4448 -1.0083  1.4853
18956SOL    HW259824   7.067   4.962   0.986  1.0394  0.6216  2.0739
18957SOL     OW59825   1.834   3.387   1.925 -0.4094 -0.3240 -0.2951
18957SOL    HW159826   1.917   3.341   1.913 -1.5291 -2.5197 -0.1421
18957SOL    HW259827   1.770   3.318   1.939 -2.2520  1.3139 -0.1602
18958SOL     OW59828   5.416  10.137   2.225 -0.3942 -0.5612 -0.0152
18958SOL    HW159829   5.437  10.224   2.191  0.3977 -1.1544 -1.1209
18958SOL    HW259830   5.337  10.150   2.277 -1.0424  0.6032 -1.2250
18959SOL     OW59831   9.701   6.624   8.402 -0.1091 -0.1171  0.3536
18959SOL    HW159832   9.674   6.650   8.314  2.7244  0.4724 -0.4410
18959SOL    HW259833   9.767   6.557   8.388 -0.6383 -1.0611  2.1165
18960SOL     OW59834   0.466   2.236   1.020 -0.4650  0.2969 -0.4852
18960SOL    HW159835   0.516   2.279   0.951 -1.1560  0.3775 -0.9486
18960SOL    HW259836   0.483   2.288   1.099  0.0943  0.3779 -0.6531
18961SOL     OW59837   5.591   4.660   2.697 -0.0093 -0.2024  0.1079
18961SOL    HW159838   5.561   4.676   2.607  0.2193 -1.6684 -0.2578
18961SOL    HW259839   5.558   4.735   2.747 -1.8300 -0.3400 -0.8177
18962SOL     OW59840   5.931   1.824   2.408 -0.0830 -0.0829  0.0033
18962SOL    HW159841   5.857   1.826   2.347 -0.0203 -0.9080 -0.1092
18962SOL    HW259842   5.897   1.863   2.488 -0.8320 -0.9935  0.1453
18963SOL     OW59843   7.957   6.725   0.277 -0.0998 -0.2153 -0.0949
18963SOL    HW159844   7.945   6.774   0.196 -0.8060  0.9243  0.6772
18963SOL    HW259845   7.899   6.650   0.269  0.1189 -0.3116 -0.7987
18964SOL     OW59846   4.128   4.211   3.471  0.7820  0.2597 -0.6025
18964SOL    HW159847   4.154   4.242   3.558  0.2190  1.1086 -0.7337
18964SOL    HW259848   4.187   4.254   3.410  1.6650 -0.8995 -0.6118
18965SOL     OW59849   8.395   9.724   0.883  0.0744 -0.6317  0.0281
18965SOL    HW159850   8.376   9.761   0.970  0.1381  0.6728 -0.4956
18965SOL    HW259851   8.467   9.777   0.850  3.0022 -3.7751  0.8651
18966SOL     OW59852   9.108   1.291   8.512  0.4037 -0.3217 -0.7407
18966SOL    HW159853   9.156   1.356   8.461 -2.0304  1.0622 -1.4150
18966SOL    HW259854   9.082   1.224   8.449  1.4054 -1.0923 -0.3686
18967SOL     OW59855   0.356   3.051   2.325  0.7428 -0.1468  0.5808
18967SOL    HW159856   0.320   2.969   2.359 -0.1414 -0.3082 -0.6743
18967SOL    HW259857   0.450   3.038   2.325  0.6645 -0.7876  1.3085
18968SOL     OW59858   7.945   4.174  10.100  0.0464  0.7371  0.1913
18968SOL    HW159859   7.957   4.194  10.007 -1.8999  0.7687 -0.0923
18968SOL    HW259860   7.934   4.260  10.141 -1.0562  0.6466  0.1166
18969SOL     OW59861   7.238   3.472   5.535  0.4620 -0.2063 -0.0030
18969SOL    HW159862   7.226   3.560   5.499  2.5371 -0.1235 -0.6650
18969SOL    HW259863   7.315   3.481   5.592  1.3266 -1.7616 -0.8577
18970SOL     OW59864   8.264   1.665   0.403 -0.8544 -0.4800 -0.0529
18970SOL    HW159865   8.263   1.761   0.401 -0.1873 -0.3961  1.8180
18970SOL    HW259866   8.354   1.641   0.382  0.5125 -0.3707  4.5387
18971SOL     OW59867   4.602   4.427   2.233 -0.1347 -0.8370 -0.0653
18971SOL    HW159868   4.581   4.429   2.140  0.1705  2.4435 -0.1669
18971SOL    HW259869   4.519   4.447   2.277 -0.0145 -1.1260  0.2967
18972SOL     OW59870   3.394   4.359   1.453  0.4616 -0.5220  0.2409
18972SOL    HW159871   3.443   4.279   1.468  0.7633 -0.7964 -1.8579
18972SOL    HW259872   3.432   4.396   1.373 -0.7830  0.8142  0.2145
18973SOL     OW59873   7.448   6.719   6.208 -0.1535  0.2164 -0.0617
18973SOL    HW159874   7.366   6.748   6.167  1.5098  1.4220 -2.8220
18973SOL    HW259875   7.478   6.795   6.258 -0.9019 -0.3924  1.3663
18974SOL     OW59876   8.884   1.533   4.598 -0.0898 -0.0724  0.4285
18974SOL    HW159877   8.873   1.517   4.505  1.5792 -1.2483  0.3938
18974SOL    HW259878   8.878   1.628   4.607 -0.2141  0.0556 -0.8785
18975SOL     OW59879   7.966   4.904   3.936  0.2874  0.0948  0.5668
18975SOL    HW159880   7.982   4.981   3.991 -2.1438  0.6601  0.6088
18975SOL    HW259881   7.910   4.936   3.865 -0.6303 -1.5900  0.4723
18976SOL     OW59882  10.105   2.019   1.600 -0.0275  0.5959  0.0932
18976SOL    HW159883  10.160   1.947   1.631 -0.6344  0.1181  0.0600
18976SOL    HW259884  10.091   2.000   1.507 -1.3964 -0.0349  0.4124
18977SOL     OW59885   4.909   4.015   6.907  0.3165  0.2178  0.0702
18977SOL    HW159886   4.825   4.058   6.921  0.5111  0.3119  1.0781
18977SOL    HW259887   4.974   4.084   6.918  0.4927  0.6150 -2.8001
18978SOL     OW59888   3.691   7.149  10.381 -0.3136  0.1592 -0.3427
18978SOL    HW159889   3.644   7.169  10.462 -0.5997  0.0600 -0.4849
18978SOL    HW259890   3.703   7.234  10.339 -1.2259  0.0763 -0.7784
18979SOL     OW59891   4.841   5.084   0.593  0.1837 -0.1310  0.6354
18979SOL    HW159892   4.833   5.149   0.663 -0.6868 -0.9548  1.3347
18979SOL    HW259893   4.848   5.135   0.513  1.2203  0.8436  1.3130
18980SOL     OW59894   1.424   0.021   7.486  0.3450  0.3256 -0.2662
18980SOL    HW159895   1.382   0.076   7.552  1.3990  1.2061 -0.3023
18980SOL    HW259896   1.475  -0.042   7.537 -0.3661 -0.2444 -0.2350
18981SOL     OW59897   6.974   1.856   6.137  0.6062  0.4241 -0.0231
18981SOL    HW159898   6.944   1.898   6.217  0.2492 -1.0442  0.6539
18981SOL    HW259899   7.020   1.777   6.167  1.2843  0.3352 -1.2287
18982SOL     OW59900   1.279   7.487   2.849  0.0401  0.3683  0.0207
18982SOL    HW159901   1.291   7.538   2.769  2.5179 -0.5328 -0.2744
18982SOL    HW259902   1.274   7.396   2.819  2.4993 -0.1311  0.8885
18983SOL     OW59903   2.692   1.144   0.603 -0.0989  0.2477  0.9104
18983SOL    HW159904   2.686   1.087   0.680  0.4299  0.4420  1.0997
18983SOL    HW259905   2.681   1.232   0.638 -0.5730  0.2864  0.6645
18984SOL     OW59906   5.747   3.544   6.272 -0.1419  0.1827  0.0953
18984SOL    HW159907   5.723   3.620   6.218  1.6715  0.1344 -0.8464
18984SOL    HW259908   5.762   3.474   6.208  1.8440  0.0588  0.6475
18985SOL     OW59909   9.781   4.081   7.750 -0.1632 -0.4994  0.3046
18985SOL    HW159910   9.772   4.123   7.665 -1.2605 -2.9988 -0.9175
18985SOL    HW259911   9.868   4.041   7.748 -0.7623 -1.8259 -0.3082
18986SOL     OW59912   5.324   9.058   4.011 -0.2558 -0.0845 -0.0399
18986SOL    HW159913   5.343   9.147   3.982 -1.3521 -0.0160 -0.5707
18986SOL    HW259914   5.257   9.068   4.079 -0.2066 -0.4893  0.0733
18987SOL     OW59915   3.848   4.456   0.638  0.1645  0.1889 -0.2729
18987SOL    HW159916   3.868   4.397   0.710 -1.9803  1.5121  1.5333
18987SOL    HW259917   3.932   4.495   0.614  1.3401 -2.2483 -0.3743
18988SOL     OW59918  10.318   6.959  10.579  0.1488 -0.1019  0.0488
18988SOL    HW159919  10.240   7.009  10.557 -0.1961 -0.4909  0.3744
18988SOL    HW259920  10.361   7.010  10.648  0.4532  0.3665 -0.4778
18989SOL     OW59921   4.348   4.253   9.475 -0.1865  0.7178  0.5620
18989SOL    HW159922   4.309   4.191   9.536  1.2762  0.3879  1.1932
18989SOL    HW259923   4.304   4.336   9.494 -2.1042 -0.0683 -0.2386
18990SOL     OW59924   0.012   5.282   8.500  0.0215 -0.1550 -0.3765
18990SOL    HW159925  -0.016   5.303   8.590  0.8347  0.5442 -0.2724
18990SOL    HW259926   0.080   5.216   8.511  0.9820  0.8090 -0.3869
18991SOL     OW59927  10.051   0.969   8.536  0.3716  0.1034  0.4750
18991SOL    HW159928   9.978   0.913   8.509  0.1747 -0.5206  2.1787
18991SOL    HW259929  10.057   0.957   8.631  0.7719  2.4593  0.8222
18992SOL     OW59930   1.175   7.616   0.956 -0.0660  0.0834  0.1237
18992SOL    HW159931   1.089   7.656   0.944 -0.9618 -1.9264 -0.5421
18992SOL    HW259932   1.235   7.691   0.962 -1.7127  1.5256 -0.4031
18993SOL     OW59933   8.917   9.507   6.169 -0.5858 -0.3561  0.4299
18993SOL    HW159934   8.950   9.587   6.209  0.8947 -0.6298 -0.1863
18993SOL    HW259935   8.939   9.515   6.076 -1.3986 -1.0036  0.1636
18994SOL     OW59936   5.319   4.427   3.668 -0.1529 -0.3019 -0.3456
18994SOL    HW159937   5.343   4.518   3.685 -1.3125 -0.5546  3.7153
18994SOL    HW259938   5.403   4.380   3.670  0.2949  0.4575 -0.7282
18995SOL     OW59939   4.916   5.734   2.232  0.8438  0.1021  0.0388
18995SOL    HW159940   5.009   5.737   2.211  0.9297  0.4702  0.4502
18995SOL    HW259941   4.871   5.746   2.148  1.1743  2.2361  0.1221
18996SOL     OW59942   1.425   9.872   2.643  0.5941 -0.0798  0.4179
18996SOL    HW159943   1.386   9.856   2.729  2.0310 -0.7184  0.9880
18996SOL    HW259944   1.354   9.856   2.581 -0.9203  1.9535  1.5112
18997SOL     OW59945   5.947   6.645   0.496  0.7108 -0.2651  0.4461
18997SOL    HW159946   5.968   6.737   0.481 -0.6406 -0.0074 -0.0828
18997SOL    HW259947   6.030   6.599   0.486  1.7987  1.0685  2.6105
18998SOL     OW59948   2.879   5.527   4.614 -0.2725  0.1976  0.4400
18998SOL    HW159949   2.941   5.540   4.686 -0.4365 -1.0481  0.8290
18998SOL    HW259950   2.802   5.578   4.638 -0.3921 -0.3423  1.2467
18999SOL     OW59951   3.243   8.460  10.346 -0.0053  0.2815 -0.4320
18999SOL    HW159952   3.242   8.521  10.420 -3.3600 -1.5261  1.2572
18999SOL    HW259953   3.329   8.418  10.349  0.5066  1.3777  1.4608
19000SOL     OW59954   6.958   8.433  10.414 -0.9864  0.5242 -0.1015
19000SOL    HW159955   7.007   8.496  10.361 -1.0586  0.1716 -0.5905
19000SOL    HW259956   6.872   8.428  10.372 -1.0048  0.1546 -0.0221
19001SOL     OW59957   9.226   3.727   9.368  0.1182  0.6397  0.0635
19001SOL    HW159958   9.251   3.679   9.448  1.7083  0.2678 -0.6188
19001SOL    HW259959   9.133   3.748   9.381 -0.4301 -1.8718  0.7887
19002SOL     OW59960   4.939   1.691   7.392  0.2065 -0.3421 -0.1107
19002SOL    HW159961   4.919   1.783   7.411  0.0830 -0.4214  0.1497
19002SOL    HW259962   4.862   1.660   7.344 -0.1641 -0.5613  0.6150
19003SOL     OW59963   6.628   1.527   4.968  0.5329  0.5027 -0.1490
19003SOL    HW159964   6.552   1.529   4.910  0.1751  1.9670  0.3394
19003SOL    HW259965   6.606   1.585   5.040  1.2931 -0.6681  1.0811
19004SOL     OW59966  10.395   4.922   4.648 -0.1052  0.5521  0.0170
19004SOL    HW159967  10.376   4.945   4.557 -0.0355  2.4613  0.4291
19004SOL    HW259968  10.451   4.993   4.679  0.7017 -0.5880  1.2796
19005SOL     OW59969   0.040   7.024   6.351  0.2975  0.2422  0.4137
19005SOL    HW159970   0.088   6.975   6.284  0.1045 -0.4212  0.7501
19005SOL    HW259971   0.102   7.031   6.425  1.2232  2.6355 -0.4809
19006SOL     OW59972   2.411   6.394   1.556 -0.8193  0.7077  0.1179
19006SOL    HW159973   2.381   6.346   1.632 -0.9803  1.8982  0.8369
19006SOL    HW259974   2.392   6.486   1.576 -1.6335  0.9916 -1.6963
19007SOL     OW59975   8.210   6.826   8.150 -0.0791  0.4628 -0.6310
19007SOL    HW159976   8.262   6.796   8.224  0.3184  0.7825 -0.7742
19007SOL    HW259977   8.132   6.770   8.150 -0.0363  0.3989 -0.0322
19008SOL     OW59978   8.624  10.615   6.120  0.1914  0.4495  0.1239
19008SOL    HW159979   8.564  10.546   6.091  1.2315 -0.0629 -0.8734
19008SOL    HW259980   8.698  10.569   6.159  0.8356  0.9926 -0.4319
19009SOL     OW59981   1.477   2.030   9.801 -0.6267 -0.2884  0.1098
19009SOL    HW159982   1.432   1.966   9.746 -2.2178  1.4112 -0.6728
19009SOL    HW259983   1.416   2.048   9.872  0.4384 -0.7238  1.1666
19010SOL     OW59984   0.364   5.971   0.627 -0.3420  0.2856  0.1858
19010SOL    HW159985   0.379   5.989   0.534 -0.4885  2.3476  0.5189
19010SOL    HW259986   0.273   5.995   0.642  0.1664  1.6973  1.2075
19011SOL     OW59987   2.042   7.013   0.968  0.0070 -0.3843 -0.2244
19011SOL    HW159988   1.972   6.953   0.993 -0.4163  0.0610 -0.3107
19011SOL    HW259989   1.995   7.089   0.933  0.5464 -0.2658 -0.6896
19012SOL     OW59990   0.830   4.491   5.783 -0.3253 -0.0865 -0.0978
19012SOL    HW159991   0.801   4.401   5.768  1.2847 -0.6267 -0.1390
19012SOL    HW259992   0.840   4.528   5.695  0.8698 -0.5020 -0.1479
19013SOL     OW59993   8.931   2.660   7.900 -0.2927  0.3463 -0.3718
19013SOL    HW159994   8.909   2.728   7.836 -0.0373  0.5633 -0.2309
19013SOL    HW259995   8.859   2.662   7.963 -1.7589 -1.4442 -1.8799
19014SOL     OW59996   4.052   6.529   0.438  0.0946 -0.2467  0.0494
19014SOL    HW159997   4.042   6.456   0.377  2.0637 -0.2919 -0.2635
19014SOL    HW259998   4.021   6.605   0.390  2.1559 -0.1882 -1.2720
19015SOL     OW59999   3.996   0.514   0.068 -0.2155 -0.0692 -0.1421
19015SOL    HW160000   3.930   0.536   0.133 -1.4357 -2.1077 -0.6019
19015SOL    HW260001   3.972   0.566  -0.009  1.3471  2.5037  0.9586
19016SOL     OW60002   0.244   5.027   2.435  0.5341 -0.6361 -0.0412
19016SOL    HW160003   0.316   5.037   2.373  1.0794 -0.0299  0.6615
19016SOL    HW260004   0.167   5.060   2.389  0.5943 -1.7464 -0.9753
19017SOL     OW60005   6.140   5.219   0.072  0.4429  0.0756  0.1941
19017SOL    HW160006   6.077   5.289   0.086 -0.1630 -0.2926 -0.6034
19017SOL    HW260007   6.225   5.259   0.091 -0.0909  0.2028  2.6535
19018SOL     OW60008   7.511   8.777   6.896 -0.3618 -0.2107  0.5887
19018SOL    HW160009   7.527   8.784   6.802  1.9381 -0.0758  0.9373
19018SOL    HW260010   7.584   8.726   6.930  0.2649  1.8654  2.6367
19019SOL     OW60011   9.747   5.081   5.886 -0.2484 -0.6577 -0.3742
19019SOL    HW160012   9.802   5.073   5.964 -1.1580 -0.4504  0.3114
19019SOL    HW260013   9.808   5.086   5.813  0.6241 -0.7599  0.3394
19020SOL     OW60014   7.872   0.399   6.940 -0.1782 -0.7123 -0.3143
19020SOL    HW160015   7.803   0.416   6.875  0.0454  0.8076 -0.2035
19020SOL    HW260016   7.923   0.480   6.941 -0.1821 -0.6854  1.7607
19021SOL     OW60017   9.891   3.257  10.186  0.0644  0.0765  0.5411
19021SOL    HW160018   9.840   3.240  10.107  0.0920 -0.1108  0.5655
19021SOL    HW260019   9.955   3.186  10.190 -0.2492 -0.1837  0.9886
19022SOL     OW60020   3.161   3.251   3.583 -1.2025 -0.0011 -0.6467
19022SOL    HW160021   3.080   3.270   3.631 -1.9803 -1.2127 -1.4214
19022SOL    HW260022   3.182   3.333   3.539 -1.7041  0.4825 -0.0099
19023SOL     OW60023   5.530   2.526   3.962 -0.4664 -0.0088 -0.4318
19023SOL    HW160024   5.622   2.545   3.942 -0.3988 -0.0092 -0.1132
19023SOL    HW260025   5.532   2.440   4.004 -0.7675 -0.7481 -1.8368
19024SOL     OW60026   2.394  10.611   0.860 -0.1317 -0.0895 -0.2653
19024SOL    HW160027   2.447  10.627   0.782  0.9385  0.0541  0.4728
19024SOL    HW260028   2.419  10.524   0.889 -0.7954 -0.2922 -0.2796
19025SOL     OW60029   2.387  10.130   3.351  0.1858  0.0573  0.4493
19025SOL    HW160030   2.362  10.038   3.342 -1.9492  0.6419 -0.2939
19025SOL    HW260031   2.450  10.131   3.423 -0.4330 -1.8789  1.0910
19026SOL     OW60032   1.452   9.507   5.002 -0.6688  0.0713 -0.3940
19026SOL    HW160033   1.541   9.541   5.009 -1.0089  0.7799  0.9753
19026SOL    HW260034   1.454   9.447   4.927  1.0189 -0.1267 -0.2249
19027SOL     OW60035   7.054   3.540   6.968  0.3130 -0.1776  0.0711
19027SOL    HW160036   7.102   3.623   6.966 -0.5856  0.3458 -1.6160
19027SOL    HW260037   6.996   3.547   7.044 -0.6862  1.3213 -0.7753
19028SOL     OW60038   7.985   4.562   5.790  0.2956 -0.8755  0.3021
19028SOL    HW160039   7.989   4.634   5.726  1.2833  0.4656  1.7752
19028SOL    HW260040   7.891   4.547   5.803 -0.0119  1.1603  0.9466
19029SOL     OW60041  10.459   3.549   4.852  0.2785 -0.0093  0.1494
19029SOL    HW160042  10.443   3.507   4.936  0.7842 -0.1536  0.1774
19029SOL    HW260043  10.463   3.477   4.790  2.0606 -0.1112  0.3331
19030SOL     OW60044   5.846   7.952   3.215 -0.2247 -0.1468  0.1665
19030SOL    HW160045   5.848   7.915   3.127  1.5416  1.0903 -0.3614
19030SOL    HW260046   5.887   7.885   3.270 -0.2105 -0.4069 -0.1570
19031SOL     OW60047   7.711   1.440   3.153  0.2364 -0.1505  0.3297
19031SOL    HW160048   7.689   1.525   3.191 -1.0793 -0.0716 -0.5475
19031SOL    HW260049   7.799   1.452   3.116  0.6096  0.4194  1.3766
19032SOL     OW60050   6.014   8.579   3.646 -0.2258 -0.2516  0.7346
19032SOL    HW160051   6.032   8.503   3.702 -0.6028  0.4958  1.9222
19032SOL    HW260052   5.960   8.637   3.701 -2.9783 -0.6710 -1.2940
19033SOL     OW60053   3.089   8.584   5.236  0.6270 -0.2985  0.1889
19033SOL    HW160054   3.133   8.504   5.264  0.2777  0.1536  2.1646
19033SOL    HW260055   3.158   8.636   5.194  0.8377 -1.6193 -1.2068
19034SOL     OW60056   0.903   6.715   1.429 -0.3835  0.0545  0.8367
19034SOL    HW160057   0.890   6.640   1.371  1.4230  0.5953 -0.3751
19034SOL    HW260058   0.815   6.750   1.443 -1.0166 -0.8470 -0.5773
19035SOL     OW60059   6.057   2.726   0.645  0.2228  0.0472  0.2067
19035SOL    HW160060   5.974   2.747   0.602  0.0650 -1.7981 -0.4834
19035SOL    HW260061   6.043   2.750   0.736 -0.3124  1.7032 -0.2743
19036SOL     OW60062   1.556   8.790   7.603 -0.0040 -0.3752 -0.0130
19036SOL    HW160063   1.624   8.765   7.541  1.7249 -0.7666  1.9266
19036SOL    HW260064   1.474   8.762   7.562  1.0515 -0.6842 -2.0438
19037SOL     OW60065   6.673   7.621   7.915 -0.2737 -0.0262  0.0881
19037SOL    HW160066   6.683   7.674   7.836 -0.1236  0.3470  0.3556
19037SOL    HW260067   6.748   7.644   7.970 -0.6129  0.0471  0.5269
19038SOL     OW60068   7.937   3.743   4.741 -0.0857  0.5558 -0.3016
19038SOL    HW160069   7.917   3.818   4.796  0.6656  0.3394  0.2917
19038SOL    HW260070   8.007   3.774   4.683  0.1738  0.3504 -0.1063
19039SOL     OW60071   8.575   8.521   9.570  0.9910  0.5503  0.2100
19039SOL    HW160072   8.488   8.528   9.611  0.6992  0.5836 -0.4077
19039SOL    HW260073   8.622   8.599   9.600  0.4688  1.0470 -0.2443
19040SOL     OW60074   2.826   1.677   6.432  0.2748 -0.1845 -0.2576
19040SOL    HW160075   2.803   1.584   6.441 -0.4214  0.0278  0.3048
19040SOL    HW260076   2.781   1.719   6.505  1.7215  0.4120  0.3196
19041SOL     OW60077   0.487   8.394   9.389 -0.2303 -0.4268 -0.2213
19041SOL    HW160078   0.426   8.467   9.397  0.7541  1.1196 -4.0940
19041SOL    HW260079   0.437   8.326   9.344  0.1117 -0.1409 -1.0723
19042SOL     OW60080   4.962   2.819   3.442  0.0956  0.2356  0.8470
19042SOL    HW160081   4.964   2.903   3.487  0.7948 -0.8313  2.9231
19042SOL    HW260082   4.893   2.770   3.485  1.1893 -1.0439  1.2081
19043SOL     OW60083   3.404   7.662   5.175 -0.0830  0.5997  0.3930
19043SOL    HW160084   3.320   7.700   5.147 -0.5515 -0.4362  0.3418
19043SOL    HW260085   3.459   7.667   5.097 -0.5825 -0.0406 -0.0116
19044SOL     OW60086   7.586   2.169   1.139  0.3542  0.4010 -0.3928
19044SOL    HW160087   7.596   2.078   1.112  1.0269  1.0480 -2.4917
19044SOL    HW260088   7.525   2.165   1.214  2.1996 -1.9595  1.1465
19045SOL     OW60089   9.677   5.568   0.428  0.7656  0.1970  0.2359
19045SOL    HW160090   9.772   5.565   0.429  0.7502 -0.2487  0.4981
19045SOL    HW260091   9.654   5.628   0.500  0.8405  0.1447  0.3027
19046SOL     OW60092   1.175  10.584   7.426 -0.0211 -0.1984  0.2531
19046SOL    HW160093   1.269  10.580   7.411  0.0194  0.2837  0.3924
19046SOL    HW260094   1.149  10.492   7.437  0.6133 -0.2632  1.3453
19047SOL     OW60095   6.662   3.976   6.417  0.6542  0.2075 -0.4350
19047SOL    HW160096   6.694   3.891   6.446  0.4968  0.6488  1.1432
19047SOL    HW260097   6.715   4.039   6.466 -0.6211  0.9767  0.0230
19048SOL     OW60098   3.845   8.658   3.551  0.3509 -0.0744 -0.5788
19048SOL    HW160099   3.923   8.607   3.530  1.3419  1.0075  0.3525
19048SOL    HW260100   3.801   8.671   3.467  1.9059  0.4601 -1.3415
19049SOL     OW60101   2.796   9.867   1.344  0.5758 -0.5067 -0.0347
19049SOL    HW160102   2.754   9.950   1.321  3.2112  0.1522 -3.2707
19049SOL    HW260103   2.772   9.852   1.436 -1.2811  2.9922  0.2059
19050SOL     OW60104   2.668   0.788   7.655  0.4450 -0.0740  0.5612
19050SOL    HW160105   2.580   0.751   7.649  0.4886 -0.0959  0.0028
19050SOL    HW260106   2.669   0.833   7.740 -0.3653  0.5824  0.2385
19051SOL     OW60107   7.543   1.710   7.701 -0.6029  0.1832  0.2529
19051SOL    HW160108   7.452   1.737   7.697 -0.8752 -0.7282  0.0050
19051SOL    HW260109   7.557   1.684   7.792 -0.6383  0.1837  0.2580
19052SOL     OW60110   1.109   8.268   6.497  0.6289  0.1404  0.2679
19052SOL    HW160111   1.176   8.258   6.564  1.6466 -3.0340 -1.0183
19052SOL    HW260112   1.029   8.238   6.538  1.0318 -0.7660  0.4121
19053SOL     OW60113   3.920   8.969  10.614 -0.0654 -0.3924  0.1745
19053SOL    HW160114   3.985   8.898  10.617 -1.1257 -1.3937  0.0943
19053SOL    HW260115   3.908   8.985  10.520  3.1691  2.8046  0.0745
19054SOL     OW60116   2.169   4.161   5.245  0.1926 -0.5421  0.5703
19054SOL    HW160117   2.222   4.187   5.321 -0.8896 -0.6334  1.3835
19054SOL    HW260118   2.114   4.090   5.278 -0.2885 -0.5912 -0.3154
19055SOL     OW60119  10.442   6.739   9.630  0.0431  0.1974  0.7491
19055SOL    HW160120  10.446   6.714   9.723  2.4679  3.2204  1.6258
19055SOL    HW260121  10.494   6.672   9.585 -0.5827 -0.9235  1.6526
19056SOL     OW60122   5.276   7.346   8.897  0.8196 -0.3340  0.1345
19056SOL    HW160123   5.367   7.328   8.918  0.8157  0.4967  0.9545
19056SOL    HW260124   5.248   7.272   8.843  1.3069 -1.8221  1.8169
19057SOL     OW60125   2.527   4.682   2.743  0.7492  0.8589 -0.0862
19057SOL    HW160126   2.558   4.619   2.808  1.2627 -0.3018 -1.3945
19057SOL    HW260127   2.434   4.664   2.734  0.5893  1.2982  0.5936
19058SOL     OW60128   8.207   0.754   4.885  0.0301  0.0143 -0.1876
19058SOL    HW160129   8.233   0.693   4.816 -0.7685 -0.6408  0.0773
19058SOL    HW260130   8.161   0.700   4.950 -0.7976  0.8983 -0.0056
19059SOL     OW60131   8.560   8.015   2.779  0.5310  0.0605  0.4833
19059SOL    HW160132   8.610   7.946   2.735  0.8173  2.0910 -2.6339
19059SOL    HW260133   8.469   7.985   2.775  0.8246 -0.9242  0.8185
19060SOL     OW60134   7.774   5.903  10.544 -0.0755 -0.8045  0.2801
19060SOL    HW160135   7.790   5.890  10.638 -0.3167 -0.4376  0.3757
19060SOL    HW260136   7.834   5.973  10.519 -2.1456  1.3328  0.8732
19061SOL     OW60137   7.265   9.190   3.288  0.1860 -0.2359  0.7598
19061SOL    HW160138   7.225   9.177   3.374  0.2467 -1.3012  0.6333
19061SOL    HW260139   7.320   9.267   3.299 -0.3990  0.0961  1.4618
19062SOL     OW60140  10.651   6.718   7.398  0.2386  0.4120  0.3203
19062SOL    HW160141  10.632   6.734   7.306 -0.0153 -0.1210  0.2728
19062SOL    HW260142  10.727   6.660   7.398 -0.2809 -0.2951  0.4090
19063SOL     OW60143   5.046  10.551   8.528  0.4815 -0.1812 -0.2686
19063SOL    HW160144   4.960  10.555   8.572  1.2574  1.2753  1.2229
19063SOL    HW260145   5.092  10.480   8.572  0.2825 -0.5556 -0.6534
19064SOL     OW60146  10.055   8.696   6.295 -0.1970 -0.3465  0.5909
19064SOL    HW160147  10.065   8.749   6.374  0.2032 -0.0089  0.3202
19064SOL    HW260148  10.048   8.760   6.224 -1.7228 -0.6280  0.4715
19065SOL     OW60149   7.493   2.593   7.549  0.1062 -0.5895 -0.3607
19065SOL    HW160150   7.428   2.527   7.573  1.3264 -1.6188  0.2555
19065SOL    HW260151   7.448   2.650   7.487 -1.8454 -0.3703  1.1459
19066SOL     OW60152   3.103   1.120   0.171  0.5295 -0.4236 -0.6229
19066SOL    HW160153   3.017   1.161   0.164  0.8454  0.4582  0.4658
19066SOL    HW260154   3.109   1.092   0.263  1.3226 -0.6735 -0.7438
19067SOL     OW60155   0.271  10.103   0.141 -0.1878  0.2256  0.5117
19067SOL    HW160156   0.253  10.098   0.047 -1.7482 -0.1958  0.8055
19067SOL    HW260157   0.275  10.012   0.170  1.7566  0.3140  0.6306
19068SOL     OW60158   9.923  10.365   1.563  0.0290  0.5224  0.1805
19068SOL    HW160159   9.952  10.339   1.650 -0.5373  1.0097  0.5276
19068SOL    HW260160   9.984  10.323   1.503  1.2934  1.3049  0.8701
19069SOL     OW60161   0.694   1.745   0.609  0.1404 -0.4140  0.0658
19069SOL    HW160162   0.678   1.838   0.588 -1.2783 -0.7280 -0.3896
19069SOL    HW260163   0.753   1.715   0.540  0.1682  0.0132 -0.1015
19070SOL     OW60164   7.637   7.579   0.792 -0.1576  0.1323 -0.4150
19070SOL    HW160165   7.604   7.594   0.881  5.2297 -0.2165  2.0348
19070SOL    HW260166   7.623   7.486   0.776 -0.1785 -0.0487  0.6117
19071SOL     OW60167   0.416   5.304   6.103 -0.9453  0.4253  0.2407
19071SOL    HW160168   0.446   5.265   6.185  2.2698  1.4713 -0.2702
19071SOL    HW260169   0.386   5.230   6.051 -0.6174 -0.5853  1.4356
19072SOL     OW60170   9.687   1.537   4.145 -0.6450  0.3186  0.3158
19072SOL    HW160171   9.707   1.626   4.175 -1.0343  0.2806  0.6929
19072SOL    HW260172   9.676   1.546   4.050  0.2414  0.5019  0.2184
19073SOL     OW60173   2.684   3.052   1.816 -0.1809  0.2335  0.7215
19073SOL    HW160174   2.744   3.033   1.888  0.0101  2.8022  1.3227
19073SOL    HW260175   2.731   3.112   1.759 -1.1817  0.0636 -0.3374
19074SOL     OW60176   9.627   3.646   8.374 -0.5246 -0.4539 -0.0811
19074SOL    HW160177   9.653   3.691   8.454 -1.4599  0.8481 -0.4726
19074SOL    HW260178   9.550   3.694   8.343 -0.4701 -1.2225 -1.5073
19075SOL     OW60179   4.836   1.215   7.310  0.0647  0.1619 -0.3294
19075SOL    HW160180   4.901   1.285   7.302 -0.0667  0.2776 -0.3890
19075SOL    HW260181   4.888   1.134   7.316  0.2413  0.3369  0.6618
19076SOL     OW60182   4.091   4.521   0.554 -0.2346  0.2811 -0.2025
19076SOL    HW160183   4.150   4.581   0.509 -0.8361  0.8009 -0.3104
19076SOL    HW260184   4.109   4.436   0.515  0.9379  0.3058  0.2565
19077SOL     OW60185   6.234   0.347   5.040 -0.1602  0.0691  0.5282
19077SOL    HW160186   6.325   0.325   5.016  0.0992  1.7258 -0.1277
19077SOL    HW260187   6.211   0.282   5.106  1.8073  0.1136  1.3357
19078SOL     OW60188   6.269   7.622   5.203  0.2394 -0.1374  0.3913
19078SOL    HW160189   6.254   7.571   5.123 -1.6973  0.2096  0.4761
19078SOL    HW260190   6.357   7.657   5.193  0.4089 -0.9114 -1.1357
19079SOL     OW60191   8.043   6.961   7.308  0.1181  0.0188  0.1548
19079SOL    HW160192   7.979   6.890   7.311 -2.1272  1.9439  1.3545
19079SOL    HW260193   8.082   6.962   7.396  0.3619  0.0692  0.0467
19080SOL     OW60194   4.973   8.147   4.877 -0.0037  0.1646 -0.2769
19080SOL    HW160195   4.972   8.104   4.963 -1.0513  0.5372 -0.0872
19080SOL    HW260196   5.065   8.145   4.850  0.4018  0.3533  1.0161
19081SOL     OW60197   0.405   4.793   7.319 -0.0234  0.1769 -0.4514
19081SOL    HW160198   0.311   4.808   7.307  0.1194  0.2361 -1.6576
19081SOL    HW260199   0.412   4.748   7.403 -1.2438 -0.9104 -0.9013
19082SOL     OW60200   4.294   3.352   1.453 -0.2499  0.6008  0.8888
19082SOL    HW160201   4.256   3.417   1.512 -2.0151  1.1019 -0.6994
19082SOL    HW260202   4.222   3.295   1.429  0.5597  0.0013 -0.2448
19083SOL     OW60203   0.785   8.803   8.844  0.2324  0.1626  0.3527
19083SOL    HW160204   0.802   8.720   8.799 -1.7386 -0.6277  0.9568
19083SOL    HW260205   0.825   8.793   8.930 -0.7988 -0.5818  0.7715
19084SOL     OW60206   4.281   6.633   4.723 -0.5289  0.3232 -0.1767
19084SOL    HW160207   4.285   6.539   4.708 -1.4006 -0.1998  2.4690
19084SOL    HW260208   4.235   6.667   4.646 -1.4609 -1.5995 -0.5376
19085SOL     OW60209   4.478   3.192   1.859 -0.1860 -0.1327 -0.6405
19085SOL    HW160210   4.489   3.233   1.945  0.4948 -0.8927 -0.3513
19085SOL    HW260211   4.550   3.228   1.806 -0.1801 -0.2019 -0.6793
19086SOL     OW60212   2.887   9.198   1.759 -0.3640 -0.6773  0.2173
19086SOL    HW160213   2.877   9.111   1.797  2.0564 -1.0570  0.1587
19086SOL    HW260214   2.906   9.255   1.833  1.4386 -0.8753 -0.0506
19087SOL     OW60215   5.074   4.740   4.893 -0.5872  0.2072  0.4965
19087SOL    HW160216   5.051   4.822   4.848 -0.9466  0.1666  0.5992
19087SOL    HW260217   5.001   4.681   4.873  0.3136 -0.5623 -0.7523
19088SOL     OW60218   7.033   5.700   5.314 -0.0039 -0.1580 -0.3083
19088SOL    HW160219   7.104   5.662   5.366 -0.4599  0.8394  1.1101
19088SOL    HW260220   7.002   5.627   5.260  0.9293 -1.0692  0.3274
19089SOL     OW60221   9.344   8.778   8.303 -0.3733 -0.4420 -0.1949
19089SOL    HW160222   9.321   8.724   8.379  0.2337 -0.5953 -0.1163
19089SOL    HW260223   9.287   8.745   8.233 -1.5214  0.2562  0.3878
19090SOL     OW60224   5.137   2.945   2.029  0.1499  0.4941 -0.4356
19090SOL    HW160225   5.114   2.881   1.961  2.2126  0.3912 -1.1066
19090SOL    HW260226   5.059   2.952   2.083  0.0149 -3.1605  0.0979
19091SOL     OW60227   1.055   3.006   1.976 -0.0839  0.6702 -0.5649
19091SOL    HW160228   1.141   2.976   2.007 -0.8733 -0.0655  1.0164
19091SOL    HW260229   1.064   3.010   1.880  1.6620  0.5026 -0.4364
19092SOL     OW60230   9.041   8.305   7.753  0.0860 -0.5822 -0.2069
19092SOL    HW160231   9.099   8.344   7.818 -0.5839 -1.9155  1.2429
19092SOL    HW260232   9.099   8.250   7.699  0.4993 -0.1755 -0.1850
19093SOL     OW60233  10.011   9.425   0.753 -0.3264  0.5999  0.1364
19093SOL    HW160234   9.919   9.399   0.753  0.2545 -1.6057  0.1933
19093SOL    HW260235  10.022   9.474   0.834 -1.1404 -0.3132  0.8142
19094SOL     OW60236   2.535   2.626   1.800 -0.3865  0.1383 -0.3425
19094SOL    HW160237   2.439   2.627   1.800 -0.3877  0.5627  0.1267
19094SOL    HW260238   2.559   2.651   1.889  0.1647 -1.0902 -0.1277
19095SOL     OW60239   6.085   3.968   5.149  0.5266  0.4298 -0.2832
19095SOL    HW160240   6.044   3.881   5.142  0.6078  0.4278 -0.8229
19095SOL    HW260241   6.016   4.029   5.123 -0.4682  0.8012  2.8708
19096SOL     OW60242  10.009   1.460   8.811 -0.2508 -0.0225  0.0494
19096SOL    HW160243  10.067   1.491   8.881 -0.4882 -3.6786  2.0899
19096SOL    HW260244   9.925   1.446   8.853 -1.0085 -0.3151 -1.4927
19097SOL     OW60245   2.642   1.405   7.320 -0.0226 -0.2197 -0.2033
19097SOL    HW160246   2.631   1.446   7.406 -1.3215 -1.1064  0.0848
19097SOL    HW260247   2.722   1.353   7.327  0.0209 -0.0725  0.3798
19098SOL     OW60248   8.227   3.347   9.398 -0.1668  0.0034 -0.1950
19098SOL    HW160249   8.214   3.442   9.394  1.6392  0.3115  0.3440
19098SOL    HW260250   8.198   3.323   9.486 -0.2456  0.1260 -0.1875
19099SOL     OW60251   2.375   2.199   8.807  0.3038 -0.1011  0.1382
19099SOL    HW160252   2.359   2.121   8.860  0.5326 -0.7579 -0.7577
19099SOL    HW260253   2.306   2.260   8.833 -1.7549 -1.7035 -1.3195
19100SOL     OW60254   2.157   8.907   2.444  0.2262  0.6755  0.4121
19100SOL    HW160255   2.202   8.969   2.501  0.0280  0.2171  1.0778
19100SOL    HW260256   2.212   8.903   2.365  0.6028  1.1656  0.6398
19101SOL     OW60257   4.672   6.609   7.919 -0.4280 -0.4572  0.3069
19101SOL    HW160258   4.744   6.621   7.857 -0.4962 -2.4520 -0.2143
19101SOL    HW260259   4.619   6.688   7.909 -0.2928 -0.5920 -2.0323
19102SOL     OW60260   4.268  10.177   3.547  0.6273 -0.0089  0.3855
19102SOL    HW160261   4.357  10.148   3.525  1.8029  3.3006  0.3424
19102SOL    HW260262   4.279  10.263   3.587 -2.5935  0.6330  0.1800
19103SOL     OW60263   0.924   1.257   7.562  0.3471 -0.1972  0.1532
19103SOL    HW160264   0.918   1.227   7.472 -1.8691 -1.5455  0.6659
19103SOL    HW260265   0.867   1.334   7.566  0.2467 -0.2837  0.4300
19104SOL     OW60266   3.392   5.641   5.375 -0.1366  0.3053 -0.5761
19104SOL    HW160267   3.299   5.665   5.380 -0.1912 -0.0058  0.0894
19104SOL    HW260268   3.408   5.625   5.282 -0.5207  1.2520 -0.8190
19105SOL     OW60269   6.723  10.695   4.425 -0.4258 -0.0377  0.6375
19105SOL    HW160270   6.643  10.747   4.429 -1.1517 -0.8248 -1.8981
19105SOL    HW260271   6.729  10.654   4.511 -2.7392  0.0859  0.9231
19106SOL     OW60272   3.221   7.822   8.227 -0.5639  0.9905  0.4266
19106SOL    HW160273   3.185   7.874   8.298 -1.0390  0.7621  0.3585
19106SOL    HW260274   3.222   7.732   8.261  0.3926  1.0581  0.6046
19107SOL     OW60275   7.607   1.303   3.451  0.6685 -0.2294  0.5926
19107SOL    HW160276   7.569   1.303   3.363 -0.2339 -2.9840  0.8910
19107SOL    HW260277   7.690   1.349   3.441 -0.4928  1.6714 -1.1365
19108SOL     OW60278   0.644   5.234   7.455  0.2603  0.4348 -0.2367
19108SOL    HW160279   0.561   5.282   7.461 -0.1015 -0.1242 -0.6520
19108SOL    HW260280   0.622   5.155   7.405  1.1155  0.4352 -0.6204
19109SOL     OW60281   6.968   2.436   1.950 -0.3521  0.1928 -0.1961
19109SOL    HW160282   6.955   2.365   2.014 -0.5379  1.0553  0.7435
19109SOL    HW260283   7.053   2.474   1.974 -0.8790  1.1611  0.1755
19110SOL     OW60284   4.899   1.397   2.331  0.1697 -0.2213 -0.4395
19110SOL    HW160285   4.832   1.393   2.262  1.9315 -1.1725 -2.2274
19110SOL    HW260286   4.903   1.308   2.366 -1.1923  0.4101  1.4719
19111SOL     OW60287   6.375   3.933   6.378 -0.2720 -0.2442  0.5429
19111SOL    HW160288   6.469   3.938   6.397 -0.2246  1.5097  0.0039
19111SOL    HW260289   6.369   3.864   6.311  0.4157 -1.4531  1.6826
19112SOL     OW60290   5.761   1.296   3.957  0.2587  0.1664 -0.5938
19112SOL    HW160291   5.823   1.223   3.964 -0.0215 -0.1296 -1.1118
19112SOL    HW260292   5.712   1.277   3.877 -0.9912  0.0101  0.1937
19113SOL     OW60293   4.603   8.569   4.552 -0.2623  0.0660  0.2246
19113SOL    HW160294   4.631   8.617   4.630 -0.1084  1.4558 -0.6517
19113SOL    HW260295   4.613   8.477   4.576 -0.5452  0.4449  1.9576
19114SOL     OW60296   1.495   1.513   1.049 -0.0177  0.5935  0.2753
19114SOL    HW160297   1.483   1.601   1.013  0.0137  0.0961 -1.0101
19114SOL    HW260298   1.564   1.523   1.114  0.3198  1.4321 -0.1969
19115SOL     OW60299   2.998  10.079   6.067  0.0801  0.2608 -0.0551
19115SOL    HW160300   2.952  10.133   6.131  0.8398  2.6607 -1.4031
19115SOL    HW260301   3.069  10.037   6.116 -0.3715  0.6821  0.9889
19116SOL     OW60302   2.533  10.472  10.036 -0.0798  0.0082  0.0433
19116SOL    HW160303   2.512  10.473  10.130 -0.1874 -3.3061  0.1789
19116SOL    HW260304   2.626  10.495  10.033 -0.0597  0.1099  0.9556
19117SOL     OW60305   1.877   9.394   5.054 -0.4676  0.0421 -0.2502
19117SOL    HW160306   1.802   9.335   5.054 -1.0985  0.6879  2.5513
19117SOL    HW260307   1.926   9.371   4.975 -2.1241 -2.3041 -0.6967
19118SOL     OW60308   2.833   6.278   5.891 -0.3369 -0.3627 -0.2566
19118SOL    HW160309   2.779   6.355   5.878 -0.3723 -0.3519 -0.0394
19118SOL    HW260310   2.891   6.276   5.815  0.8972  0.8944  0.6084
19119SOL     OW60311   4.529   4.901   7.407 -0.0914 -0.1963  0.7177
19119SOL    HW160312   4.593   4.877   7.473 -0.6992 -2.6098  0.5198
19119SOL    HW260313   4.581   4.924   7.330  0.6888 -3.3455  0.1380
19120SOL     OW60314   2.736   4.005   1.506 -0.4807  0.3342  0.4108
19120SOL    HW160315   2.764   4.038   1.591  0.3994  1.0652 -0.1406
19120SOL    HW260316   2.676   4.072   1.473 -0.1553  0.4797  0.1004
19121SOL     OW60317   5.595   5.337   3.744 -0.5484  0.6080 -0.0469
19121SOL    HW160318   5.642   5.271   3.795 -1.7763 -0.7520 -0.5914
19121SOL    HW260319   5.624   5.324   3.654 -3.7711 -2.1391 -0.8904
19122SOL     OW60320   6.775   0.430   7.942 -0.6155 -0.0407 -0.4163
19122SOL    HW160321   6.702   0.385   7.984 -0.6342  0.1702 -0.2176
19122SOL    HW260322   6.739   0.463   7.860  0.0472 -2.5564 -1.8206
19123SOL     OW60323  10.239   2.870   4.005 -0.2129  0.0049 -1.2027
19123SOL    HW160324  10.326   2.847   3.971  0.8887  1.0033  0.8062
19123SOL    HW260325  10.248   2.958   4.040 -2.1159  0.2291 -1.1332
19124SOL     OW60326   8.367   2.197   2.564 -1.3860  0.3520 -0.3147
19124SOL    HW160327   8.422   2.267   2.527 -1.4232  0.0729 -0.9054
19124SOL    HW260328   8.354   2.223   2.655  0.5829 -0.0883  0.1331
19125SOL     OW60329   9.801   0.644   3.360  0.4393  0.7306 -0.2168
19125SOL    HW160330   9.818   0.708   3.291  2.1709  1.1699  0.5751
19125SOL    HW260331   9.887   0.618   3.391 -0.1320 -2.8138 -1.1710
19126SOL     OW60332   1.314   3.850   3.801  0.3281 -0.6503  0.3166
19126SOL    HW160333   1.375   3.923   3.801  0.5935 -0.8728  0.5570
19126SOL    HW260334   1.330   3.805   3.718  1.0859 -1.2062  0.7599
19127SOL     OW60335   6.257   2.797   6.649  0.5715 -0.1684  0.6315
19127SOL    HW160336   6.295   2.884   6.644 -0.4283  0.2713  0.3886
19127SOL    HW260337   6.327   2.738   6.620  0.7871  0.6826 -0.6486
19128SOL     OW60338  10.492   9.822   3.887 -0.6231 -0.1264  0.1263
19128SOL    HW160339  10.539   9.890   3.935 -2.3484  1.0124  0.3002
19128SOL    HW260340  10.402   9.828   3.920 -1.3164 -0.9525 -1.5168
19129SOL     OW60341  10.491   6.282   8.079 -0.1267  0.5199 -0.4324
19129SOL    HW160342  10.469   6.256   7.989 -2.6125  0.9287 -0.0348
19129SOL    HW260343  10.426   6.350   8.100 -0.6134 -0.6351  2.1737
19130SOL     OW60344   6.388   4.542   3.173  0.4839  0.0629 -1.0262
19130SOL    HW160345   6.460   4.489   3.207 -0.7248 -1.7136 -1.0873
19130SOL    HW260346   6.347   4.486   3.106 -1.8040  0.3940 -0.0039
19131SOL     OW60347   3.650   1.240   0.201 -0.1379 -0.1529  0.3839
19131SOL    HW160348   3.560   1.219   0.225  0.3888 -0.1337  2.6329
19131SOL    HW260349   3.686   1.281   0.280  1.4238  1.1635 -0.9577
19132SOL     OW60350   5.471   5.447   5.237  0.0345 -0.0299  0.5899
19132SOL    HW160351   5.506   5.361   5.263 -0.4957 -0.8441 -1.1954
19132SOL    HW260352   5.549   5.501   5.223  0.6207 -1.2902 -1.5824
19133SOL     OW60353   9.078   6.176   1.568  0.0260  0.3359  0.3917
19133SOL    HW160354   9.138   6.102   1.562  0.6371  0.4437  3.3301
19133SOL    HW260355   9.115   6.242   1.510  2.2831  0.0490  1.3840
19134SOL     OW60356   5.621   4.011   1.877 -0.0145 -0.0389 -0.2046
19134SOL    HW160357   5.557   4.049   1.816 -0.9783 -0.2044  0.6815
19134SOL    HW260358   5.603   3.917   1.875  1.6287 -0.3751 -1.5454
19135SOL     OW60359   3.753   8.655   2.973  0.2655 -0.5063 -0.5716
19135SOL    HW160360   3.837   8.627   3.009  0.3425 -0.1714 -0.4880
19135SOL    HW260361   3.772   8.737   2.928 -0.2280  0.1374  0.3834
19136SOL     OW60362   4.684   9.404   7.537 -0.4906  0.0625  0.0361
19136SOL    HW160363   4.769   9.375   7.571 -0.1549 -0.1777 -0.9680
19136SOL    HW260364   4.706   9.461   7.464 -1.1965 -0.6122 -0.7220
19137SOL     OW60365   3.597   7.550   6.516  0.1435  0.2201 -0.7705
19137SOL    HW160366   3.612   7.596   6.598  1.1741  0.5185 -1.1228
19137SOL    HW260367   3.622   7.459   6.534 -0.2062  0.1576 -0.5879
19138SOL     OW60368   7.182  10.591   0.724 -0.0113  1.0518  0.2916
19138SOL    HW160369   7.245  10.659   0.749  0.6180  0.0175  1.6536
19138SOL    HW260370   7.126  10.581   0.801  1.3010 -1.4692  1.0564
19139SOL     OW60371   4.635   1.004   9.805 -0.0617  0.3262  0.1890
19139SOL    HW160372   4.638   1.090   9.763  1.5493  0.3485  0.2791
19139SOL    HW260373   4.560   1.009   9.865  0.1914  1.7694  0.4239
19140SOL     OW60374   3.392   0.855   3.203  0.0866  0.5053 -0.0036
19140SOL    HW160375   3.402   0.819   3.115  0.4423  0.7429 -0.0605
19140SOL    HW260376   3.478   0.889   3.226 -0.3364  1.7206 -0.1348
19141SOL     OW60377   8.504   7.693   2.639  0.4761  0.1570 -0.2395
19141SOL    HW160378   8.583   7.643   2.620  2.3365  2.4048  1.0040
19141SOL    HW260379   8.503   7.702   2.735 -1.9294 -0.6932 -0.1057
19142SOL     OW60380   6.975   4.138   9.873 -0.3592  0.3017  0.2701
19142SOL    HW160381   6.880   4.137   9.861 -0.6870 -0.2956  2.3937
19142SOL    HW260382   7.004   4.214   9.823 -1.7219 -0.3678 -1.6728
19143SOL     OW60383   4.625   2.473   3.706 -0.2123 -0.0282 -0.9277
19143SOL    HW160384   4.684   2.432   3.644  1.3053  0.8563 -0.1196
19143SOL    HW260385   4.618   2.564   3.677 -0.6721  0.0308 -0.6537
19144SOL     OW60386   3.283   4.042   1.082  0.2023  0.3140 -0.3442
19144SOL    HW160387   3.364   4.091   1.087  0.5288 -0.2804  0.3695
19144SOL    HW260388   3.237   4.061   1.164 -1.2191  2.0390 -1.4638
19145SOL     OW60389   7.534   5.398   0.270 -0.3825  0.1867 -0.0632
19145SOL    HW160390   7.596   5.472   0.273 -0.9488  0.6266  1.2063
19145SOL    HW260391   7.457   5.434   0.226 -1.2647  0.8532  1.9448
19146SOL     OW60392   1.681   3.765  10.603  0.1551  0.4804 -0.1837
19146SOL    HW160393   1.746   3.834  10.592  0.9384  0.0210  1.2877
19146SOL    HW260394   1.621   3.799  10.669 -1.0345  0.8234 -1.3987
19147SOL     OW60395   7.998   8.291   1.756  0.3042 -0.0396  0.0568
19147SOL    HW160396   7.938   8.365   1.765  0.6147  0.2337 -0.1029
19147SOL    HW260397   7.952   8.230   1.699  0.2942  0.2931 -0.2956
19148SOL     OW60398   4.024   3.270   1.674  0.5738 -0.3370  0.5110
19148SOL    HW160399   3.949   3.321   1.705 -0.0580 -0.1308 -1.2463
19148SOL    HW260400   3.985   3.197   1.626  1.4947 -0.6001  0.1417
19149SOL     OW60401   4.514   5.004   4.626  0.1170 -0.0323  0.0326
19149SOL    HW160402   4.542   4.917   4.596  0.0732 -0.4879  1.2837
19149SOL    HW260403   4.529   5.003   4.720  0.5339  1.4905  0.0075
19150SOL     OW60404   1.625   1.700   9.777 -0.3786  0.0820  0.6225
19150SOL    HW160405   1.540   1.728   9.744 -0.0245  0.1568 -0.2697
19150SOL    HW260406   1.634   1.744   9.861 -1.4695 -0.3999  1.0151
19151SOL     OW60407   9.982   0.739   6.115  0.1822  0.0819 -0.4161
19151SOL    HW160408   9.918   0.688   6.164 -1.2614  2.0571 -0.1414
19151SOL    HW260409   9.950   0.739   6.025 -0.4152  1.3388 -0.2204
19152SOL     OW60410   9.442   4.861   0.543  0.2536  0.0182 -0.2953
19152SOL    HW160411   9.446   4.824   0.632  2.2597  1.0239  0.0906
19152SOL    HW260412   9.389   4.940   0.552  1.5964  0.8713  0.3344
19153SOL     OW60413   8.264   5.458   7.090  0.1992  0.1761  0.3363
19153SOL    HW160414   8.322   5.473   7.165  1.6709 -0.5453 -0.5950
19153SOL    HW260415   8.297   5.377   7.051 -1.7562 -0.5030 -0.0033
19154SOL     OW60416   0.712   0.996   9.806 -0.1491 -0.0514  0.0382
19154SOL    HW160417   0.770   0.922   9.784 -0.1638  0.4053 -1.6630
19154SOL    HW260418   0.771   1.062   9.842  0.5968  0.7094 -2.3972
19155SOL     OW60419   3.923   9.604   5.829 -0.1854  1.0387 -0.4687
19155SOL    HW160420   4.016   9.606   5.851 -0.0709 -0.4434 -0.7137
19155SOL    HW260421   3.883   9.558   5.902 -0.7041  1.4963 -0.4609
19156SOL     OW60422   5.012   8.180   7.304  0.3082  0.1714 -0.1902
19156SOL    HW160423   5.030   8.086   7.311 -4.8965 -1.0254  1.1547
19156SOL    HW260424   5.000   8.209   7.394  0.2824  1.7939 -0.6875
19157SOL     OW60425  10.437   9.332   5.760  0.4745  0.6545 -0.1277
19157SOL    HW160426  10.514   9.389   5.768  1.0911 -0.1900  0.0210
19157SOL    HW260427  10.415   9.337   5.667  2.4604 -1.2986 -0.7937
19158SOL     OW60428   4.811   3.713   2.843 -0.4956  0.4618 -0.0213
19158SOL    HW160429   4.886   3.761   2.878 -1.3679  1.6009  0.3578
19158SOL    HW260430   4.751   3.707   2.917 -0.2217 -1.6858  0.0855
19159SOL     OW60431   4.821   2.396   6.807 -0.3392 -0.4911  0.4742
19159SOL    HW160432   4.903   2.428   6.769 -0.7133 -1.5506 -1.3504
19159SOL    HW260433   4.762   2.472   6.804  0.3680  0.1045  1.2208
19160SOL     OW60434   2.442   7.432   3.539  0.2366 -0.5627  0.1449
19160SOL    HW160435   2.469   7.368   3.605  0.4863 -0.4022  0.2044
19160SOL    HW260436   2.382   7.491   3.585  0.5884 -0.3157  0.2965
19161SOL     OW60437   3.266   1.833   1.287 -0.1558 -0.5278 -0.7465
19161SOL    HW160438   3.254   1.899   1.218  0.5596  1.4871  0.9521
19161SOL    HW260439   3.361   1.824   1.296 -0.2461 -1.2940 -0.5019
19162SOL     OW60440   5.327   1.013   5.395  0.1765  0.6249 -0.3416
19162SOL    HW160441   5.383   1.088   5.373  2.3444 -0.6334  0.6023
19162SOL    HW260442   5.384   0.937   5.387 -1.8729 -0.9356 -0.9378
19163SOL     OW60443  10.072  10.465   7.320  0.6147  0.6380 -0.3623
19163SOL    HW160444  10.055  10.403   7.249  1.0222  0.0715  0.0223
19163SOL    HW260445  10.111  10.412   7.390 -1.9369  0.7095  1.2487
19164SOL     OW60446   4.786   5.806   4.713 -0.0400  0.3372 -0.0464
19164SOL    HW160447   4.848   5.751   4.760 -1.0184  0.6054  1.6392
19164SOL    HW260448   4.734   5.745   4.660  0.2876 -0.1039  0.1366
19165SOL     OW60449   6.519   4.654   7.896 -0.1176  0.2643 -0.7353
19165SOL    HW160450   6.473   4.718   7.950 -1.2886 -0.7517 -0.5002
19165SOL    HW260451   6.595   4.701   7.862  0.2162  1.1544  1.1615
19166SOL     OW60452   7.693   5.399   7.041 -0.1941 -0.4333 -0.2292
19166SOL    HW160453   7.701   5.397   7.136  0.0942 -2.3212 -0.2630
19166SOL    HW260454   7.617   5.344   7.022 -1.7731  1.8866 -0.9939
19167SOL     OW60455   8.369  10.326   1.170  0.1869 -0.0625 -0.5845
19167SOL    HW160456   8.417  10.265   1.226  2.1526  1.5191 -0.4010
19167SOL    HW260457   8.308  10.371   1.229 -0.5329 -1.0845 -0.5277
19168SOL     OW60458   6.239   3.753   6.937  0.3029 -0.0938  0.1971
19168SOL    HW160459   6.291   3.778   7.013 -0.2728  0.2983  0.4720
19168SOL    HW260460   6.248   3.827   6.876 -1.2815  0.7758  0.9498
19169SOL     OW60461   8.491   6.023   1.843  0.3034  0.1149  0.0299
19169SOL    HW160462   8.521   6.110   1.870  3.2421 -1.0952  1.1252
19169SOL    HW260463   8.438   5.992   1.917  0.5438  0.3891  0.3196
19170SOL     OW60464   2.245   4.067   6.949  0.1415 -0.0900  0.1952
19170SOL    HW160465   2.154   4.096   6.958  0.2033 -0.1871  1.4245
19170SOL    HW260466   2.247   3.981   6.991 -0.1546 -2.3136 -3.9045
19171SOL     OW60467   5.564   3.523   9.125 -0.4341 -0.8416  0.1007
19171SOL    HW160468   5.609   3.564   9.051  0.4924  1.1519  1.6799
19171SOL    HW260469   5.634   3.481   9.176 -0.9200 -1.2567  0.4385
19172SOL     OW60470   3.173   3.161   0.187 -0.6153 -0.2338  0.2180
19172SOL    HW160471   3.202   3.159   0.278 -0.7241 -0.3900  0.2490
19172SOL    HW260472   3.100   3.100   0.184  0.2430 -1.2790 -0.2698
19173SOL     OW60473   4.160   0.448   9.788 -0.0352 -0.4551  0.0031
19173SOL    HW160474   4.223   0.418   9.722 -0.4857  0.9144 -1.1310
19173SOL    HW260475   4.076   0.446   9.742 -0.0826  2.5576 -0.2835
19174SOL     OW60476  10.010   0.417   8.520  0.2710 -0.0311  0.2970
19174SOL    HW160477  10.101   0.407   8.550 -0.3121 -1.6936  1.6687
19174SOL    HW260478   9.965   0.341   8.556 -0.9749 -1.1287 -3.2451
19175SOL     OW60479   5.411   5.775   0.634 -0.3406 -0.4452  0.1028
19175SOL    HW160480   5.473   5.845   0.612  0.3399 -0.6903  1.1415
19175SOL    HW260481   5.352   5.815   0.697  0.0882 -0.8132  0.7462
19176SOL     OW60482   1.494   3.963   9.570  0.2252 -0.1428  0.4596
19176SOL    HW160483   1.415   3.911   9.585  1.8681 -2.5494  1.4613
19176SOL    HW260484   1.505   4.012   9.651  0.4252 -0.7947  0.8369
19177SOL     OW60485   0.655   7.623   3.768 -0.6618  0.0783 -0.0752
19177SOL    HW160486   0.576   7.595   3.721 -0.9509  1.5117 -0.4719
19177SOL    HW260487   0.643   7.716   3.783 -0.2838 -0.1933  2.3271
19178SOL     OW60488   6.635   3.580   1.711  0.1096  0.2080  0.7123
19178SOL    HW160489   6.667   3.611   1.795 -0.0873  0.9089  0.5308
19178SOL    HW260490   6.646   3.485   1.715 -0.3379  0.1940  1.7104
19179SOL     OW60491   6.963   0.643   5.730 -0.1551  0.0846 -0.5752
19179SOL    HW160492   7.017   0.666   5.805 -3.0996  1.5646  1.3096
19179SOL    HW260493   6.982   0.710   5.664  1.0900 -0.1109 -0.4274
19180SOL     OW60494   5.747   3.631   5.252 -0.4829 -0.1361 -0.0681
19180SOL    HW160495   5.673   3.660   5.304  0.1000 -0.7960  1.1843
19180SOL    HW260496   5.820   3.625   5.314  0.4123 -0.3183 -1.0913
19181SOL     OW60497   6.276   9.391   0.883 -0.2319 -0.2287 -0.2324
19181SOL    HW160498   6.312   9.459   0.826  0.1329 -1.4140 -1.4637
19181SOL    HW260499   6.184   9.383   0.857  0.0577 -1.1120 -1.0147
19182SOL     OW60500   6.791   3.272  10.119 -0.1840  0.0742  0.2682
19182SOL    HW160501   6.879   3.274  10.080 -0.1571 -0.8563  0.2680
19182SOL    HW260502   6.781   3.359  10.158  0.8044  0.1375  0.4170
19183SOL     OW60503   7.069   2.824   2.062  0.2100 -0.2514  0.4061
19183SOL    HW160504   7.058   2.847   2.155  0.6451 -2.0520  0.9400
19183SOL    HW260505   7.022   2.893   2.015 -2.4776 -0.7819  2.0819
19184SOL     OW60506   6.974   6.309   2.138  0.0917 -0.4468 -0.1856
19184SOL    HW160507   7.052   6.312   2.083  1.4933 -0.3457  1.7138
19184SOL    HW260508   6.905   6.349   2.084  1.5829  0.4654 -1.5043
19185SOL     OW60509   0.969   8.450   0.501 -0.6979 -0.3035  0.2376
19185SOL    HW160510   0.939   8.491   0.582  1.1116  2.5658 -0.4131
19185SOL    HW260511   1.061   8.476   0.494 -0.1463 -2.4826 -1.5726
19186SOL     OW60512  10.324   3.890   2.944 -0.6473 -0.1534  0.3252
19186SOL    HW160513  10.321   3.856   2.855  2.2188  1.6646 -0.6245
19186SOL    HW260514  10.260   3.961   2.945  0.9747  1.4354 -1.1711
19187SOL     OW60515   3.955   5.409   4.528  0.1423 -0.8006 -0.2326
19187SOL    HW160516   3.947   5.499   4.559  1.3114 -1.1286  1.1536
19187SOL    HW260517   3.966   5.417   4.433 -1.9992  0.3503 -0.4310
19188SOL     OW60518  10.015  10.109  10.078  0.5249 -0.6099 -0.1740
19188SOL    HW160519   9.987  10.150   9.996  1.4663  0.7023  0.1270
19188SOL    HW260520   9.944  10.126  10.139  0.2296 -0.7818 -0.4670
19189SOL     OW60521   8.246   7.107   6.901  0.6786 -0.2273  0.3185
19189SOL    HW160522   8.226   7.105   6.808  1.1763  0.3359  0.1950
19189SOL    HW260523   8.268   7.198   6.920  1.6026 -0.5219  0.7592
19190SOL     OW60524   3.970   5.702  10.087  0.2048  0.3431  0.3167
19190SOL    HW160525   3.925   5.700  10.172 -0.6738  0.4041 -0.1287
19190SOL    HW260526   3.937   5.625  10.041 -0.0525  0.8176 -0.3120
19191SOL     OW60527   0.637   2.727   4.249  0.0442 -0.7487 -0.1258
19191SOL    HW160528   0.591   2.677   4.182  0.9422 -0.8256 -0.6906
19191SOL    HW260529   0.727   2.693   4.247  0.4617  0.3327  0.0401
19192SOL     OW60530  10.380   8.009   7.543 -0.1918  0.1734  0.6527
19192SOL    HW160531  10.310   7.946   7.525 -1.0236  1.3698 -0.4644
19192SOL    HW260532  10.419   8.026   7.457  1.9710 -0.9645  1.3223
19193SOL     OW60533   9.933   7.872   9.600 -0.1954 -0.1733  0.1962
19193SOL    HW160534   9.856   7.834   9.643 -0.1513  0.1908  0.6122
19193SOL    HW260535  10.005   7.849   9.659  0.0061 -0.4639 -0.1633
19194SOL     OW60536   0.352   1.265  10.462  0.1392  0.2275 -0.2643
19194SOL    HW160537   0.315   1.311  10.537 -0.4767  1.6031 -1.3608
19194SOL    HW260538   0.429   1.220  10.497 -1.2621 -0.8714  1.6054
19195SOL     OW60539   7.580   3.830   1.432  0.5508 -0.1756  0.0616
19195SOL    HW160540   7.489   3.841   1.460 -0.1357 -1.3044 -1.5880
19195SOL    HW260541   7.619   3.773   1.499 -0.5169 -1.2475 -0.1929
19196SOL     OW60542   5.236   4.584   8.618 -0.3530 -0.2537  0.3858
19196SOL    HW160543   5.271   4.496   8.615  0.6405  0.1408 -0.0828
19196SOL    HW260544   5.145   4.575   8.589 -0.1548 -1.0677 -0.0052
19197SOL     OW60545   2.426   1.082   2.668 -0.4998 -0.6618  0.2667
19197SOL    HW160546   2.394   1.166   2.635 -2.7626 -1.9051 -0.9693
19197SOL    HW260547   2.507   1.067   2.618  0.2651  0.9789  0.9206
19198SOL     OW60548   8.623   0.465   1.811  0.4115 -0.0808  0.1004
19198SOL    HW160549   8.664   0.392   1.859  0.8634 -0.4801 -0.8557
19198SOL    HW260550   8.533   0.436   1.797  0.2587  0.0661  0.7543
19199SOL     OW60551  10.453   1.200   5.531 -0.3783  0.6008  0.4106
19199SOL    HW160552  10.538   1.225   5.568  0.0809  0.6646 -0.6643
19199SOL    HW260553  10.444   1.107   5.553  0.4399  0.3356 -0.3508
19200SOL     OW60554   7.824   5.441   6.822  0.7079  0.3814  0.1869
19200SOL    HW160555   7.775   5.443   6.905 -1.7925 -2.5470 -1.0235
19200SOL    HW260556   7.781   5.507   6.767 -0.6517 -0.7684 -0.1869
19201SOL     OW60557   3.999   2.469   8.831  0.2412  0.4724  0.2479
19201SOL    HW160558   3.921   2.436   8.787  0.5063 -0.1093  0.1998
19201SOL    HW260559   4.070   2.454   8.769  1.0329 -2.5619  1.6923
19202SOL     OW60560   5.095   7.849   0.556  0.0240 -0.4351  0.7947
19202SOL    HW160561   5.105   7.910   0.629 -0.4699 -1.0142  1.3526
19202SOL    HW260562   5.184   7.828   0.530  0.2013  0.3066  0.7780
19203SOL     OW60563   4.271   5.494   8.125  0.2666 -0.2433  0.3206
19203SOL    HW160564   4.300   5.480   8.216  0.7864 -0.3506  0.1398
19203SOL    HW260565   4.344   5.463   8.072  0.8594  1.7815 -0.1178
19204SOL     OW60566   5.758   8.093   8.168  0.1959  0.0592 -0.2700
19204SOL    HW160567   5.721   8.181   8.176 -0.7394 -0.4314  1.0257
19204SOL    HW260568   5.851   8.104   8.189 -0.3797  0.3769  2.4831
19205SOL     OW60569   4.367   0.860   8.990  0.1194  0.5140 -0.2042
19205SOL    HW160570   4.345   0.816   8.908  0.2502  1.1929 -0.6101
19205SOL    HW260571   4.454   0.827   9.013 -1.2020 -2.1947  1.4088
19206SOL     OW60572   3.301   4.992   3.468  0.6282  0.1003 -0.4746
19206SOL    HW160573   3.274   5.064   3.410 -0.3802 -0.9315 -1.3302
19206SOL    HW260574   3.225   4.978   3.524  0.4203 -0.9710 -1.0090
19207SOL     OW60575   7.251  10.080   6.528 -0.0585 -0.0508 -0.5003
19207SOL    HW160576   7.227  10.041   6.444 -2.5428 -1.6585  0.8141
19207SOL    HW260577   7.321  10.141   6.507 -0.4213 -0.5438 -3.6890
19208SOL     OW60578   6.631   2.795   9.915 -0.0308  0.3917 -0.0761
19208SOL    HW160579   6.644   2.706   9.948 -2.7455 -0.2338 -0.4027
19208SOL    HW260580   6.680   2.799   9.833 -1.1570 -1.4234 -0.9034
19209SOL     OW60581   5.181   3.646   0.852 -0.5312 -0.7472 -1.0353
19209SOL    HW160582   5.220   3.560   0.833  0.1840 -0.1011 -2.6783
19209SOL    HW260583   5.099   3.647   0.803 -0.8152 -0.6990 -0.5626
19210SOL     OW60584   9.518   0.719   1.859 -0.3159 -1.2122 -0.6008
19210SOL    HW160585   9.457   0.645   1.865  0.3036 -1.7617 -1.0399
19210SOL    HW260586   9.477   0.778   1.797 -1.4321 -0.5796  0.6808
19211SOL     OW60587   7.931   2.023   2.652  0.1914 -0.6278 -0.0163
19211SOL    HW160588   7.852   1.970   2.643 -1.1456  1.3549 -0.6841
19211SOL    HW260589   7.963   2.031   2.562 -1.4435  2.2085 -0.4550
19212SOL     OW60590   9.828   1.275   4.972  0.1678  0.3468 -0.1107
19212SOL    HW160591   9.872   1.346   5.020  0.4907  0.1192 -0.0628
19212SOL    HW260592   9.865   1.278   4.884  1.4452 -0.8221  0.3470
19213SOL     OW60593   4.153   5.841   4.521  0.1463  0.0034 -0.2057
19213SOL    HW160594   4.152   5.782   4.447 -1.2535  0.0509 -0.2588
19213SOL    HW260595   4.075   5.819   4.571 -1.2288  2.6673 -0.9591
19214SOL     OW60596   9.930   0.605   4.207 -0.4274 -0.5936 -0.2103
19214SOL    HW160597   9.999   0.670   4.193 -0.1499 -1.0757 -1.1830
19214SOL    HW260598   9.849   0.656   4.204 -0.1714 -0.1780 -0.1520
19215SOL     OW60599   6.032   4.999   7.400 -0.3753  0.0420  0.0822
19215SOL    HW160600   6.099   5.067   7.393 -1.0496  0.6672 -0.4126
19215SOL    HW260601   5.961   5.039   7.450 -0.3934 -0.6146  0.6020
19216SOL     OW60602   6.693   7.109   5.626 -0.7583 -0.3815  0.3392
19216SOL    HW160603   6.628   7.170   5.660 -0.9523  0.0512 -0.7500
19216SOL    HW260604   6.661   7.088   5.538  1.3871  1.1149 -0.8923
19217SOL     OW60605   8.303   6.466   0.927  0.5183 -0.1372  0.3950
19217SOL    HW160606   8.245   6.540   0.911 -0.2651 -0.8977 -0.3816
19217SOL    HW260607   8.385   6.506   0.956  0.7728  1.1902 -1.9165
19218SOL     OW60608   0.953   3.771   0.693 -0.7558  0.0203 -0.1737
19218SOL    HW160609   1.006   3.740   0.620 -0.1293  0.3105  0.1505
19218SOL    HW260610   0.966   3.705   0.761  0.3396  0.8138  0.4117
19219SOL     OW60611   8.437   7.967   8.599  0.6423  0.2801 -0.1376
19219SOL    HW160612   8.385   7.889   8.615  0.4549  0.1400 -1.3253
19219SOL    HW260613   8.486   7.947   8.519  3.5820 -0.1267  1.6353
19220SOL     OW60614   2.596   7.500   6.082 -0.0172 -0.5913 -0.8706
19220SOL    HW160615   2.665   7.546   6.034  1.2228  0.0266  1.3637
19220SOL    HW260616   2.572   7.427   6.024  2.8136 -1.0783 -1.6156
19221SOL     OW60617   4.322   6.120   7.563 -0.5170  0.1955  0.1614
19221SOL    HW160618   4.318   6.027   7.586  1.8017  0.5487  2.5826
19221SOL    HW260619   4.399   6.127   7.506 -0.3438  0.6683  0.4443
19222SOL     OW60620   6.500   6.732   4.307 -0.0148 -0.2612 -0.1088
19222SOL    HW160621   6.588   6.743   4.271  0.8527  1.5636  2.2364
19222SOL    HW260622   6.483   6.638   4.303  2.6291 -0.8362  0.5176
19223SOL     OW60623   6.176   7.497   1.475  0.3462 -0.6739  0.3368
19223SOL    HW160624   6.204   7.491   1.383  0.0918 -1.4138  0.2985
19223SOL    HW260625   6.240   7.445   1.523  0.1812 -0.7255  0.5031
19224SOL     OW60626   4.427   2.153   2.981  0.5464 -0.2662  0.4706
19224SOL    HW160627   4.404   2.180   2.892 -0.9525 -0.9040  0.6260
19224SOL    HW260628   4.414   2.058   2.981 -0.6119 -0.1343  1.6677
19225SOL     OW60629   6.514   5.635   1.132 -0.5592 -0.6588  0.3087
19225SOL    HW160630   6.584   5.652   1.068  2.2699  1.7784  3.6474
19225SOL    HW260631   6.547   5.561   1.183 -0.7331  0.0188  1.4330
19226SOL     OW60632   7.912   4.758   1.304 -0.4061  0.0657 -0.1105
19226SOL    HW160633   7.875   4.722   1.384  1.1990  0.1316  0.7019
19226SOL    HW260634   7.959   4.684   1.264 -0.6320  0.2050 -0.6511
19227SOL     OW60635   8.224  10.415   7.941 -0.8717  0.0263 -0.1537
19227SOL    HW160636   8.231  10.481   7.872 -2.8722 -0.5329 -0.9482
19227SOL    HW260637   8.262  10.336   7.903 -2.0159 -0.2945 -0.6623
19228SOL     OW60638   3.262   5.451   5.623  0.4049  0.1973  0.5600
19228SOL    HW160639   3.316   5.469   5.546  0.9232 -2.1830  0.2707
19228SOL    HW260640   3.260   5.355   5.628 -1.9851  0.2509  1.8682
19229SOL     OW60641   7.248   4.838   2.747  0.0430  0.1894  0.2932
19229SOL    HW160642   7.307   4.895   2.797  0.4887  0.4335 -0.4826
19229SOL    HW260643   7.180   4.897   2.716 -0.7114 -0.1208  1.3119
19230SOL     OW60644   8.386   7.765   0.528 -0.1636  0.1474 -0.0572
19230SOL    HW160645   8.334   7.727   0.457  1.2999 -0.4742 -0.8599
19230SOL    HW260646   8.358   7.717   0.606 -1.0281  0.0714 -0.4020
19231SOL     OW60647   7.179   2.030   2.047 -0.7827 -0.0265  0.3933
19231SOL    HW160648   7.086   2.009   2.047 -0.8308  0.1591 -0.3996
19231SOL    HW260649   7.223   1.947   2.030 -1.0036  0.4727 -3.5324
19232SOL     OW60650   3.762   7.853   4.899 -0.0956  0.4208  0.6437
19232SOL    HW160651   3.792   7.815   4.816 -0.1648  1.7038  0.0132
19232SOL    HW260652   3.817   7.930   4.911  0.8560 -0.4856  2.5151
19233SOL     OW60653  10.025   8.913   6.917 -0.6548 -0.2478 -0.6218
19233SOL    HW160654   9.980   8.917   7.002  1.9146  0.7544  0.8052
19233SOL    HW260655   9.997   8.991   6.871  1.4817  1.8654  1.3718
19234SOL     OW60656   1.929   9.995   7.259  0.0035  0.2993 -0.0325
19234SOL    HW160657   1.907  10.088   7.257 -0.1352  0.3215  1.3779
19234SOL    HW260658   1.844   9.951   7.258  0.0738  0.0976 -2.1587
19235SOL     OW60659   8.055   2.710   0.871  0.3738 -0.1827 -0.1599
19235SOL    HW160660   8.005   2.791   0.868  2.0497  0.9544  0.7143
19235SOL    HW260661   7.990   2.641   0.877 -1.0867  1.1461 -0.1510
19236SOL     OW60662   4.284   3.290   5.672  0.3020  0.0742 -0.8107
19236SOL    HW160663   4.361   3.312   5.620  0.0420  1.8305 -0.5052
19236SOL    HW260664   4.210   3.308   5.614  0.0548  0.8168 -0.2766
19237SOL     OW60665   1.849   0.579   6.184  0.1038  0.0632 -0.5308
19237SOL    HW160666   1.813   0.608   6.267  0.2401  2.1460 -1.1405
19237SOL    HW260667   1.793   0.506   6.157  0.1815 -0.7747  1.4442
19238SOL     OW60668   6.784   2.447   9.443  0.4326 -0.2669  0.3146
19238SOL    HW160669   6.736   2.366   9.461  2.7653 -1.5252  1.3629
19238SOL    HW260670   6.853   2.420   9.382  1.0377  1.0044  0.4114
19239SOL     OW60671   8.465   0.987   9.064  0.3801 -0.5434 -0.1979
19239SOL    HW160672   8.499   0.965   8.978  1.2104  1.6870 -0.4869
19239SOL    HW260673   8.542   0.984   9.122  0.2174 -0.0133  0.0551
19240SOL     OW60674   3.654   6.963   1.185  0.3335  0.2490  0.4237
19240SOL    HW160675   3.724   6.980   1.247 -0.4352  0.6204  1.2218
19240SOL    HW260676   3.623   7.049   1.159  0.5415  0.0917 -0.3621
19241SOL     OW60677   3.355   1.612   9.834  0.2741 -0.3109 -0.4672
19241SOL    HW160678   3.383   1.527   9.800  1.2960 -0.2366  0.1394
19241SOL    HW260679   3.436   1.662   9.842  0.2742 -0.6496  2.9430
19242SOL     OW60680   6.902   0.905   4.172  0.0017 -0.4172  0.1290
19242SOL    HW160681   6.979   0.916   4.227  1.4835 -2.5351 -1.3853
19242SOL    HW260682   6.935   0.909   4.082 -1.8231 -0.3557 -0.6003
19243SOL     OW60683   1.448  10.053   3.549  0.1058  0.5683  0.0892
19243SOL    HW160684   1.540  10.080   3.538  0.1810  0.2192 -0.1571
19243SOL    HW260685   1.452   9.958   3.560 -0.2137  0.5748  0.2750
19244SOL     OW60686   5.680   8.451   0.790  0.3427 -0.1736 -0.9100
19244SOL    HW160687   5.611   8.463   0.725  0.7175 -0.2169 -1.3247
19244SOL    HW260688   5.736   8.382   0.752  0.6788 -0.0513 -0.6406
19245SOL     OW60689   8.229   9.940   5.402  0.8707 -0.0952 -0.2432
19245SOL    HW160690   8.207   9.964   5.312  0.1149  0.6059  0.1170
19245SOL    HW260691   8.224   9.844   5.403  2.1823 -0.1954 -1.2532
19246SOL     OW60692   8.272   4.502   1.725  0.4801  0.6776  0.1611
19246SOL    HW160693   8.294   4.427   1.779  0.5406  0.0639 -0.7066
19246SOL    HW260694   8.353   4.525   1.680  0.7395  1.9331  1.1976
19247SOL     OW60695   7.376   4.988   5.346  0.5578  0.0696  0.0671
19247SOL    HW160696   7.371   5.059   5.410 -1.0251 -0.4193  0.5393
19247SOL    HW260697   7.451   4.936   5.373 -0.3658 -0.4045  1.8783
19248SOL     OW60698   7.834   1.558   9.019  0.1840 -0.1224  0.0367
19248SOL    HW160699   7.808   1.525   9.105 -2.9186  0.4056 -0.5815
19248SOL    HW260700   7.826   1.482   8.961  1.9015 -0.3876  0.1140
19249SOL     OW60701   6.578   4.764   2.190 -0.2729 -0.0541 -0.0447
19249SOL    HW160702   6.617   4.708   2.257  1.5637 -0.2348 -1.1966
19249SOL    HW260703   6.488   4.778   2.220  0.6898  0.5649  2.8483
19250SOL     OW60704   9.636   4.937   3.267  0.3954 -0.0602 -0.1399
19250SOL    HW160705   9.541   4.952   3.272 -0.3515 -4.0936  1.5045
19250SOL    HW260706   9.657   4.950   3.174 -1.7861  0.8511 -0.5731
19251SOL     OW60707   1.203   7.544   3.114  0.1750 -0.4606  0.4351
19251SOL    HW160708   1.235   7.545   3.024  2.9401  0.0987  1.3471
19251SOL    HW260709   1.199   7.451   3.137 -3.4125 -0.8574 -1.0723
19252SOL     OW60710   3.623   2.083  10.580  1.0593  0.3222 -0.0810
19252SOL    HW160711   3.534   2.077  10.545 -0.3962  0.3959  3.2611
19252SOL    HW260712   3.640   2.177  10.586  1.8594  0.3148 -1.6914
19253SOL     OW60713   4.819   2.689   9.635 -0.1334 -0.0888 -0.4116
19253SOL    HW160714   4.840   2.624   9.701  0.9353 -1.5862 -2.1120
19253SOL    HW260715   4.893   2.687   9.575 -0.3135  2.3745 -0.8016
19254SOL     OW60716   2.315   1.705   5.543  0.2539 -0.3076  0.1516
19254SOL    HW160717   2.292   1.657   5.463  1.4955 -1.0275  0.1983
19254SOL    HW260718   2.232   1.740   5.575 -0.5933 -1.8509 -0.2687
19255SOL     OW60719   5.509   2.167   4.551  0.9340  0.5201 -0.4269
19255SOL    HW160720   5.494   2.132   4.639  0.5244 -1.2792 -1.1541
19255SOL    HW260721   5.601   2.146   4.532  0.5252 -0.7761 -1.0936
19256SOL     OW60722   9.287   0.011   6.489  0.1411 -0.1725  0.5132
19256SOL    HW160723   9.280  -0.012   6.397  1.8713  1.0376  0.0361
19256SOL    HW260724   9.239   0.094   6.496  1.0288  0.3510  0.4380
19257SOL     OW60725   5.431   1.679   2.042  0.3584 -0.5253 -0.3946
19257SOL    HW160726   5.392   1.763   2.017 -1.0793 -0.7942  0.8449
19257SOL    HW260727   5.522   1.687   2.015  0.2442  1.4075 -0.3657
19258SOL     OW60728   3.710   2.744   7.569  0.3859  0.3065  0.4692
19258SOL    HW160729   3.654   2.821   7.574 -0.4118 -0.2687  0.5175
19258SOL    HW260730   3.799   2.779   7.571  0.1812  1.6042 -3.9384
19259SOL     OW60731   1.290   9.008   6.413 -0.0731 -0.2270  0.0317
19259SOL    HW160732   1.327   8.945   6.475 -0.8266 -1.2259 -0.4933
19259SOL    HW260733   1.251   9.076   6.468 -0.4917 -0.9578  0.6597
19260SOL     OW60734   0.151   4.353   8.339  0.0553 -0.5897 -0.3702
19260SOL    HW160735   0.167   4.276   8.394 -0.8024  0.0294  0.7649
19260SOL    HW260736   0.057   4.366   8.342  0.1191  0.1127 -1.1186
19261SOL     OW60737  10.106   5.443   7.428  0.2476 -0.3546  0.2312
19261SOL    HW160738  10.102   5.488   7.343  0.8680 -0.3276  0.2137
19261SOL    HW260739  10.014   5.438   7.456  0.2237  1.8998  0.7588
19262SOL     OW60740   5.029   4.279   0.172 -0.3568 -0.6344 -0.6407
19262SOL    HW160741   5.094   4.280   0.102  2.5465 -0.8282  1.8461
19262SOL    HW260742   4.971   4.206   0.150  1.2715 -1.5423 -2.1362
19263SOL     OW60743   3.048   4.491   9.583  0.1945 -0.5633 -0.7417
19263SOL    HW160744   3.027   4.416   9.638  0.2464 -0.3189 -0.3853
19263SOL    HW260745   3.139   4.479   9.557  0.1493 -0.7122 -0.8314
19264SOL     OW60746   0.557   9.705   5.249  0.1195  0.6992 -0.2512
19264SOL    HW160747   0.542   9.653   5.328  0.2763 -0.6351 -1.0707
19264SOL    HW260748   0.470   9.718   5.213  0.2159 -0.5423 -0.9806
19265SOL     OW60749   9.002   0.456   9.984  0.1918  0.3092 -0.3860
19265SOL    HW160750   9.041   0.535   9.945 -2.2559  1.4211 -0.7578
19265SOL    HW260751   8.947   0.420   9.915  0.3484 -1.0639  0.1872
19266SOL     OW60752   3.861  10.041   8.340 -0.3090  0.2277 -0.5737
19266SOL    HW160753   3.913  10.115   8.309  1.1067 -0.9811 -1.1953
19266SOL    HW260754   3.877  10.039   8.435 -0.6988  0.9455 -0.4831
19267SOL     OW60755  10.278   9.307   7.961 -0.0139 -0.3311 -0.5166
19267SOL    HW160756  10.248   9.223   7.925 -1.1546  0.1519 -0.7035
19267SOL    HW260757  10.240   9.373   7.904 -0.7269  0.4048  0.7685
19268SOL     OW60758   2.051   9.419   1.106  0.4109  0.1469 -0.1592
19268SOL    HW160759   2.043   9.462   1.021  0.2458  2.0956  0.7918
19268SOL    HW260760   1.960   9.410   1.137  0.4397 -0.9331 -0.3352
19269SOL     OW60761  10.417   2.659   9.477  0.0985 -0.0221  0.3429
19269SOL    HW160762  10.486   2.710   9.436  0.5605  0.0077  1.1439
19269SOL    HW260763  10.373   2.721   9.535 -0.6819 -0.0097 -0.2464
19270SOL     OW60764   2.791   6.743   9.807  0.0511 -0.4035  0.1769
19270SOL    HW160765   2.756   6.722   9.720 -0.1771 -0.8469  0.3699
19270SOL    HW260766   2.714   6.744   9.864  0.2083 -0.1821  0.3859
19271SOL     OW60767   0.994   0.096   2.530 -0.5769 -0.6546 -0.2118
19271SOL    HW160768   1.068   0.099   2.590  1.5583 -2.6638 -2.5350
19271SOL    HW260769   0.930   0.040   2.572  0.0461 -0.4879  0.9842
19272SOL     OW60770   9.896   7.041   6.574 -0.1309 -0.4336 -0.4712
19272SOL    HW160771   9.870   7.077   6.489 -0.9777  0.7161  0.2415
19272SOL    HW260772   9.944   6.961   6.552 -3.4768 -2.2608 -1.9582
19273SOL     OW60773   1.407   1.409   4.622 -0.1415 -0.2450 -0.0927
19273SOL    HW160774   1.488   1.436   4.666 -0.7347  1.8861 -0.1843
19273SOL    HW260775   1.341   1.470   4.654 -0.8765  0.5916 -2.9382
19274SOL     OW60776   2.545   3.523   1.496  0.0587  0.1246  0.0852
19274SOL    HW160777   2.548   3.456   1.564 -0.6291  0.3757  0.3750
19274SOL    HW260778   2.459   3.564   1.507 -0.2248 -0.0854 -1.1769
19275SOL     OW60779   9.969   1.087   5.611  0.6633  0.4634 -0.6260
19275SOL    HW160780  10.056   1.126   5.596  0.1592  1.6653 -0.5203
19275SOL    HW260781   9.908   1.145   5.566 -0.1264 -0.1781 -0.4043
19276SOL     OW60782   3.810   8.116   7.530  0.0061 -0.4100  0.1768
19276SOL    HW160783   3.776   8.083   7.613  1.0588 -1.6755  0.1448
19276SOL    HW260784   3.793   8.045   7.468  1.0825 -0.3401 -0.2232
19277SOL     OW60785   2.050   1.457   2.194  0.0939  0.5364 -0.5351
19277SOL    HW160786   2.021   1.397   2.126 -2.0566  1.0701 -0.1755
19277SOL    HW260787   2.045   1.544   2.154 -1.6358  0.9010  0.3810
19278SOL     OW60788   7.886  10.480   3.691  0.1907  0.6297 -0.2456
19278SOL    HW160789   7.954  10.419   3.718 -0.3557 -0.0373 -0.3597
19278SOL    HW260790   7.927  10.535   3.625 -0.2664 -1.9110 -2.8433
19279SOL     OW60791   8.332   1.462   5.144 -0.5006  0.3687  0.0258
19279SOL    HW160792   8.249   1.498   5.111 -2.0562 -0.8978  2.2654
19279SOL    HW260793   8.358   1.398   5.078 -1.4490  0.6173 -0.6050
19280SOL     OW60794   6.024   9.644   4.003 -0.5120  0.2302 -0.2736
19280SOL    HW160795   6.057   9.674   4.088  1.4580 -1.4598 -0.3537
19280SOL    HW260796   6.051   9.713   3.941  3.6824 -1.2722 -0.4239
19281SOL     OW60797   2.425   1.752   4.069  0.3132 -0.2929 -0.7790
19281SOL    HW160798   2.399   1.666   4.100 -1.1429 -0.0617 -1.2889
19281SOL    HW260799   2.454   1.798   4.148 -0.9023 -0.5599 -0.1576
19282SOL     OW60800   6.192   3.265   3.612  0.0552  0.1441  0.1319
19282SOL    HW160801   6.230   3.249   3.698 -1.1896  0.5780  0.7928
19282SOL    HW260802   6.258   3.234   3.550  1.8457  1.6499  1.1764
19283SOL     OW60803   1.185   5.508   0.391 -0.4554  0.3258 -0.4375
19283SOL    HW160804   1.217   5.532   0.478  0.8099 -1.2175 -0.4257
19283SOL    HW260805   1.219   5.575   0.332  4.0602 -1.7868 -0.6209
19284SOL     OW60806   2.293   8.719   3.701 -0.4712 -0.0128  0.1223
19284SOL    HW160807   2.384   8.701   3.678 -0.4005  0.2560  0.1829
19284SOL    HW260808   2.241   8.674   3.635 -0.2693  1.3984 -1.0397
19285SOL     OW60809   9.828   4.686   5.898 -0.1824 -0.2049  0.2306
19285SOL    HW160810   9.739   4.708   5.870  1.5670  3.7068 -3.4770
19285SOL    HW260811   9.837   4.593   5.880 -2.6008 -0.0386 -2.5955
19286SOL     OW60812   0.364   3.081   5.396  0.5223 -0.4528 -0.3982
19286SOL    HW160813   0.343   3.174   5.406 -0.0695 -0.6286 -0.0079
19286SOL    HW260814   0.449   3.071   5.438 -0.4181 -0.5214  1.5982
19287SOL     OW60815   8.243   0.914   0.908 -0.4012  0.6509 -0.1270
19287SOL    HW160816   8.203   0.857   0.843  0.0089  0.1593  0.0402
19287SOL    HW260817   8.177   0.981   0.926 -0.9679  0.1171 -0.1875
19288SOL     OW60818   0.689   2.857   8.711  0.2330  0.3042  0.0543
19288SOL    HW160819   0.649   2.790   8.767 -0.3396 -0.7874 -1.5620
19288SOL    HW260820   0.758   2.895   8.764  2.7837 -3.7972  0.1300
19289SOL     OW60821   5.327   6.645   4.297  0.3399 -0.1384  0.5260
19289SOL    HW160822   5.330   6.556   4.333  0.4240  0.0920  1.1017
19289SOL    HW260823   5.309   6.701   4.373  0.0073  0.3095  0.1251
19290SOL     OW60824   5.289  10.179   0.305 -0.3649 -0.5809 -0.1432
19290SOL    HW160825   5.264  10.207   0.217 -0.8076  1.9349  0.6802
19290SOL    HW260826   5.326  10.092   0.293 -2.1984 -1.1501 -2.5295
19291SOL     OW60827   5.153   7.070   1.223 -0.5806 -0.1852  0.0343
19291SOL    HW160828   5.225   7.015   1.190  1.2521  1.9365  0.2793
19291SOL    HW260829   5.131   7.128   1.150 -0.9266  0.2663  0.4933
19292SOL     OW60830   8.701   3.429   9.944  0.0606  0.2326 -0.1801
19292SOL    HW160831   8.700   3.421   9.849 -0.4888  0.0424 -0.1614
19292SOL    HW260832   8.612   3.407   9.971  0.4943 -0.7881  0.4641
19293SOL     OW60833   4.407   8.384   8.339 -0.1298 -0.0976 -0.3132
19293SOL    HW160834   4.469   8.311   8.345 -0.3397 -0.2717 -0.2780
19293SOL    HW260835   4.326   8.351   8.378  0.1629  0.5840  0.9492
19294SOL     OW60836   6.002   2.445   5.130 -0.3434  0.4623 -0.8053
19294SOL    HW160837   5.950   2.522   5.151 -0.7538  0.4277 -1.6663
19294SOL    HW260838   5.996   2.436   5.035 -1.2850 -1.3011 -0.6172
19295SOL     OW60839   3.330   4.841   6.479  0.1085  0.0941  0.4143
19295SOL    HW160840   3.252   4.831   6.424  0.4951  0.9465 -0.3114
19295SOL    HW260841   3.296   4.843   6.568 -0.7857  1.1496  0.0707
19296SOL     OW60842   5.685   8.773  10.438 -0.3580 -0.1823 -0.7141
19296SOL    HW160843   5.616   8.764  10.504 -1.3724  1.3791 -1.4825
19296SOL    HW260844   5.663   8.709  10.371 -0.3843 -0.5017 -0.4034
19297SOL     OW60845   5.553   1.243   2.543 -0.2624  0.5284 -0.1500
19297SOL    HW160846   5.569   1.306   2.613  2.7548 -0.4820  0.2445
19297SOL    HW260847   5.566   1.293   2.462  0.1677  0.8650  0.1206
19298SOL     OW60848   3.918   4.670   4.626  0.3340  0.1433  0.1118
19298SOL    HW160849   3.957   4.656   4.712  0.3946  1.0002  0.2395
19298SOL    HW260850   3.955   4.754   4.597 -0.6614  0.4841 -0.1921
19299SOL     OW60851   1.920   2.982   5.270 -0.3035  0.3976 -0.0877
19299SOL    HW160852   2.000   3.032   5.287 -0.0973  0.5679 -1.4989
19299SOL    HW260853   1.949   2.891   5.264 -0.1752  0.4861 -0.8391
19300SOL     OW60854   8.379   1.048   8.393 -0.0243 -0.1341  0.0110
19300SOL    HW160855   8.474   1.036   8.388 -0.1984 -1.7908  0.1539
19300SOL    HW260856   8.343   0.961   8.376 -1.5056  0.3519  0.5309
19301SOL     OW60857   8.227   0.682   1.418  0.0133  0.0096  0.2771
19301SOL    HW160858   8.322   0.694   1.428  0.4700  0.7660 -3.4783
19301SOL    HW260859   8.218   0.597   1.375 -0.9649  0.1976  0.0852
19302SOL     OW60860   0.440   9.947   2.999  0.1374 -0.0996  0.3001
19302SOL    HW160861   0.510   9.881   3.006  0.2964  0.2357  3.1905
19302SOL    HW260862   0.473  10.022   3.048 -1.9096  0.3549  1.0979
19303SOL     OW60863   1.539   2.838  10.442  0.7683  0.6277  0.0386
19303SOL    HW160864   1.488   2.918  10.456  2.1143  1.8772 -1.7396
19303SOL    HW260865   1.562   2.840  10.349  0.5985 -2.0152 -0.1216
19304SOL     OW60866   6.710   0.716   3.858 -0.1611 -0.1383  0.1995
19304SOL    HW160867   6.661   0.791   3.892  1.2896  1.5750 -1.2672
19304SOL    HW260868   6.716   0.733   3.764  0.3250 -2.0603 -0.1520
19305SOL     OW60869   2.380   7.839   2.820 -0.0092 -0.5258  0.2505
19305SOL    HW160870   2.441   7.769   2.798  0.0011 -0.1294 -1.0677
19305SOL    HW260871   2.324   7.802   2.888  0.5197 -1.5241  0.1524
19306SOL     OW60872   6.326   3.471   1.352  0.2297  0.0063  0.1861
19306SOL    HW160873   6.417   3.447   1.339 -0.0377 -0.4555 -0.9637
19306SOL    HW260874   6.314   3.472   1.447  1.9792  2.2682  0.4660
19307SOL     OW60875   5.891   5.595   4.741 -0.0512  0.3131 -0.4695
19307SOL    HW160876   5.827   5.525   4.733 -1.0041  1.1071  0.0410
19307SOL    HW260877   5.879   5.649   4.663  1.5655 -0.7656 -1.5277
19308SOL     OW60878   0.535   8.585   8.676  0.2799 -0.0611 -0.6429
19308SOL    HW160879   0.519   8.491   8.671 -0.1741 -0.0965  0.9317
19308SOL    HW260880   0.630   8.593   8.673  0.2919 -0.4689 -1.8837
19309SOL     OW60881   3.383  10.298   8.381  0.0531  0.3170 -0.5316
19309SOL    HW160882   3.396  10.337   8.467 -0.8889  0.8950 -0.6466
19309SOL    HW260883   3.471  10.267   8.356  0.5320  1.0461  0.1854
19310SOL     OW60884   8.766   8.542   3.130 -0.1913 -0.0625  0.0659
19310SOL    HW160885   8.840   8.560   3.187  0.0977  0.0087 -0.3301
19310SOL    HW260886   8.799   8.556   3.041 -0.8497  0.5800 -0.0865
19311SOL     OW60887   9.824   2.855   7.712  0.0427 -0.0942 -0.3010
19311SOL    HW160888   9.754   2.867   7.777 -1.0901 -0.9702 -1.3158
19311SOL    HW260889   9.867   2.940   7.708 -1.7142  0.8454 -0.4776
19312SOL     OW60890   1.494   9.515   1.564  0.1761 -0.2783 -0.1272
19312SOL    HW160891   1.541   9.444   1.608 -0.9242  0.1390  1.8447
19312SOL    HW260892   1.413   9.525   1.614  0.2599  2.3089 -0.3632
19313SOL     OW60893   5.186  10.298   0.035  0.3641 -0.2648 -0.1705
19313SOL    HW160894   5.101  10.313   0.077  0.3675 -1.0090  0.1218
19313SOL    HW260895   5.234  10.380   0.047  0.1940 -0.3027  0.8959
19314SOL     OW60896  10.669   9.591   7.920 -0.5069 -0.0534 -0.0552
19314SOL    HW160897  10.638   9.569   7.832  1.0630 -1.5711 -0.2817
19314SOL    HW260898  10.758   9.555   7.924 -0.2999  0.5475  1.9437
19315SOL     OW60899   5.720   8.390   1.534 -0.5133 -0.6303  0.5012
19315SOL    HW160900   5.801   8.439   1.546 -0.0728 -1.3948  0.7073
19315SOL    HW260901   5.728   8.350   1.448 -1.1312  0.1239  0.0793
19316SOL     OW60902   8.506   2.946   2.766 -0.4994  0.1242 -0.4770
19316SOL    HW160903   8.484   3.035   2.738 -1.1016 -0.4468 -1.9231
19316SOL    HW260904   8.601   2.948   2.781 -0.5012  0.9858 -0.5572
19317SOL     OW60905   1.127   5.483   9.001  0.1950 -0.4198 -0.0562
19317SOL    HW160906   1.135   5.434   8.919  1.2559 -0.3536 -0.0026
19317SOL    HW260907   1.160   5.570   8.980 -0.5584 -0.0682  0.1669
19318SOL     OW60908   8.672   1.015   9.261  0.2834  0.7340  0.5167
19318SOL    HW160909   8.618   0.981   9.332  0.9523 -0.1339  0.6258
19318SOL    HW260910   8.762   0.991   9.285  0.7834  2.4589  0.5246
19319SOL     OW60911   0.620   3.356   7.420  0.1523 -0.2048  0.4372
19319SOL    HW160912   0.547   3.300   7.447  1.7971 -1.9784  1.4501
19319SOL    HW260913   0.645   3.322   7.334 -0.2310  0.4380  0.0661
19320SOL     OW60914   3.183   6.829   8.810 -0.1813 -0.0933  0.1540
19320SOL    HW160915   3.117   6.832   8.740 -0.2749  0.2874  0.2543
19320SOL    HW260916   3.223   6.916   8.809 -0.3215 -0.0177  0.7003
19321SOL     OW60917   2.633   7.768   4.970 -0.1622 -0.3392 -0.6253
19321SOL    HW160918   2.689   7.846   4.964  1.2107 -1.2933 -0.5524
19321SOL    HW260919   2.544   7.803   4.979  0.4822  1.2140 -0.0395
19322SOL     OW60920   0.705   8.306   6.455 -0.2309  0.1061  0.7302
19322SOL    HW160921   0.647   8.364   6.504 -0.2965 -1.0620  2.0885
19322SOL    HW260922   0.784   8.300   6.509  0.9482  1.1631 -0.7893
19323SOL     OW60923   5.912   9.629   7.703 -0.3639 -0.1894  0.0381
19323SOL    HW160924   5.971   9.695   7.665 -1.0104  0.4703  0.1752
19323SOL    HW260925   5.851   9.679   7.757  0.5779 -1.1102  2.0509
19324SOL     OW60926   3.026   3.693   5.935  0.4752 -0.3812  0.6608
19324SOL    HW160927   2.975   3.638   5.994 -0.5488  0.7279  0.8677
19324SOL    HW260928   2.988   3.677   5.848  0.6018 -0.4740  0.6222
19325SOL     OW60929   6.101   1.093   7.796  0.5179 -0.2958  0.5341
19325SOL    HW160930   6.070   1.184   7.801 -0.7235 -0.7585  2.1333
19325SOL    HW260931   6.079   1.065   7.707  1.0568  1.0009 -0.0268
19326SOL     OW60932   6.428   5.747   0.420 -0.3049  0.4128  0.0384
19326SOL    HW160933   6.514   5.709   0.402 -0.8231 -0.8725  0.1803
19326SOL    HW260934   6.391   5.763   0.333 -0.3666 -0.0873 -0.0309
19327SOL     OW60935   2.725   2.335   0.705  0.3365 -0.3744 -0.4811
19327SOL    HW160936   2.715   2.240   0.710 -0.8055 -0.2122  0.8890
19327SOL    HW260937   2.665   2.362   0.636 -1.0227 -0.4547  0.6331
19328SOL     OW60938   7.367   8.589   2.184  0.3435 -0.4637 -0.3758
19328SOL    HW160939   7.315   8.541   2.249  1.4504 -0.9127  0.2049
19328SOL    HW260940   7.454   8.550   2.190  1.1890  1.4067 -0.1223
19329SOL     OW60941   8.356   2.843   9.505  0.0406  0.2682 -0.2014
19329SOL    HW160942   8.349   2.932   9.471  0.1632  0.3199 -0.0891
19329SOL    HW260943   8.318   2.788   9.435 -0.7020  0.4674  0.0325
19330SOL     OW60944   3.383   5.222   1.069 -0.2840 -0.0855 -0.3629
19330SOL    HW160945   3.290   5.243   1.076 -0.1556  0.9227 -1.3792
19330SOL    HW260946   3.385   5.129   1.048 -1.0554 -0.1584 -0.1379
19331SOL     OW60947   7.500   2.896  10.102  0.7159  0.1820  0.0272
19331SOL    HW160948   7.514   2.839  10.178 -0.7814 -0.7231 -0.3267
19331SOL    HW260949   7.488   2.983  10.139  0.3278 -0.1896  0.8102
19332SOL     OW60950   2.735  10.330   3.735 -0.2033  0.0747 -0.4270
19332SOL    HW160951   2.768  10.311   3.823 -1.0694  0.5781  0.0245
19332SOL    HW260952   2.784  10.272   3.677 -2.8700 -3.8786  0.8367
19333SOL     OW60953   3.402   5.445   1.571 -0.6197 -1.0260 -0.2164
19333SOL    HW160954   3.419   5.351   1.575 -2.3567 -1.3885 -0.3792
19333SOL    HW260955   3.439   5.473   1.488 -0.5558 -1.6859 -0.4167
19334SOL     OW60956   7.140   6.322   1.047 -0.6209  0.5837  0.1523
19334SOL    HW160957   7.133   6.315   0.952  0.7650  2.1806 -0.1121
19334SOL    HW260958   7.182   6.407   1.062 -2.9651  1.4671  2.2968
19335SOL     OW60959  10.315   5.589   5.066  0.7089  0.1824 -0.4515
19335SOL    HW160960  10.374   5.518   5.040  1.5251  0.3235  0.9250
19335SOL    HW260961  10.258   5.549   5.132 -1.2511 -0.1405 -2.2216
19336SOL     OW60962   3.927   4.793   7.196 -0.0433  0.2592 -0.1973
19336SOL    HW160963   3.927   4.888   7.206 -1.2008  0.1931  0.6557
19336SOL    HW260964   3.877   4.761   7.272  1.2118 -1.0921  0.1160
19337SOL     OW60965   4.019   0.855   4.843 -0.1140  0.0708  0.7127
19337SOL    HW160966   4.039   0.873   4.934  3.1830 -0.4413  0.2239
19337SOL    HW260967   4.055   0.767   4.827 -2.2514 -0.6379 -0.6642
19338SOL     OW60968   0.939   3.345   2.409  0.0048 -0.0770  0.3841
19338SOL    HW160969   0.996   3.334   2.485  1.2349 -0.2402 -0.5374
19338SOL    HW260970   0.969   3.279   2.347 -1.0229  0.0187 -0.2423
19339SOL     OW60971  10.212   1.129   7.148  0.5294  0.5825 -0.3467
19339SOL    HW160972  10.121   1.101   7.139  0.7175 -1.0877  2.0027
19339SOL    HW260973  10.215   1.175   7.232  1.8528  0.4846 -0.3148
19340SOL     OW60974   8.100   3.972   3.365  0.2579 -0.5023  0.0761
19340SOL    HW160975   8.073   3.970   3.273 -1.6355 -0.9004  0.6115
19340SOL    HW260976   8.141   3.887   3.381  0.1467 -0.6205 -0.2688
19341SOL     OW60977   4.793  10.437   9.745 -0.3035  0.0486  0.3826
19341SOL    HW160978   4.760  10.422   9.657  0.3654  1.0448 -0.0439
19341SOL    HW260979   4.742  10.510   9.779 -0.3493 -0.1316  0.7157
19342SOL     OW60980   1.538   4.394   2.618 -0.2644  0.0348 -0.0699
19342SOL    HW160981   1.576   4.336   2.552 -0.9115  0.0017 -0.4184
19342SOL    HW260982   1.597   4.469   2.621 -0.1891  0.0018 -0.6396
19343SOL     OW60983   4.978  10.285   9.059  0.2702 -0.1745 -0.1217
19343SOL    HW160984   4.917  10.298   9.132  1.2286  1.1756  0.4574
19343SOL    HW260985   5.064  10.307   9.094  0.9096 -0.5833 -1.3591
19344SOL     OW60986   3.858   1.260   7.794 -0.1949  0.3336 -0.4384
19344SOL    HW160987   3.929   1.266   7.730  0.2755  3.3416  0.2189
19344SOL    HW260988   3.900   1.277   7.878 -1.4490  0.6954  0.1376
19345SOL     OW60989   3.212   7.886   4.392 -0.4937  0.9400  0.1734
19345SOL    HW160990   3.163   7.959   4.356 -2.1150  0.2338  0.8313
19345SOL    HW260991   3.183   7.880   4.483  0.8204  0.4619  0.5920
19346SOL     OW60992   3.199   7.650   2.045 -0.2514  0.2211 -0.1315
19346SOL    HW160993   3.234   7.584   2.105 -0.9469  0.2839  0.3563
19346SOL    HW260994   3.124   7.687   2.091 -1.0007  0.0424 -1.1763
19347SOL     OW60995   7.233   8.927   3.967 -0.2433 -0.0372  0.0899
19347SOL    HW160996   7.283   8.953   4.044  2.5707 -0.4866 -1.4608
19347SOL    HW260997   7.242   8.832   3.963  0.9833  0.1142 -1.5861
19348SOL     OW60998   7.736   2.798   9.086  0.2021  0.0412  0.1864
19348SOL    HW160999   7.663   2.746   9.050 -1.3175  0.6342  2.2260
19348SOL    HW261000   7.786   2.825   9.009 -1.2468 -1.1045 -1.2325
19349SOL     OW61001   4.550   1.266   6.991  0.3011 -0.2227  0.3998
19349SOL    HW161002   4.511   1.272   7.078  1.9974 -0.3455  1.2088
19349SOL    HW261003   4.526   1.178   6.960 -0.2270 -0.2190  0.7832
19350SOL     OW61004   8.647   3.384   9.651 -0.2237  0.6141  0.2676
19350SOL    HW161005   8.617   3.293   9.640  0.9993  0.1679  0.4298
19350SOL    HW261006   8.573   3.437   9.624  0.1273 -0.4343 -3.2985
19351SOL     OW61007   0.892   3.245   8.486  0.0090 -0.6895 -0.5802
19351SOL    HW161008   0.949   3.279   8.417 -0.5260  1.4445 -0.0526
19351SOL    HW261009   0.851   3.168   8.448  1.6748 -1.0705 -1.6961
19352SOL     OW61010   0.819   2.921   9.532 -0.3517  0.0242 -0.0690
19352SOL    HW161011   0.806   3.002   9.582  0.6546 -0.6641  1.3771
19352SOL    HW261012   0.733   2.878   9.534 -0.5515  0.4353  0.3155
19353SOL     OW61013   8.873   4.875   4.759  0.3852  0.5097 -0.2978
19353SOL    HW161014   8.909   4.879   4.670 -1.3972 -0.8894 -1.1542
19353SOL    HW261015   8.938   4.919   4.813  1.5405  1.4163 -2.2869
19354SOL     OW61016   4.344   0.682   6.077 -0.3373 -0.0281  0.3038
19354SOL    HW161017   4.254   0.649   6.074 -0.2263 -0.5536  1.7143
19354SOL    HW261018   4.366   0.681   6.170  1.2624 -0.2403 -0.0561
19355SOL     OW61019   1.402   1.199   0.141 -0.1748 -0.2319  0.1238
19355SOL    HW161020   1.315   1.161   0.126  0.4323 -1.6424  0.0026
19355SOL    HW261021   1.385   1.291   0.161 -1.6811 -0.4441 -0.0573
19356SOL     OW61022   8.911   6.271   0.706  0.1579  0.4023  0.5721
19356SOL    HW161023   8.830   6.271   0.656 -0.4980  1.9025  1.5580
19356SOL    HW261024   8.928   6.364   0.723  0.8887 -0.0064  2.2454
19357SOL     OW61025   4.417   6.273  10.464 -0.0535  0.0686 -0.3729
19357SOL    HW161026   4.494   6.220  10.446  1.1549  1.5871  0.1273
19357SOL    HW261027   4.406   6.328  10.386 -0.1236  0.4196 -0.1229
19358SOL     OW61028   4.903   4.646   9.648  0.2657 -0.2867 -0.0802
19358SOL    HW161029   4.985   4.693   9.637  0.1208  0.0267  0.1410
19358SOL    HW261030   4.878   4.663   9.739  0.9595 -2.0058  0.4757
19359SOL     OW61031   6.568   3.591   1.017  0.0692 -0.3425 -0.6847
19359SOL    HW161032   6.590   3.498   1.030  2.9566  0.3602  0.2832
19359SOL    HW261033   6.475   3.597   1.038 -0.0587 -2.9143 -0.2049
19360SOL     OW61034   1.824   3.148   7.324 -0.3113 -0.0682 -0.4849
19360SOL    HW161035   1.835   3.243   7.328 -0.7569 -0.0427  1.2175
19360SOL    HW261036   1.864   3.117   7.406 -3.7237 -0.8967  1.0386
19361SOL     OW61037   9.936   5.867   0.849 -0.0776 -0.0233  0.6673
19361SOL    HW161038   9.949   5.910   0.933  0.5036 -2.5534  1.9680
19361SOL    HW261039   9.855   5.818   0.860  0.1325 -0.5774 -0.1599
19362SOL     OW61040   1.475   7.433   3.679  0.4938  0.1977  0.4330
19362SOL    HW161041   1.425   7.407   3.756  1.0597  0.3560  0.8626
19362SOL    HW261042   1.561   7.391   3.691 -0.4223 -2.7212 -1.8087
19363SOL     OW61043   3.592   0.255   1.106  0.0803  0.3328 -0.0787
19363SOL    HW161044   3.625   0.212   1.026  1.3780  0.6996  0.2248
19363SOL    HW261045   3.564   0.183   1.162  0.3148 -0.0042 -0.3833
19364SOL     OW61046  10.394   7.545   5.859 -0.0945 -0.0488 -0.2029
19364SOL    HW161047  10.357   7.596   5.932  2.1454  1.5160 -0.0617
19364SOL    HW261048  10.402   7.456   5.894  0.0813  0.4772  1.1556
19365SOL     OW61049   5.421   8.767   8.695 -0.8745 -0.0235 -0.0750
19365SOL    HW161050   5.388   8.718   8.771  0.9749 -0.7413  0.3201
19365SOL    HW261051   5.343   8.802   8.653 -1.9994 -0.2471  1.7327
19366SOL     OW61052  10.034   4.910   3.620 -0.3059  0.4050 -0.5882
19366SOL    HW161053   9.986   4.947   3.694 -1.1905 -0.5911 -0.6371
19366SOL    HW261054  10.105   4.972   3.605 -0.9077  1.3391  0.2170
19367SOL     OW61055   9.107   7.347   6.248  0.4016  0.3565  0.0933
19367SOL    HW161056   9.047   7.295   6.193  0.8024  1.0817 -1.0714
19367SOL    HW261057   9.159   7.281   6.295 -1.2572 -0.2926  1.1265
19368SOL     OW61058   4.888  10.200   4.551  0.7837  0.1308  0.0325
19368SOL    HW161059   4.942  10.134   4.594  1.5694  0.2024 -0.8189
19368SOL    HW261060   4.838  10.151   4.486 -0.1593  0.0753  0.7653
19369SOL     OW61061   6.988   4.431   3.492 -0.1128 -0.4635  0.3627
19369SOL    HW161062   7.043   4.352   3.488 -0.4977 -0.7677  0.9018
19369SOL    HW261063   6.994   4.469   3.405 -0.3533 -1.3804 -0.0617
19370SOL     OW61064   4.060   2.632   6.910 -0.4011  0.0220 -0.0849
19370SOL    HW161065   4.124   2.660   6.975 -2.2346 -0.0327  1.8806
19370SOL    HW261066   4.043   2.709   6.857  0.8968  0.1548 -0.3471
19371SOL     OW61067   9.491   9.863   7.683 -0.3696  0.4068  0.0776
19371SOL    HW161068   9.545   9.908   7.748 -1.2003 -1.3312  2.1003
19371SOL    HW261069   9.528   9.775   7.679 -0.6451  0.3435 -1.4819
19372SOL     OW61070   2.057   1.918   2.237 -0.0150  0.0266  0.0479
19372SOL    HW161071   2.078   1.990   2.297 -0.4776 -0.5138  0.8746
19372SOL    HW261072   1.962   1.916   2.233 -0.0807 -1.4953  1.2653
19373SOL     OW61073   7.482   0.288  10.337 -0.8522 -0.4438 -0.2096
19373SOL    HW161074   7.552   0.234  10.373 -0.4175 -1.3539 -2.2586
19373SOL    HW261075   7.401   0.247  10.368 -0.5929  0.9072  2.6001
19374SOL     OW61076   5.633   5.882   5.517  0.4762 -0.2321  0.1444
19374SOL    HW161077   5.583   5.894   5.437  1.9472  2.1783 -0.5147
19374SOL    HW261078   5.610   5.957   5.571  2.3531  0.2300  0.3625
19375SOL     OW61079   9.492   8.327   0.730 -0.4525  0.9813 -0.6010
19375SOL    HW161080   9.505   8.250   0.784  2.5527  0.9412 -1.2128
19375SOL    HW261081   9.503   8.401   0.789  0.6197  0.9265 -0.7172
19376SOL     OW61082   1.696   9.073   1.940 -0.2901 -0.3376  0.4066
19376SOL    HW161083   1.664   9.105   1.856 -1.3850  3.3281  1.9962
19376SOL    HW261084   1.788   9.100   1.943 -0.2796 -0.3744  0.4139
19377SOL     OW61085   9.073  10.051   2.495 -0.2268  0.0938  0.0843
19377SOL    HW161086   8.994  10.061   2.548 -1.0772  0.8770 -1.2656
19377SOL    HW261087   9.060  10.110   2.421  2.2443  1.3012  0.5027
19378SOL     OW61088   7.309   0.971   9.611 -0.4411 -0.4389 -0.4837
19378SOL    HW161089   7.336   1.060   9.636  0.7018 -0.1238 -2.5643
19378SOL    HW261090   7.239   0.985   9.547 -0.3224 -1.0348 -0.7484
19379SOL     OW61091   3.765   7.111   4.584 -0.0098 -0.0516 -0.2100
19379SOL    HW161092   3.690   7.133   4.639  0.6324 -0.3214  0.7980
19379SOL    HW261093   3.792   7.195   4.546 -0.4864  0.1316 -0.1453
19380SOL     OW61094   8.928   1.822   2.426 -0.1794  0.4669 -0.1296
19380SOL    HW161095   8.909   1.837   2.518  1.6467 -0.2034  0.4050
19380SOL    HW261096   9.012   1.866   2.411  1.0611 -1.8780 -0.6399
19381SOL     OW61097   0.117   8.880   7.915 -0.3903 -0.3805  1.1339
19381SOL    HW161098   0.031   8.896   7.874 -0.1459  0.0399  0.7642
19381SOL    HW261099   0.101   8.891   8.008 -0.1961  2.5334  0.9193
19382SOL     OW61100   5.435   4.567   5.732 -0.6083  0.1364 -0.2393
19382SOL    HW161101   5.369   4.629   5.761 -0.6894 -0.3191  0.5965
19382SOL    HW261102   5.409   4.484   5.772  0.8208  0.0915  0.6737
19383SOL     OW61103   3.151   9.348   1.403  0.2040 -0.1120  0.0858
19383SOL    HW161104   3.128   9.323   1.493 -1.0380 -0.5609 -0.3274
19383SOL    HW261105   3.188   9.435   1.411 -0.9273  0.3211  0.9244
19384SOL     OW61106   1.857   7.415   3.557  0.8009  0.2494  0.0520
19384SOL    HW161107   1.842   7.360   3.480  2.5617 -1.8291  1.0900
19384SOL    HW261108   1.841   7.504   3.526 -0.6143 -0.6820 -2.1353
19385SOL     OW61109   9.810   5.219   4.464 -0.4534 -0.2623  0.4813
19385SOL    HW161110   9.860   5.291   4.502  0.1264 -1.6364  2.5184
19385SOL    HW261111   9.877   5.158   4.432 -0.8612 -0.9659  0.9445
19386SOL     OW61112   1.657   2.229   7.113  0.6248 -0.3532 -0.3240
19386SOL    HW161113   1.710   2.275   7.048  0.0378  0.8957  0.0417
19386SOL    HW261114   1.683   2.138   7.105  1.4622 -0.0413 -1.4428
19387SOL     OW61115   1.206   1.070   1.329  0.2874  1.0525  0.3470
19387SOL    HW161116   1.231   1.156   1.295 -0.6534  0.5353 -1.8397
19387SOL    HW261117   1.162   1.027   1.255 -1.5811 -0.3388  2.1344
19388SOL     OW61118   1.691   2.414   5.618  0.8355  0.0550  0.2277
19388SOL    HW161119   1.602   2.385   5.596 -0.1580  1.9650  1.4373
19388SOL    HW261120   1.718   2.466   5.543  1.0649 -0.7718 -0.2713
19389SOL     OW61121   7.795   9.478   6.980 -0.3302  0.0767 -0.6489
19389SOL    HW161122   7.740   9.547   6.943 -1.1817 -0.8558 -1.1804
19389SOL    HW261123   7.736   9.426   7.034  0.4945  0.2711  0.4744
19390SOL     OW61124   2.765   9.766   4.568 -0.6041 -0.3197  0.1813
19390SOL    HW161125   2.742   9.729   4.482  1.6861 -0.0855 -0.5889
19390SOL    HW261126   2.796   9.692   4.619 -1.3909 -0.3521  0.6380
19391SOL     OW61127   2.833   5.499   6.742  0.3727  0.3146  0.0937
19391SOL    HW161128   2.842   5.442   6.818  0.3859 -2.9004 -2.1002
19391SOL    HW261129   2.739   5.503   6.724  0.3885  0.8329  0.0929
19392SOL     OW61130   3.695   6.299   1.031 -0.6652  0.3241  0.6695
19392SOL    HW161131   3.781   6.329   1.001 -0.8581  0.8600  0.6448
19392SOL    HW261132   3.638   6.375   1.022 -0.9935  0.1623  1.2944
19393SOL     OW61133   5.747  10.324   2.774 -0.3278 -0.7462 -0.3260
19393SOL    HW161134   5.764  10.243   2.727 -1.3474  0.7288 -3.4879
19393SOL    HW261135   5.715  10.385   2.708 -1.2251  1.7719  2.1959
19394SOL     OW61136   6.486   6.019  10.532  0.4339 -0.0416 -0.4854
19394SOL    HW161137   6.569   5.979  10.557  0.6846  1.0204  0.4381
19394SOL    HW261138   6.502   6.113  10.538 -0.3191  0.2145 -2.0396
19395SOL     OW61139   6.590   5.181   4.807 -0.1634  0.3086  0.9309
19395SOL    HW161140   6.684   5.198   4.802 -0.0296 -0.6304 -0.1126
19395SOL    HW261141   6.552   5.266   4.828  0.9537  0.5713  2.0825
19396SOL     OW61142   8.052   5.560   5.529 -0.1881  0.0337 -0.9857
19396SOL    HW161143   8.089   5.489   5.476  0.5789 -1.6198  1.5475
19396SOL    HW261144   8.128   5.610   5.559 -0.6571  1.3565 -1.9234
19397SOL     OW61145   3.329  10.001   4.438 -0.1822 -0.2617 -0.3421
19397SOL    HW161146   3.297   9.995   4.528  1.3626 -0.0646  0.2616
19397SOL    HW261147   3.256  10.037   4.389 -1.3663 -1.2053  0.6439
19398SOL     OW61148   1.581   8.215   8.012  0.2358  0.2217 -0.1194
19398SOL    HW161149   1.606   8.299   8.050  1.6174  0.0825 -0.6617
19398SOL    HW261150   1.642   8.202   7.939 -1.0494 -0.4519 -1.1353
19399SOL     OW61151   8.971   3.072   5.627  0.0459 -0.1748 -0.4708
19399SOL    HW161152   8.943   3.163   5.620  2.0538  0.3589 -3.6505
19399SOL    HW261153   9.008   3.064   5.715  0.5955  2.3345 -0.4138
19400SOL     OW61154   9.491   2.699   9.418 -0.4256 -0.0898 -0.2329
19400SOL    HW161155   9.533   2.774   9.459 -2.2136  0.0668  1.4418
19400SOL    HW261156   9.398   2.723   9.414 -1.4273 -2.9343  2.2443
19401SOL     OW61157   3.513   8.386   3.011  0.2766  0.8704 -0.3997
19401SOL    HW161158   3.512   8.301   2.966 -2.0763  1.0745 -0.8693
19401SOL    HW261159   3.470   8.446   2.950 -2.2835  1.3386  1.6996
19402SOL     OW61160   3.779   6.872   0.623  0.0622 -0.1013 -0.1930
19402SOL    HW161161   3.862   6.894   0.583 -0.2656 -1.7416 -1.9374
19402SOL    HW261162   3.800   6.801   0.684 -0.0274 -0.5325 -0.6517
19403SOL     OW61163   9.228   6.144   7.442 -0.0288 -0.1508  0.1131
19403SOL    HW161164   9.243   6.232   7.476 -0.6802  0.3391 -0.8423
19403SOL    HW261165   9.249   6.086   7.516 -0.0536  0.8194  0.8998
19404SOL     OW61166   5.044   4.904   9.523  0.3401 -0.0250 -0.7488
19404SOL    HW161167   4.953   4.932   9.529  0.0826 -0.5867 -1.7404
19404SOL    HW261168   5.088   4.975   9.477  0.3152  0.0804 -0.6086
19405SOL     OW61169  10.517   3.982   2.453 -0.1287  0.3869  0.2905
19405SOL    HW161170  10.545   3.891   2.462  1.0663  0.6352 -0.6601
19405SOL    HW261171  10.511   3.997   2.359  3.9059  2.4365  0.1232
19406SOL     OW61172   8.657   2.822  10.437 -0.2353  0.2832  0.3380
19406SOL    HW161173   8.672   2.758  10.367  1.9147  1.0849  0.0077
19406SOL    HW261174   8.582   2.786  10.485  1.1855 -2.7966  0.5165
19407SOL     OW61175   5.595   0.897   4.655  0.4906 -0.1937 -0.4979
19407SOL    HW161176   5.599   0.832   4.726  0.1156  0.3520  0.0263
19407SOL    HW261177   5.627   0.978   4.695  0.3225  0.1036 -0.9677
19408SOL     OW61178   5.350   3.237   5.174  0.1592 -0.1823  0.0679
19408SOL    HW161179   5.440   3.260   5.153  1.1532 -0.8765  3.1460
19408SOL    HW261180   5.355   3.147   5.208 -1.6862 -0.2293  0.3428
19409SOL     OW61181   1.764   3.394   3.170 -0.0400 -0.0196  0.1726
19409SOL    HW161182   1.827   3.407   3.098 -0.1954 -1.0306 -0.1578
19409SOL    HW261183   1.780   3.305   3.200 -0.6849  0.0468  0.7188
19410SOL     OW61184   9.535   9.709   5.067 -0.6544  0.0941  0.3818
19410SOL    HW161185   9.530   9.804   5.057  1.2236  0.3246  1.2421
19410SOL    HW261186   9.629   9.691   5.073 -0.9498 -1.8846 -0.2660
19411SOL     OW61187   5.592   2.728   4.277 -0.1178  0.8236  0.0286
19411SOL    HW161188   5.611   2.634   4.279 -0.5782  0.7327  1.8187
19411SOL    HW261189   5.604   2.753   4.186 -1.8336 -1.3456 -0.8717
19412SOL     OW61190   9.236  10.270   6.963  0.8399 -0.4614 -0.4163
19412SOL    HW161191   9.179  10.312   6.898 -0.1811 -0.2837  0.5717
19412SOL    HW261192   9.318  10.321   6.958  0.9834 -0.7726 -1.9039
19413SOL     OW61193   7.365   2.373   7.909 -0.0811  0.3992  0.5718
19413SOL    HW161194   7.333   2.304   7.968 -0.0221 -1.1208 -1.0778
19413SOL    HW261195   7.286   2.401   7.862  0.2024  0.0169 -0.1522
19414SOL     OW61196   5.331   8.253   6.830  0.0108  0.0886 -0.1656
19414SOL    HW161197   5.297   8.184   6.886  1.3795  0.5186  1.2600
19414SOL    HW261198   5.290   8.333   6.862  0.5830  0.3022  0.0300
19415SOL     OW61199   2.126   0.021   3.387  0.1571 -0.0267  0.0464
19415SOL    HW161200   2.127  -0.052   3.324  3.6768  0.5533 -0.8351
19415SOL    HW261201   2.069   0.086   3.347 -1.3661 -1.4285 -0.1826
19416SOL     OW61202   1.153   2.367   7.168 -0.0665  0.0770 -1.0233
19416SOL    HW161203   1.210   2.314   7.111  0.6275 -1.2212  0.8125
19416SOL    HW261204   1.210   2.438   7.198  0.0161 -0.1087 -0.7393
19417SOL     OW61205   2.942   3.857   2.293 -0.1001  0.2323  0.2298
19417SOL    HW161206   2.917   3.772   2.256  0.7089  0.0345  0.1181
19417SOL    HW261207   3.014   3.836   2.352  0.7714  0.9713 -0.5565
19418SOL     OW61208   9.087   8.307   2.317 -0.5872  0.4654  0.7139
19418SOL    HW161209   9.150   8.268   2.257  1.0372  3.0333  0.6214
19418SOL    HW261210   9.002   8.275   2.286  0.4844 -1.6006 -0.3083
19419SOL     OW61211   3.061   3.534   8.284  0.6270  0.4466 -0.0521
19419SOL    HW161212   3.135   3.588   8.312  0.3581  1.4948 -1.3184
19419SOL    HW261213   3.100   3.447   8.269  1.4220  0.7597  0.1448
19420SOL     OW61214   7.525   4.824   0.262 -0.1492 -0.1932 -0.3100
19420SOL    HW161215   7.456   4.792   0.321  0.7455 -2.4608 -0.3899
19420SOL    HW261216   7.478   4.847   0.181 -1.0283  0.1123  0.2747
19421SOL     OW61217  10.221   7.048   8.361 -0.0521 -0.4104  0.0955
19421SOL    HW161218  10.149   6.997   8.323 -0.0821 -1.0257  0.9531
19421SOL    HW261219  10.217   7.132   8.316  0.5492 -1.4319 -2.0005
19422SOL     OW61220  10.416   9.463   6.708 -0.0977  0.0882 -0.1114
19422SOL    HW161221  10.507   9.492   6.702  0.2217 -0.7255  0.5947
19422SOL    HW261222  10.418   9.372   6.677 -0.9611  0.5476 -1.6399
19423SOL     OW61223   8.706   8.709   3.596  0.4919  0.1327  0.4187
19423SOL    HW161224   8.792   8.734   3.630  0.8253 -1.9325  1.2185
19423SOL    HW261225   8.671   8.649   3.662  0.4829 -2.8209 -2.0802
19424SOL     OW61226   2.361   4.323   8.307 -0.5965 -0.1659 -0.0666
19424SOL    HW161227   2.362   4.418   8.292  1.9997 -0.4086 -2.3216
19424SOL    HW261228   2.319   4.287   8.228  1.0242 -0.9749 -0.5947
19425SOL     OW61229   5.212   2.178   5.121 -0.7357 -0.0710  0.4622
19425SOL    HW161230   5.228   2.171   5.027  0.3979 -1.0375  0.6970
19425SOL    HW261231   5.135   2.235   5.128 -3.0841 -2.7729 -1.2036
19426SOL     OW61232   1.275   4.269   4.076 -0.4296 -0.3117  0.0872
19426SOL    HW161233   1.364   4.290   4.104  0.4780 -0.4537 -2.3947
19426SOL    HW261234   1.221   4.282   4.154  1.7169  0.0056  1.6036
19427SOL     OW61235   6.079   7.485   9.749  0.0738 -0.4217  0.1526
19427SOL    HW161236   6.013   7.430   9.707  0.2642 -0.6393  0.1363
19427SOL    HW261237   6.062   7.476   9.843  2.0491 -3.0425  0.3649
19428SOL     OW61238   1.972   6.128   8.125  0.3442 -0.0680  0.5869
19428SOL    HW161239   2.021   6.197   8.082  0.4772  0.3173  1.3454
19428SOL    HW261240   1.890   6.122   8.075  1.2919 -0.9887 -0.9290
19429SOL     OW61241   6.170   2.608   7.321  0.1213  0.0734  0.4499
19429SOL    HW161242   6.122   2.526   7.336  0.5536 -0.4864 -1.0463
19429SOL    HW261243   6.116   2.675   7.363 -0.7092 -0.8625  0.9154
19430SOL     OW61244   8.859  10.150   9.871  0.0391  0.4057 -0.7122
19430SOL    HW161245   8.886  10.073   9.920 -1.5955 -1.1272 -2.0807
19430SOL    HW261246   8.763  10.144   9.867 -0.2336  3.0997  0.0303
19431SOL     OW61247   0.148   4.044   8.788 -0.3216 -0.0632  0.3905
19431SOL    HW161248   0.149   4.104   8.862 -0.5021 -0.8225  1.0283
19431SOL    HW261249   0.237   4.049   8.752 -0.2521  0.3695  0.6137
19432SOL     OW61250   4.513   7.394   5.755  0.3209  0.2256  0.2700
19432SOL    HW161251   4.525   7.476   5.706 -0.0894  0.3443  0.3666
19432SOL    HW261252   4.600   7.374   5.789  0.6337  0.1067 -0.5598
19433SOL     OW61253   5.178   1.467   6.627  0.8394  0.1328 -0.1690
19433SOL    HW161254   5.253   1.407   6.630  0.3878 -0.4087  0.9590
19433SOL    HW261255   5.185   1.511   6.542  0.6915 -2.1478 -1.4195
19434SOL     OW61256   5.720   8.568   1.036  0.0683  0.4477 -0.0714
19434SOL    HW161257   5.717   8.538   0.945 -1.0785 -1.1807  0.4436
19434SOL    HW261258   5.656   8.512   1.081 -0.1379  1.9064  1.5379
19435SOL     OW61259   2.484   3.975   1.680 -0.6142 -0.2581 -0.2786
19435SOL    HW161260   2.544   4.038   1.640  0.7496 -1.5486 -0.3426
19435SOL    HW261261   2.540   3.918   1.731 -1.8962 -1.0519  0.2949
19436SOL     OW61262   0.763   1.945   4.517 -0.5857 -0.0930  0.3058
19436SOL    HW161263   0.856   1.949   4.541 -0.4146 -0.5505 -0.2467
19436SOL    HW261264   0.740   1.853   4.529 -1.3612  0.2653  1.8051
19437SOL     OW61265   2.654   1.185   2.911 -0.3639 -0.5240 -0.2651
19437SOL    HW161266   2.615   1.166   2.996  0.8399  1.1974  0.7323
19437SOL    HW261267   2.694   1.102   2.883 -2.3960 -1.6043 -0.0880
19438SOL     OW61268   5.670   8.557   4.516  0.5891 -0.1010 -0.5791
19438SOL    HW161269   5.677   8.645   4.553 -0.1778 -0.8044  1.3869
19438SOL    HW261270   5.639   8.503   4.588 -0.5447 -1.6907 -2.1552
19439SOL     OW61271   1.506   7.267   2.904 -0.2471  0.4586  0.0437
19439SOL    HW161272   1.498   7.197   2.840 -0.1484 -1.5265  2.1036
19439SOL    HW261273   1.418   7.305   2.910 -0.5718 -0.2256 -0.2999
19440SOL     OW61274  10.669   4.547   2.507  0.2522  0.1562 -0.0338
19440SOL    HW161275  10.631   4.503   2.584 -2.0487 -0.6244 -1.5203
19440SOL    HW261276  10.718   4.621   2.544 -0.8369 -0.1318  2.1792
19441SOL     OW61277   6.933   4.339   9.671 -0.0506 -0.4503  0.1232
19441SOL    HW161278   6.867   4.288   9.719 -0.4695  0.5506  0.6281
19441SOL    HW261279   6.963   4.279   9.602  0.5924 -1.9329  1.6307
19442SOL     OW61280   5.171   8.884   9.479 -0.8577 -0.8565  0.1875
19442SOL    HW161281   5.176   8.913   9.388  0.3466 -0.3750  0.3833
19442SOL    HW261282   5.087   8.839   9.485 -1.4634  0.0772 -0.8663
19443SOL     OW61283  10.402   7.582   2.915  0.2069 -0.3490 -0.1907
19443SOL    HW161284  10.317   7.610   2.883 -0.5293 -0.5928  1.4538
19443SOL    HW261285  10.433   7.655   2.969 -0.0844 -1.1724  1.1623
19444SOL     OW61286   7.789   2.274   7.167 -0.1541 -0.0625  0.3318
19444SOL    HW161287   7.731   2.325   7.223  1.5228  0.0408  2.0432
19444SOL    HW261288   7.793   2.324   7.085 -1.0981  0.8183  0.8020
19445SOL     OW61289   5.964   2.389   5.481  0.1189 -0.3204  0.2648
19445SOL    HW161290   6.056   2.385   5.456  0.9322 -0.4704  2.9923
19445SOL    HW261291   5.921   2.327   5.422  2.1233 -1.8531  0.2906
19446SOL     OW61292   0.327   4.120   1.699 -0.3643  0.1256 -0.6941
19446SOL    HW161293   0.422   4.108   1.708 -0.5036 -0.1622  0.6152
19446SOL    HW261294   0.290   4.036   1.727 -1.0730  1.0214  1.2402
19447SOL     OW61295   1.349   8.181  10.381  0.1871  0.0356  0.0644
19447SOL    HW161296   1.276   8.146  10.330 -1.1695  2.6042  0.0866
19447SOL    HW261297   1.334   8.148  10.469  0.0284 -0.8533 -0.2868
19448SOL     OW61298   5.506   9.865   2.240 -0.3340  0.0305 -0.2165
19448SOL    HW161299   5.476   9.955   2.236 -1.2143 -0.2591 -3.4108
19448SOL    HW261300   5.601   9.871   2.233 -0.1987  0.7091  1.6822
19449SOL     OW61301   2.867   4.891   8.603 -0.0391  0.0031  0.2418
19449SOL    HW161302   2.821   4.970   8.572 -0.6869 -0.1392  0.8116
19449SOL    HW261303   2.802   4.846   8.657  0.2716 -1.0161 -0.2148
19450SOL     OW61304   9.639   9.470   8.796 -0.2408  0.9319  0.6997
19450SOL    HW161305   9.572   9.537   8.782 -2.2325 -1.1365 -0.2950
19450SOL    HW261306   9.694   9.474   8.718  1.1001  2.8294  1.6469
19451SOL     OW61307  10.451   6.567   3.702 -0.2689 -0.0856  0.4959
19451SOL    HW161308  10.374   6.528   3.660 -1.2408  0.1460  1.9780
19451SOL    HW261309  10.517   6.498   3.700 -0.8768 -0.6734  0.1703
19452SOL     OW61310   5.654   9.348   7.045  0.2142 -0.0519 -0.1872
19452SOL    HW161311   5.609   9.264   7.040  1.2093 -0.5865 -0.2684
19452SOL    HW261312   5.663   9.376   6.954 -1.4561  0.9045 -0.1175
19453SOL     OW61313  10.592   0.707   6.531  0.1281 -0.0423 -0.0461
19453SOL    HW161314  10.678   0.681   6.565  0.3078 -2.1415 -1.9040
19453SOL    HW261315  10.570   0.787   6.580  3.3365  0.8488  0.1543
19454SOL     OW61316   7.760  10.278   4.021  0.3980  0.0285  0.0567
19454SOL    HW161317   7.722  10.279   4.109  0.6536 -1.7230  0.2327
19454SOL    HW261318   7.775  10.370   4.000 -0.2818  0.5185  1.5732
19455SOL     OW61319   4.502   7.159   3.857  0.3789 -0.0372 -1.0081
19455SOL    HW161320   4.570   7.204   3.907  1.5702 -0.9432 -1.7534
19455SOL    HW261321   4.545   7.132   3.776 -1.0030 -0.2274 -1.7173
19456SOL     OW61322   4.749   4.347   9.874 -0.5619 -0.2111  0.2885
19456SOL    HW161323   4.698   4.421   9.906  0.9196  0.1960  1.8142
19456SOL    HW261324   4.754   4.362   9.779 -0.8788  1.2579  0.4723
19457SOL     OW61325   9.580   8.406   1.375 -0.2674 -0.0171 -0.0127
19457SOL    HW161326   9.495   8.450   1.386 -0.2530  0.4434 -1.4821
19457SOL    HW261327   9.626   8.460   1.310  0.3843 -1.3304 -0.6784
19458SOL     OW61328   5.888   7.262   8.199  0.7529  0.3861  0.6680
19458SOL    HW161329   5.976   7.282   8.165  0.6151  1.4552  0.9018
19458SOL    HW261330   5.864   7.180   8.156  1.4034  0.6668 -0.2695
19459SOL     OW61331   3.688   1.346   1.160 -0.0379 -0.5186 -0.6510
19459SOL    HW161332   3.731   1.426   1.129 -1.0448  1.1206  1.8495
19459SOL    HW261333   3.611   1.337   1.104 -1.2563  1.7590  0.5229
19460SOL     OW61334   2.838   9.554   9.818  0.0295 -0.0668 -0.2781
19460SOL    HW161335   2.886   9.491   9.872 -0.4312  0.8148  1.2438
19460SOL    HW261336   2.778   9.500   9.766 -0.3424 -0.9219  0.9669
19461SOL     OW61337   3.463   4.637   2.248 -0.1382 -0.3008  0.1971
19461SOL    HW161338   3.478   4.702   2.180  1.9859 -2.3253 -1.4575
19461SOL    HW261339   3.546   4.588   2.252 -0.4341 -0.7708  3.7487
19462SOL     OW61340   8.691   6.982   5.382  0.2482 -0.1028  0.6223
19462SOL    HW161341   8.781   7.007   5.400  0.8911  0.6740 -3.0598
19462SOL    HW261342   8.639   7.059   5.409  0.6634 -0.3155  2.1539
19463SOL     OW61343   4.188   6.678   8.192 -0.2189 -0.5429  0.1265
19463SOL    HW161344   4.236   6.730   8.257 -0.4112  0.8265 -0.7908
19463SOL    HW261345   4.149   6.607   8.243 -0.5757  0.6327  1.5590
19464SOL     OW61346   6.407   6.583   3.279  0.6017  0.3357 -0.7400
19464SOL    HW161347   6.456   6.591   3.197 -0.5313  1.6081 -1.3226
19464SOL    HW261348   6.475   6.567   3.345  1.5705 -0.3983 -1.8490
19465SOL     OW61349   5.269   0.386   0.698 -0.2560 -0.5617 -0.0044
19465SOL    HW161350   5.293   0.436   0.620  0.4726 -0.3493  0.3430
19465SOL    HW261351   5.198   0.435   0.738 -0.6350 -0.6701 -0.5260
19466SOL     OW61352   5.698   5.969   1.551  0.1473 -0.1777  0.0024
19466SOL    HW161353   5.788   5.943   1.531 -0.1007  0.0686 -1.5637
19466SOL    HW261354   5.689   6.057   1.514 -0.6442 -0.0776  0.4015
19467SOL     OW61355  10.517   7.951   5.950  1.1143  0.5341 -0.0604
19467SOL    HW161356  10.597   7.911   5.985  1.2995  0.6025 -0.3963
19467SOL    HW261357  10.461   7.964   6.026  1.1103 -0.2231  0.0734
19468SOL     OW61358   5.244   2.291   7.304  0.3468 -0.3589  0.2897
19468SOL    HW161359   5.215   2.203   7.325  0.1150 -0.3824 -0.1126
19468SOL    HW261360   5.229   2.341   7.384  0.7810 -0.7568  0.6194
19469SOL     OW61361   0.673   6.290   7.205 -0.0336  0.1693 -0.2186
19469SOL    HW161362   0.607   6.226   7.231 -1.6180  1.5202 -0.7264
19469SOL    HW261363   0.681   6.279   7.110  1.6471 -1.0096  0.0161
19470SOL     OW61364   8.964   4.493   1.360  0.7052 -0.0380  1.1599
19470SOL    HW161365   8.948   4.568   1.303 -0.4732 -0.8186  0.4265
19470SOL    HW261366   9.033   4.523   1.420  1.8769  0.8706 -0.5460
19471SOL     OW61367   9.484   7.942   2.315 -0.3978 -0.1391 -0.0550
19471SOL    HW161368   9.407   7.914   2.266  0.3256  2.3875 -2.9626
19471SOL    HW261369   9.549   7.874   2.300 -0.0693  0.7186 -3.1872
19472SOL     OW61370   8.568   8.070   1.147  0.9335  0.3422 -0.0638
19472SOL    HW161371   8.524   8.018   1.080  2.0573 -0.5356 -0.1522
19472SOL    HW261372   8.512   8.060   1.225  2.0694 -2.7168  0.5252
19473SOL     OW61373   1.187   3.525   9.696  0.4431  0.2986  0.4538
19473SOL    HW161374   1.128   3.459   9.660  0.8862 -0.1983  0.6331
19473SOL    HW261375   1.270   3.479   9.707  1.0365  1.1420 -0.3558
19474SOL     OW61376   7.351   6.345   7.772 -0.0168 -0.0800  0.0960
19474SOL    HW161377   7.409   6.314   7.702 -3.3819  0.0982 -3.0346
19474SOL    HW261378   7.337   6.437   7.753 -2.4974 -0.4626 -0.2539
19475SOL     OW61379   3.725   3.900   1.680 -0.3775 -0.5996 -0.2490
19475SOL    HW161380   3.675   3.822   1.656 -1.1086 -0.1115 -0.3453
19475SOL    HW261381   3.661   3.957   1.723  0.0564  0.1074 -0.5266
19476SOL     OW61382   5.176   3.705   8.871  0.7281  0.1336  0.5083
19476SOL    HW161383   5.175   3.700   8.966 -0.0695  2.6271  0.7030
19476SOL    HW261384   5.186   3.799   8.852  0.4481 -0.2545 -1.8479
19477SOL     OW61385   4.483   0.166   3.392  0.3449 -0.2382 -0.2671
19477SOL    HW161386   4.418   0.098   3.372  0.3045 -0.2803  0.0039
19477SOL    HW261387   4.447   0.245   3.352  0.4888 -0.4131 -0.7594
19478SOL     OW61388   0.334   4.875   4.011  0.0019 -0.4759  0.3012
19478SOL    HW161389   0.366   4.821   4.084 -0.0583  0.1768  0.8231
19478SOL    HW261390   0.412   4.914   3.973  0.2336 -2.3305 -1.2427
19479SOL     OW61391   9.704   6.918   2.902 -0.5784 -1.0144 -0.2566
19479SOL    HW161392   9.653   6.885   2.829  3.2960  0.2278 -3.9073
19479SOL    HW261393   9.779   6.858   2.908  1.2916  1.2004 -0.1916
19480SOL     OW61394   4.278   8.215   9.858 -0.4320 -0.3384 -0.5734
19480SOL    HW161395   4.287   8.186   9.948  0.3681  0.9244 -0.2140
19480SOL    HW261396   4.190   8.252   9.852  0.2101  1.4635  0.3061
19481SOL     OW61397   4.723  10.386   8.842 -0.6174 -0.3772 -0.2826
19481SOL    HW161398   4.722  10.428   8.929  2.9335 -1.9692  0.7084
19481SOL    HW261399   4.693  10.297   8.858 -2.8866  0.1104 -1.3777
19482SOL     OW61400   8.079   5.065   7.896  0.2225  0.3985  0.3355
19482SOL    HW161401   8.049   5.059   7.805  0.5134  1.6386  0.1435
19482SOL    HW261402   8.002   5.042   7.948  0.7493 -3.1581 -0.1903
19483SOL     OW61403   7.535   1.369   0.021  0.2772  0.0812 -0.0370
19483SOL    HW161404   7.481   1.291   0.030 -0.4097  0.5247 -0.2529
19483SOL    HW261405   7.479   1.440   0.054  2.5676 -0.0870  5.2313
19484SOL     OW61406  10.552   8.612   3.721  0.0600 -0.2894 -0.3005
19484SOL    HW161407  10.631   8.559   3.732  1.1533  1.0278 -1.3991
19484SOL    HW261408  10.525   8.596   3.630 -1.1100 -0.9009  0.1249
19485SOL     OW61409  10.468   0.090   9.727  0.4978 -0.0513  0.2634
19485SOL    HW161410  10.493   0.075   9.636 -0.2942 -1.3527  0.2333
19485SOL    HW261411  10.417   0.171   9.726  0.4233 -0.1056 -0.4618
19486SOL     OW61412   0.531   1.909   1.057 -0.3650 -0.3121 -0.1064
19486SOL    HW161413   0.619   1.901   1.093 -0.1704 -0.6087 -0.6465
19486SOL    HW261414   0.522   2.002   1.035 -0.4914 -0.1203  0.7011
19487SOL     OW61415   1.715  10.445   2.665  0.0183 -0.2863  0.0073
19487SOL    HW161416   1.680  10.371   2.716 -0.5609 -0.2933 -0.3891
19487SOL    HW261417   1.810  10.439   2.677  0.1002 -1.8545 -1.0049
19488SOL     OW61418   0.301   3.833   8.936  0.0438 -0.3429  0.1643
19488SOL    HW161419   0.357   3.824   8.860  2.2822 -1.8488  1.8456
19488SOL    HW261420   0.279   3.743   8.961 -0.9957  0.1306  1.0659
19489SOL     OW61421   5.492   7.262   3.368  0.0438 -0.1510 -0.6397
19489SOL    HW161422   5.500   7.208   3.447  0.7184 -0.9970 -1.2624
19489SOL    HW261423   5.402   7.246   3.339 -0.2541  0.2708  0.0236
19490SOL     OW61424   5.787  10.307   9.559 -0.0825  0.0801 -0.4215
19490SOL    HW161425   5.815  10.260   9.637  1.3357 -0.0061 -0.9659
19490SOL    HW261426   5.748  10.388   9.593  0.4634  0.0211  0.3831
19491SOL     OW61427   3.637   5.919   5.156 -0.1113 -0.1577 -0.5082
19491SOL    HW161428   3.578   5.993   5.141 -0.4306 -0.0531  1.0655
19491SOL    HW261429   3.686   5.943   5.235  1.3195 -0.7028 -1.1955
19492SOL     OW61430   7.598   9.968   3.777  0.1247  0.1789  0.6345
19492SOL    HW161431   7.605   9.884   3.823  0.9675 -0.6355 -0.8786
19492SOL    HW261432   7.533   9.952   3.708  1.3985  0.2500 -0.6321
19493SOL     OW61433   3.774  10.508   5.632  0.3872  0.2109  0.3539
19493SOL    HW161434   3.762  10.427   5.583  0.2075  1.1245 -1.2010
19493SOL    HW261435   3.773  10.576   5.564 -2.0013  1.7609  1.8245
19494SOL     OW61436   1.298  10.654   2.500  0.5672 -0.6234 -0.1130
19494SOL    HW161437   1.293  10.718   2.429 -1.9482 -0.6201 -0.0266
19494SOL    HW261438   1.235  10.586   2.475  0.7594 -1.3902  1.3789
19495SOL     OW61439   7.772   7.674   0.350 -0.1034  0.0464  0.0950
19495SOL    HW161440   7.711   7.669   0.423 -0.6519  0.6573 -0.3179
19495SOL    HW261441   7.842   7.613   0.374 -0.1323  0.4456  1.2530
19496SOL     OW61442   8.238   1.306   1.590 -0.0557 -0.3577 -0.4376
19496SOL    HW161443   8.318   1.255   1.594 -0.2605 -0.6312  0.6828
19496SOL    HW261444   8.181   1.258   1.530  0.4949 -0.3425 -0.9718
19497SOL     OW61445   5.494   9.994   5.132  0.2189 -0.2484  0.2422
19497SOL    HW161446   5.496   9.950   5.047 -0.1518  0.0957  0.0537
19497SOL    HW261447   5.426  10.060   5.123  0.4518  0.0542  0.6788
19498SOL     OW61448   2.873   1.594   6.833  0.7126  0.3472  0.1057
19498SOL    HW161449   2.820   1.515   6.821  1.4148  0.1815 -2.6329
19498SOL    HW261450   2.885   1.601   6.928 -1.1516 -1.6103  0.5671
19499SOL     OW61451   5.167   3.458   7.663  0.2877  0.3019 -0.0568
19499SOL    HW161452   5.073   3.477   7.666  0.4025  0.8012  0.6563
19499SOL    HW261453   5.177   3.379   7.716  0.0778 -0.6671 -1.4038
19500SOL     OW61454   9.811   1.120   2.983  0.1076 -0.3730  0.5292
19500SOL    HW161455   9.760   1.164   2.916  1.0308  1.5400  1.0293
19500SOL    HW261456   9.838   1.189   3.043  1.2234 -1.6869  1.6213
19501SOL     OW61457   4.620   0.082   1.016 -0.2001 -0.3921  0.4400
19501SOL    HW161458   4.582   0.162   1.052 -0.1992  1.0452 -2.4909
19501SOL    HW261459   4.559   0.055   0.947  1.7097 -0.6199 -1.2794
19502SOL     OW61460   2.647   0.127   3.838  0.1872  0.5737  0.0751
19502SOL    HW161461   2.562   0.170   3.831  0.2500  0.8860  1.1302
19502SOL    HW261462   2.626   0.037   3.863 -0.0877 -0.7828 -4.2107
19503SOL     OW61463   8.787   8.602   4.529  0.1659 -0.4631 -0.0979
19503SOL    HW161464   8.696   8.573   4.527  0.0408 -0.0218 -0.6824
19503SOL    HW261465   8.795   8.651   4.611  0.1993 -1.5266  0.5630
19504SOL     OW61466  10.057   0.998   1.768 -0.0170 -0.3063 -0.4733
19504SOL    HW161467  10.059   0.967   1.858  0.5974 -2.5852 -1.1958
19504SOL    HW261468  10.064   0.918   1.715  1.1269  1.0565 -2.5186
19505SOL     OW61469   0.314   4.250   6.293  0.3141 -0.2997 -0.1025
19505SOL    HW161470   0.266   4.233   6.374  2.4108 -2.2754  0.8230
19505SOL    HW261471   0.347   4.339   6.303 -0.9322  0.1341  0.3768
19506SOL     OW61472   4.941   5.436   0.920 -0.2591  0.6402  0.4217
19506SOL    HW161473   4.931   5.527   0.948 -1.2207  0.5032  0.5568
19506SOL    HW261474   4.918   5.384   0.998 -1.6849  0.2681 -0.2176
19507SOL     OW61475   2.469   8.924   2.624 -0.0546  0.1267  0.1782
19507SOL    HW161476   2.427   8.896   2.542 -1.2224 -0.3733  0.9183
19507SOL    HW261477   2.455   8.850   2.684  2.5602 -0.3821  0.2694
19508SOL     OW61478   9.030   6.750   1.457 -0.4282 -0.3727 -1.0278
19508SOL    HW161479   8.966   6.785   1.520  1.5445  0.9448  0.3443
19508SOL    HW261480   9.057   6.666   1.494 -0.1779 -0.1733 -0.7549
19509SOL     OW61481   7.688   5.876   8.780 -0.8315  0.4783 -0.0875
19509SOL    HW161482   7.677   5.970   8.770  0.8700  0.9374  1.7705
19509SOL    HW261483   7.619   5.849   8.840 -0.5384  0.7850  0.3923
19510SOL     OW61484   2.269   9.834   0.599  0.3607 -0.4137  0.1408
19510SOL    HW161485   2.278   9.864   0.509  0.1406  1.1543  0.6096
19510SOL    HW261486   2.358   9.813   0.627  1.0592  2.6774  0.6840
19511SOL     OW61487   6.304   9.453   4.153  1.1473  0.1581  0.2403
19511SOL    HW161488   6.304   9.358   4.163  0.5624 -0.0190 -1.2262
19511SOL    HW261489   6.297   9.467   4.059  0.9983  1.6587  0.4550
19512SOL     OW61490   8.597   2.950   8.818 -0.1509  0.2925 -0.1302
19512SOL    HW161491   8.685   2.924   8.845  0.2933  0.3821 -1.4375
19512SOL    HW261492   8.572   3.018   8.880  1.6479  1.9396 -1.1050
19513SOL     OW61493   0.540   4.698   7.095 -0.3665  0.1629 -0.8209
19513SOL    HW161494   0.499   4.740   7.171  1.2703  1.0231 -0.3878
19513SOL    HW261495   0.501   4.610   7.094 -0.9824  0.3878  0.5499
19514SOL     OW61496   4.441   9.395   4.050 -1.1990 -0.5493 -0.2111
19514SOL    HW161497   4.480   9.470   4.004 -0.7048  0.0446  1.1188
19514SOL    HW261498   4.420   9.333   3.981  1.7711 -0.7628 -1.0789
19515SOL     OW61499   9.623   9.106   1.628  0.4335 -0.6054  0.3020
19515SOL    HW161500   9.631   9.060   1.544 -1.1949 -0.2794 -0.0758
19515SOL    HW261501   9.616   9.036   1.693  1.7909 -0.8627  0.2060
19516SOL     OW61502   4.576   4.340   0.745  0.0046 -0.0619 -0.3268
19516SOL    HW161503   4.564   4.281   0.670  2.5968  1.7937 -2.3901
19516SOL    HW261504   4.565   4.428   0.708 -0.3753  0.8679  1.8952
19517SOL     OW61505   7.095  10.254  10.245 -0.5421  0.0908  0.4427
19517SOL    HW161506   7.113  10.347  10.260 -0.1784 -0.0884  1.1518
19517SOL    HW261507   7.001  10.251  10.225 -0.5432  0.6188  0.3513
19518SOL     OW61508   4.699  10.050   9.971 -0.3534  0.6423 -0.4137
19518SOL    HW161509   4.725  10.010   9.888 -0.0124  1.0771 -0.5170
19518SOL    HW261510   4.771  10.109   9.993  0.0121 -0.1750  0.6793
19519SOL     OW61511   4.266   1.757   0.633  0.1426 -1.2003  0.5241
19519SOL    HW161512   4.309   1.677   0.663  0.0835 -0.9876  1.2078
19519SOL    HW261513   4.290   1.764   0.541  1.8529 -0.9397  0.9381
19520SOL     OW61514   6.602   9.198   7.222  0.7105 -0.1326 -0.7446
19520SOL    HW161515   6.571   9.228   7.307  0.0730  0.0964 -1.0484
19520SOL    HW261516   6.597   9.103   7.226 -0.7522 -0.0913 -1.0350
19521SOL     OW61517   3.254   4.105  10.430  0.5327 -0.5310 -0.0531
19521SOL    HW161518   3.345   4.089  10.456  0.6863  0.5555  0.1276
19521SOL    HW261519   3.209   4.124  10.512  0.8247  1.9952 -0.3886
19522SOL     OW61520   3.921   3.734   1.317  0.0027 -0.0844  0.1331
19522SOL    HW161521   3.847   3.706   1.263  0.1694 -1.1544  0.4411
19522SOL    HW261522   3.996   3.732   1.258 -0.1807  0.8882 -0.1493
19523SOL     OW61523   9.703  10.041   9.391 -0.5467 -0.7252 -0.0033
19523SOL    HW161524   9.643   9.970   9.413 -1.8937 -0.7676 -3.2614
19523SOL    HW261525   9.647  10.117   9.378  0.5050  0.0932  0.1328
19524SOL     OW61526   2.372   9.039  10.581  0.1903 -0.3013 -0.2067
19524SOL    HW161527   2.383   8.982  10.658 -2.6475  0.1650  0.6737
19524SOL    HW261528   2.286   9.016  10.547  0.7203  0.6509 -2.3348
19525SOL     OW61529   2.405   6.745   3.235 -0.2268  0.2426  0.3131
19525SOL    HW161530   2.488   6.742   3.188 -0.1823  0.1310  0.3981
19525SOL    HW261531   2.391   6.838   3.253 -0.2355  0.2851  0.0967
19526SOL     OW61532   4.431   5.703  10.640  0.1832 -0.1492 -1.2709
19526SOL    HW161533   4.467   5.620  10.671 -1.8539 -0.2020  1.3608
19526SOL    HW261534   4.338   5.685  10.625  0.1146  1.1833 -2.7012
19527SOL     OW61535   0.993   5.420   9.657  0.6044  0.2546  0.2677
19527SOL    HW161536   1.006   5.364   9.581  1.4534 -0.4456  0.9075
19527SOL    HW261537   1.072   5.409   9.709  0.4677  1.4810  0.7832
19528SOL     OW61538   8.215  10.658   1.193 -0.1654  0.4176  0.1944
19528SOL    HW161539   8.277  10.682   1.261 -1.3444  2.9223  0.5197
19528SOL    HW261540   8.136  10.630   1.240  0.3059 -1.7994 -0.2099
19529SOL     OW61541   3.230   4.445   2.054  0.1082 -0.3208  0.5549
19529SOL    HW161542   3.154   4.391   2.074  0.1657 -1.3802 -1.8059
19529SOL    HW261543   3.305   4.389   2.074  0.2322 -0.1247  0.6484
19530SOL     OW61544   7.796   6.824   5.105 -0.1467  0.1110  0.1711
19530SOL    HW161545   7.720   6.848   5.053  0.0872  0.6219  0.0590
19530SOL    HW261546   7.864   6.804   5.041 -0.1427 -0.2003  0.2716
19531SOL     OW61547   3.929   6.144   1.568 -0.2764 -0.3744  0.0840
19531SOL    HW161548   3.910   6.078   1.502  0.4915 -0.5142 -0.0157
19531SOL    HW261549   3.890   6.224   1.534 -0.7450 -0.6639 -0.0554
19532SOL     OW61550   0.065   1.339   4.416 -0.3305  0.7757 -0.6625
19532SOL    HW161551   0.021   1.420   4.442 -2.6774 -0.6647  0.1361
19532SOL    HW261552  -0.006   1.276   4.403  1.4839 -1.5550  0.0556
19533SOL     OW61553   2.266   2.279  10.027  0.1711 -0.0876 -0.2187
19533SOL    HW161554   2.310   2.358  10.059 -0.9555  0.1946  0.6861
19533SOL    HW261555   2.280   2.214  10.096 -1.0417  0.0902  0.2156
19534SOL     OW61556   9.349  10.661   3.206  0.6191 -0.2697  0.5019
19534SOL    HW161557   9.267  10.628   3.241 -0.3770  0.8703 -0.6525
19534SOL    HW261558   9.330  10.752   3.183  2.1429 -0.0558 -0.0176
19535SOL     OW61559   1.567   9.195   2.151  0.0186 -0.3091 -0.3036
19535SOL    HW161560   1.504   9.143   2.200 -0.1134 -0.6970 -0.8689
19535SOL    HW261561   1.600   9.136   2.084  0.4512  0.1067 -0.4647
19536SOL     OW61562   0.702   2.560   9.318  0.1598 -0.5651  0.0213
19536SOL    HW161563   0.714   2.527   9.407 -1.8058 -1.0229  0.1428
19536SOL    HW261564   0.784   2.538   9.274  1.2143 -0.2611  1.7088
19537SOL     OW61565   9.211   9.555   0.260 -0.1273  0.0511  0.0087
19537SOL    HW161566   9.203   9.649   0.281  0.4419 -0.2538  1.8650
19537SOL    HW261567   9.274   9.552   0.189 -0.9814  1.1372 -0.8297
19538SOL     OW61568   3.749   1.183   3.436  0.1000 -0.1087  0.5604
19538SOL    HW161569   3.789   1.114   3.489 -0.7797 -1.3083 -0.2935
19538SOL    HW261570   3.671   1.209   3.486  1.1787  1.3451  1.5985
19539SOL     OW61571   5.299   4.845   0.412  0.0213 -0.2992  0.5592
19539SOL    HW161572   5.330   4.900   0.484  0.5019 -1.2895  1.1325
19539SOL    HW261573   5.343   4.761   0.426  0.1985 -0.4861 -0.9529
19540SOL     OW61574   7.452   5.764   2.951 -0.2265 -0.1883 -0.1774
19540SOL    HW161575   7.422   5.674   2.937  0.6779 -0.7520  1.3618
19540SOL    HW261576   7.547   5.759   2.944 -0.2205  0.8953 -1.2498
19541SOL     OW61577   6.798   9.178   5.240 -0.5907 -0.1544  0.4013
19541SOL    HW161578   6.854   9.114   5.196  0.3882  1.0935 -0.2199
19541SOL    HW261579   6.844   9.198   5.322 -1.0971 -0.5385  0.7835
19542SOL     OW61580   1.389   5.892   1.524  0.1769 -0.1297  0.2788
19542SOL    HW161581   1.468   5.850   1.490  0.3551 -0.9045  1.5580
19542SOL    HW261582   1.367   5.841   1.603 -1.2530  0.4425  0.2818
19543SOL     OW61583   2.388  10.316   5.366 -0.6773  0.1557  0.6429
19543SOL    HW161584   2.402  10.333   5.272  0.9630 -1.0599  0.6271
19543SOL    HW261585   2.404  10.222   5.376  0.3563  0.4836  2.3400
19544SOL     OW61586   4.629   1.008   5.838  1.1189  0.3621 -0.2023
19544SOL    HW161587   4.640   1.050   5.753  2.2461 -0.7854 -0.6714
19544SOL    HW261588   4.544   0.965   5.833  1.3957 -0.1305 -0.9811
19545SOL     OW61589   8.559  10.636   6.567  0.2083  0.1816 -0.5773
19545SOL    HW161590   8.523  10.660   6.653  0.4251 -0.5784 -0.2641
19545SOL    HW261591   8.497  10.673   6.504  0.4904  1.4839 -0.1270
19546SOL     OW61592   2.596   9.225   0.740 -0.4094  0.2879  0.2025
19546SOL    HW161593   2.640   9.260   0.663 -1.9323 -0.2095 -0.9252
19546SOL    HW261594   2.606   9.130   0.732  0.2180  0.2573  1.1287
19547SOL     OW61595   6.523   4.110   0.031 -0.1681 -0.2827  0.2460
19547SOL    HW161596   6.550   4.105   0.123  1.4163 -2.1551 -0.2503
19547SOL    HW261597   6.602   4.137  -0.016 -0.5276 -0.8652 -0.7214
19548SOL     OW61598   0.558   2.658   8.916  0.4218  0.1580  0.4228
19548SOL    HW161599   0.642   2.623   8.945  0.8696 -0.9254 -1.9336
19548SOL    HW261600   0.523   2.590   8.858 -0.8874  1.6836 -0.6424
19549SOL     OW61601   7.618   9.185   1.067 -0.8536  0.2728  0.3031
19549SOL    HW161602   7.542   9.242   1.080 -0.6461  0.6012  0.0960
19549SOL    HW261603   7.604   9.147   0.980 -0.1769  1.2803 -0.2639
19550SOL     OW61604   8.354   6.510   9.776 -0.0153  0.4760 -0.5382
19550SOL    HW161605   8.386   6.550   9.857  1.7744 -1.2165 -0.3439
19550SOL    HW261606   8.274   6.465   9.802 -0.1638  1.0302 -0.0135
19551SOL     OW61607   2.443   7.068   5.259 -0.1064  0.2185 -0.1947
19551SOL    HW161608   2.539   7.075   5.255 -0.0775 -0.6112 -1.3092
19551SOL    HW261609   2.425   7.051   5.351  0.7632  1.0421  0.1497
19552SOL     OW61610   6.777   0.134   9.389  0.0225 -0.1282  0.2231
19552SOL    HW161611   6.777   0.077   9.466  1.6980  0.5839  0.7859
19552SOL    HW261612   6.791   0.074   9.316  0.3445 -0.6086  0.6690
19553SOL     OW61613   5.886   3.894   5.475 -0.3893 -0.6212 -0.1184
19553SOL    HW161614   5.839   3.962   5.427 -0.3273 -0.6851 -0.2704
19553SOL    HW261615   5.851   3.812   5.441  0.9619 -0.7041 -1.4065
19554SOL     OW61616   6.357   9.667   4.688  0.0242  0.1063  0.3446
19554SOL    HW161617   6.426   9.713   4.737  0.4850  0.0597 -0.2382
19554SOL    HW261618   6.375   9.574   4.703  0.6789  0.0704 -0.5710
19555SOL     OW61619  10.567   1.791   8.166  0.0510  0.5230 -0.3867
19555SOL    HW161620  10.645   1.779   8.111  1.1360 -2.1317  1.4813
19555SOL    HW261621  10.496   1.750   8.116  1.1539 -2.5073  0.2609
19556SOL     OW61622   0.756   4.125   0.394 -0.3453  0.6691 -0.3223
19556SOL    HW161623   0.760   4.215   0.428 -1.7692  0.3732  0.7461
19556SOL    HW261624   0.679   4.124   0.338 -1.2972 -0.2702  0.9592
19557SOL     OW61625   6.881   7.350  10.469 -0.3902 -0.3099 -0.1978
19557SOL    HW161626   6.800   7.359  10.518 -0.2580 -1.5549  0.2853
19557SOL    HW261627   6.854   7.358  10.377 -0.6676  1.7805  0.0184
19558SOL     OW61628   9.966   0.904   8.818 -0.1108 -0.0483  0.8714
19558SOL    HW161629   9.872   0.916   8.808 -0.5363 -2.2232  1.5295
19558SOL    HW261630   9.987   0.944   8.902 -0.4519  0.4420  0.7227
19559SOL     OW61631   9.192   5.996   6.816 -0.3769 -0.0137  0.2910
19559SOL    HW161632   9.230   5.935   6.880 -0.6279  1.4110  1.8687
19559SOL    HW261633   9.179   5.943   6.737  1.3620 -1.4674  0.9091
19560SOL     OW61634   8.405   1.666   4.660 -0.0340  0.1973 -0.0075
19560SOL    HW161635   8.355   1.591   4.693 -1.1572  1.4453  1.2727
19560SOL    HW261636   8.374   1.678   4.571  0.0908 -0.7884 -0.2006
19561SOL     OW61637   7.067  10.654   1.704 -0.3475  0.4319 -0.1289
19561SOL    HW161638   7.010  10.578   1.711 -0.1266  0.4162  2.7936
19561SOL    HW261639   7.096  10.654   1.613 -1.7208 -1.9347 -0.6570
19562SOL     OW61640   1.342   1.456   7.586  0.3288 -0.4314  0.7667
19562SOL    HW161641   1.372   1.544   7.606  1.4056 -0.8205  0.9724
19562SOL    HW261642   1.335   1.453   7.491  0.8935 -0.2991  0.7176
19563SOL     OW61643   5.947  10.549   9.173 -0.0044 -0.2513 -0.1527
19563SOL    HW161644   5.862  10.583   9.146 -0.4301 -0.8826  0.3471
19563SOL    HW261645   5.927  10.464   9.213  0.8936 -0.5356 -0.2847
19564SOL     OW61646   5.134   2.185   0.880 -0.0331 -0.2738 -0.2452
19564SOL    HW161647   5.133   2.207   0.973 -0.1944  0.8307 -0.4931
19564SOL    HW261648   5.081   2.106   0.873 -0.7418  0.1224  0.4920
19565SOL     OW61649   2.837   3.944   3.540 -0.5220 -0.3955  0.0719
19565SOL    HW161650   2.804   3.946   3.450 -2.2617 -2.6811  0.5875
19565SOL    HW261651   2.808   3.860   3.575  1.9582 -0.5171  2.1241
19566SOL     OW61652   2.289   0.345  10.085 -0.2467  0.0899 -0.1287
19566SOL    HW161653   2.274   0.256  10.117  0.4223 -0.0644 -0.2279
19566SOL    HW261654   2.222   0.358  10.018 -0.8338 -0.0566  0.4216
19567SOL     OW61655   5.205   8.563  10.051 -0.4774 -0.3308 -0.0088
19567SOL    HW161656   5.268   8.492  10.059 -1.0836 -0.8429  0.3507
19567SOL    HW261657   5.150   8.538   9.977 -1.1738 -0.6343  0.5928
19568SOL     OW61658  10.581   7.941   4.219 -0.0596 -0.0976 -0.7102
19568SOL    HW161659  10.649   8.008   4.210  0.2792 -0.0491  1.6864
19568SOL    HW261660  10.562   7.914   4.129  1.8549  1.1499 -1.5434
19569SOL     OW61661   6.411   5.404   9.081  0.4648 -0.0267  0.0781
19569SOL    HW161662   6.459   5.343   9.138  0.3405 -0.7862 -0.6205
19569SOL    HW261663   6.323   5.367   9.076  0.3693  0.2551 -0.2982
19570SOL     OW61664  10.100   3.404   3.387  0.0512 -0.4349 -0.2551
19570SOL    HW161665  10.079   3.459   3.312  0.4280 -2.0362 -1.5843
19570SOL    HW261666  10.042   3.436   3.457  0.1307  1.4930 -1.0039
19571SOL     OW61667   8.663   8.099   1.905 -0.0002  0.5075  0.0752
19571SOL    HW161668   8.751   8.118   1.936 -0.0350  1.4073 -0.3292
19571SOL    HW261669   8.652   8.157   1.829 -0.4185 -0.6197 -0.7406
19572SOL     OW61670   2.258   7.935   6.329  0.2646 -0.7929  0.1434
19572SOL    HW161671   2.211   7.978   6.258  0.8007 -0.7755 -0.1987
19572SOL    HW261672   2.297   7.858   6.290  1.6206 -0.1238  0.1069
19573SOL     OW61673   6.883   3.230   6.132 -0.0766 -0.2161  0.4208
19573SOL    HW161674   6.864   3.136   6.139  0.7048 -0.3774  0.5629
19573SOL    HW261675   6.919   3.253   6.218 -0.1319  0.1791  0.3368
19574SOL     OW61676   6.434   3.944   6.068 -0.1405  0.8801  0.4487
19574SOL    HW161677   6.412   4.026   6.024  0.0724  0.0459 -1.2728
19574SOL    HW261678   6.355   3.890   6.060 -0.2037  0.8077  1.3836
19575SOL     OW61679   0.382   3.022   6.559  0.4002  0.4906 -0.2548
19575SOL    HW161680   0.307   3.048   6.613 -0.4248 -1.4513 -0.3450
19575SOL    HW261681   0.346   3.016   6.470  0.5049 -0.8334 -0.2376
19576SOL     OW61682   0.928   4.220   2.197 -0.2500 -0.8219 -0.5006
19576SOL    HW161683   0.842   4.192   2.228 -0.1179  0.5194  1.2495
19576SOL    HW261684   0.986   4.206   2.272  0.5235  0.6561 -0.7811
19577SOL     OW61685   7.337   3.829   4.703 -0.0738 -0.4598  0.0235
19577SOL    HW161686   7.300   3.891   4.766  1.2443 -0.3936  0.7671
19577SOL    HW261687   7.392   3.771   4.756 -0.0956 -1.3274 -0.8790
19578SOL     OW61688   4.654   8.270   5.965  0.1894 -0.3534  0.2630
19578SOL    HW161689   4.700   8.300   6.043 -0.2280  1.1235 -0.0358
19578SOL    HW261690   4.578   8.328   5.958 -0.4856 -1.3023 -0.5125
19579SOL     OW61691   4.760   9.063   5.359  0.5054  0.2049 -0.2745
19579SOL    HW161692   4.746   9.026   5.446 -3.9419 -0.8904 -1.2351
19579SOL    HW261693   4.805   8.993   5.311 -0.9475 -0.9940  0.0317
19580SOL     OW61694   9.857   1.330   4.703 -0.0454  0.1441 -0.4560
19580SOL    HW161695   9.796   1.289   4.642  0.8208  0.4393 -1.5558
19580SOL    HW261696   9.935   1.350   4.650  1.3425 -0.9655  1.0566
19581SOL     OW61697   5.313   9.582   9.296  0.0620  0.5997 -0.4864
19581SOL    HW161698   5.356   9.630   9.225  0.3159 -0.3900 -1.0139
19581SOL    HW261699   5.235   9.544   9.256  0.0060  0.3397 -0.1362
19582SOL     OW61700   4.132   3.946   9.210 -0.2700  0.1330  0.0774
19582SOL    HW161701   4.067   3.902   9.265  1.2466  0.1914  2.0366
19582SOL    HW261702   4.178   3.876   9.165  0.6070 -0.1848  1.4136
19583SOL     OW61703   0.673   0.583   6.650  0.0754 -0.0198 -0.6273
19583SOL    HW161704   0.633   0.619   6.571  1.0731  1.9280 -0.2956
19583SOL    HW261705   0.766   0.576   6.629  0.5220  1.5093  0.6663
19584SOL     OW61706   6.018   3.724   2.627 -0.2839 -0.1054 -0.1889
19584SOL    HW161707   6.010   3.653   2.690 -0.9979 -0.9502 -1.1978
19584SOL    HW261708   6.019   3.804   2.680 -1.5429 -0.7503  0.8469
19585SOL     OW61709   1.604   8.194   6.772 -0.1869 -0.0039  0.0385
19585SOL    HW161710   1.670   8.210   6.840 -0.1290  1.2541 -0.3036
19585SOL    HW261711   1.655   8.168   6.695 -0.2556 -1.4853  0.4594
19586SOL     OW61712  10.358   1.430   2.125 -0.2455 -0.0404 -0.5873
19586SOL    HW161713  10.362   1.356   2.186 -0.7131  0.9068  0.6264
19586SOL    HW261714  10.375   1.391   2.039 -0.0567 -1.4846  0.0790
19587SOL     OW61715   0.294   0.071   6.389  0.0607 -0.1084  0.6518
19587SOL    HW161716   0.363   0.066   6.455  0.0763 -1.3790  0.5613
19587SOL    HW261717   0.305   0.158   6.350  2.1568 -0.5817  0.0681
19588SOL     OW61718   0.795   9.353   8.424 -0.0865  0.7090  0.2142
19588SOL    HW161719   0.806   9.375   8.331  1.5110 -0.2705  0.1300
19588SOL    HW261720   0.775   9.436   8.466 -0.0466  1.3064 -0.9086
19589SOL     OW61721   1.716   3.447   5.358  0.2166 -0.0975  0.0581
19589SOL    HW161722   1.733   3.353   5.365 -1.4997 -0.3865  0.6301
19589SOL    HW261723   1.722   3.480   5.448 -0.6509  0.0622  0.0637
19590SOL     OW61724   7.903   6.283   6.198 -0.0663  0.1214 -0.8977
19590SOL    HW161725   7.829   6.308   6.142 -1.6699 -2.2752 -0.0282
19590SOL    HW261726   7.957   6.226   6.142 -1.0400 -1.3163 -0.4280
19591SOL     OW61727   7.015   7.687   9.968 -0.1093  0.2982  0.3429
19591SOL    HW161728   6.975   7.607   9.934  1.1099 -0.2030  0.0215
19591SOL    HW261729   7.029   7.741   9.890  0.4874  0.1563  0.3437
19592SOL     OW61730   9.226   3.762   1.465  0.2699 -0.1489  0.0661
19592SOL    HW161731   9.234   3.836   1.405 -2.3675  1.4718  1.5321
19592SOL    HW261732   9.316   3.741   1.489  1.1836  1.5355 -1.5776
19593SOL     OW61733   7.915   3.382  10.575  0.6047 -0.0101  0.0392
19593SOL    HW161734   7.907   3.295  10.613  2.2691 -0.4253 -0.4719
19593SOL    HW261735   7.976   3.428  10.633  0.2325  0.6111 -0.0510
19594SOL     OW61736   3.829   4.074   8.239  0.1773 -0.3375  0.2478
19594SOL    HW161737   3.896   4.012   8.209 -1.2706 -1.2493 -1.2691
19594SOL    HW261738   3.752   4.019   8.256 -0.3102  0.7222  1.6505
19595SOL     OW61739   0.160   6.163   7.055  0.7488 -0.1259 -0.3055
19595SOL    HW161740   0.107   6.124   7.124  0.9631  0.1669  0.0264
19595SOL    HW261741   0.115   6.139   6.974 -0.2085  0.6023 -0.0048
19596SOL     OW61742   4.254   3.562   1.651  0.1159 -0.0500  0.1957
19596SOL    HW161743   4.223   3.565   1.742 -0.6559 -0.8278 -0.0211
19596SOL    HW261744   4.228   3.647   1.615 -0.2422 -0.0205  0.5065
19597SOL     OW61745   0.759   0.496   1.762  0.2374  0.2366  0.0528
19597SOL    HW161746   0.730   0.585   1.742 -1.7674 -0.4030 -0.1037
19597SOL    HW261747   0.810   0.469   1.686 -0.1122  0.8360 -0.3982
19598SOL     OW61748  10.629   2.333   0.448  0.1614 -0.1018 -0.5726
19598SOL    HW161749  10.704   2.274   0.437  1.6932  1.6075  0.0664
19598SOL    HW261750  10.578   2.322   0.368  1.1750 -1.2188 -1.1065
19599SOL     OW61751   6.932   6.045   2.509 -0.3552 -0.8105 -0.6110
19599SOL    HW161752   6.923   6.077   2.419 -1.3513  1.8320  0.3364
19599SOL    HW261753   6.847   6.007   2.529 -1.1723  1.3233  0.1434
19600SOL     OW61754   0.545   0.117   9.243  0.1012 -0.5244 -0.0226
19600SOL    HW161755   0.459   0.082   9.268  0.6520  0.0944  3.1615
19600SOL    HW261756   0.537   0.212   9.258  0.6330 -0.1145 -2.1115
19601SOL     OW61757   7.159   0.737   0.542  0.3581 -0.0762  0.2871
19601SOL    HW161758   7.077   0.697   0.512 -0.1585 -0.1072  1.6726
19601SOL    HW261759   7.158   0.824   0.504 -0.9468  0.3799  1.2793
19602SOL     OW61760   2.078   6.139   5.526  0.1838 -0.2057  0.2517
19602SOL    HW161761   2.070   6.062   5.471 -1.4392 -0.3004  0.5491
19602SOL    HW261762   2.008   6.197   5.496  0.7629  0.7377  0.6731
19603SOL     OW61763   2.858   5.033   9.053 -0.4134 -0.3249  0.2548
19603SOL    HW161764   2.933   5.089   9.034 -0.3197 -0.4394  0.2883
19603SOL    HW261765   2.861   5.019   9.148  0.2092 -1.2960  0.1099
19604SOL     OW61766   3.700   2.891   8.944  0.2301 -0.0242  0.5047
19604SOL    HW161767   3.612   2.913   8.973 -0.2645 -1.0542 -0.1973
19604SOL    HW261768   3.746   2.866   9.024 -0.4922 -0.7530  0.7002
19605SOL     OW61769   0.789  10.531   5.952  0.2955  0.1537  0.0479
19605SOL    HW161770   0.722  10.561   6.014  1.6687  0.1354  1.6097
19605SOL    HW261771   0.811  10.610   5.901 -0.5093  0.2875 -0.1074
19606SOL     OW61772   4.816   6.692   7.674  0.3180  0.2408 -0.4170
19606SOL    HW161773   4.844   6.656   7.590  1.3626 -1.0148  0.4388
19606SOL    HW261774   4.796   6.784   7.655  1.8600  0.3417 -1.7553
19607SOL     OW61775   5.023  10.529   6.467 -0.1753 -0.3292 -0.1396
19607SOL    HW161776   4.957  10.491   6.408 -0.3523 -2.2863  1.2371
19607SOL    HW261777   5.106  10.496   6.433 -0.0677  0.4422 -0.6437
19608SOL     OW61778   5.674   8.756   4.270 -0.1545 -0.2806 -0.0688
19608SOL    HW161779   5.655   8.789   4.182  3.6490  1.6747 -0.3756
19608SOL    HW261780   5.621   8.810   4.328 -1.7475 -0.7451 -1.0137
19609SOL     OW61781  10.328   1.303  10.492  0.4560 -0.0086 -0.0422
19609SOL    HW161782  10.352   1.356  10.568  0.4947  0.0082 -0.0660
19609SOL    HW261783  10.330   1.213  10.524 -3.4073  0.1290  1.1345
19610SOL     OW61784   1.759   4.536  10.136  0.2415 -0.0674 -0.1209
19610SOL    HW161785   1.778   4.460  10.191 -1.3449 -1.8864 -1.9520
19610SOL    HW261786   1.845   4.574  10.118  1.0656 -1.3484  0.9197
19611SOL     OW61787   6.856   2.630   8.791  0.7102 -0.0081 -0.3231
19611SOL    HW161788   6.848   2.717   8.831 -4.0135  0.8950 -2.5438
19611SOL    HW261789   6.902   2.646   8.709 -0.5598  0.5464 -0.9471
19612SOL     OW61790   9.807   8.038   1.712 -0.2589 -0.4344  0.2852
19612SOL    HW161791   9.772   7.952   1.738 -0.1311 -1.4071 -2.4655
19612SOL    HW261792   9.894   8.019   1.677 -0.0372  0.9007  0.0622
19613SOL     OW61793   7.880   8.708   5.094 -0.0444  0.6415 -0.1049
19613SOL    HW161794   7.877   8.802   5.075  0.0508  0.7477  0.4061
19613SOL    HW261795   7.885   8.667   5.007  1.4721  1.1629 -0.3065
19614SOL     OW61796   4.992   3.462   3.856  0.3453  0.1000 -0.0448
19614SOL    HW161797   4.914   3.488   3.905  0.5051  0.1127  0.2018
19614SOL    HW261798   4.960   3.449   3.766  0.2154  0.8776 -0.1178
19615SOL     OW61799   8.978   6.190   3.847 -0.3016  0.3423 -0.2652
19615SOL    HW161800   9.061   6.211   3.805 -0.3672 -1.0462 -1.1466
19615SOL    HW261801   8.995   6.110   3.896 -0.8978  0.5463  0.2936
19616SOL     OW61802   9.161   1.342   0.638 -0.3561 -0.2072  0.4339
19616SOL    HW161803   9.216   1.419   0.623 -2.2713  0.8824 -1.5408
19616SOL    HW261804   9.158   1.298   0.553 -0.6632 -1.5211  1.1104
19617SOL     OW61805  10.391   5.692   1.902  0.1335 -0.0605 -0.1761
19617SOL    HW161806  10.397   5.607   1.859  0.2282 -0.2328  0.1814
19617SOL    HW261807  10.353   5.749   1.835 -0.5947 -0.5450 -0.1801
19618SOL     OW61808   5.616   8.148   9.316 -0.6418  0.6849  0.0723
19618SOL    HW161809   5.656   8.110   9.238  0.2792 -1.2772  1.4098
19618SOL    HW261810   5.526   8.116   9.315  0.0872 -1.6065  1.1131
19619SOL     OW61811   6.531   1.267   4.420  0.2296  0.0665 -0.0040
19619SOL    HW161812   6.505   1.299   4.506 -1.4011 -0.5183 -0.2411
19619SOL    HW261813   6.622   1.239   4.432  0.2911  0.7302  1.3105
19620SOL     OW61814   1.166   2.139   6.192  0.3784 -0.3730  0.1155
19620SOL    HW161815   1.175   2.126   6.098  1.0486  1.1114 -0.0529
19620SOL    HW261816   1.193   2.230   6.206 -0.1084 -0.4468  1.6851
19621SOL     OW61817   4.269   1.202   4.985 -0.2004  0.1653  0.5467
19621SOL    HW161818   4.246   1.221   4.895  0.3121 -1.1451  0.1197
19621SOL    HW261819   4.341   1.262   5.005 -0.8374  1.0046  0.3562
19622SOL     OW61820   2.989   7.231   7.631 -0.1105 -0.1956  0.1246
19622SOL    HW161821   2.967   7.229   7.538  0.3381 -1.5464  0.0242
19622SOL    HW261822   2.943   7.308   7.665 -0.3273  0.2825 -1.1930
19623SOL     OW61823   3.530   3.348   2.493 -0.5131 -0.4757  0.0387
19623SOL    HW161824   3.464   3.319   2.555 -0.1710  3.0978  2.2985
19623SOL    HW261825   3.607   3.367   2.547  0.2267  1.5674 -1.6129
19624SOL     OW61826   9.883   5.288   7.894  0.5514 -0.2870  0.0710
19624SOL    HW161827   9.972   5.281   7.861  0.3442  0.3312 -0.6458
19624SOL    HW261828   9.890   5.342   7.973  0.7381  0.2799 -0.3270
19625SOL     OW61829   0.455   3.594   6.924  0.0186  0.6995  0.2249
19625SOL    HW161830   0.483   3.594   7.016  1.5425  0.7463 -0.2257
19625SOL    HW261831   0.513   3.656   6.881  2.5486 -2.6408 -1.6746
19626SOL     OW61832   5.272   7.659   3.770  0.2464 -0.3463  0.3844
19626SOL    HW161833   5.204   7.597   3.793  0.5899 -0.3455  1.4437
19626SOL    HW261834   5.300   7.633   3.682 -0.9923 -0.4420  0.0044
19627SOL     OW61835   6.332   7.781   6.649 -0.2803  0.0077 -0.0402
19627SOL    HW161836   6.391   7.718   6.608 -1.8084 -0.9880 -0.8143
19627SOL    HW261837   6.269   7.804   6.581  0.0547  2.1995  0.3071
19628SOL     OW61838   0.850   8.418   5.261  0.2409 -0.1937  0.0753
19628SOL    HW161839   0.865   8.482   5.193  0.9344  0.2973  0.6741
19628SOL    HW261840   0.896   8.452   5.338 -0.5884 -0.6849  0.8213
19629SOL     OW61841   3.821   2.738   9.775 -0.8917  0.4628  0.4456
19629SOL    HW161842   3.755   2.768   9.713 -1.1310  1.2082  1.0563
19629SOL    HW261843   3.887   2.696   9.721 -1.3632  0.6245 -0.2630
19630SOL     OW61844   0.477   8.548   6.626 -0.8112  0.0478 -0.1800
19630SOL    HW161845   0.539   8.590   6.568  1.1791 -1.0888  1.0204
19630SOL    HW261846   0.445   8.618   6.683  0.9330  0.3491  0.4904
19631SOL     OW61847   4.619   9.711   6.829 -0.1751  0.3574  0.0821
19631SOL    HW161848   4.535   9.666   6.834 -0.0545 -0.0939 -1.3158
19631SOL    HW261849   4.620   9.770   6.904 -0.9025 -1.0175  1.2322
19632SOL     OW61850  10.478   0.848   3.903  0.1223 -0.1571  0.1967
19632SOL    HW161851  10.438   0.878   3.985  0.7796 -4.3758  2.3555
19632SOL    HW261852  10.572   0.855   3.918  0.2632  0.9927 -1.1048
19633SOL     OW61853   4.687   0.046   0.570  0.0523  0.0913 -0.6089
19633SOL    HW161854   4.602   0.035   0.614  1.2380 -0.5110  1.7193
19633SOL    HW261855   4.665   0.076   0.482 -2.5763 -0.3965 -0.1984
19634SOL     OW61856  10.103   3.569   3.166 -0.0079  0.2115 -0.0616
19634SOL    HW161857  10.022   3.591   3.121 -0.1195 -0.6747 -0.3149
19634SOL    HW261858  10.155   3.522   3.101  0.2549 -0.1813  0.4185
19635SOL     OW61859   8.269   4.383   4.340  0.3773  0.2085 -0.1433
19635SOL    HW161860   8.187   4.398   4.388  1.1733  3.3297  0.4703
19635SOL    HW261861   8.252   4.419   4.253  0.9124  0.4182 -0.1629
19636SOL     OW61862   7.834   9.773   3.923  1.2603 -0.3166  0.2935
19636SOL    HW161863   7.790   9.694   3.956  1.5794 -0.1742  1.0955
19636SOL    HW261864   7.839   9.760   3.829  0.3687 -0.7744  0.2955
19637SOL     OW61865   8.549   5.400   9.567 -0.1871 -0.1088  0.8950
19637SOL    HW161866   8.474   5.409   9.626  0.7863  0.2181  2.1086
19637SOL    HW261867   8.566   5.489   9.537 -1.9835 -0.5003 -1.6238
19638SOL     OW61868  10.659   7.708   7.009 -0.3331 -0.4095  0.2152
19638SOL    HW161869  10.576   7.754   7.024 -0.6523 -0.8238 -0.2423
19638SOL    HW261870  10.669   7.651   7.085  0.1991  0.5883  0.9212
19639SOL     OW61871   1.906   8.776   1.264  0.0020 -0.2320 -0.1015
19639SOL    HW161872   1.997   8.804   1.257  0.4709 -1.4827  0.6370
19639SOL    HW261873   1.866   8.839   1.323  0.7911 -0.5196  0.7762
19640SOL     OW61874   1.907   3.921   9.925  0.1851  0.0758 -0.0824
19640SOL    HW161875   1.846   3.847   9.934 -0.2573  0.5127  0.5585
19640SOL    HW261876   1.988   3.890   9.965 -0.3943  0.3904  1.3593
19641SOL     OW61877   3.496   8.236   2.753 -0.5748 -0.3473  0.0786
19641SOL    HW161878   3.540   8.152   2.767 -0.3564 -0.5405 -1.6205
19641SOL    HW261879   3.512   8.257   2.661  0.3271  2.1337  0.7384
19642SOL     OW61880   9.544   2.502   1.439  0.1722 -0.4616  0.4704
19642SOL    HW161881   9.459   2.461   1.459 -0.5244  0.5946 -0.2178
19642SOL    HW261882   9.578   2.529   1.524  0.0723 -1.3626  0.8118
19643SOL     OW61883   1.442  10.312   2.480 -0.4795 -0.0581  0.1482
19643SOL    HW161884   1.399  10.251   2.419 -0.4521 -1.5284  1.5269
19643SOL    HW261885   1.394  10.302   2.562  0.2412  0.9655  0.7123
19644SOL     OW61886   9.491   5.766   0.884 -0.3681 -0.1545 -0.6005
19644SOL    HW161887   9.572   5.755   0.934  0.3476 -0.3305 -1.7584
19644SOL    HW261888   9.434   5.817   0.941  0.3542 -0.4899  0.4559
19645SOL     OW61889   3.004  10.431   0.650  0.3535  0.3793 -0.3202
19645SOL    HW161890   3.091  10.392   0.642  0.8813  1.6947 -1.3091
19645SOL    HW261891   2.945  10.357   0.657  1.6324 -0.5401  1.4747
19646SOL     OW61892   4.053   4.619   4.855 -0.4683  0.3946 -0.8634
19646SOL    HW161893   4.024   4.643   4.944 -0.2103  1.0823 -0.9582
19646SOL    HW261894   4.135   4.667   4.843 -1.1128  1.2901 -1.9282
19647SOL     OW61895   3.062   4.517   9.160  0.0577 -0.3355  0.5319
19647SOL    HW161896   3.065   4.424   9.179 -0.5522 -0.5538 -0.3574
19647SOL    HW261897   2.984   4.549   9.206 -1.7220 -0.9647 -1.8372
19648SOL     OW61898   5.794  10.274   1.184 -0.0046 -0.3898 -0.3086
19648SOL    HW161899   5.821  10.220   1.110 -0.4585  0.2171 -0.9350
19648SOL    HW261900   5.829  10.229   1.261 -0.7141 -1.7977 -0.7698
19649SOL     OW61901   8.207   3.962   5.894 -0.3907 -0.0314 -0.1389
19649SOL    HW161902   8.123   4.006   5.882 -1.2275 -1.3097  0.6618
19649SOL    HW261903   8.232   3.981   5.985 -0.7186 -1.0661  0.1891
19650SOL     OW61904   8.856   0.750   2.083 -0.5071 -0.4133  0.6409
19650SOL    HW161905   8.885   0.765   1.993  0.1661 -0.1432  0.8944
19650SOL    HW261906   8.817   0.662   2.082  0.1205 -0.6971  0.2273
19651SOL     OW61907   8.998   4.341   6.003 -0.4109 -0.0288 -0.2190
19651SOL    HW161908   9.052   4.312   5.929  0.2201 -0.3249  0.3453
19651SOL    HW261909   8.917   4.371   5.963 -0.3082 -0.7349 -0.9850
19652SOL     OW61910   6.031   2.841   5.013 -0.1911  0.0680  0.2252
19652SOL    HW161911   6.048   2.800   4.928 -0.1858 -0.5126  0.5065
19652SOL    HW261912   5.945   2.882   5.004  0.1476  0.6891 -0.3140
19653SOL     OW61913   5.425   6.977   5.227 -0.4046  0.3635 -0.3233
19653SOL    HW161914   5.418   6.953   5.320 -0.2134 -0.0665 -0.4150
19653SOL    HW261915   5.362   7.048   5.215  0.0680  0.8925  0.2929
19654SOL     OW61916   3.712   6.310   6.718 -0.0155  0.0118  0.0505
19654SOL    HW161917   3.773   6.368   6.672  1.4608 -1.2016  0.3784
19654SOL    HW261918   3.627   6.353   6.711  0.8289  1.6325 -0.6684
19655SOL     OW61919   1.123   3.906   9.895  0.1909 -0.5229 -0.0635
19655SOL    HW161920   1.113   3.941   9.983 -1.5295  0.7350 -0.6923
19655SOL    HW261921   1.107   3.812   9.904 -1.0522 -0.2593  0.8402
19656SOL     OW61922   5.577   6.695   5.851  0.3903 -0.3692 -0.3995
19656SOL    HW161923   5.657   6.641   5.849 -0.4089 -1.6619  0.6171
19656SOL    HW261924   5.600   6.768   5.909  1.4649  0.4201 -1.7386
19657SOL     OW61925   7.799   3.826  10.384  0.1354 -0.2075 -0.2364
19657SOL    HW161926   7.855   3.871  10.320  0.0697  0.4097  0.1337
19657SOL    HW261927   7.723   3.882  10.393 -0.5307 -1.0071 -0.6764
19658SOL     OW61928   2.889   5.278   6.545  0.3954  0.3860  0.0140
19658SOL    HW161929   2.807   5.234   6.523  0.9744 -1.0665  0.6205
19658SOL    HW261930   2.864   5.349   6.603 -0.5306  0.6608 -0.6953
19659SOL     OW61931   4.152   7.286   0.847 -0.3127 -0.9065  0.1486
19659SOL    HW161932   4.067   7.316   0.877  0.4502  1.5442  0.0775
19659SOL    HW261933   4.154   7.309   0.754  1.0602  0.7413  0.5418
19660SOL     OW61934   7.409   1.626   1.596  0.5778 -0.2310  0.2912
19660SOL    HW161935   7.480   1.609   1.658  1.4945  1.6933 -0.1685
19660SOL    HW261936   7.453   1.639   1.512 -0.5317 -1.2961 -0.4879
19661SOL     OW61937   2.978   6.047   1.995  0.6095  0.0139  0.0111
19661SOL    HW161938   2.992   6.083   1.907 -1.5370 -0.5865 -0.6391
19661SOL    HW261939   2.927   6.114   2.040  0.8862 -0.0864  0.4731
19662SOL     OW61940   8.833   4.225   1.576  0.7992 -0.7668  0.4530
19662SOL    HW161941   8.793   4.208   1.662 -1.6591  1.5968 -0.0686
19662SOL    HW261942   8.775   4.181   1.514  0.4945  0.4794 -0.1766
19663SOL     OW61943   8.513   2.218   7.601 -0.5789  0.3388  0.1752
19663SOL    HW161944   8.525   2.248   7.691  2.9002 -1.7660  0.5880
19663SOL    HW261945   8.479   2.294   7.555  1.0503  2.6838  2.5295
19664SOL     OW61946   1.230   3.798   6.414  0.4287  0.1887 -0.6180
19664SOL    HW161947   1.158   3.790   6.477  0.7682  1.6376 -0.0045
19664SOL    HW261948   1.293   3.730   6.441  0.4314  0.5941  0.4242
19665SOL     OW61949   7.427   3.560   3.790  0.2121  0.3756 -0.2251
19665SOL    HW161950   7.518   3.588   3.779 -0.0138  1.1998 -0.0252
19665SOL    HW261951   7.394   3.611   3.864  0.6970 -2.6714  2.3192
19666SOL     OW61952   8.530  10.426   4.303  0.1263 -0.6607 -0.4284
19666SOL    HW161953   8.465  10.430   4.234 -0.4174  1.5383  0.1466
19666SOL    HW261954   8.579  10.346   4.285 -0.5400 -0.5940 -2.8315
19667SOL     OW61955   9.873   6.076   7.102  0.7385 -0.0509 -0.1057
19667SOL    HW161956   9.968   6.085   7.110  0.7814 -0.5751 -0.0085
19667SOL    HW261957   9.839   6.108   7.185  1.0076 -2.5733  1.0607
19668SOL     OW61958   3.540   2.578   7.733  0.3487 -0.2755 -0.3138
19668SOL    HW161959   3.592   2.541   7.661 -0.0556 -1.0882 -0.2027
19668SOL    HW261960   3.578   2.664   7.747  1.0854 -0.4943 -0.8381
19669SOL     OW61961   6.482   5.442   8.821 -0.1917  0.0020  0.2720
19669SOL    HW161962   6.478   5.453   8.916 -0.9293 -1.5980  0.4556
19669SOL    HW261963   6.507   5.351   8.809 -0.6859  0.0332 -1.0700
19670SOL     OW61964   8.663  10.018   0.124 -0.7771  0.2471  0.0237
19670SOL    HW161965   8.569  10.021   0.142 -0.7012 -0.3847  0.5876
19670SOL    HW261966   8.691   9.931   0.155 -0.3793 -0.4256 -2.0539
19671SOL     OW61967   5.631   5.349   7.715  0.0005  0.1557  0.4201
19671SOL    HW161968   5.547   5.390   7.695  0.7252  1.6858  0.3834
19671SOL    HW261969   5.676   5.344   7.631 -0.8857 -2.7819  0.0092
19672SOL     OW61970   8.720   2.146   7.412 -0.4245  0.1534  0.2078
19672SOL    HW161971   8.644   2.173   7.464 -0.0859  1.2301  0.1596
19672SOL    HW261972   8.750   2.226   7.370 -0.9416 -0.7710 -2.0231
19673SOL     OW61973   9.391   8.062   5.421 -0.0154 -0.2011  0.2729
19673SOL    HW161974   9.481   8.082   5.444  0.4117 -0.1684 -1.3661
19673SOL    HW261975   9.350   8.148   5.409 -0.5321 -0.1861  1.8639
19674SOL     OW61976   0.819   8.636   7.014  0.3186 -0.4003  0.5351
19674SOL    HW161977   0.877   8.699   6.973 -0.0070  0.6233  1.5923
19674SOL    HW261978   0.775   8.685   7.084 -1.0329 -1.4091  0.4473
19675SOL     OW61979   9.188   0.513   3.530 -0.0284 -0.6302  0.6612
19675SOL    HW161980   9.253   0.565   3.576 -0.6931  0.7811  0.0823
19675SOL    HW261981   9.209   0.422   3.552  1.6043 -0.1713  1.1445
19676SOL     OW61982   1.589   4.947   0.041 -0.8962  0.0047 -0.4523
19676SOL    HW161983   1.669   4.988   0.075 -0.7621 -1.7774  1.5942
19676SOL    HW261984   1.617   4.905  -0.040  0.7739 -2.0153  1.0503
19677SOL     OW61985   4.742   7.181   8.099  0.2927  0.2466  0.4668
19677SOL    HW161986   4.708   7.250   8.041 -1.8270 -1.0705  0.0139
19677SOL    HW261987   4.699   7.197   8.183 -0.4887 -0.6622  0.2650
19678SOL     OW61988   8.245   3.744   9.655  0.3794 -0.2692  0.3816
19678SOL    HW161989   8.223   3.686   9.582  0.0928 -0.9145  0.9605
19678SOL    HW261990   8.338   3.729   9.671  0.2850 -0.6706  0.5950
19679SOL     OW61991   3.587   3.711   0.767  0.5744  0.1179 -0.2919
19679SOL    HW161992   3.663   3.756   0.804  0.5831  0.1530 -0.3517
19679SOL    HW261993   3.605   3.618   0.781  0.2518  0.1640  0.4141
19680SOL     OW61994   0.523   1.458   3.736  0.2867 -0.1706  0.3183
19680SOL    HW161995   0.473   1.530   3.697 -1.2244 -1.6272 -0.5802
19680SOL    HW261996   0.596   1.445   3.676 -0.4348 -0.5270 -0.5135
19681SOL     OW61997   8.767   3.808   8.944  0.1534 -0.2809  0.1498
19681SOL    HW161998   8.679   3.832   8.913 -1.1061 -3.1621  1.1364
19681SOL    HW261999   8.803   3.754   8.873  0.0367 -1.2702  0.8342
19682SOL     OW62000   2.790   7.410   2.576  0.0800 -0.0415  0.4525
19682SOL    HW162001   2.833   7.371   2.652 -0.0509  0.4607  0.7919
19682SOL    HW262002   2.859   7.463   2.535  0.2391 -0.5594  0.0313
19683SOL     OW62003   1.108   4.772  10.670 -1.0741  0.2932 -0.1953
19683SOL    HW162004   1.129   4.770  10.577 -0.4728  1.2202 -0.0851
19683SOL    HW262005   1.112   4.680  10.698  1.9964  0.2931 -0.3658
19684SOL     OW62006   1.493   1.630   4.998  0.0243  0.1781  0.3858
19684SOL    HW162007   1.530   1.717   4.985  1.1275 -0.1584  1.1604
19684SOL    HW262008   1.508   1.585   4.915  0.5327  0.3463  0.3827
19685SOL     OW62009   7.349   8.657   5.240 -0.3719  0.3010 -0.1238
19685SOL    HW162010   7.338   8.562   5.236 -1.1136  0.3843 -0.2118
19685SOL    HW262011   7.440   8.670   5.266 -0.1825 -0.4315 -0.4080
19686SOL     OW62012   5.618   0.254   6.962 -0.0614  0.1113 -0.2084
19686SOL    HW162013   5.589   0.328   7.015  0.3503  0.4035 -0.3851
19686SOL    HW262014   5.636   0.292   6.876 -0.1303 -0.2493 -0.3834
19687SOL     OW62015   9.109   3.773   3.689 -0.1573 -0.1750 -0.4439
19687SOL    HW162016   9.175   3.812   3.632 -0.9708  0.1220 -1.2000
19687SOL    HW262017   9.116   3.821   3.771  1.0519 -0.6346 -0.2553
19688SOL     OW62018   5.726   4.292   5.509 -0.1089  0.1921 -0.2157
19688SOL    HW162019   5.683   4.256   5.586  0.7894 -0.0452  0.1947
19688SOL    HW262020   5.658   4.341   5.463 -0.6850  0.2320  0.6635
19689SOL     OW62021   6.498   5.293   4.198  0.5546 -0.1023  0.8774
19689SOL    HW162022   6.460   5.269   4.114  1.1466  2.7499 -0.3501
19689SOL    HW262023   6.426   5.335   4.246  0.5592 -0.4894  1.2239
19690SOL     OW62024   1.197   0.400   4.628  0.3326 -0.0429 -0.4314
19690SOL    HW162025   1.200   0.307   4.650  1.0491 -0.1396 -0.9162
19690SOL    HW262026   1.272   0.414   4.570  0.6141  0.9685  0.1452
19691SOL     OW62027   9.439   9.668   8.789  0.1175  0.6292  0.9045
19691SOL    HW162028   9.361   9.708   8.751  0.0612  0.7179  1.1119
19691SOL    HW262029   9.415   9.650   8.880 -0.7653 -2.2034  0.2308
19692SOL     OW62030   8.811   5.538   4.658 -0.9514 -0.5481  0.0161
19692SOL    HW162031   8.790   5.630   4.671  1.6855  0.1439 -0.0456
19692SOL    HW262032   8.748   5.491   4.714 -1.7624  1.3070  0.7508
19693SOL     OW62033   0.351   5.694   5.404 -0.2491 -0.3281 -0.4554
19693SOL    HW162034   0.285   5.698   5.335  0.5376 -0.4702 -1.2410
19693SOL    HW262035   0.434   5.684   5.357  0.2400 -1.1009  0.5406
19694SOL     OW62036   4.033   4.890   4.481 -0.1134 -0.2840  0.3264
19694SOL    HW162037   4.040   4.853   4.393  0.0028  1.9129 -0.6321
19694SOL    HW262038   4.110   4.856   4.528  2.7413  2.4208 -1.9756
19695SOL     OW62039   1.430   6.523  10.624  0.4874  0.2202  0.6024
19695SOL    HW162040   1.396   6.572  10.699  1.4495 -0.3380  1.4417
19695SOL    HW262041   1.489   6.458  10.663 -1.0756 -1.9341 -0.4028
19696SOL     OW62042   3.078   3.422   7.124  0.0756 -0.7413 -0.5936
19696SOL    HW162043   3.151   3.397   7.181  0.5488  0.1423 -0.7847
19696SOL    HW262044   3.037   3.339   7.099  0.9845 -1.2509 -0.4375
19697SOL     OW62045   9.503   3.337  10.465 -0.3507  0.1276 -0.1619
19697SOL    HW162046   9.508   3.392  10.387  0.3658 -0.9372 -0.9018
19697SOL    HW262047   9.576   3.275  10.456  0.7772  0.9952  2.1912
19698SOL     OW62048  10.687   9.928   7.756 -0.0874  0.6202  0.1303
19698SOL    HW162049  10.746   9.969   7.819 -1.4952  0.7660  1.4410
19698SOL    HW262050  10.716   9.837   7.752 -0.5465  0.3570  1.7950
19699SOL     OW62051   1.547   4.481   8.750  0.5584 -0.0213  0.1804
19699SOL    HW162052   1.499   4.561   8.770 -0.6455 -0.6190 -0.1931
19699SOL    HW262053   1.481   4.412   8.755  1.4211 -0.8994 -0.2003
19700SOL     OW62054   6.191  10.188   3.021  0.3358 -0.4935 -0.2713
19700SOL    HW162055   6.219  10.129   2.952  1.4377 -0.5383  0.2016
19700SOL    HW262056   6.270  10.208   3.070 -0.0955  0.9962 -0.1207
19701SOL     OW62057   3.196   8.277   2.957 -0.2078  0.2858 -0.2082
19701SOL    HW162058   3.213   8.370   2.970  0.7311 -0.0698  1.4701
19701SOL    HW262059   3.125   8.256   3.019  2.2614 -0.8354  2.5104
19702SOL     OW62060   0.642   9.094   7.248  0.1245 -0.4529 -0.1433
19702SOL    HW162061   0.695   9.174   7.257 -0.0875 -0.3092 -0.1781
19702SOL    HW262062   0.558   9.116   7.289 -0.0860 -0.5173 -0.5422
19703SOL     OW62063   7.978   7.244   7.280  0.6684  0.4499  0.2192
19703SOL    HW162064   8.019   7.311   7.225  0.7547 -0.1468 -0.4568
19703SOL    HW262065   7.997   7.162   7.235 -0.0065  0.0321  0.6912
19704SOL     OW62066   7.923   8.150   8.389  0.2478 -0.3971 -0.1481
19704SOL    HW162067   7.891   8.154   8.479  0.7250  0.9501 -0.0305
19704SOL    HW262068   7.864   8.207   8.340  2.3161  2.0303  0.0476
19705SOL     OW62069   5.657   3.662   2.606  1.0123  0.1376  0.6718
19705SOL    HW162070   5.581   3.625   2.651  0.8201 -3.6176 -2.2639
19705SOL    HW262071   5.730   3.607   2.632  1.2306 -0.9496 -1.9083
19706SOL     OW62072   8.522   8.771   0.873  0.3921 -0.5140  0.0688
19706SOL    HW162073   8.511   8.677   0.884 -0.4423 -0.4944 -0.4783
19706SOL    HW262074   8.530   8.805   0.962 -1.1744 -0.8999  0.3907
19707SOL     OW62075   0.746   9.159   4.937  0.0283 -0.1535 -0.1887
19707SOL    HW162076   0.655   9.164   4.908 -0.8137  0.8987  2.3506
19707SOL    HW262077   0.790   9.231   4.891 -1.1107  1.0925  0.5945
19708SOL     OW62078   6.962   9.620   7.708 -0.6452 -0.4240 -0.2264
19708SOL    HW162079   6.974   9.614   7.803  1.4526 -0.2524 -0.4439
19708SOL    HW262080   7.041   9.582   7.671 -0.9194  0.5493 -1.9020
19709SOL     OW62081   3.367  10.006   2.170  0.3357 -0.2146  0.2903
19709SOL    HW162082   3.412   9.922   2.180  0.4058 -0.3319 -0.9223
19709SOL    HW262083   3.437  10.071   2.176  1.3049 -0.4915 -4.5442
19710SOL     OW62084   6.452   7.832   5.064  0.1979  0.2545 -0.4497
19710SOL    HW162085   6.481   7.742   5.052  0.3366  0.3457 -0.7942
19710SOL    HW262086   6.495   7.881   4.995  0.9277  0.7582  0.3397
19711SOL     OW62087   9.631   5.617   6.707  0.5376 -0.2284  0.5009
19711SOL    HW162088   9.596   5.550   6.766 -0.8458  1.0089  1.1581
19711SOL    HW262089   9.568   5.619   6.634  0.1509  0.8208  0.8430
19712SOL     OW62090   0.344   9.058   2.821 -0.3049 -0.0797 -0.2347
19712SOL    HW162091   0.266   9.103   2.855 -0.0011 -0.7779  1.4992
19712SOL    HW262092   0.412   9.125   2.821 -0.3243 -0.0527  0.5221
19713SOL     OW62093  10.124   0.736   0.582  0.4024 -0.0642 -0.5967
19713SOL    HW162094  10.032   0.756   0.596  0.6429  1.7799 -1.3846
19713SOL    HW262095  10.127   0.640   0.576 -1.3886 -0.1780 -0.1757
19714SOL     OW62096   5.726   7.361   1.802 -0.2449  0.4519 -0.1469
19714SOL    HW162097   5.707   7.268   1.805 -0.1031  0.3519 -1.7344
19714SOL    HW262098   5.705   7.388   1.713  1.8123  1.4523 -0.3969
19715SOL     OW62099   1.670   8.185   8.893 -0.8471 -0.2435 -0.3653
19715SOL    HW162100   1.686   8.174   8.799  2.2018 -2.0188  0.2224
19715SOL    HW262101   1.631   8.103   8.921 -2.2469  0.4773 -0.1045
19716SOL     OW62102   9.953  10.339   3.029  0.0953  0.3927 -0.4995
19716SOL    HW162103   9.883  10.399   3.056 -1.7529 -1.7127 -0.3130
19716SOL    HW262104  10.034  10.387   3.049 -1.2475  2.6251  0.0213
19717SOL     OW62105   7.091   5.903   8.553 -0.0641  0.4280 -0.2497
19717SOL    HW162106   7.058   5.900   8.463 -3.2918  0.4538  0.7915
19717SOL    HW262107   7.033   5.964   8.598  1.1667  0.0767  1.9722
19718SOL     OW62108   3.579   0.185   8.959 -0.0058  0.3404 -0.4622
19718SOL    HW162109   3.552   0.229   8.879 -0.5751  1.6266  0.3985
19718SOL    HW262110   3.518   0.216   9.026  1.4848  0.6564  0.8293
19719SOL     OW62111   8.137   1.092   6.717 -0.1765 -0.2006 -0.2575
19719SOL    HW162112   8.122   1.035   6.642  0.6696  0.4266 -0.9122
19719SOL    HW262113   8.105   1.177   6.690 -0.9269 -0.2274  0.5204
19720SOL     OW62114   1.817   7.494   6.445 -0.0933  0.4643  0.1194
19720SOL    HW162115   1.853   7.521   6.530 -0.4337 -0.6699  0.6472
19720SOL    HW262116   1.866   7.545   6.381  0.7403  0.7538  0.9601
19721SOL     OW62117   6.595   3.546  10.473 -0.2857  0.2841 -1.2339
19721SOL    HW162118   6.663   3.506  10.528 -1.3848 -1.3597 -0.9906
19721SOL    HW262119   6.618   3.520  10.384  0.3243  1.1642 -1.3424
19722SOL     OW62120   4.551   1.416   7.722  0.2054 -0.2850  0.2513
19722SOL    HW162121   4.612   1.406   7.648  0.3027  2.3938 -0.1319
19722SOL    HW262122   4.604   1.395   7.799  0.9300 -0.3119 -0.2443
19723SOL     OW62123   3.990   9.619  10.502 -0.3178 -0.3995 -0.3297
19723SOL    HW162124   4.029   9.701  10.534 -0.0659 -0.2619 -0.9718
19723SOL    HW262125   4.026   9.552  10.560 -0.0663 -0.1246 -0.1629
19724SOL     OW62126   7.552   2.220   5.636 -0.3014  0.3241  0.0967
19724SOL    HW162127   7.530   2.127   5.642  0.1555  0.2985  1.6531
19724SOL    HW262128   7.474   2.260   5.598 -1.2290 -0.4354  1.1395
19725SOL     OW62129   3.463   2.867   0.823 -0.2072  0.3255  0.4576
19725SOL    HW162130   3.371   2.844   0.814 -0.4249  1.2202  0.3340
19725SOL    HW262131   3.491   2.825   0.904 -0.4708 -0.7320  0.0096
19726SOL     OW62132   2.416   5.305   0.999  0.2894  0.1142 -0.3525
19726SOL    HW162133   2.422   5.249   1.076 -2.5939 -1.4244 -1.1147
19726SOL    HW262134   2.490   5.277   0.944  1.2899 -0.0316  1.0185
19727SOL     OW62135   9.227   1.043   0.673  0.4116 -0.4520 -0.5246
19727SOL    HW162136   9.220   1.136   0.696 -0.4326 -0.2818 -1.3554
19727SOL    HW262137   9.309   1.036   0.625  0.1905  0.0011 -0.9828
19728SOL     OW62138   6.014   4.974   6.881 -0.3867 -0.2709  0.1655
19728SOL    HW162139   6.094   5.019   6.853 -0.7842  0.1524 -0.3098
19728SOL    HW262140   6.044   4.887   6.908  0.1586 -0.3229 -0.5628
19729SOL     OW62141   6.214   8.575   3.035 -0.1727 -0.1833 -0.2919
19729SOL    HW162142   6.145   8.551   2.974 -0.4493 -1.3692  0.4526
19729SOL    HW262143   6.291   8.588   2.981 -0.1508 -2.2293 -0.8308
19730SOL     OW62144   6.418   8.570   5.199  0.4447 -0.4529  0.4412
19730SOL    HW162145   6.483   8.553   5.267  0.4992  0.7160  0.7113
19730SOL    HW262146   6.469   8.584   5.119  0.4937 -0.1027  0.5327
19731SOL     OW62147   0.391   7.889   7.774 -0.5655  0.1180 -0.3374
19731SOL    HW162148   0.356   7.820   7.717  2.2381 -1.8611  0.1476
19731SOL    HW262149   0.455   7.935   7.719 -2.1090  2.1548 -0.5241
19732SOL     OW62150   9.916   9.146   3.328  0.3120  0.7432  0.7495
19732SOL    HW162151   9.828   9.146   3.289  1.0136  0.5993 -0.9426
19732SOL    HW262152   9.903   9.114   3.417 -1.0459 -1.5834 -0.1951
19733SOL     OW62153   2.029   0.927   2.981 -0.4502  0.4915  0.1019
19733SOL    HW162154   2.046   0.833   2.971 -3.4455 -0.4561  2.3323
19733SOL    HW262155   2.091   0.956   3.047 -0.2788 -0.2250  0.2646
19734SOL     OW62156   1.895   4.635   9.574 -0.2671  0.0722  0.0404
19734SOL    HW162157   1.802   4.617   9.588  0.0295 -2.1777 -0.4287
19734SOL    HW262158   1.935   4.620   9.659  0.0552 -2.3686 -0.4697
19735SOL     OW62159   1.518   6.028   8.845 -0.4222 -0.7801  0.3993
19735SOL    HW162160   1.552   5.940   8.860 -0.4017 -1.1169 -1.4545
19735SOL    HW262161   1.567   6.083   8.907  1.1663 -1.7459  0.0578
19736SOL     OW62162   8.920   0.005   0.938  0.1657  0.1938 -0.3386
19736SOL    HW162163   8.964   0.068   0.996 -1.1181  0.3912  0.4506
19736SOL    HW262164   8.829   0.033   0.937  0.3233  1.0823 -3.6193
19737SOL     OW62165   1.808   8.553   9.894 -0.2053 -0.1359  0.1417
19737SOL    HW162166   1.833   8.606   9.819  0.2274 -0.7701 -0.1671
19737SOL    HW262167   1.874   8.484   9.899 -0.0354  0.0815  1.2985
19738SOL     OW62168   8.135   9.583   1.252 -0.7024  0.2051  0.5762
19738SOL    HW162169   8.073   9.511   1.234 -0.8135  0.5922 -0.6739
19738SOL    HW262170   8.150   9.578   1.346 -1.7198 -0.6493  0.7164
19739SOL     OW62171   6.751   2.944   0.186  0.7071 -0.3480  0.0074
19739SOL    HW162172   6.698   2.967   0.109 -1.3094 -0.0709  1.4135
19739SOL    HW262173   6.825   2.896   0.150  1.2053  1.9483 -2.3571
19740SOL     OW62174   2.465   0.905  10.396  0.4628 -0.3151  0.4551
19740SOL    HW162175   2.376   0.869  10.388 -0.7074  2.4386 -0.1919
19740SOL    HW262176   2.475   0.962  10.320  2.9459 -0.7882  0.3600
19741SOL     OW62177   8.665   5.421   0.952  0.3771  0.0582 -0.2188
19741SOL    HW162178   8.640   5.421   1.045  0.1491 -0.1185 -0.2801
19741SOL    HW262179   8.746   5.370   0.949 -0.6295 -1.5903 -0.3839
19742SOL     OW62180   8.111   5.373   2.456 -0.3435  0.0990  0.5241
19742SOL    HW162181   8.184   5.415   2.410  0.4689  1.0803  2.6214
19742SOL    HW262182   8.035   5.428   2.435 -0.9336 -1.6843 -2.8085
19743SOL     OW62183   0.198   6.056   2.896 -0.2723 -0.1081 -0.1633
19743SOL    HW162184   0.254   5.979   2.881 -0.3678 -0.5518  1.5280
19743SOL    HW262185   0.259   6.124   2.926 -0.2909  0.2721 -0.9584
19744SOL     OW62186   0.744   5.510   9.693 -0.0849 -0.2488 -0.3382
19744SOL    HW162187   0.747   5.516   9.789  0.7553  1.9980 -0.4332
19744SOL    HW262188   0.824   5.464   9.670 -1.3531 -2.8273  0.0684
19745SOL     OW62189   4.278   0.244   3.839  0.0106 -0.0653 -0.5379
19745SOL    HW162190   4.209   0.272   3.779 -1.3095 -0.6342  0.6483
19745SOL    HW262191   4.332   0.185   3.786  0.9730  2.1095 -2.1307
19746SOL     OW62192   7.017   7.254   8.937 -0.0406 -0.1121 -0.5334
19746SOL    HW162193   6.935   7.301   8.952  0.2638 -0.3053  2.6104
19746SOL    HW262194   7.058   7.299   8.864 -1.3581  2.2748  0.0764
19747SOL     OW62195   2.547   7.444   5.237 -0.4550  0.1398  0.0382
19747SOL    HW162196   2.508   7.458   5.323  0.0587 -0.2831  0.3462
19747SOL    HW262197   2.591   7.527   5.217 -3.4082  1.5239 -1.3751
19748SOL     OW62198   9.768   3.436   4.413  0.1519  0.4491 -0.3804
19748SOL    HW162199   9.826   3.361   4.428 -3.2199 -2.2071  0.6532
19748SOL    HW262200   9.788   3.496   4.484  2.9135  0.6388 -1.1938
19749SOL     OW62201   8.874   9.109   1.934  0.2576 -0.2831  0.1511
19749SOL    HW162202   8.894   9.064   1.853  1.7161 -0.1996  0.4276
19749SOL    HW262203   8.884   9.202   1.913 -0.4920 -0.1955  0.1508
19750SOL     OW62204   7.777   8.290   8.110 -0.4490  0.6925 -0.3258
19750SOL    HW162205   7.702   8.347   8.121 -0.8491  0.5376 -1.9198
19750SOL    HW262206   7.841   8.343   8.062  0.5642  0.8867  1.1681
19751SOL     OW62207   1.512   6.533   3.648 -0.0883  0.1878  0.1370
19751SOL    HW162208   1.548   6.470   3.585 -0.8939  0.6252 -0.7912
19751SOL    HW262209   1.419   6.537   3.626 -0.2572  0.8433  0.9425
19752SOL     OW62210   6.782   7.732   3.302 -0.1833 -0.5533  0.4937
19752SOL    HW162211   6.688   7.751   3.299 -0.0744  0.3252  1.7908
19752SOL    HW262212   6.787   7.636   3.301 -1.0445 -0.6058 -0.3445
19753SOL     OW62213   0.397   3.607   8.382 -0.0332  0.5324 -0.2370
19753SOL    HW162214   0.463   3.608   8.452 -0.2192  1.0204 -0.0707
19753SOL    HW262215   0.318   3.574   8.424 -0.1811  0.9503 -0.1856
19754SOL     OW62216   2.124  10.247   7.572  0.3544 -0.0523 -0.1390
19754SOL    HW162217   2.152  10.243   7.480  0.0586  0.7809 -0.2784
19754SOL    HW262218   2.189  10.305   7.613  0.9736 -1.0829  0.3763
19755SOL     OW62219   3.005   9.049   7.580  0.3881 -0.5097 -0.2504
19755SOL    HW162220   2.958   9.094   7.650 -0.8935 -0.9056 -0.8073
19755SOL    HW262221   3.019   9.116   7.513  1.4541 -0.1745  0.2900
19756SOL     OW62222   1.844   5.622   8.709  0.2812 -0.2259 -0.6746
19756SOL    HW162223   1.786   5.575   8.769 -0.7113  1.0305 -0.5987
19756SOL    HW262224   1.932   5.605   8.741 -0.0515 -1.8205 -0.5183
19757SOL     OW62225   1.124   0.961   4.318  0.0062 -0.2150  0.3227
19757SOL    HW162226   1.151   1.035   4.373  0.0101 -0.8154  1.1562
19757SOL    HW262227   1.142   0.884   4.372  1.2281 -0.9151 -1.0369
19758SOL     OW62228   4.605   1.210   3.700  0.1095  0.0476 -0.0853
19758SOL    HW162229   4.655   1.265   3.760  0.7741  0.0400 -0.6166
19758SOL    HW262230   4.576   1.270   3.630  0.3264 -0.1576 -0.3546
19759SOL     OW62231   6.275   8.711   3.849 -0.6537 -0.3236 -0.3575
19759SOL    HW162232   6.237   8.798   3.862 -0.9312 -0.6809  1.5004
19759SOL    HW262233   6.368   8.723   3.867 -0.8745 -0.6067  1.1340
19760SOL     OW62234   4.101   5.247   8.742 -0.2465 -0.0828  0.0188
19760SOL    HW162235   4.119   5.319   8.681 -0.4299  0.0818  0.1557
19760SOL    HW262236   4.007   5.230   8.731 -0.6063  0.9032  1.2696
19761SOL     OW62237   8.660   9.642   5.215 -0.2506 -0.5321 -0.5603
19761SOL    HW162238   8.668   9.565   5.271 -0.3524 -0.9262 -1.0834
19761SOL    HW262239   8.707   9.618   5.135  1.5964  0.7306  0.0719
19762SOL     OW62240   6.288   6.032   0.973  0.2850  0.2928  0.1853
19762SOL    HW162241   6.285   6.093   1.047  0.8395 -0.8087  1.1503
19762SOL    HW262242   6.330   5.953   1.008 -0.5017 -0.6983 -0.9964
19763SOL     OW62243   3.003   3.635   8.964  0.0448  0.4834  0.0558
19763SOL    HW162244   3.097   3.646   8.951  0.5139 -1.1910  1.5688
19763SOL    HW262245   2.988   3.541   8.953 -1.5876  0.7834 -0.7398
19764SOL     OW62246   7.848   7.445   4.662 -0.0423 -0.1309 -0.0857
19764SOL    HW162247   7.909   7.480   4.598 -1.6035  0.8541 -1.1127
19764SOL    HW262248   7.805   7.372   4.617  0.1432 -0.6201  0.5148
19765SOL     OW62249   3.501   3.157   6.601  0.6921  0.1064  0.7813
19765SOL    HW162250   3.425   3.201   6.563 -0.0218 -1.3035  0.5024
19765SOL    HW262251   3.562   3.149   6.528  0.3166 -0.4362  0.5166
19766SOL     OW62252   6.371   8.268   9.655 -0.1216 -0.5996  0.1299
19766SOL    HW162253   6.291   8.269   9.707  0.0760  2.2910  0.5642
19766SOL    HW262254   6.414   8.351   9.676  2.2139 -1.3506 -1.2863
19767SOL     OW62255   8.972   7.363   3.937  0.1656  0.4776  0.3039
19767SOL    HW162256   8.893   7.312   3.918  1.0645 -0.9759  0.3296
19767SOL    HW262257   9.036   7.298   3.967  1.3044  1.6528  0.5067
19768SOL     OW62258   3.282   4.344   6.637  0.2316 -0.4991 -0.6413
19768SOL    HW162259   3.354   4.371   6.580 -1.3630  0.9899 -2.0877
19768SOL    HW262260   3.250   4.263   6.598  0.4822 -0.6165 -0.6034
19769SOL     OW62261   7.504   2.024   6.635 -0.0329 -0.2277  0.0511
19769SOL    HW162262   7.595   2.048   6.649 -0.0469 -0.2510  0.1823
19769SOL    HW262263   7.496   1.936   6.671 -0.4353  0.3025  1.2929
19770SOL     OW62264   0.945   3.500   5.781 -0.7992  0.2751 -0.5391
19770SOL    HW162265   0.945   3.594   5.802  1.2002  0.3858 -0.7562
19770SOL    HW262266   1.030   3.486   5.740 -1.4730 -1.4692 -1.4044
19771SOL     OW62267   3.680   4.284   6.310 -0.5876  0.2878 -0.0616
19771SOL    HW162268   3.645   4.361   6.354 -1.5227 -0.4429  0.5077
19771SOL    HW262269   3.604   4.239   6.274 -0.0696 -0.4282 -0.3042
19772SOL     OW62270   0.678   3.669   8.908 -0.3290 -0.4723  0.2572
19772SOL    HW162271   0.734   3.713   8.844  0.0662 -0.0149  0.9117
19772SOL    HW262272   0.736   3.605   8.950 -0.2423  0.1144  1.0525
19773SOL     OW62273   5.171   8.768   4.605  0.1782 -0.3721 -0.3844
19773SOL    HW162274   5.228   8.745   4.678 -0.9700 -2.5745 -0.1221
19773SOL    HW262275   5.191   8.860   4.588  1.4679 -0.1831  1.7828
19774SOL     OW62276   5.167   5.647   1.760  0.0630  0.8466 -0.3644
19774SOL    HW162277   5.229   5.574   1.755  0.6276  1.2514  0.5202
19774SOL    HW262278   5.201   5.711   1.698 -0.2903  0.4765 -0.9513
19775SOL     OW62279   9.488   6.886   3.175  0.1352 -0.7333  0.3504
19775SOL    HW162280   9.563   6.854   3.124 -1.6667 -0.9871 -2.3049
19775SOL    HW262281   9.510   6.977   3.193  1.4700 -1.0391  0.4298
19776SOL     OW62282   4.300   0.924   3.547 -0.2138 -0.4237  0.1778
19776SOL    HW162283   4.386   0.919   3.505 -1.0543  0.1586 -1.7319
19776SOL    HW262284   4.282   0.835   3.576  1.4089 -0.3831  1.4909
19777SOL     OW62285   5.730   2.551   0.409 -0.0146 -0.1735 -0.2920
19777SOL    HW162286   5.638   2.531   0.429 -0.0194  0.1865  0.0475
19777SOL    HW262287   5.742   2.641   0.439  0.9346 -0.7938  1.2725
19778SOL     OW62288   1.137   4.058   0.990 -0.4458 -0.6141 -0.2187
19778SOL    HW162289   1.052   4.017   1.005 -0.0717 -0.5773  2.2645
19778SOL    HW262290   1.201   3.990   1.010  0.1338  0.0883  0.3844
19779SOL     OW62291   8.213   1.720   4.465  0.4695  0.1613 -0.0977
19779SOL    HW162292   8.221   1.631   4.429 -0.6797 -0.3238  0.7794
19779SOL    HW262293   8.171   1.770   4.396  1.5158  0.1391 -0.7638
19780SOL     OW62294   3.335   4.292   3.038 -0.1066  0.1423  0.3838
19780SOL    HW162295   3.298   4.277   3.125 -1.2499 -0.5061 -0.1850
19780SOL    HW262296   3.301   4.220   2.985  1.4376 -0.0868 -0.3624
19781SOL     OW62297   0.980   5.472   2.544 -0.5812  0.2622  0.1025
19781SOL    HW162298   0.986   5.450   2.637  2.4565  1.6276  0.3336
19781SOL    HW262299   1.056   5.431   2.504 -1.7220 -0.1242 -1.7970
19782SOL     OW62300   2.374   9.904   0.346  0.8490  0.8795  0.1345
19782SOL    HW162301   2.445   9.872   0.290  0.2447 -1.5340  0.6486
19782SOL    HW262302   2.302   9.921   0.286  0.1833 -1.7448  0.0775
19783SOL     OW62303   9.834   5.448   1.195  0.3794  0.9554  0.5299
19783SOL    HW162304   9.815   5.384   1.126 -0.9634  1.0979  0.7469
19783SOL    HW262305   9.925   5.474   1.179  0.7205 -0.4746  0.0148
19784SOL     OW62306   5.491   2.896   5.516  0.0784  0.3756  0.0056
19784SOL    HW162307   5.433   2.857   5.581 -0.2029  0.6978 -0.0452
19784SOL    HW262308   5.575   2.854   5.529 -0.3868 -0.7431 -0.5046
19785SOL     OW62309   4.707   3.821   0.569  0.2407  0.2129 -0.6941
19785SOL    HW162310   4.798   3.842   0.590 -0.1144  1.0278  0.0925
19785SOL    HW262311   4.713   3.745   0.512  1.4369  0.5148 -1.0063
19786SOL     OW62312   9.596   4.141   1.337 -0.1356  0.7255 -0.1802
19786SOL    HW162313   9.660   4.210   1.352 -1.6977  2.3729 -0.8145
19786SOL    HW262314   9.511   4.182   1.351 -1.2614 -0.3452 -3.0063
19787SOL     OW62315   9.281   2.648   3.854 -0.1508 -0.1147  0.4176
19787SOL    HW162316   9.346   2.716   3.871  0.5817 -0.5462 -0.5346
19787SOL    HW262317   9.197   2.695   3.849  0.4142  0.8206 -0.8096
19788SOL     OW62318   4.965   0.471  10.156 -0.2918 -0.1429 -0.3318
19788SOL    HW162319   5.056   0.481  10.183 -0.5036 -1.4073  1.0174
19788SOL    HW262320   4.926   0.418  10.226 -2.2124  0.8832 -0.5821
19789SOL     OW62321  10.546   5.504  10.672  0.2875 -0.2749 -0.0722
19789SOL    HW162322  10.483   5.564  10.633 -3.3279 -1.6417  3.0456
19789SOL    HW262323  10.573   5.546  10.754  0.1155 -1.4737  0.6370
19790SOL     OW62324   4.731   6.004   4.467  0.1798 -0.1846 -0.8893
19790SOL    HW162325   4.782   6.081   4.488 -1.7744  0.7132  1.0073
19790SOL    HW262326   4.769   5.934   4.521  0.7008 -0.0651 -1.0977
19791SOL     OW62327   5.871   4.160   9.604  0.5044  0.3586 -0.1894
19791SOL    HW162328   5.950   4.117   9.572  0.7038  0.3395  0.3121
19791SOL    HW262329   5.821   4.091   9.647  0.2443  0.3831 -0.4520
19792SOL     OW62330   2.413   4.311   6.597  0.2266 -0.5484  0.8833
19792SOL    HW162331   2.486   4.325   6.536 -0.5758  0.5993  0.1445
19792SOL    HW262332   2.447   4.248   6.660  0.5506 -3.1411 -1.6629
19793SOL     OW62333   1.366   9.718   4.799 -0.5498 -0.4564 -0.2782
19793SOL    HW162334   1.341   9.810   4.808  2.4682  0.4779 -0.4401
19793SOL    HW262335   1.327   9.674   4.875 -0.7529  1.2701  0.6541
19794SOL     OW62336   0.869   0.669   5.870 -0.1314  0.5537 -0.6964
19794SOL    HW162337   0.855   0.760   5.896  0.6986 -0.3188  3.5732
19794SOL    HW262338   0.958   0.668   5.835  0.2482  1.2538  0.2115
19795SOL     OW62339   0.287   3.171   4.286  0.2446 -0.2778  0.0732
19795SOL    HW162340   0.238   3.253   4.281  0.3746 -0.2071 -0.0615
19795SOL    HW262341   0.319   3.156   4.196  2.0059  0.6311  0.5065
19796SOL     OW62342   3.345   6.434   4.012 -0.5508 -0.4565 -0.3457
19796SOL    HW162343   3.416   6.371   4.016  0.2575  0.3685 -1.0226
19796SOL    HW262344   3.386   6.513   3.975 -1.4887  0.5009  0.5930
19797SOL     OW62345   6.888   7.553   7.642 -0.0733  0.0465  0.5416
19797SOL    HW162346   6.943   7.574   7.717 -1.0666 -0.2525  1.3846
19797SOL    HW262347   6.926   7.473   7.606 -0.0627 -0.2658  1.2318
19798SOL     OW62348   6.278   8.450   5.706  0.7035 -0.3990  0.0993
19798SOL    HW162349   6.209   8.455   5.772  1.4416  0.5513  0.8354
19798SOL    HW262350   6.241   8.395   5.637 -0.8406  0.1917  0.4016
19799SOL     OW62351   3.608   9.997   6.280  0.1405 -0.1000  0.3995
19799SOL    HW162352   3.666  10.013   6.206  1.2288  0.5031  1.3560
19799SOL    HW262353   3.586  10.085   6.313  1.0253 -0.3578  1.7891
19800SOL     OW62354   3.612   2.451   2.574 -0.1488  0.4956 -0.3290
19800SOL    HW162355   3.585   2.543   2.566 -1.1937  0.3144  0.8255
19800SOL    HW262356   3.619   2.421   2.483 -3.3264  0.7597 -0.7825
19801SOL     OW62357   6.011   7.858  10.173 -0.4095  0.4346  0.0953
19801SOL    HW162358   6.084   7.868  10.234  1.2987 -0.8207 -1.6237
19801SOL    HW262359   5.947   7.923  10.201  1.3172  1.5206  1.7310
19802SOL     OW62360  10.161   6.927   1.036  0.2752  0.1375  0.4774
19802SOL    HW162361  10.193   6.885   0.956 -1.0553 -1.0750  0.5388
19802SOL    HW262362  10.241   6.952   1.083  1.0916 -0.2879 -0.6288
19803SOL     OW62363   6.385   9.302   9.731 -0.2913  0.3438  0.3908
19803SOL    HW162364   6.314   9.272   9.674  0.1623  1.5746 -0.8768
19803SOL    HW262365   6.465   9.278   9.685  0.0971  0.3096  1.0780
19804SOL     OW62366   3.714   1.286   7.380  0.4546 -0.3792 -0.3620
19804SOL    HW162367   3.660   1.296   7.457  1.2425  0.6736  0.0749
19804SOL    HW262368   3.748   1.197   7.386 -1.0851 -1.0113 -0.5796
19805SOL     OW62369   4.353   4.128   4.542  0.5332 -0.1156 -0.3774
19805SOL    HW162370   4.350   4.085   4.627  0.6687 -1.6397 -1.1044
19805SOL    HW262371   4.261   4.141   4.518  0.4946  0.1921 -0.0668
19806SOL     OW62372   5.544   5.032   7.552 -0.0976 -0.7222  0.0304
19806SOL    HW162373   5.524   5.053   7.643 -1.4887  2.5289 -0.8448
19806SOL    HW262374   5.630   5.072   7.536 -0.0199 -0.9667 -0.1622
19807SOL     OW62375  10.135   5.678   0.848  0.3525 -0.1628 -0.6299
19807SOL    HW162376  10.075   5.752   0.851  1.2626  0.5551  0.2010
19807SOL    HW262377  10.120   5.639   0.762 -0.7513  0.4567 -0.7374
19808SOL     OW62378   4.913   7.645   3.341  0.9158  0.0718 -0.4138
19808SOL    HW162379   4.867   7.680   3.418 -0.2660 -0.5146 -0.8267
19808SOL    HW262380   4.994   7.696   3.336  0.2467  1.2497  0.2644
19809SOL     OW62381   7.998   6.231   1.166  0.4525  0.0511 -0.0887
19809SOL    HW162382   7.921   6.220   1.221  0.0723  1.2004 -0.3570
19809SOL    HW262383   8.059   6.164   1.196 -0.4676 -0.5658  0.4437
19810SOL     OW62384   6.020   4.246   1.511 -0.4508  0.3927  0.2487
19810SOL    HW162385   6.005   4.317   1.573 -0.4019  0.7001 -0.0873
19810SOL    HW262386   6.085   4.190   1.553 -0.7288  0.3752  0.6529
19811SOL     OW62387   6.037   5.156   2.488 -0.0202  0.2831  0.9807
19811SOL    HW162388   6.036   5.064   2.463  0.0964  0.4121  0.5055
19811SOL    HW262389   5.952   5.190   2.461 -0.4295  0.0990  1.9847
19812SOL     OW62390   2.436   2.896   3.710 -0.3455 -0.2156 -0.9504
19812SOL    HW162391   2.395   2.822   3.755  0.0294  0.1514  0.0088
19812SOL    HW262392   2.517   2.861   3.673  0.8915  0.1571  1.2635
19813SOL     OW62393   5.156   0.046   7.817  1.0919  0.7291  0.3783
19813SOL    HW162394   5.207   0.033   7.737  0.4155 -0.3003  0.0930
19813SOL    HW262395   5.096  -0.029   7.820 -0.5520  2.0101  0.6150
19814SOL     OW62396   1.185   1.865   8.663  0.1571 -0.6995 -0.1969
19814SOL    HW162397   1.118   1.843   8.727 -1.0233  1.8192 -0.4492
19814SOL    HW262398   1.137   1.881   8.582  0.8551  1.9072 -0.2085
19815SOL     OW62399   2.654   2.311   2.602  0.1347  0.0674 -0.0620
19815SOL    HW162400   2.738   2.355   2.591 -0.0823 -0.1113 -3.2748
19815SOL    HW262401   2.589   2.381   2.592 -0.1887  0.0917  1.7621
19816SOL     OW62402   1.456   4.628   4.829 -0.4213  0.5266  0.0027
19816SOL    HW162403   1.447   4.546   4.877 -2.3550  2.2070  2.8469
19816SOL    HW262404   1.527   4.674   4.872  0.5987  0.4532 -1.5164
19817SOL     OW62405   0.315   6.693   6.832 -0.3703 -0.5163 -0.0250
19817SOL    HW162406   0.407   6.669   6.841 -0.0763  0.8233  0.9314
19817SOL    HW262407   0.270   6.641   6.899  0.1406  0.8454  1.4601
19818SOL     OW62408   4.974   9.757   4.369  0.4337  0.1415 -0.2059
19818SOL    HW162409   4.880   9.745   4.354  0.0878  0.9807  1.1587
19818SOL    HW262410   5.013   9.674   4.342 -0.6171 -0.0236 -1.3353
19819SOL     OW62411   6.063   2.661   9.795  0.7205  0.4564  0.6003
19819SOL    HW162412   6.100   2.573   9.794 -0.2359  0.0151 -0.8699
19819SOL    HW262413   6.064   2.688   9.703 -2.9606  0.1859  0.3358
19820SOL     OW62414  10.136   5.802   7.096  0.0980  0.1478  0.1578
19820SOL    HW162415  10.084   5.728   7.125 -0.6956  1.3251  1.9014
19820SOL    HW262416  10.183   5.831   7.174  0.1349  1.6791 -0.3811
19821SOL     OW62417   0.994   1.307   8.110 -0.2169  0.5130 -0.5963
19821SOL    HW162418   1.034   1.352   8.036 -0.8634  2.5419  0.2036
19821SOL    HW262419   1.038   1.345   8.187 -1.4572  0.4764  0.1589
19822SOL     OW62420   3.475   5.917   1.113 -0.0140  0.5319  0.0277
19822SOL    HW162421   3.570   5.912   1.128 -0.0152  0.3459 -0.0343
19822SOL    HW262422   3.449   5.998   1.158 -0.2441 -0.6832  2.1905
19823SOL     OW62423   0.219   5.082  10.114  0.2417  0.3502 -0.4504
19823SOL    HW162424   0.181   5.071  10.201 -0.5754 -0.5972 -0.9033
19823SOL    HW262425   0.278   5.157  10.122  1.1938 -0.5297  1.2355
19824SOL     OW62426   8.644   4.898   1.230 -0.5948  0.7531 -0.3807
19824SOL    HW162427   8.605   4.974   1.272 -1.1846  0.1572  0.1775
19824SOL    HW262428   8.603   4.823   1.273  0.8438  0.1002 -0.0733
19825SOL     OW62429   2.791   7.688   8.601 -0.4126 -0.7721 -0.2082
19825SOL    HW162430   2.729   7.705   8.529 -0.7834 -1.0287  0.0469
19825SOL    HW262431   2.877   7.699   8.561 -0.6217 -0.5083 -0.5956
19826SOL     OW62432   0.492   8.623   2.811  0.7842  0.1006 -0.0859
19826SOL    HW162433   0.459   8.533   2.813 -1.1230  0.7105 -1.6367
19826SOL    HW262434   0.427   8.672   2.762  1.3929  2.5202  1.3451
19827SOL     OW62435   7.962   5.720   6.955  0.2082 -0.3495 -0.0019
19827SOL    HW162436   7.959   5.766   6.871 -1.7349  0.2593  0.3658
19827SOL    HW262437   8.054   5.725   6.981  0.3883  1.8725 -0.7978
19828SOL     OW62438   7.150   3.074   1.452  0.1421 -0.3239  0.0797
19828SOL    HW162439   7.091   3.148   1.438 -0.3339 -0.5907  0.6192
19828SOL    HW262440   7.197   3.095   1.533 -1.9629 -1.8098  1.8204
19829SOL     OW62441   5.813   6.460   5.089 -0.2667  0.4515 -0.2081
19829SOL    HW162442   5.854   6.494   5.010 -0.3249  0.0603 -0.4073
19829SOL    HW262443   5.742   6.522   5.107 -0.3382  0.4674 -0.5358
19830SOL     OW62444   3.292   6.059   6.021 -0.2639  0.2799 -0.4089
19830SOL    HW162445   3.272   6.131   5.962  0.7609  0.8222 -0.1293
19830SOL    HW262446   3.236   6.074   6.097  0.0542  0.8973 -0.2814
19831SOL     OW62447   2.053   6.822   9.183 -0.4832 -0.2999  0.0791
19831SOL    HW162448   2.119   6.788   9.243 -2.4541 -1.2060  1.8505
19831SOL    HW262449   2.061   6.767   9.105  2.1105  0.8962 -0.6072
19832SOL     OW62450   1.611  10.189  10.462 -0.9737 -0.0061  0.4240
19832SOL    HW162451   1.655  10.129  10.522 -0.3624 -0.0012 -0.0120
19832SOL    HW262452   1.626  10.153  10.375 -0.4686  0.8483  0.1417
19833SOL     OW62453   8.131   4.978  10.252  0.1910  0.1340 -0.3221
19833SOL    HW162454   8.064   5.046  10.263  0.6033  0.5263 -0.2086
19833SOL    HW262455   8.081   4.899  10.234 -0.3294  0.3143  0.2872
19834SOL     OW62456   7.258   0.861  10.627  0.3141  0.1098 -0.5366
19834SOL    HW162457   7.337   0.816  10.657  1.0485  0.5798 -1.6845
19834SOL    HW262458   7.264   0.948  10.667 -1.1926 -0.7802  1.8232
19835SOL     OW62459   0.168   4.296   5.890  0.1501 -0.0145 -0.0787
19835SOL    HW162460   0.202   4.231   5.950  0.1531 -0.2039 -0.2847
19835SOL    HW262461   0.229   4.295   5.816  0.6780  0.8786  0.3288
19836SOL     OW62462   9.681   7.436   8.848 -0.4381 -0.0204  0.2429
19836SOL    HW162463   9.621   7.362   8.861 -1.0964  0.5673  0.6325
19836SOL    HW262464   9.647   7.504   8.906  0.3889  0.4605  0.1745
19837SOL     OW62465   6.759   1.079   9.820 -0.5321 -0.4339 -0.2211
19837SOL    HW162466   6.722   1.123   9.744 -2.8604  0.5808  1.3688
19837SOL    HW262467   6.762   1.147   9.888 -0.3396 -1.7410  1.1414
19838SOL     OW62468   2.864   4.610   9.394 -0.1305 -0.4395 -0.5846
19838SOL    HW162469   2.881   4.704   9.383 -1.4837 -0.2687 -1.5243
19838SOL    HW262470   2.919   4.584   9.468  1.2718  0.7994 -1.1319
19839SOL     OW62471   7.167  10.493   1.104  0.5769 -0.0437 -0.4669
19839SOL    HW162472   7.170  10.398   1.096  0.1243 -0.1223  0.1996
19839SOL    HW262473   7.098  10.520   1.044  2.8093  0.2003 -3.1236
19840SOL     OW62474   4.652   4.179   1.583 -0.3057 -0.3051  0.1389
19840SOL    HW162475   4.568   4.191   1.627  0.3903 -0.1541  1.5049
19840SOL    HW262476   4.709   4.244   1.624  0.8724 -1.4428  0.3609
19841SOL     OW62477   0.428   6.647   9.518 -0.1699  0.0723 -0.5326
19841SOL    HW162478   0.350   6.630   9.571  0.3704  1.4139  0.7711
19841SOL    HW262479   0.496   6.593   9.557 -0.3013 -0.7224 -1.3657
19842SOL     OW62480   9.684   0.278   7.146  0.1253 -0.1100  0.2099
19842SOL    HW162481   9.695   0.185   7.169  0.0909 -0.1079  0.2342
19842SOL    HW262482   9.594   0.298   7.171 -0.0580 -0.2261 -0.3370
19843SOL     OW62483   7.728   4.904   7.900 -0.3189 -0.3992 -0.6912
19843SOL    HW162484   7.764   4.992   7.893  0.7312 -0.5921  1.5841
19843SOL    HW262485   7.633   4.917   7.898 -0.2998  1.2089  2.7301
19844SOL     OW62486   9.768   4.993  10.377 -0.4301 -0.0254  0.6143
19844SOL    HW162487   9.791   5.006  10.285 -1.4273 -1.2547  0.1685
19844SOL    HW262488   9.767   4.898  10.389 -0.2704  0.1158  1.9109
19845SOL     OW62489   4.269   1.568   5.039 -0.5252 -0.0589 -0.1607
19845SOL    HW162490   4.225   1.530   5.115  1.1865 -0.4968  0.6504
19845SOL    HW262491   4.207   1.633   5.006 -1.3289  0.0948  1.5621
19846SOL     OW62492   8.019   8.218   5.409 -0.0396 -0.1030 -0.5728
19846SOL    HW162493   7.978   8.253   5.330 -1.4735 -0.9595 -0.2371
19846SOL    HW262494   7.976   8.134   5.424 -0.2532  0.3186  1.4593
19847SOL     OW62495   4.575   1.753   8.708 -0.0083 -0.1990 -0.3606
19847SOL    HW162496   4.543   1.707   8.786 -0.6394  0.2982 -0.3204
19847SOL    HW262497   4.619   1.831   8.742 -0.9279  0.4020 -0.5304
19848SOL     OW62498   2.951   1.348   0.803 -0.2308  0.8060  0.2108
19848SOL    HW162499   2.971   1.333   0.711 -0.0933 -4.4831  0.7499
19848SOL    HW262500   2.863   1.384   0.804 -0.3162  0.7597 -1.9971
19849SOL     OW62501   9.903   7.195   5.307 -0.4655  1.2060 -0.1442
19849SOL    HW162502   9.972   7.223   5.367 -1.3593 -0.3628  1.7385
19849SOL    HW262503   9.933   7.110   5.274 -1.0619  0.9360 -0.0146
19850SOL     OW62504   2.213   1.793   8.407 -0.5412  0.4185  0.5811
19850SOL    HW162505   2.200   1.847   8.484 -0.4449 -0.9874  1.6243
19850SOL    HW262506   2.211   1.703   8.440 -0.6495 -0.2257 -1.0730
19851SOL     OW62507   6.632   1.586   4.641  0.0686  0.1222  0.0281
19851SOL    HW162508   6.610   1.499   4.676  2.3346 -0.6027 -0.1680
19851SOL    HW262509   6.722   1.576   4.610  0.6408  2.7513  0.6475
19852SOL     OW62510   8.915   9.981   5.738 -0.1140  0.8309  0.0457
19852SOL    HW162511   8.993  10.020   5.699 -0.5944  2.1291  0.3139
19852SOL    HW262512   8.842  10.021   5.691 -0.6474 -1.6054 -1.3554
19853SOL     OW62513   6.103   9.127   4.191  0.4021 -0.0834  0.1307
19853SOL    HW162514   6.048   9.050   4.205  0.9573 -0.6206 -0.5391
19853SOL    HW262515   6.042   9.200   4.189 -0.2633 -0.6422 -0.3383
19854SOL     OW62516   2.346   0.476   1.859 -0.3274  0.6373 -1.0076
19854SOL    HW162517   2.394   0.501   1.937 -2.8728  1.0338  0.5591
19854SOL    HW262518   2.368   0.544   1.794  3.2901 -0.7309 -1.4156
19855SOL     OW62519   5.755   6.319   9.286 -0.1304  0.0466 -0.2384
19855SOL    HW162520   5.808   6.319   9.207 -0.2215  0.1335 -0.2990
19855SOL    HW262521   5.783   6.241   9.334  0.6873  0.5695  0.1595
19856SOL     OW62522   9.458   1.626   2.178  0.8489 -0.0310  0.2905
19856SOL    HW162523   9.384   1.601   2.123  0.3794  0.6179  0.6121
19856SOL    HW262524   9.526   1.655   2.117  0.8565 -0.6663 -0.0074
19857SOL     OW62525   8.437   4.683   2.838 -0.5579 -0.0135  0.0506
19857SOL    HW162526   8.387   4.657   2.915  0.8556 -1.6453  0.4763
19857SOL    HW262527   8.474   4.602   2.804  1.1301  1.0025 -0.6959
19858SOL     OW62528   9.932   5.788   2.082 -0.3199  0.3858 -0.1956
19858SOL    HW162529   9.880   5.854   2.128  1.6376  1.0129  1.2912
19858SOL    HW262530   9.960   5.727   2.151 -0.3934 -0.8309 -1.2085
19859SOL     OW62531   4.104   4.361   6.884  0.4777 -0.6463  0.7260
19859SOL    HW162532   4.144   4.275   6.900 -0.6951 -1.1718  0.9085
19859SOL    HW262533   4.010   4.344   6.882  0.2974  0.3471 -1.0008
19860SOL     OW62534   3.411   7.163   9.153  0.4734 -0.1712  0.0461
19860SOL    HW162535   3.373   7.195   9.072  2.6344 -0.9529 -1.3773
19860SOL    HW262536   3.487   7.219   9.168  1.8033 -1.8329 -0.1377
19861SOL     OW62537   6.572   1.339   3.617 -0.1266 -0.0173 -0.1687
19861SOL    HW162538   6.603   1.411   3.673  1.2934 -1.1643  0.5933
19861SOL    HW262539   6.651   1.293   3.592 -1.1010 -2.8122  1.4414
19862SOL     OW62540   5.951   5.608   1.571  0.0178  0.2634  0.5046
19862SOL    HW162541   5.909   5.523   1.565  1.3917 -0.4092  0.2092
19862SOL    HW262542   6.043   5.589   1.588  0.7089  1.6236 -1.3701
19863SOL     OW62543   6.339   4.936   9.159 -0.0749  0.3202 -0.3611
19863SOL    HW162544   6.284   4.863   9.187  0.9733  0.0673  1.1420
19863SOL    HW262545   6.278   4.996   9.116 -1.7094  0.3913  1.8495
19864SOL     OW62546   7.735   4.672   7.761 -0.0549 -0.1974 -0.0241
19864SOL    HW162547   7.729   4.692   7.668  0.6375  1.2857  0.2223
19864SOL    HW262548   7.750   4.757   7.803  1.3538 -1.0270  1.2738
19865SOL     OW62549   9.966   8.903   7.820 -0.0023 -0.1531 -0.5939
19865SOL    HW162550   9.986   8.911   7.913  0.4854 -0.5093 -0.6643
19865SOL    HW262551   9.889   8.847   7.816 -0.4628  0.4575 -0.3663
19866SOL     OW62552  10.645   2.091   6.117  0.6898 -0.3131  0.1771
19866SOL    HW162553  10.642   2.015   6.176 -0.5359 -1.0703 -0.8125
19866SOL    HW262554  10.736   2.119   6.118  1.0210 -1.3650  1.1121
19867SOL     OW62555  10.039   7.670   5.803  0.2819 -0.4148  0.0097
19867SOL    HW162556  10.038   7.593   5.859 -0.4519 -0.7486 -0.4515
19867SOL    HW262557  10.054   7.636   5.715 -1.6231 -0.2326 -0.4400
19868SOL     OW62558   6.462   5.410   4.811  0.4437  0.2243  0.2508
19868SOL    HW162559   6.422   5.405   4.724  0.0780 -0.9986  0.4737
19868SOL    HW262560   6.502   5.497   4.814  0.1264  0.4306 -0.9915
19869SOL     OW62561   7.480   8.997  10.388 -0.4525  0.2789 -0.6301
19869SOL    HW162562   7.472   9.089  10.414  0.4102 -0.0707  1.0267
19869SOL    HW262563   7.499   8.951  10.469  1.8830 -0.9883 -1.7835
19870SOL     OW62564   7.512   9.210  10.572 -0.3040  0.4497  0.0402
19870SOL    HW162565   7.419   9.220  10.551 -0.3911 -0.8895 -0.3234
19870SOL    HW262566   7.513   9.179  10.663 -0.1632  1.1438  0.2851
19871SOL     OW62567  10.507   0.734   9.705  0.7913  0.0250 -0.3397
19871SOL    HW162568  10.447   0.783   9.650 -0.2436 -1.2478 -0.3911
19871SOL    HW262569  10.483   0.757   9.794  0.6378  0.0006 -0.3755
19872SOL     OW62570   0.948   7.137   2.673 -0.3002  0.2628  0.5116
19872SOL    HW162571   0.902   7.221   2.673 -0.6099  0.1349 -1.4413
19872SOL    HW262572   0.880   7.073   2.695 -0.0907  0.4721  1.8726
19873SOL     OW62573   4.757   5.772   3.978  0.5167  0.2071  0.3966
19873SOL    HW162574   4.794   5.825   4.049  1.4308  0.3619 -0.1927
19873SOL    HW262575   4.817   5.784   3.905 -0.7079  0.4846 -0.5901
19874SOL     OW62576   2.002   3.543   1.245  0.6009  0.0920  0.0043
19874SOL    HW162577   2.042   3.458   1.227  1.5721  0.7230 -0.9615
19874SOL    HW262578   1.908   3.529   1.234  0.6866 -1.0127  0.5876
19875SOL     OW62579   5.844   7.054   8.641  0.0905  0.8170  0.1003
19875SOL    HW162580   5.887   7.112   8.703  0.8619 -0.0130  0.3470
19875SOL    HW262581   5.906   7.046   8.569 -0.5601  1.3170 -0.5371
19876SOL     OW62582  10.304   9.265  10.546  0.2223 -0.1779  0.1735
19876SOL    HW162583  10.353   9.273  10.465 -0.8582  0.0083 -0.4828
19876SOL    HW262584  10.338   9.334  10.602 -0.1152  0.7251 -0.7081
19877SOL     OW62585   1.645   2.259   3.258  0.4085 -0.0376 -0.3408
19877SOL    HW162586   1.582   2.302   3.200 -0.6186 -1.6281 -0.4750
19877SOL    HW262587   1.591   2.215   3.324  1.3720 -1.1579 -0.2612
19878SOL     OW62588   6.583   5.631   5.781  0.5766  0.3173  0.4735
19878SOL    HW162589   6.675   5.628   5.807  1.0376  1.9857 -0.8121
19878SOL    HW262590   6.575   5.563   5.714  0.5984 -0.5104  1.2799
19879SOL     OW62591   3.835   4.039   4.609 -0.2651 -0.5206 -0.0690
19879SOL    HW162592   3.814   4.117   4.557 -2.5109  0.3649  1.9981
19879SOL    HW262593   3.763   3.978   4.592 -0.2429 -0.8165  0.8239
19880SOL     OW62594   7.855   1.031   2.313 -0.2765  0.1929 -0.0239
19880SOL    HW162595   7.822   1.095   2.376  1.6779  1.7389 -0.4596
19880SOL    HW262596   7.780   1.012   2.256 -1.1218  1.4815  0.6210
19881SOL     OW62597   2.468   2.094   9.142  0.1427 -0.4429  0.3868
19881SOL    HW162598   2.529   2.062   9.076 -0.2117 -0.6751  0.1719
19881SOL    HW262599   2.500   2.182   9.163 -1.1744  0.6717 -1.9273
19882SOL     OW62600   3.160   6.193   8.093 -0.9302  0.1693  0.0805
19882SOL    HW162601   3.114   6.251   8.153  0.7460 -1.5028  3.2345
19882SOL    HW262602   3.239   6.241   8.067  0.1804 -0.3714  2.2490
19883SOL     OW62603   4.297   5.508   1.720  0.4535 -0.5344 -0.3922
19883SOL    HW162604   4.325   5.566   1.650  2.1828 -1.2393 -0.3299
19883SOL    HW262605   4.202   5.518   1.723  0.5589  1.0991 -1.4058
19884SOL     OW62606   5.679   2.239  10.347  0.5353  0.3164 -0.2878
19884SOL    HW162607   5.771   2.265  10.346  0.6674 -0.1506 -1.2225
19884SOL    HW262608   5.634   2.307  10.297  0.6788 -0.4739 -1.5374
19885SOL     OW62609   7.774   7.428   7.921 -0.9960 -0.8036  0.8534
19885SOL    HW162610   7.697   7.396   7.874 -0.8105 -0.4547  0.3097
19885SOL    HW262611   7.848   7.409   7.863 -0.9891  1.6294 -0.0483
19886SOL     OW62612   4.630   7.088   5.983 -0.3775 -0.0889 -0.2317
19886SOL    HW162613   4.677   7.167   5.957 -0.4793  0.4883  1.2822
19886SOL    HW262614   4.695   7.018   5.979 -0.2118  0.1095 -1.2738
19887SOL     OW62615   6.865   5.513   2.000  0.3709 -0.4193  0.0744
19887SOL    HW162616   6.956   5.486   1.999 -0.1023 -2.1098  0.4083
19887SOL    HW262617   6.824   5.459   2.068 -0.6562  1.0742  0.7066
19888SOL     OW62618   7.756   5.322   4.178  0.0598  0.5205  0.1574
19888SOL    HW162619   7.674   5.369   4.188 -0.3961 -0.2920  0.3197
19888SOL    HW262620   7.794   5.320   4.265 -0.1671  0.1641  0.2526
19889SOL     OW62621   0.605   3.560   2.604  0.2932 -0.0637 -0.2055
19889SOL    HW162622   0.645   3.640   2.569 -1.3914  0.8955 -0.0093
19889SOL    HW262623   0.531   3.591   2.655  0.1903 -1.7161  0.6881
19890SOL     OW62624   0.751   7.489   8.471  0.4385 -0.2694  0.1894
19890SOL    HW162625   0.813   7.561   8.460 -0.6457  0.7223  0.4222
19890SOL    HW262626   0.774   7.450   8.556  0.4935  0.3412  0.4598
19891SOL     OW62627   0.756  10.203   3.828 -0.0618  0.0206  0.5851
19891SOL    HW162628   0.829  10.242   3.876 -0.3289  0.5495  0.5653
19891SOL    HW262629   0.764  10.109   3.845  0.6958  0.0596  0.4845
19892SOL     OW62630   7.118   7.828   9.757  0.0443  0.0980  0.0292
19892SOL    HW162631   7.120   7.922   9.776 -0.3023 -0.2468  2.0606
19892SOL    HW262632   7.156   7.820   9.670  0.0817  2.1218 -0.1885
19893SOL     OW62633   3.061   1.879   9.815 -0.1371 -0.7249 -0.0696
19893SOL    HW162634   2.996   1.942   9.846 -0.8195 -1.2551 -0.3947
19893SOL    HW262635   3.145   1.923   9.829 -0.5788  0.1375 -0.0172
19894SOL     OW62636   6.908  10.204   2.823 -0.1988 -0.2947 -0.1040
19894SOL    HW162637   6.935  10.148   2.896 -2.2185  0.5819  1.4106
19894SOL    HW262638   6.836  10.156   2.782 -0.7489  0.3509  0.0842
19895SOL     OW62639   1.758   4.327   3.380 -0.1086  0.3468  0.1503
19895SOL    HW162640   1.691   4.316   3.448 -0.3145  0.3025 -0.0572
19895SOL    HW262641   1.751   4.248   3.327 -0.5594  0.7910 -0.4525
19896SOL     OW62642   3.777   8.706   5.607 -0.2751  0.2191  0.2798
19896SOL    HW162643   3.774   8.616   5.574  2.9194 -0.0251  0.3666
19896SOL    HW262644   3.731   8.757   5.540  0.8455 -1.0479 -1.5495
19897SOL     OW62645   9.198   1.062   1.648 -0.2846 -0.0272  0.1269
19897SOL    HW162646   9.137   1.135   1.638 -0.3080  0.0808  0.9879
19897SOL    HW262647   9.227   1.043   1.559 -0.9256  0.4751 -0.2013
19898SOL     OW62648   3.228   7.936   5.187  0.1276 -0.2077  0.3039
19898SOL    HW162649   3.306   7.966   5.236 -0.2190 -0.2536  0.8930
19898SOL    HW262650   3.260   7.921   5.099  0.9693 -0.9589  0.7206
19899SOL     OW62651  10.073   4.147  10.066  0.8906 -0.6121 -0.7639
19899SOL    HW162652  10.125   4.224  10.042 -0.8046  1.7124  2.3441
19899SOL    HW262653  10.111   4.118  10.149  1.7995 -3.5846 -2.0978
19900SOL     OW62654   8.513   8.697   4.812  0.4103  0.0732  0.0108
19900SOL    HW162655   8.457   8.767   4.779  0.7126  0.8807  1.1642
19900SOL    HW262656   8.465   8.660   4.886  1.6289  1.2270  1.4524
19901SOL     OW62657   4.905   0.852   2.269 -0.5491 -0.5250  0.4991
19901SOL    HW162658   4.952   0.908   2.208  0.2750  0.5449  2.0687
19901SOL    HW262659   4.842   0.805   2.214  0.0842  0.4628 -1.1445
19902SOL     OW62660  10.591   2.689   0.949 -0.1423  1.0852  0.1892
19902SOL    HW162661  10.648   2.649   0.884 -0.8502  2.8832 -1.6189
19902SOL    HW262662  10.503   2.673   0.917 -0.5035  5.2743 -1.6135
19903SOL     OW62663   5.320   1.551   8.049  0.2686  0.0510  0.1187
19903SOL    HW162664   5.301   1.605   8.126 -1.1603  0.7337 -0.6770
19903SOL    HW262665   5.237   1.507   8.029  1.2141 -1.9458  0.3315
19904SOL     OW62666   1.213   2.643   5.511  0.1482 -0.3505 -0.0681
19904SOL    HW162667   1.175   2.664   5.426  3.0603  3.1081 -0.7634
19904SOL    HW262668   1.289   2.589   5.491 -0.2206 -1.1255  0.5713
19905SOL     OW62669   2.188   5.439   1.816 -0.3863 -0.8904  0.0110
19905SOL    HW162670   2.160   5.466   1.729 -0.0058 -0.7154 -0.0598
19905SOL    HW262671   2.255   5.372   1.800  0.7813  0.1976  0.1268
19906SOL     OW62672   5.084   4.884   8.758 -0.3640 -0.2322 -0.1818
19906SOL    HW162673   4.994   4.895   8.729 -0.2362  0.9092 -0.1880
19906SOL    HW262674   5.135   4.879   8.677 -0.3002  0.3192 -0.1826
19907SOL     OW62675   4.587   2.992   4.058 -0.0514  0.3391  0.2829
19907SOL    HW162676   4.607   3.086   4.054  0.1892  0.4533  2.6402
19907SOL    HW262677   4.528   2.977   3.985  1.7165  1.8228 -1.5800
19908SOL     OW62678   5.298   1.636   0.210 -0.0673 -0.3156 -0.6570
19908SOL    HW162679   5.350   1.599   0.139  0.3057  0.0695 -0.5867
19908SOL    HW262680   5.362   1.674   0.270 -0.3450 -1.0911  0.1492
19909SOL     OW62681   7.852   5.354   0.120  0.3191  0.0740  0.2702
19909SOL    HW162682   7.767   5.337   0.079  0.7814 -0.1624 -0.6134
19909SOL    HW262683   7.889   5.426   0.069  0.4627  0.4986  0.9525
19910SOL     OW62684   3.195   6.888   1.528 -0.4859 -0.1370  0.2333
19910SOL    HW162685   3.107   6.867   1.496  0.0388 -1.6887 -0.3303
19910SOL    HW262686   3.185   6.969   1.576 -2.3955 -0.7140  0.8951
19911SOL     OW62687   1.550   8.117   3.718 -0.2266 -0.2774  0.3049
19911SOL    HW162688   1.483   8.050   3.733 -0.9234  0.4323  0.4319
19911SOL    HW262689   1.501   8.192   3.685  0.1132  1.1473  2.8136
19912SOL     OW62690   3.191   3.194   7.300  0.5649 -0.3873  0.0104
19912SOL    HW162691   3.222   3.215   7.388 -0.2115 -0.5345  0.3267
19912SOL    HW262692   3.102   3.161   7.313 -0.1347  1.0223 -0.9642
19913SOL     OW62693   7.888   2.390   1.424  0.0370 -0.1545  0.0401
19913SOL    HW162694   7.955   2.411   1.489  0.0932 -1.2561  0.3663
19913SOL    HW262695   7.809   2.434   1.454  0.1476 -0.3852  0.6792
19914SOL     OW62696   1.360   5.297   8.913  0.2568 -0.1089 -0.6301
19914SOL    HW162697   1.276   5.265   8.879  0.1045  0.5153 -0.8581
19914SOL    HW262698   1.390   5.227   8.971 -0.6039 -0.1904 -0.2558
19915SOL     OW62699   9.282   7.803   4.415 -0.3207 -0.4370  0.3417
19915SOL    HW162700   9.283   7.885   4.366  0.2171 -0.1208  0.8558
19915SOL    HW262701   9.223   7.745   4.366 -1.0803  0.4114  0.2268
19916SOL     OW62702   3.935   3.410   6.745 -0.3109  0.1396  0.0511
19916SOL    HW162703   3.957   3.480   6.807 -0.3155 -0.7770  1.1028
19916SOL    HW262704   3.860   3.365   6.784 -2.5137  1.5884 -2.2364
19917SOL     OW62705   7.087   2.491   9.927  0.2599 -0.5230  0.3751
19917SOL    HW162706   7.133   2.512  10.008  0.9110 -0.9325  0.1194
19917SOL    HW262707   7.039   2.410   9.947  0.0313 -0.3619  0.4913
19918SOL     OW62708   2.706   6.476   4.478 -0.5993 -0.1390  0.5794
19918SOL    HW162709   2.636   6.535   4.450 -0.2687  0.8545  1.7583
19918SOL    HW262710   2.774   6.533   4.512  1.6362 -0.9774 -2.1767
19919SOL     OW62711   3.644   0.813   2.019 -0.4311 -0.1292 -0.2531
19919SOL    HW162712   3.576   0.821   2.086  0.9420  0.5592  1.1252
19919SOL    HW262713   3.602   0.844   1.939 -2.0743 -0.8054  0.3055
19920SOL     OW62714   5.959   9.553   9.077 -0.0102 -0.1864  0.2084
19920SOL    HW162715   6.050   9.523   9.082 -0.4865 -2.0281 -1.0371
19920SOL    HW262716   5.958   9.614   9.003  0.0425 -1.0287 -0.5148
19921SOL     OW62717   7.957   4.067   2.121 -0.3730  0.0644  0.2722
19921SOL    HW162718   7.955   3.972   2.130  2.1199 -0.1849 -1.0616
19921SOL    HW262719   7.936   4.084   2.030 -0.4183  0.7654  0.4031
19922SOL     OW62720  10.190   0.699   8.782  0.1893 -0.1774  0.4740
19922SOL    HW162721  10.257   0.747   8.734 -0.7705  0.7402  0.0113
19922SOL    HW262722  10.116   0.760   8.788 -0.6391 -1.1867  0.8889
19923SOL     OW62723   0.663   8.522   3.286  0.6878  0.0358 -0.6517
19923SOL    HW162724   0.726   8.453   3.306  1.1517  0.7556  0.4553
19923SOL    HW262725   0.577   8.479   3.291  0.9517 -0.3867  0.3983
19924SOL     OW62726   8.935   8.067   7.012 -0.3592 -0.0379 -0.0254
19924SOL    HW162727   8.960   8.137   7.073 -0.1998 -1.0646  1.1202
19924SOL    HW262728   8.842   8.084   6.993  0.1295  1.5484 -1.2619
19925SOL     OW62729   8.452   9.418   0.398 -0.5948  0.2343  0.1680
19925SOL    HW162730   8.520   9.478   0.365 -0.5833 -0.1882 -0.6082
19925SOL    HW262731   8.471   9.410   0.491  0.3148  0.2741 -0.0002
19926SOL     OW62732   2.285   9.904   2.056 -0.1678 -0.4684 -0.0841
19926SOL    HW162733   2.355   9.966   2.072  0.5193 -1.1514 -0.3966
19926SOL    HW262734   2.324   9.818   2.072 -0.9124 -0.8627 -0.3066
19927SOL     OW62735   0.958   8.845   8.294 -0.4504  0.2225 -0.2768
19927SOL    HW162736   0.905   8.846   8.373 -0.4421  1.9904 -0.2526
19927SOL    HW262737   0.916   8.908   8.235 -0.5773 -1.1956 -1.7895
19928SOL     OW62738   8.987   6.127   0.313  0.4589  0.6733  0.4985
19928SOL    HW162739   9.034   6.060   0.265  0.5519  1.1597 -0.1016
19928SOL    HW262740   8.994   6.206   0.258  0.2323  1.1344  1.1154
19929SOL     OW62741   8.213   2.120   8.580 -0.2692  0.5099  0.1535
19929SOL    HW162742   8.291   2.086   8.623 -0.4434  0.8433  0.7453
19929SOL    HW262743   8.210   2.212   8.606  0.0881  0.9449 -1.2560
19930SOL     OW62744   0.237   1.124   4.941  0.1700 -1.0963  0.4982
19930SOL    HW162745   0.253   1.034   4.969  0.6026 -1.0568  0.3929
19930SOL    HW262746   0.263   1.125   4.849 -2.1683 -1.4768 -0.2254
19931SOL     OW62747   6.029   6.269   5.740 -0.1355 -0.4263  0.8795
19931SOL    HW162748   5.978   6.308   5.669 -0.5477 -1.2633  0.6983
19931SOL    HW262749   6.109   6.238   5.698 -1.6115 -3.5829  0.1016
19932SOL     OW62750   7.286   9.714   4.199  0.1345  0.3331  0.1088
19932SOL    HW162751   7.350   9.784   4.210  0.3161  0.1570  0.1848
19932SOL    HW262752   7.252   9.726   4.110  0.1431  0.5342  0.1325
19933SOL     OW62753   1.237   0.951   9.177 -0.2263 -0.3481  0.0150
19933SOL    HW162754   1.245   1.043   9.150  0.5697 -0.6677 -0.8895
19933SOL    HW262755   1.319   0.933   9.223 -1.2101 -0.0585  1.9896
19934SOL     OW62756   9.241   1.042   4.476 -0.4911 -0.4354  0.2179
19934SOL    HW162757   9.153   1.047   4.512 -0.5221  1.3241 -0.0162
19934SOL    HW262758   9.228   1.029   4.382 -0.4624 -1.6133  0.3671
19935SOL     OW62759   4.405   8.310   9.440 -0.7607 -0.7696  0.3213
19935SOL    HW162760   4.371   8.233   9.394 -2.1181 -0.1730  0.2814
19935SOL    HW262761   4.486   8.280   9.482  0.8527 -1.2409 -2.8268
19936SOL     OW62762   9.916   6.645   9.781 -0.1155  0.5703 -0.0199
19936SOL    HW162763  10.001   6.689   9.785 -0.4006  1.2682 -1.2367
19936SOL    HW262764   9.853   6.717   9.774 -0.8723  0.0841  1.3879
19937SOL     OW62765   1.778   3.809   5.389 -0.5260  0.1198  0.5068
19937SOL    HW162766   1.720   3.759   5.446  0.5703  0.9401  2.4458
19937SOL    HW262767   1.849   3.749   5.368 -0.2446  0.2091  1.1627
19938SOL     OW62768  10.069   8.780   1.008  0.0570  0.6130 -0.1602
19938SOL    HW162769  10.076   8.804   0.916 -2.9346 -3.3677 -1.6927
19938SOL    HW262770  10.150   8.733   1.027 -0.5535 -1.2341 -1.8348
19939SOL     OW62771   6.216   3.547   8.279 -0.5724 -0.2708 -0.8800
19939SOL    HW162772   6.306   3.577   8.296  0.1064 -1.9682 -1.3057
19939SOL    HW262773   6.185   3.514   8.363 -1.0058  0.7363 -0.6205
19940SOL     OW62774   8.873   2.047   7.625  0.4303 -0.0435  0.5637
19940SOL    HW162775   8.836   2.095   7.552  1.0876  0.8438  0.7980
19940SOL    HW262776   8.820   2.073   7.701 -2.2120 -3.1726  0.0557
19941SOL     OW62777   1.993   8.521   6.896  0.0049  0.0605  0.0854
19941SOL    HW162778   1.978   8.494   6.806  2.5226 -0.3439 -0.2858
19941SOL    HW262779   2.077   8.568   6.893 -0.7883  1.7344  1.9140
19942SOL     OW62780   2.271   4.395   6.913  0.1831  0.1752 -0.1496
19942SOL    HW162781   2.258   4.311   6.869  0.1939  0.2638 -0.3238
19942SOL    HW262782   2.280   4.373   7.006  0.2222 -0.0191 -0.1997
19943SOL     OW62783   8.835   0.375   5.181 -0.0679  0.2128  0.0170
19943SOL    HW162784   8.898   0.302   5.180  1.9074  1.7835  1.2694
19943SOL    HW262785   8.759   0.341   5.228  0.8021 -1.0448  0.5614
19944SOL     OW62786   9.718   8.022   4.876 -0.2886  0.2063  0.1701
19944SOL    HW162787   9.706   7.991   4.786 -0.0326 -1.3261  0.6309
19944SOL    HW262788   9.793   8.082   4.871 -0.0072 -0.1926 -0.5752
19945SOL     OW62789   3.337   6.014   3.143  0.0001 -0.0551  0.3626
19945SOL    HW162790   3.348   5.920   3.147  2.4439  0.1440 -0.0543
19945SOL    HW262791   3.307   6.039   3.230 -0.6276 -1.1944  0.4885
19946SOL     OW62792   0.993   2.300   6.813 -0.2920 -0.2097  0.2961
19946SOL    HW162793   1.064   2.363   6.812  0.5974 -1.1867 -0.3615
19946SOL    HW262794   0.930   2.335   6.876  1.7816 -0.4034  2.6344
19947SOL     OW62795   9.528   2.804   2.768  0.2413  0.0279  0.1962
19947SOL    HW162796   9.510   2.768   2.855  1.9659 -2.1648 -0.2715
19947SOL    HW262797   9.610   2.762   2.741  0.7646  2.0785 -1.7258
19948SOL     OW62798   7.036   4.479   8.563  0.0350  0.3130 -0.0599
19948SOL    HW162799   7.018   4.553   8.622 -0.7989  0.5456 -0.5987
19948SOL    HW262800   6.950   4.450   8.534  0.3286 -1.1497  0.4626
19949SOL     OW62801   3.397   7.384   8.587 -0.0665  0.6044  0.1715
19949SOL    HW162802   3.317   7.361   8.634  0.2869 -0.2288  0.3706
19949SOL    HW262803   3.448   7.303   8.584  1.7404  1.5909  1.9017
19950SOL     OW62804   8.817   9.234   4.978  0.0145 -0.0096 -0.0189
19950SOL    HW162805   8.805   9.144   4.947 -0.1697 -0.3862  1.1060
19950SOL    HW262806   8.870   9.276   4.910 -0.7716 -0.6596 -1.0711
19951SOL     OW62807   6.027   1.619   0.990 -0.2790 -0.0798 -0.1511
19951SOL    HW162808   5.987   1.593   1.073 -0.2793  0.9091  0.1709
19951SOL    HW262809   6.067   1.704   1.008  0.1089 -0.0594 -1.0473
19952SOL     OW62810   1.956   0.223   6.783  0.0643 -0.1325  0.1088
19952SOL    HW162811   1.961   0.292   6.849 -0.9277  0.2176 -0.1629
19952SOL    HW262812   2.047   0.207   6.758  0.2482  2.0423 -0.7907
19953SOL     OW62813   4.058   5.135   6.292 -0.0798  0.1805  0.2046
19953SOL    HW162814   4.109   5.149   6.372  0.1959 -0.5626  0.1623
19953SOL    HW262815   4.093   5.055   6.254  1.8420  2.0269 -2.2523
19954SOL     OW62816   5.820   4.275   6.325  0.1712  0.1858 -0.3433
19954SOL    HW162817   5.737   4.265   6.278  0.7601  1.0757 -1.6201
19954SOL    HW262818   5.878   4.319   6.263  1.2719  0.5726  0.9132
19955SOL     OW62819  10.655   6.489   2.889  0.2118  0.1977  0.1325
19955SOL    HW162820  10.625   6.437   2.815 -0.0592  0.5726 -0.0279
19955SOL    HW262821  10.597   6.566   2.889  1.1601  0.9396 -0.1816
19956SOL     OW62822   2.206   9.678   7.651  0.2807 -0.3329  0.3688
19956SOL    HW162823   2.235   9.718   7.733  3.0497  0.6844 -0.9929
19956SOL    HW262824   2.203   9.751   7.589 -0.7673 -1.2519 -0.7052
19957SOL     OW62825   6.007   2.317   2.107  0.1908 -0.1507 -0.5442
19957SOL    HW162826   5.936   2.305   2.044  0.0993  0.2621 -0.5239
19957SOL    HW262827   6.086   2.323   2.054  0.1081  0.2463 -0.6257
19958SOL     OW62828   5.364   0.268   1.770 -0.0651  0.2855  0.1136
19958SOL    HW162829   5.341   0.180   1.802 -1.0127  0.2891 -0.4975
19958SOL    HW262830   5.456   0.261   1.745 -0.5658 -1.0781 -1.5921
19959SOL     OW62831   7.042   0.654   1.903 -0.1425 -0.0214 -0.0492
19959SOL    HW162832   7.003   0.690   1.823  1.2816 -0.1561 -0.8295
19959SOL    HW262833   7.107   0.719   1.929  0.8424 -0.9430 -0.1710
19960SOL     OW62834   0.038   6.386   1.179  0.2792 -0.7211  0.3418
19960SOL    HW162835  -0.047   6.348   1.158 -0.4578  1.2963 -0.6659
19960SOL    HW262836   0.038   6.394   1.274  0.1424 -2.3980  0.5097
19961SOL     OW62837   6.947   2.281  10.054  0.3812 -0.1015  0.1292
19961SOL    HW162838   7.001   2.215  10.098 -0.3906 -0.1436  1.0311
19961SOL    HW262839   6.933   2.349  10.120 -0.2769  0.1322 -0.2468
19962SOL     OW62840   1.323   3.423   0.767 -0.2052  0.1801 -0.0800
19962SOL    HW162841   1.350   3.362   0.698 -0.1375  0.3222 -0.1789
19962SOL    HW262842   1.379   3.401   0.841 -0.1365  0.1641 -0.1363
19963SOL     OW62843   4.836   7.671   2.393  0.1700 -0.0568  0.1518
19963SOL    HW162844   4.899   7.612   2.353  0.2790 -0.4146  0.8338
19963SOL    HW262845   4.751   7.630   2.376  0.1387  0.2948 -0.5485
19964SOL     OW62846   5.712   1.584   2.496 -0.0860  0.5075 -0.2289
19964SOL    HW162847   5.704   1.674   2.528 -1.4152  0.4263 -0.2710
19964SOL    HW262848   5.674   1.530   2.565  2.0168 -0.1912  0.4485
19965SOL     OW62849   0.603   2.138   5.896  0.2723 -0.1153  0.1052
19965SOL    HW162850   0.541   2.103   5.832 -1.9195  1.3692  1.2915
19965SOL    HW262851   0.635   2.062   5.944  0.3639 -1.0294 -1.3441
19966SOL     OW62852   4.471   8.143   7.121  0.1181  0.4796 -0.8413
19966SOL    HW162853   4.442   8.226   7.082  2.2478  0.9555 -1.5810
19966SOL    HW262854   4.553   8.165   7.165  0.1228 -1.0223 -0.0402
19967SOL     OW62855   8.367   4.769   1.211 -0.1333  0.1075  0.3158
19967SOL    HW162856   8.398   4.774   1.301 -3.3135 -2.4369  1.7946
19967SOL    HW262857   8.438   4.727   1.163  0.6718 -0.9156  2.2869
19968SOL     OW62858  10.687   9.791   0.854  0.0096  0.1109  0.0156
19968SOL    HW162859  10.715   9.862   0.796  0.4925 -0.5422 -0.5611
19968SOL    HW262860  10.658   9.721   0.795 -2.6937  0.6491  0.5634
19969SOL     OW62861   1.561   0.162   1.410  0.3616 -0.2453 -0.0596
19969SOL    HW162862   1.550   0.108   1.488  1.5190 -0.5278 -0.0823
19969SOL    HW262863   1.625   0.228   1.435 -1.2375  1.3609  0.0672
19970SOL     OW62864   9.942   1.663   3.514 -0.4617 -0.0449  0.1728
19970SOL    HW162865   9.992   1.713   3.580 -0.0025  0.3084 -0.4282
19970SOL    HW262866   9.866   1.718   3.495 -1.5510 -0.9585  1.6942
19971SOL     OW62867   8.462   7.711   5.110  0.0800 -0.5589  0.1785
19971SOL    HW162868   8.516   7.635   5.130 -1.1112 -2.0802 -1.9009
19971SOL    HW262869   8.387   7.704   5.168  0.8470  0.1225  1.2864
19972SOL     OW62870   4.341   4.014   5.975 -0.4288 -0.5493  0.1677
19972SOL    HW162871   4.308   4.063   6.050  0.8818 -1.1401  1.1649
19972SOL    HW262872   4.318   3.923   5.993  0.1508 -0.7355 -0.0052
19973SOL     OW62873  10.442   6.805   1.910 -0.2083 -0.0381 -0.1543
19973SOL    HW162874  10.502   6.875   1.934  0.0370 -0.4404  0.4370
19973SOL    HW262875  10.467   6.731   1.966 -0.8318 -0.4171 -0.3576
19974SOL     OW62876   4.710   4.777   2.069  0.8876 -0.0580  0.5299
19974SOL    HW162877   4.751   4.805   1.987 -0.5652 -2.0158 -0.9757
19974SOL    HW262878   4.758   4.698   2.094 -0.6826 -1.3213 -0.2596
19975SOL     OW62879  10.283   5.977   5.563 -0.1291  0.9564 -0.1528
19975SOL    HW162880  10.287   6.008   5.653  1.9826 -0.7762  0.4236
19975SOL    HW262881  10.212   5.912   5.563  1.5552 -1.0157  1.0325
19976SOL     OW62882   9.172   7.353   5.193  0.8513  0.6355 -0.1364
19976SOL    HW162883   9.196   7.261   5.191 -0.2837  0.2912  0.8294
19976SOL    HW262884   9.245   7.396   5.238  0.8990  0.0327  0.3776
19977SOL     OW62885  10.123   6.478   0.103 -0.2272  0.0628 -0.3111
19977SOL    HW162886  10.137   6.572   0.119  1.3759 -0.6139  3.4872
19977SOL    HW262887  10.190   6.454   0.039  0.6876  1.1784  0.1839
19978SOL     OW62888   6.308   5.249   6.217 -0.6588 -0.1068  0.3197
19978SOL    HW162889   6.218   5.233   6.189 -0.5586 -0.8428  0.4125
19978SOL    HW262890   6.341   5.313   6.154 -1.0655 -0.2661 -0.0610
19979SOL     OW62891   1.381   0.981   5.288 -0.4430  0.1915  0.4638
19979SOL    HW162892   1.343   0.988   5.376 -0.0948 -0.4719  0.6729
19979SOL    HW262893   1.312   0.941   5.235  0.3796 -2.3612  1.1641
19980SOL     OW62894  10.346   2.587   8.511 -0.5119  0.0151  0.2892
19980SOL    HW162895  10.362   2.508   8.459 -0.5215 -0.0010  0.3109
19980SOL    HW262896  10.313   2.651   8.448 -3.5436 -0.9474  0.7488
19981SOL     OW62897   4.177   7.805   3.861  0.6373 -0.2199  0.4400
19981SOL    HW162898   4.215   7.833   3.778  1.4202 -0.8755  0.5592
19981SOL    HW262899   4.210   7.716   3.873 -3.6093 -2.2779 -1.1300
19982SOL     OW62900  10.123   3.121   4.626  0.4701 -0.5196 -0.2943
19982SOL    HW162901  10.082   3.049   4.672  1.9455  0.4442  2.7532
19982SOL    HW262902  10.189   3.080   4.569  0.3118 -1.6238  0.3085
19983SOL     OW62903  10.358   7.426   6.730  0.0776  0.2285 -0.0317
19983SOL    HW162904  10.374   7.423   6.635  0.1249  1.5730 -0.0939
19983SOL    HW262905  10.297   7.354   6.746  0.5096 -0.3744 -0.9912
19984SOL     OW62906   6.229   9.306   5.805  0.1718 -0.6263  0.3428
19984SOL    HW162907   6.227   9.258   5.888 -0.5700  1.4922  1.6484
19984SOL    HW262908   6.180   9.386   5.824 -0.0267 -0.0940 -2.1834
19985SOL     OW62909   1.393   2.741   3.243  0.5177 -0.4225  0.0718
19985SOL    HW162910   1.443   2.665   3.273 -1.0829 -1.4291  0.3122
19985SOL    HW262911   1.340   2.766   3.319  0.9247  0.8670 -0.0449
19986SOL     OW62912   4.071   5.311   3.625 -0.5084 -0.3273 -0.4457
19986SOL    HW162913   3.992   5.365   3.630  0.2527  0.8518 -0.6782
19986SOL    HW262914   4.102   5.306   3.715 -0.2148  0.1770 -0.5213
19987SOL     OW62915   1.437   7.770   9.810 -0.3100 -0.4426  0.2752
19987SOL    HW162916   1.346   7.797   9.802 -0.8926 -0.6836  4.2950
19987SOL    HW262917   1.480   7.841   9.856  2.3945  0.8795 -3.7250
19988SOL     OW62918   8.654   9.729   6.309 -0.1597 -0.4310 -0.5607
19988SOL    HW162919   8.741   9.706   6.279  0.1749 -0.6601  0.5349
19988SOL    HW262920   8.603   9.648   6.299  0.5885 -1.2623  1.7214
19989SOL     OW62921  10.391   7.411   6.457 -0.0722  0.0878 -0.1052
19989SOL    HW162922  10.324   7.365   6.406  1.0513 -1.9649  0.1858
19989SOL    HW262923  10.474   7.388   6.415  0.6140  1.0265  0.6888
19990SOL     OW62924   9.243  10.250   8.858 -0.5315 -0.5158  0.1216
19990SOL    HW162925   9.248  10.278   8.767 -0.9394 -0.0223  0.2472
19990SOL    HW262926   9.333  10.228   8.882 -0.5077 -1.1705 -0.5625
19991SOL     OW62927   1.232   7.994   6.487 -0.1480 -0.3104  0.4192
19991SOL    HW162928   1.298   8.061   6.466  1.3688 -1.5493  1.0130
19991SOL    HW262929   1.183   7.983   6.405  1.9194 -0.9936 -0.8077
19992SOL     OW62930   0.759   1.940   1.207  0.1784  0.5266 -0.2238
19992SOL    HW162931   0.693   1.901   1.265  1.3634 -1.5079 -0.1430
19992SOL    HW262932   0.836   1.951   1.263  1.0107 -0.5165 -1.1230
19993SOL     OW62933   8.449   8.718   7.549 -0.0333 -0.1269  0.3655
19993SOL    HW162934   8.409   8.634   7.527 -0.0791  0.5205 -2.3210
19993SOL    HW262935   8.519   8.729   7.485  0.7523  1.3530  1.4219
19994SOL     OW62936   2.563   5.552   8.774  0.4764 -0.1466 -0.2754
19994SOL    HW162937   2.509   5.562   8.853  1.0288  2.6606 -0.1195
19994SOL    HW262938   2.629   5.621   8.782  2.9504 -2.2215 -1.3874
19995SOL     OW62939   5.023   2.352   3.615 -0.5653  0.1178  0.1860
19995SOL    HW162940   5.050   2.442   3.634 -0.8178  0.4799 -1.0750
19995SOL    HW262941   5.049   2.302   3.693  0.6930  1.0513  0.3962
19996SOL     OW62942   6.941   1.830   1.082  0.0173 -0.0124 -0.7593
19996SOL    HW162943   7.011   1.810   1.144  1.2978 -0.4440 -2.2892
19996SOL    HW262944   6.880   1.757   1.091  0.6015 -0.4930 -0.5621
19997SOL     OW62945   6.720   7.708   5.330  0.1263 -0.2045 -0.3141
19997SOL    HW162946   6.706   7.791   5.285 -1.7989 -0.8485 -1.0073
19997SOL    HW262947   6.638   7.660   5.317  0.6721 -1.6564  1.2566
19998SOL     OW62948   1.673   8.165   2.642 -0.5012  0.3065  0.1509
19998SOL    HW162949   1.606   8.156   2.709  0.3271  0.7959  1.0782
19998SOL    HW262950   1.751   8.126   2.681 -0.4171 -1.0569 -1.2336
19999SOL     OW62951   1.030   2.304   9.084 -0.3171 -0.1107 -0.1313
19999SOL    HW162952   0.973   2.232   9.056  0.1586 -1.0065  1.1307
19999SOL    HW262953   1.054   2.348   9.002 -1.3886 -0.7829 -0.8467
20000SOL     OW62954   0.965   8.475   5.510  0.6170 -0.0232 -0.3035
20000SOL    HW162955   0.873   8.471   5.536  0.6023  1.2403 -0.0705
20000SOL    HW262956   1.013   8.467   5.592  0.6938 -0.0540 -0.3525
20001SOL     OW62957   1.662   4.560   5.814  0.1741 -0.5785  0.3927
20001SOL    HW162958   1.572   4.569   5.783  0.6392 -1.7337 -1.4656
20001SOL    HW262959   1.715   4.598   5.744  1.1498  0.4507  1.6442
20002SOL     OW62960   4.865   2.599   5.032  0.5181  0.3425 -0.4494
20002SOL    HW162961   4.891   2.690   5.016  1.0045  0.1076 -1.0391
20002SOL    HW262962   4.837   2.567   4.946  1.5552 -0.4483 -0.5045
20003SOL     OW62963   1.184   9.874   1.995  0.1218 -0.2484 -0.1481
20003SOL    HW162964   1.246   9.813   2.036  0.0805  0.1572  0.5284
20003SOL    HW262965   1.188   9.853   1.902  1.9312  0.3429 -0.2470
20004SOL     OW62966   6.613   8.903   3.732 -0.1326  0.2771  0.0697
20004SOL    HW162967   6.611   8.998   3.723  0.3882  0.3891  1.0562
20004SOL    HW262968   6.530   8.880   3.774  0.0204  0.3660  0.4232
20005SOL     OW62969  10.152   7.633   2.791  0.2337 -0.0468 -0.6295
20005SOL    HW162970  10.159   7.650   2.697  3.0249 -0.6172 -0.5926
20005SOL    HW262971  10.121   7.543   2.798 -0.2731  0.0978 -0.9746
20006SOL     OW62972   2.388   3.292   2.631 -0.3901 -0.4815 -0.1600
20006SOL    HW162973   2.483   3.300   2.645 -0.5532 -0.2333  0.8559
20006SOL    HW262974   2.368   3.363   2.569  0.2287 -1.1422 -1.1480
20007SOL     OW62975   6.669   2.880   8.638  0.3845 -0.1938  0.3585
20007SOL    HW162976   6.724   2.831   8.577 -0.5608 -0.9111  0.0503
20007SOL    HW262977   6.609   2.814   8.673 -1.0121  0.7545 -0.1779
20008SOL     OW62978   4.314   7.757   3.338  0.2191 -0.0152 -0.6218
20008SOL    HW162979   4.274   7.671   3.321 -1.2721  0.8966 -1.9990
20008SOL    HW262980   4.281   7.813   3.267  1.9400  1.4594 -0.3157
20009SOL     OW62981   4.502   9.411   2.784 -0.0295  0.2899 -0.5494
20009SOL    HW162982   4.427   9.375   2.831 -0.2802  0.1602 -1.0438
20009SOL    HW262983   4.572   9.347   2.798  0.1700  0.7097  0.4181
20010SOL     OW62984   1.422  10.587   5.207  0.0784  0.3000  0.5247
20010SOL    HW162985   1.333  10.552   5.203  0.0498  0.2445  1.4407
20010SOL    HW262986   1.441  10.594   5.301  0.6207  1.3822  0.3478
20011SOL     OW62987   3.922   3.163   5.739 -0.0559  0.3129 -0.1221
20011SOL    HW162988   3.968   3.168   5.655 -0.0514  0.6879 -0.1012
20011SOL    HW262989   3.960   3.088   5.784  1.3423  1.2623  0.3656
20012SOL     OW62990   3.201   4.244   3.287 -0.5292  0.0374 -0.6989
20012SOL    HW162991   3.270   4.198   3.334  2.3015  1.8322 -2.7835
20012SOL    HW262992   3.124   4.188   3.296  1.2485 -2.2727  1.4417
20013SOL     OW62993   0.715   3.779   2.487 -0.0402  0.6611 -0.2540
20013SOL    HW162994   0.642   3.841   2.485  0.4542  1.3403  1.1875
20013SOL    HW262995   0.793   3.833   2.476  0.2940  0.0381 -1.0116
20014SOL     OW62996   8.145   9.324   7.536  0.0388  0.9673 -0.1477
20014SOL    HW162997   8.095   9.360   7.608 -1.6184 -0.5302 -0.4755
20014SOL    HW262998   8.235   9.320   7.568 -0.5557  0.9450  1.5934
20015SOL     OW62999   2.579   1.392   2.047 -0.4567  0.1700  0.2253
20015SOL    HW163000   2.645   1.326   2.069  1.1306  0.3529 -3.2045
20015SOL    HW263001   2.572   1.446   2.126  2.0128 -1.0824  1.4333
20016SOL     OW63002   4.897   3.801   1.811  0.1348  0.2647  0.1491
20016SOL    HW163003   4.959   3.742   1.768 -0.6681 -0.0316 -0.6449
20016SOL    HW263004   4.943   3.832   1.889  1.7478  0.9904 -1.0188
20017SOL     OW63005   4.257   3.518   4.593 -0.5067 -0.1904  0.2005
20017SOL    HW163006   4.279   3.427   4.612  1.9570  0.2942  0.0229
20017SOL    HW263007   4.240   3.519   4.499 -4.2769 -1.0404  0.7038
20018SOL     OW63008   8.578   8.396   4.304  0.2634 -0.3725 -0.1629
20018SOL    HW163009   8.494   8.350   4.300 -0.1935  0.3912  0.3350
20018SOL    HW263010   8.567   8.459   4.376  0.6987  0.8395 -1.1278
20019SOL     OW63011   9.180   7.358   1.772 -0.2741  0.1327  0.8461
20019SOL    HW163012   9.265   7.338   1.810  0.9414 -1.2121 -2.2220
20019SOL    HW263013   9.150   7.436   1.819  3.1151  1.2869  1.3664
20020SOL     OW63014   3.946   4.019   8.765  0.3343 -0.1604 -0.0636
20020SOL    HW163015   3.953   4.107   8.729 -1.3349 -0.0845 -0.2925
20020SOL    HW263016   3.902   3.968   8.696  0.2097 -0.8711  0.5241
20021SOL     OW63017   8.078   7.415   0.394  0.3871  0.6973  0.3186
20021SOL    HW163018   8.057   7.498   0.438  1.6195  0.7254  0.8960
20021SOL    HW263019   8.170   7.425   0.368  0.6156 -0.5742  0.6006
20022SOL     OW63020   1.871   4.297   5.949  0.2179 -0.4861  0.1543
20022SOL    HW163021   1.786   4.266   5.917 -0.0811  0.4670  0.0117
20022SOL    HW263022   1.858   4.307   6.044  0.0083  0.1584  0.0606
20023SOL     OW63023   1.267   7.620   0.088  0.6695  0.6563  0.2037
20023SOL    HW163024   1.307   7.552   0.142  0.8800  0.6560  0.0505
20023SOL    HW263025   1.197   7.576   0.041  0.1150  0.7735  0.8869
20024SOL     OW63026   0.395   8.302   0.678 -0.6713 -0.2139 -0.0119
20024SOL    HW163027   0.445   8.236   0.629 -0.0422 -0.2318  0.6484
20024SOL    HW263028   0.411   8.281   0.770  0.9540  1.8979  0.2496
20025SOL     OW63029   0.234   5.350   4.270 -0.1285  0.2960 -0.1139
20025SOL    HW163030   0.172   5.400   4.322  0.3141 -0.2138  0.9196
20025SOL    HW263031   0.279   5.416   4.217 -1.7806  0.6327 -1.1763
20026SOL     OW63032   3.273  10.353   2.037 -0.3077  0.6163 -0.4720
20026SOL    HW163033   3.353  10.398   2.064 -0.3697 -0.0924  0.9720
20026SOL    HW263034   3.303  10.283   1.979  1.0028 -3.4211  4.3612
20027SOL     OW63035  10.635   7.833   7.271 -0.2258 -0.3839  0.4411
20027SOL    HW163036  10.728   7.844   7.248 -0.3608  0.7265  0.3580
20027SOL    HW263037  10.598   7.920   7.260 -1.2731 -0.8085  0.5443
20028SOL     OW63038   1.199  10.406   4.254 -0.0277  0.1377  0.2817
20028SOL    HW163039   1.225  10.316   4.236 -0.3239  0.6807 -3.6330
20028SOL    HW263040   1.278  10.447   4.290  0.7194 -1.1979  0.2340
20029SOL     OW63041   6.071   6.432   1.191  0.2987  0.7157  0.0216
20029SOL    HW163042   6.050   6.386   1.272  0.8360 -2.4180 -1.4702
20029SOL    HW263043   5.986   6.460   1.157 -0.0839  0.5757  0.8337
20030SOL     OW63044   7.263   3.672  10.534 -0.4073 -0.0080 -0.6976
20030SOL    HW163045   7.215   3.589  10.534 -2.2131  0.9897 -0.2011
20030SOL    HW263046   7.211   3.729  10.478 -0.2027  1.3278  0.4332
20031SOL     OW63047   4.646   4.602   5.872  0.1926 -0.2843 -0.0469
20031SOL    HW163048   4.740   4.604   5.890  0.3685  1.4539 -0.9670
20031SOL    HW263049   4.618   4.694   5.877 -0.9616 -0.4506 -2.1286
20032SOL     OW63050   8.369   5.638  10.259 -0.3083 -0.5123 -0.7894
20032SOL    HW163051   8.458   5.671  10.242 -0.6257  1.7479  1.3451
20032SOL    HW263052   8.317   5.672  10.186  0.0309  0.8685 -0.4178
20033SOL     OW63053   8.043   1.887   3.817  0.3592  0.2258  0.2770
20033SOL    HW163054   8.009   1.798   3.807 -2.1712  1.0574  0.8883
20033SOL    HW263055   8.060   1.896   3.911 -1.1711  0.9460  0.5109
20034SOL     OW63056   7.892   7.823  10.363  0.2678 -0.5934 -0.9914
20034SOL    HW163057   7.916   7.741  10.406  1.1961  0.1913  0.0669
20034SOL    HW263058   7.883   7.801  10.270 -0.7700 -2.1311 -0.5531
20035SOL     OW63059   9.328   3.750   0.045 -0.2263 -0.6293 -0.4041
20035SOL    HW163060   9.362   3.662   0.033 -0.7074 -0.7950 -0.5536
20035SOL    HW263061   9.405   3.802   0.072 -0.0506 -1.1979  0.2102
20036SOL     OW63062   9.313   8.107   5.900  0.5350  0.1782  0.3043
20036SOL    HW163063   9.282   8.068   5.981 -0.9047  1.6492  0.5011
20036SOL    HW263064   9.326   8.033   5.840 -0.2913 -0.7376  1.2418
20037SOL     OW63065   7.618   9.070   5.419  0.1038 -0.2862  0.4075
20037SOL    HW163066   7.649   8.998   5.365  0.2464  0.4411 -0.5015
20037SOL    HW263067   7.626   9.147   5.363 -0.4449  0.3740  1.2170
20038SOL     OW63068   4.628   0.706   4.758  0.4028 -0.0944  0.6253
20038SOL    HW163069   4.546   0.710   4.709  0.8535  2.0411 -0.0500
20038SOL    HW263070   4.601   0.692   4.849 -0.6302 -0.3828  0.2910
20039SOL     OW63071   2.998   8.028   2.144  0.2807 -0.1242  0.1294
20039SOL    HW163072   2.939   8.002   2.073 -0.1165 -2.3451  1.1809
20039SOL    HW263073   3.085   8.005   2.112  0.2080 -0.1805 -0.0326
20040SOL     OW63074  10.313   0.079   0.757  0.2993 -0.3020 -0.2305
20040SOL    HW163075  10.384   0.021   0.731  1.2891  0.6614  0.2182
20040SOL    HW263076  10.234   0.026   0.749  1.3074 -2.3580  1.9996
20041SOL     OW63077   3.223   5.131   5.218  0.3252 -0.0368 -0.4870
20041SOL    HW163078   3.146   5.188   5.228  1.7125  1.7786  0.4809
20041SOL    HW263079   3.244   5.136   5.124 -0.2736  0.0909 -0.6198
20042SOL     OW63080   0.662   6.971   7.609  0.7210 -0.2594  0.1020
20042SOL    HW163081   0.590   7.012   7.560 -1.8126 -0.2312  3.4677
20042SOL    HW263082   0.685   6.894   7.558 -2.3731 -0.7678 -0.7398
20043SOL     OW63083   7.757   5.503   3.535  0.1730  0.5844 -0.0409
20043SOL    HW163084   7.805   5.483   3.616  0.5891  0.5143 -0.3028
20043SOL    HW263085   7.748   5.419   3.491 -2.3159  0.1512  1.1266
20044SOL     OW63086   1.961   1.806   4.215  0.1728  0.3070 -0.0534
20044SOL    HW163087   1.979   1.849   4.131  0.1557  0.3602 -0.0299
20044SOL    HW263088   1.957   1.713   4.194 -0.3101  0.3548 -0.1971
20045SOL     OW63089   5.784   5.253   2.405 -0.1727  0.6342  0.8927
20045SOL    HW163090   5.783   5.183   2.339 -1.7961 -0.8348  2.3778
20045SOL    HW263091   5.743   5.327   2.361 -2.7069 -0.7990  0.6672
20046SOL     OW63092   1.378   3.375   3.467 -0.3671 -0.2637  0.6618
20046SOL    HW163093   1.397   3.348   3.557  1.1426  0.5583  0.6332
20046SOL    HW263094   1.446   3.440   3.447 -0.1480 -1.0498 -1.3699
20047SOL     OW63095   4.110   6.756   1.845 -0.2212 -0.4866 -0.4362
20047SOL    HW163096   4.124   6.707   1.764 -0.3990 -0.4081 -0.5140
20047SOL    HW263097   4.193   6.749   1.892  0.2491  0.3500 -1.0999
20048SOL     OW63098   7.927   8.007   9.712  0.5130 -0.7922  0.2504
20048SOL    HW163099   7.842   8.012   9.668 -0.0651 -0.9436  1.3361
20048SOL    HW263100   7.907   8.019   9.805  1.7702 -0.0563  0.4444
20049SOL     OW63101   7.748   9.260   8.774 -0.4943  0.1488 -0.2361
20049SOL    HW163102   7.786   9.214   8.700 -0.6794  0.9036 -0.8051
20049SOL    HW263103   7.823   9.297   8.820 -0.4972  1.2086 -1.0722
20050SOL     OW63104   3.301   6.173   7.126 -0.6666 -0.7101 -0.1666
20050SOL    HW163105   3.250   6.132   7.056 -0.4991 -0.7634 -0.2576
20050SOL    HW263106   3.385   6.196   7.085 -0.8998  0.0908 -0.2272
20051SOL     OW63107   6.918   8.306   1.559 -0.3372  0.3222 -0.2501
20051SOL    HW163108   6.866   8.350   1.627 -0.1679  0.7396 -0.3930
20051SOL    HW263109   7.009   8.326   1.581 -0.2589  0.0401 -0.3124
20052SOL     OW63110   4.412   7.094   6.174  0.1843 -0.3085 -0.1324
20052SOL    HW163111   4.489   7.139   6.139 -0.1426  0.0435 -0.4039
20052SOL    HW263112   4.443   7.005   6.190  0.7005 -0.1243 -0.0651
20053SOL     OW63113   5.849   2.844   6.831 -0.2384 -0.1170 -0.2442
20053SOL    HW163114   5.756   2.868   6.838 -1.0216 -2.6883 -0.7309
20053SOL    HW263115   5.895   2.927   6.827 -2.5533  1.2425 -0.3342
20054SOL     OW63116   8.063   3.621   2.941 -0.0467 -0.2990 -0.2185
20054SOL    HW163117   8.102   3.595   3.024  1.3580  1.9795 -0.0715
20054SOL    HW263118   7.972   3.640   2.963 -0.0872 -1.2058  0.4507
20055SOL     OW63119   9.242   4.825   4.681  0.2374  0.0867 -0.0057
20055SOL    HW163120   9.166   4.872   4.648  1.1790  0.4368 -1.8559
20055SOL    HW263121   9.283   4.788   4.602  1.1140 -1.3989  1.0996
20056SOL     OW63122   3.019   1.952   4.365 -0.2809 -0.2088  0.1922
20056SOL    HW163123   3.064   2.007   4.429 -0.4208  0.8014 -0.5487
20056SOL    HW263124   3.053   1.982   4.280 -1.7447  0.0251 -0.3365
20057SOL     OW63125   7.262   5.447   8.090  0.6784 -0.3257  0.4402
20057SOL    HW163126   7.207   5.412   8.021  0.9502 -0.1499  0.1301
20057SOL    HW263127   7.201   5.478   8.157  0.3854  0.4518 -0.1804
20058SOL     OW63128   4.789   8.230   7.170  0.1084 -0.5040  0.1777
20058SOL    HW163129   4.768   8.138   7.182 -0.2798 -0.3389  0.8666
20058SOL    HW263130   4.856   8.248   7.236  1.3216 -0.6575 -0.9909
20059SOL     OW63131   2.374   0.981   1.382  0.3929  0.3313  0.1688
20059SOL    HW163132   2.432   1.052   1.410  0.0807  0.0240  1.6551
20059SOL    HW263133   2.301   0.984   1.443 -1.3957  0.9420 -1.8776
20060SOL     OW63134   7.174   1.481   5.443  0.0135 -0.3384  0.7106
20060SOL    HW163135   7.242   1.467   5.509 -0.2094  0.9603  1.2567
20060SOL    HW263136   7.155   1.575   5.449 -0.7431 -0.3985 -0.4987
20061SOL     OW63137   7.239  10.147   9.458 -0.5869 -0.0207  0.0948
20061SOL    HW163138   7.290  10.067   9.465 -0.6401  0.0145  0.9469
20061SOL    HW263139   7.183  10.147   9.535 -0.0450  1.2199  0.5122
20062SOL     OW63140   0.742   2.333   8.230 -0.3653  0.6780  0.3322
20062SOL    HW163141   0.649   2.314   8.243 -0.5781  1.4264 -0.0175
20062SOL    HW263142   0.765   2.289   8.149 -0.2244 -0.0985  0.7800
20063SOL     OW63143   6.050   3.914   0.952 -0.2441 -0.1410 -0.2140
20063SOL    HW163144   6.075   3.831   0.991  1.7309  0.5903  0.1824
20063SOL    HW263145   5.955   3.907   0.940  0.2141 -3.8630 -3.6606
20064SOL     OW63146   1.245   7.287   2.160 -0.1796 -0.1988 -0.3758
20064SOL    HW163147   1.160   7.307   2.201 -1.4623 -1.9123 -2.0234
20064SOL    HW263148   1.239   7.194   2.137  2.1455 -0.3376 -0.6176
20065SOL     OW63149   8.231  10.392   2.704 -0.1596  0.4455  0.1552
20065SOL    HW163150   8.174  10.454   2.751 -1.0148 -0.7823  0.7757
20065SOL    HW263151   8.181  10.311   2.700  0.5697  0.0304 -1.4713
20066SOL     OW63152   9.465   2.490   4.216  0.4523  0.6904  0.0093
20066SOL    HW163153   9.475   2.450   4.302 -1.2328 -0.8428 -0.4419
20066SOL    HW263154   9.391   2.551   4.226 -1.2676 -1.1436 -0.8051
20067SOL     OW63155   6.167  10.325   2.525  0.6507  0.3689 -0.1213
20067SOL    HW163156   6.244  10.294   2.574 -0.5126 -0.8640  1.0433
20067SOL    HW263157   6.186  10.302   2.434  1.0725 -1.2753  0.3358
20068SOL     OW63158   3.576   1.377   3.576 -0.6142  0.1831 -0.1063
20068SOL    HW163159   3.481   1.386   3.582 -0.5923  0.6817 -0.4348
20068SOL    HW263160   3.608   1.467   3.578 -0.2344  0.0883 -1.2777
20069SOL     OW63161   4.554   6.109   0.290  0.2695 -0.6395 -0.4803
20069SOL    HW163162   4.631   6.162   0.306 -0.1918  0.2784 -1.1726
20069SOL    HW263163   4.483   6.156   0.334  0.4683 -2.8605  2.5083
20070SOL     OW63164   3.332   2.311   4.897 -0.3832  0.4730 -0.1579
20070SOL    HW163165   3.343   2.224   4.860 -0.5505  0.1323  0.5907
20070SOL    HW263166   3.417   2.332   4.936 -0.1677  0.8854 -0.8213
20071SOL     OW63167   9.575   7.022   0.508 -0.6847  0.0263 -0.7784
20071SOL    HW163168   9.605   7.025   0.417 -1.8330 -2.5095 -1.3457
20071SOL    HW263169   9.497   6.966   0.505 -1.4280  0.8453  1.6090
20072SOL     OW63170   0.882   8.663   4.682 -0.5174  0.2013  0.2611
20072SOL    HW163171   0.842   8.576   4.677  0.2335 -0.1060 -0.5417
20072SOL    HW263172   0.925   8.675   4.598  0.5812  0.7683  0.8828
20073SOL     OW63173   6.491   7.130   0.238  0.4847 -0.6997 -0.8912
20073SOL    HW163174   6.528   7.065   0.178  0.3032  0.1123 -1.9001
20073SOL    HW263175   6.411   7.089   0.271 -0.0192 -0.7243 -2.0805
20074SOL     OW63176   0.789   7.757   5.575  0.0558  0.6477  0.1343
20074SOL    HW163177   0.721   7.791   5.517  1.4595  0.3413 -1.7909
20074SOL    HW263178   0.766   7.665   5.587  0.9824  0.0958 -1.9204
20075SOL     OW63179   3.809   7.331   2.220  0.2106  0.7982 -0.2305
20075SOL    HW163180   3.726   7.378   2.212 -0.3507  0.0309  0.9003
20075SOL    HW263181   3.785   7.238   2.216  0.8806  0.5431  1.1282
20076SOL     OW63182   0.405   2.337   5.098  0.1510 -0.0251 -0.4644
20076SOL    HW163183   0.419   2.248   5.064 -0.5482 -0.7558  1.0565
20076SOL    HW263184   0.491   2.377   5.096  0.4859 -0.7491 -1.1512
20077SOL     OW63185   1.881  10.113   8.068 -0.5415  0.2035  0.2685
20077SOL    HW163186   1.903  10.139   7.979  1.7312 -0.8942  0.4221
20077SOL    HW263187   1.804  10.057   8.059  0.5509 -1.1464 -1.2480
20078SOL     OW63188   8.271   6.817   5.299  1.2003  0.1893 -0.0702
20078SOL    HW163189   8.367   6.810   5.298  1.1782 -0.9458  1.2639
20078SOL    HW263190   8.253   6.910   5.303  2.1809  0.5204 -2.0877
20079SOL     OW63191   8.068   2.631   1.788  0.1964 -0.0432 -0.4515
20079SOL    HW163192   8.036   2.713   1.826  0.5517 -0.5324  0.9678
20079SOL    HW263193   8.154   2.653   1.752  1.7323 -0.3436  2.6277
20080SOL     OW63194   1.398   7.020   4.600 -0.3686  0.4679  0.5031
20080SOL    HW163195   1.477   7.005   4.654  0.0327  0.9955  0.0708
20080SOL    HW263196   1.333   7.053   4.662  0.3586  1.9160  0.5333
20081SOL     OW63197   1.295   8.133   3.109  0.3075  0.1684 -0.0599
20081SOL    HW163198   1.260   8.047   3.132 -0.9206  0.8394  0.7155
20081SOL    HW263199   1.389   8.125   3.122  0.2352 -1.0976 -0.1671
20082SOL     OW63200   3.038  10.038   0.716 -0.0278  0.0778  0.1223
20082SOL    HW163201   3.132  10.018   0.717 -0.2560 -1.0456  0.4604
20082SOL    HW263202   3.009  10.025   0.806 -0.4380  0.8029  0.1028
20083SOL     OW63203   1.233   9.951   5.558  0.3772 -0.0106  0.4209
20083SOL    HW163204   1.272   9.884   5.501 -1.9098  1.0575 -2.6655
20083SOL    HW263205   1.164   9.905   5.605 -0.2071 -0.1663 -0.5673
20084SOL     OW63206   1.829   3.065   9.262  0.3358 -0.6429 -0.1377
20084SOL    HW163207   1.845   2.971   9.259 -3.4514 -1.5004  0.6272
20084SOL    HW263208   1.783   3.085   9.180  0.8164  0.4777 -0.1553
20085SOL     OW63209  10.371   4.273   1.493 -0.0006  0.2292 -0.8905
20085SOL    HW163210  10.395   4.282   1.400  0.4074 -1.7231 -1.0113
20085SOL    HW263211  10.277   4.290   1.495 -0.6506 -2.6651 -2.2167
20086SOL     OW63212   7.264   7.485   9.035 -0.2297 -0.3456  0.5974
20086SOL    HW163213   7.205   7.558   9.015  1.7344  1.1274 -0.1049
20086SOL    HW263214   7.253   7.424   8.962  0.1400  0.6031 -0.2654
20087SOL     OW63215   0.582   6.279   6.917  0.7883 -0.3705 -0.0506
20087SOL    HW163216   0.614   6.331   6.842  0.4720  1.6508  1.1318
20087SOL    HW263217   0.487   6.283   6.909  0.7530 -0.1482  0.4232
20088SOL     OW63218  10.579  10.496   1.436  0.6232 -0.9696  0.5069
20088SOL    HW163219  10.667  10.463   1.423  0.6398 -1.1580  1.0793
20088SOL    HW263220  10.521  10.427   1.405  0.6727 -0.0415 -1.8012
20089SOL     OW63221   0.712   0.007  10.244  0.0865  0.1005 -0.0740
20089SOL    HW163222   0.617  -0.003  10.244 -0.0517  1.1627 -1.2135
20089SOL    HW263223   0.744  -0.063  10.301 -1.3738 -0.2437  0.3574
20090SOL     OW63224   1.535   8.830   9.403 -0.0675  0.0347  0.1282
20090SOL    HW163225   1.568   8.870   9.323 -0.4471  0.1692  0.0362
20090SOL    HW263226   1.481   8.898   9.443 -1.7414 -0.7682 -0.6617
20091SOL     OW63227  10.186   0.522   5.330  0.0002 -0.3045 -0.6696
20091SOL    HW163228  10.257   0.544   5.390 -1.5203  0.2413  1.0459
20091SOL    HW263229  10.191   0.586   5.260  1.3730 -0.4898 -0.7540
20092SOL     OW63230   5.908   1.880   4.380  0.3344  0.3275  0.1319
20092SOL    HW163231   5.848   1.942   4.338  0.6792  0.2335 -0.5053
20092SOL    HW263232   5.972   1.859   4.313 -0.2117 -1.3160  0.0718
20093SOL     OW63233   8.994   3.219   6.049  0.2672 -0.4265 -0.2841
20093SOL    HW163234   9.026   3.294   6.100  0.2290 -0.4226 -0.2662
20093SOL    HW263235   8.942   3.258   5.979 -1.5107 -0.5160  0.9329
20094SOL     OW63236   0.930   3.208   4.523  0.3770 -0.6618 -0.4792
20094SOL    HW163237   0.917   3.219   4.618 -3.6188  0.6413 -0.9725
20094SOL    HW263238   0.996   3.139   4.516 -1.0022 -2.7069  3.3348
20095SOL     OW63239   5.637   2.204   3.125  0.4429 -0.2592  0.0277
20095SOL    HW163240   5.563   2.168   3.173  0.7698 -0.5514  0.3233
20095SOL    HW263241   5.619   2.297   3.119 -0.4922 -0.4863 -0.8834
20096SOL     OW63242   5.638   3.618   8.853  0.0976 -0.0322  0.5847
20096SOL    HW163243   5.721   3.662   8.872  0.0896  0.2826 -0.0848
20096SOL    HW263244   5.631   3.621   8.758 -0.7562  0.0791  0.6469
20097SOL     OW63245   6.586  10.002   3.753 -0.0370 -0.4074  0.1498
20097SOL    HW163246   6.586  10.065   3.682 -1.1668  0.5313  0.9389
20097SOL    HW263247   6.600  10.054   3.832  2.6892 -1.5806  0.5625
20098SOL     OW63248   5.624   2.862   6.391 -0.1101 -0.4142  0.2832
20098SOL    HW163249   5.566   2.862   6.315 -0.3718  0.5054  0.4722
20098SOL    HW263250   5.708   2.832   6.357  0.0175  0.8227 -0.5797
20099SOL     OW63251   3.879   3.770   0.650  0.3773  0.3536 -0.5490
20099SOL    HW163252   3.854   3.687   0.609  1.3968  0.4898 -1.5003
20099SOL    HW263253   3.882   3.832   0.578  2.8070  0.4764 -0.4320
20100SOL     OW63254   1.409   3.206   7.199 -0.1942  0.3110  0.3973
20100SOL    HW163255   1.458   3.161   7.268  0.0109  4.2126  3.1632
20100SOL    HW263256   1.476   3.235   7.137  0.1032 -0.1400  0.5022
20101SOL     OW63257   7.451   5.164   9.983  0.0305 -0.6110 -0.2213
20101SOL    HW163258   7.458   5.255   9.954 -0.0802 -0.5221  0.0293
20101SOL    HW263259   7.360   5.140   9.964 -0.5062 -0.0542  1.4734
20102SOL     OW63260   6.795   3.683   9.597 -0.1783 -0.0175 -0.5783
20102SOL    HW163261   6.810   3.777   9.591 -0.6596  0.0357 -1.0666
20102SOL    HW263262   6.883   3.645   9.601  0.0105  0.4699 -0.0638
20103SOL     OW63263   9.727   4.245   3.230 -0.0060 -0.4233 -0.5616
20103SOL    HW163264   9.701   4.319   3.285 -3.1839 -2.0307  0.3435
20103SOL    HW263265   9.785   4.193   3.285 -0.6342 -0.4021  0.1319
20104SOL     OW63266   4.776   7.867   7.872 -0.2525 -0.0921 -0.8748
20104SOL    HW163267   4.839   7.905   7.933  0.0536  0.4310 -1.5045
20104SOL    HW263268   4.825   7.800   7.824 -0.0359  0.6480 -1.7015
20105SOL     OW63269   7.721   2.163   5.368  0.3469  0.2101 -0.1026
20105SOL    HW163270   7.633   2.125   5.359  0.0304  1.3554 -3.1689
20105SOL    HW263271   7.742   2.152   5.460 -3.5532  1.0006  1.0821
20106SOL     OW63272   3.912   7.462  10.399  0.3652 -0.1701 -0.3316
20106SOL    HW163273   3.934   7.546  10.358  0.6477  0.5528  1.2246
20106SOL    HW263274   3.816   7.463  10.406  0.1261 -1.0700 -2.4456
20107SOL     OW63275   9.455   4.717   0.792  0.2140 -0.2318 -0.0879
20107SOL    HW163276   9.365   4.689   0.810  0.5362 -2.4616 -1.4664
20107SOL    HW263277   9.502   4.701   0.873 -0.3512 -0.4162  0.2091
20108SOL     OW63278  10.685   9.724   6.180 -0.3184 -0.2822  0.1204
20108SOL    HW163279  10.617   9.791   6.178 -0.6343 -0.6234 -1.9222
20108SOL    HW263280  10.764   9.769   6.150 -0.0569 -0.3413  0.7034
20109SOL     OW63281   0.526   0.679   7.185 -0.4467  0.2110 -0.0164
20109SOL    HW163282   0.477   0.755   7.217 -2.0233 -0.3106 -1.0573
20109SOL    HW263283   0.483   0.656   7.102 -0.5560 -2.3025  0.6436
20110SOL     OW63284   7.289   4.085   7.161  0.0808  0.4326 -0.0272
20110SOL    HW163285   7.378   4.055   7.141 -0.2534 -1.0581  0.5383
20110SOL    HW263286   7.263   4.032   7.237 -1.6808  0.0545 -0.8486
20111SOL     OW63287   5.396   9.700   9.073  0.2151 -0.3032  0.1066
20111SOL    HW163288   5.421   9.787   9.040  1.6108 -0.4004  0.8292
20111SOL    HW263289   5.432   9.639   9.008 -0.8094 -0.3607 -0.4268
20112SOL     OW63290   0.940   7.972   1.785 -0.6594  0.1184  0.0728
20112SOL    HW163291   0.911   7.968   1.876 -0.0851 -0.2652  0.2447
20112SOL    HW263292   0.862   7.999   1.736 -0.6534  1.5898  0.8240
20113SOL     OW63293   0.814   1.468   9.113 -0.3705 -0.3318  0.4969
20113SOL    HW163294   0.760   1.469   9.034 -0.7433  0.5930  0.7452
20113SOL    HW263295   0.882   1.404   9.094  0.9219  1.4933 -1.5389
20114SOL     OW63296   5.056   7.513   7.018 -0.1111  0.2705  0.1483
20114SOL    HW163297   5.075   7.492   7.110  1.4757  0.3935 -0.1077
20114SOL    HW263298   5.067   7.430   6.972 -2.0758 -0.0452  0.1972
20115SOL     OW63299   3.038   9.055   9.573  0.2047 -0.1398 -0.0827
20115SOL    HW163300   2.995   8.980   9.533 -2.5025  1.1930  0.0775
20115SOL    HW263301   3.050   9.030   9.665 -0.7806 -0.3554 -0.0067
20116SOL     OW63302   5.236   6.870   0.981  0.0663  0.0821  0.0812
20116SOL    HW163303   5.247   6.843   1.072  1.0946 -2.1829 -0.6640
20116SOL    HW263304   5.305   6.935   0.966  1.5748 -1.4197  0.2516
20117SOL     OW63305   3.575   5.002   4.792 -0.2460  0.2368  0.0272
20117SOL    HW163306   3.572   4.916   4.833 -4.0096  0.0528 -0.2931
20117SOL    HW263307   3.601   4.985   4.702  1.5119 -0.1748  0.5689
20118SOL     OW63308   0.202   6.824   3.181  0.8268  0.2699  0.0504
20118SOL    HW163309   0.239   6.911   3.194  1.9451  0.3196 -2.7539
20118SOL    HW263310   0.258   6.784   3.115  1.4991 -3.3439  2.4815
20119SOL     OW63311   2.313  10.509   8.324 -0.4881  0.7468 -0.4198
20119SOL    HW163312   2.393  10.546   8.361 -0.5717  0.6358 -0.1262
20119SOL    HW263313   2.269  10.467   8.398 -0.8038  0.7819 -0.5848
20120SOL     OW63314   9.627  10.671   0.392 -0.3386  0.7638  0.2047
20120SOL    HW163315   9.602  10.736   0.326  0.0931  0.3337 -0.3860
20120SOL    HW263316   9.683  10.609   0.345  1.0788  1.1758  1.2764
20121SOL     OW63317   4.856   4.499   1.899 -0.0758  0.2088 -0.1669
20121SOL    HW163318   4.829   4.583   1.864 -1.5603  0.6310  1.8034
20121SOL    HW263319   4.947   4.512   1.928 -0.6124  1.4784  1.0433
20122SOL     OW63320   9.993   3.830   1.685  0.2376 -0.1159  0.1759
20122SOL    HW163321  10.006   3.894   1.755 -1.1142  0.6635 -0.2403
20122SOL    HW263322   9.898   3.826   1.674  0.3887 -0.8493 -1.0412
20123SOL     OW63323   2.058   9.698  10.034 -0.2265  0.0840  0.3231
20123SOL    HW163324   2.140   9.745  10.048 -0.8785  1.5206 -0.4809
20123SOL    HW263325   2.018   9.695  10.121  0.1409  0.4071  0.5098
20124SOL     OW63326   0.571   8.271   6.161 -0.5680  0.4234 -0.2311
20124SOL    HW163327   0.589   8.234   6.074  0.3181 -0.7990  0.4428
20124SOL    HW263328   0.531   8.356   6.142 -1.3791 -0.2622 -1.8366
20125SOL     OW63329   1.043   7.503   2.029 -0.4471 -0.4646 -0.1110
20125SOL    HW163330   1.035   7.408   2.023 -0.0072 -0.4813 -0.4083
20125SOL    HW263331   1.108   7.527   1.964 -0.5495  0.0431 -0.0353
20126SOL     OW63332   3.885   1.386   3.267 -0.1257  0.0020  0.1745
20126SOL    HW163333   3.817   1.334   3.311  0.6924 -0.8375  0.4960
20126SOL    HW263334   3.923   1.439   3.337  1.8201 -2.0239  0.7830
20127SOL     OW63335   5.399   3.224   1.201 -0.3433  0.0256  0.0678
20127SOL    HW163336   5.486   3.245   1.233 -0.1207  0.9165 -1.0802
20127SOL    HW263337   5.368   3.305   1.159 -2.0360 -0.0194  1.1380
20128SOL     OW63338   5.025   6.601   0.072  0.5013 -0.0689  0.7063
20128SOL    HW163339   5.080   6.636   0.142  1.5891 -0.0058 -0.1564
20128SOL    HW263340   5.053   6.510   0.062  1.2138  0.2661 -0.4616
20129SOL     OW63341  10.601   9.804   9.383 -0.0124 -0.0318 -0.1740
20129SOL    HW163342  10.586   9.726   9.330 -1.2683  0.1178 -0.0739
20129SOL    HW263343  10.689   9.791   9.420 -0.1762 -1.3771 -0.1905
20130SOL     OW63344   2.473   1.557   8.798 -0.0571  0.0909  0.7950
20130SOL    HW163345   2.499   1.605   8.719 -1.8199  0.2761  0.2616
20130SOL    HW263346   2.554   1.540   8.845  1.0525 -0.0616 -1.0865
20131SOL     OW63347   5.263   2.553   0.833 -0.1516 -0.5887  0.1174
20131SOL    HW163348   5.183   2.573   0.785 -0.3311 -0.8791  0.2903
20131SOL    HW263349   5.289   2.466   0.801  0.5896 -0.1214 -0.5933
20132SOL     OW63350   4.919   4.140   8.764  0.0100  0.2252  0.0897
20132SOL    HW163351   4.864   4.066   8.789  0.7282 -0.8309 -1.3108
20132SOL    HW263352   5.009   4.111   8.782  0.2785  0.8977 -0.1261
20133SOL     OW63353   7.463  10.124   4.060 -0.0773 -0.2739 -0.0598
20133SOL    HW163354   7.550  10.097   4.030  0.2599 -0.4130  0.9989
20133SOL    HW263355   7.427  10.046   4.103  0.4626  0.5880  2.0733
20134SOL     OW63356   3.711   5.091   3.732  0.3759 -0.4704  0.6988
20134SOL    HW163357   3.616   5.107   3.733  0.0411 -2.2968  0.4968
20134SOL    HW263358   3.740   5.119   3.645 -0.0207 -0.2179  0.6451
20135SOL     OW63359   2.967   5.165   1.838 -0.2828  0.3857  0.3772
20135SOL    HW163360   2.889   5.128   1.879 -1.3480  0.3911 -1.5408
20135SOL    HW263361   3.029   5.177   1.910 -1.9713  0.1941  1.9128
20136SOL     OW63362   3.628   7.908   7.690 -0.7707 -0.3436  0.8351
20136SOL    HW163363   3.586   7.842   7.634 -1.7951 -0.2350  1.4516
20136SOL    HW263364   3.709   7.867   7.718 -0.5128 -0.6205 -0.2690
20137SOL     OW63365   4.773   2.975   4.281 -0.1480 -0.8063 -0.0428
20137SOL    HW163366   4.804   3.064   4.263  0.5525 -0.9387  0.4410
20137SOL    HW263367   4.694   2.966   4.229  0.6465 -0.4508 -1.3713
20138SOL     OW63368   6.212   0.457   6.613 -0.1276 -0.3578  0.0116
20138SOL    HW163369   6.213   0.520   6.541  1.1218 -1.9006 -1.4251
20138SOL    HW263370   6.121   0.425   6.615 -0.0388 -0.7859 -1.3826
20139SOL     OW63371   8.075   2.948   6.521  0.2619  0.2907 -0.3451
20139SOL    HW163372   8.001   2.974   6.466 -0.6975 -2.0011 -0.2662
20139SOL    HW263373   8.097   2.860   6.490 -0.1273 -0.9735  2.6641
20140SOL     OW63374   6.598   7.012   0.463 -0.1910  0.1549 -0.1944
20140SOL    HW163375   6.666   6.944   0.463 -0.7122 -0.3819  0.7297
20140SOL    HW263376   6.541   6.988   0.390 -0.2335 -0.2686 -0.0272
20141SOL     OW63377   7.066   0.422   5.120 -0.2926 -0.2435  0.2211
20141SOL    HW163378   7.073   0.333   5.085 -3.2277 -0.4945 -0.0020
20141SOL    HW263379   7.141   0.468   5.082 -0.0530 -2.0108 -1.6594
20142SOL     OW63380   6.233   5.196   0.721 -0.1590  0.3277  0.0761
20142SOL    HW163381   6.212   5.105   0.742  1.5379  0.0822  0.8293
20142SOL    HW263382   6.159   5.225   0.667 -0.0923 -1.9051 -1.3467
20143SOL     OW63383   5.780   2.517   4.266 -0.4846 -0.1767  0.3415
20143SOL    HW163384   5.784   2.421   4.270  0.1264 -0.1780 -0.1005
20143SOL    HW263385   5.805   2.539   4.177 -1.5334  0.3665  0.1623
20144SOL     OW63386   8.646  10.565   2.728  0.2040 -0.5088  0.5928
20144SOL    HW163387   8.727  10.544   2.681 -0.3020 -1.4217  0.0780
20144SOL    HW263388   8.579  10.571   2.659 -0.3792 -0.9522  1.1022
20145SOL     OW63389   8.832   7.657   2.955  0.2918  0.3088  0.0078
20145SOL    HW163390   8.822   7.575   2.907 -2.1771  0.2386  0.5232
20145SOL    HW263391   8.842   7.724   2.886  3.3709 -0.4175 -0.4103
20146SOL     OW63392   8.243   1.611   3.961 -0.0109  0.1598 -0.4841
20146SOL    HW163393   8.237   1.534   4.018  0.6837  0.6303  0.2547
20146SOL    HW263394   8.190   1.677   4.005  0.2282  0.4152 -0.5770
20147SOL     OW63395  10.631   0.301  10.414 -0.0610  0.0616  0.3413
20147SOL    HW163396  10.631   0.396  10.409  2.4483  0.0632 -1.4654
20147SOL    HW263397  10.669   0.281  10.499 -1.5943  0.6014  1.1972
20148SOL     OW63398   7.016   9.305   9.902  0.0900  0.4341 -0.8900
20148SOL    HW163399   7.051   9.349   9.825  0.8973  1.8156  0.2246
20148SOL    HW263400   7.007   9.374   9.968 -0.1683 -0.7756  0.4059
20149SOL     OW63401   2.798   3.936  10.101  0.2881  0.4434 -0.3637
20149SOL    HW163402   2.828   3.948  10.192  1.2822  1.5881 -0.8145
20149SOL    HW263403   2.839   3.854  10.073  1.2292  0.8683 -0.2591
20150SOL     OW63404   5.241   0.698   5.713  0.3797 -0.2559 -0.1091
20150SOL    HW163405   5.220   0.791   5.724 -2.7125 -0.8366 -0.1695
20150SOL    HW263406   5.281   0.673   5.796  0.8215  0.9918  0.0845
20151SOL     OW63407   4.963   1.605   2.492 -0.0924  0.3228 -0.3510
20151SOL    HW163408   5.039   1.554   2.521 -0.6008 -0.9512 -1.1734
20151SOL    HW263409   4.920   1.549   2.427 -1.8604  0.9007  0.2532
20152SOL     OW63410   9.140   3.346   3.679  0.3138 -0.1354  0.1784
20152SOL    HW163411   9.231   3.326   3.657  0.1343 -0.2846 -0.4498
20152SOL    HW263412   9.110   3.269   3.727  0.3701 -0.2980 -0.0464
20153SOL     OW63413   4.101   0.971   1.916  0.2603 -0.3685 -0.4937
20153SOL    HW163414   4.087   1.007   1.829 -1.1212  3.2095  0.9773
20153SOL    HW263415   4.196   0.966   1.926  0.4342 -0.3791 -2.0081
20154SOL     OW63416   3.331   1.044   7.256  0.2071  0.4717  0.7165
20154SOL    HW163417   3.345   1.118   7.314  1.7710 -0.0319  1.0218
20154SOL    HW263418   3.246   1.009   7.282  0.6172  0.6049  2.3056
20155SOL     OW63419   7.376   3.450   4.073  0.9768 -0.3436 -0.5055
20155SOL    HW163420   7.455   3.467   4.124  1.4649  0.4556 -1.4948
20155SOL    HW263421   7.406   3.399   3.998  0.3240 -1.2101 -0.1943
20156SOL     OW63422   6.339   0.938   7.776  0.3175 -0.0864 -0.1296
20156SOL    HW163423   6.263   0.987   7.807  1.1573  1.3131 -0.1601
20156SOL    HW263424   6.332   0.853   7.818  0.0956  0.8798  1.9285
20157SOL     OW63425   8.456   9.527   1.416 -0.7799 -0.2937 -0.4605
20157SOL    HW163426   8.474   9.542   1.323  1.1885 -1.1119 -0.2486
20157SOL    HW263427   8.375   9.576   1.432 -0.2178  1.3398 -2.1832
20158SOL     OW63428  10.229   2.462   0.215 -0.0911  0.3184 -0.2058
20158SOL    HW163429  10.149   2.429   0.175 -0.3659  0.4139  0.2610
20158SOL    HW263430  10.200   2.511   0.292  0.5149 -1.5440  1.2848
20159SOL     OW63431   0.282  10.688   8.232 -0.2712  0.3250 -0.1432
20159SOL    HW163432   0.285  10.592   8.234  2.4141  0.3308  2.1626
20159SOL    HW263433   0.348  10.712   8.167 -0.7039  0.6360 -0.4723
20160SOL     OW63434   3.385   2.292   2.669  0.3022  0.2427 -0.2217
20160SOL    HW163435   3.317   2.321   2.608  0.0714 -0.7901 -0.4648
20160SOL    HW263436   3.466   2.297   2.618  0.1888 -0.0661 -0.4324
20161SOL     OW63437   9.177   8.686   9.862 -0.0592  0.3581  0.4930
20161SOL    HW163438   9.233   8.609   9.868 -0.3794  0.0875  0.0718
20161SOL    HW263439   9.169   8.717   9.952  1.1529  0.6902  0.4955
20162SOL     OW63440   4.033   6.538   7.478 -0.0286  0.1361 -0.1341
20162SOL    HW163441   4.064   6.462   7.526  1.6063  1.4064  0.9282
20162SOL    HW263442   3.998   6.596   7.545 -2.5678 -0.1934 -1.0695
20163SOL     OW63443   0.152   6.210   3.672 -0.2549 -0.3391  0.0763
20163SOL    HW163444   0.193   6.157   3.605  0.7961  1.5188 -0.8300
20163SOL    HW263445   0.191   6.181   3.754  1.7342  0.2874 -0.6045
20164SOL     OW63446   4.079   0.917   3.343  0.5889  0.0914 -0.1902
20164SOL    HW163447   4.139   0.911   3.417  0.4126  2.7947  0.2793
20164SOL    HW263448   3.992   0.902   3.381  0.5326  1.1370  0.1349
20165SOL     OW63449   5.635   3.476   2.361 -0.3866 -0.1619 -0.6067
20165SOL    HW163450   5.592   3.501   2.442  0.1430  2.0039 -0.9428
20165SOL    HW263451   5.719   3.522   2.363  1.5983 -3.4814 -0.4316
20166SOL     OW63452   3.820   9.700   4.699 -0.3505 -0.1783  0.5011
20166SOL    HW163453   3.833   9.620   4.751  1.1535 -1.4254 -1.6286
20166SOL    HW263454   3.811   9.669   4.609  3.6989  2.0944 -0.9520
20167SOL     OW63455   2.563   2.546   3.310 -0.7952 -0.3462  0.4760
20167SOL    HW163456   2.485   2.533   3.256 -1.2694  1.8367  0.5741
20167SOL    HW263457   2.636   2.524   3.253 -1.3628  0.4560 -0.5869
20168SOL     OW63458   3.689   6.971   5.460  0.1067  0.2530 -0.1166
20168SOL    HW163459   3.733   7.053   5.482  0.0644  0.8718 -2.1003
20168SOL    HW263460   3.752   6.924   5.405 -0.7854  0.0954 -1.0376
20169SOL     OW63461   8.625   1.045   6.973  0.1682 -0.1624  0.3575
20169SOL    HW163462   8.658   0.961   7.007  1.6681 -0.5193 -1.7669
20169SOL    HW263463   8.532   1.031   6.960 -0.2256 -0.4227  2.9559
20170SOL     OW63464   7.127   5.408  10.250 -0.3217 -0.6096  0.5949
20170SOL    HW163465   7.158   5.423  10.160  2.4019 -1.3961  1.3059
20170SOL    HW263466   7.087   5.322  10.248 -0.8954 -0.3341  0.0002
20171SOL     OW63467   3.939   5.778   5.361 -0.1419 -0.6070  0.2426
20171SOL    HW163468   3.959   5.851   5.419 -1.3312  0.2082 -0.3410
20171SOL    HW263469   3.877   5.724   5.410 -2.9652  1.2741 -1.0039
20172SOL     OW63470   5.626   7.353   2.220  0.0835  0.4505  0.1673
20172SOL    HW163471   5.579   7.320   2.296  2.5586 -0.4642  1.3962
20172SOL    HW263472   5.652   7.442   2.246 -1.6786  1.3288 -0.8902
20173SOL     OW63473   8.227   4.611   3.014 -0.2479  0.0352 -0.0029
20173SOL    HW163474   8.141   4.654   3.015  0.3112  1.2245 -0.6625
20173SOL    HW263475   8.253   4.607   3.106 -0.3244  1.1325  0.0832
20174SOL     OW63476   5.819   3.978   6.726  0.3518 -0.2699 -0.6051
20174SOL    HW163477   5.831   4.032   6.648  0.4959  1.5825  0.6409
20174SOL    HW263478   5.885   3.909   6.718 -0.1878 -0.6059 -2.4972
20175SOL     OW63479   3.446   1.110   2.566 -0.0648 -0.2135 -1.2272
20175SOL    HW163480   3.368   1.155   2.599  0.5730 -0.7406  1.2347
20175SOL    HW263481   3.505   1.180   2.539 -0.0511  0.3581  0.1997
20176SOL     OW63482   7.005   7.234   8.169  0.3589  0.8572 -0.0397
20176SOL    HW163483   7.002   7.151   8.217  2.3139  0.6868 -0.1310
20176SOL    HW263484   7.041   7.297   8.232  0.7543  1.1730 -0.5767
20177SOL     OW63485   3.214  10.627   1.537 -0.0457 -0.2806  0.4097
20177SOL    HW163486   3.148  10.568   1.501 -0.8652  1.5561 -1.2891
20177SOL    HW263487   3.164  10.700   1.572  1.0229  0.4260  0.5071
20178SOL     OW63488   6.795   3.403   0.164  0.0983 -0.5720  0.0054
20178SOL    HW163489   6.771   3.366   0.079 -1.0354  0.8461 -0.3333
20178SOL    HW263490   6.796   3.328   0.223  0.2035 -1.4767 -1.1082
20179SOL     OW63491   3.476   3.397   3.018  0.3407 -0.1026  0.1695
20179SOL    HW163492   3.450   3.305   3.006 -2.3438  0.2159  2.4499
20179SOL    HW263493   3.531   3.396   3.095  0.9654  0.1437 -0.2668
20180SOL     OW63494   6.989   7.068   7.575  0.2032 -0.0471  0.0098
20180SOL    HW163495   7.009   7.094   7.665 -0.7969  0.0391  0.2282
20180SOL    HW263496   7.027   7.137   7.521  0.3353  0.1894  0.3996
20181SOL     OW63497   0.072   3.423   0.541  0.3887 -0.1338  0.5778
20181SOL    HW163498   0.087   3.500   0.595  1.0131 -0.9422  1.6115
20181SOL    HW263499   0.015   3.453   0.470  1.4522  1.5009  0.3716
20182SOL     OW63500   5.263   5.215   1.616 -0.3544  0.1916 -0.4785
20182SOL    HW163501   5.184   5.163   1.631 -1.0336  1.3659  0.1660
20182SOL    HW263502   5.260   5.238   1.523  0.2894 -1.4101 -0.9316
20183SOL     OW63503  10.338   0.639   2.551  0.6623 -0.2774  0.5995
20183SOL    HW163504  10.401   0.690   2.501 -0.0978  0.9407  0.8283
20183SOL    HW263505  10.339   0.679   2.638 -0.3923 -0.2350  0.6062
20184SOL     OW63506   1.364   2.648   7.004 -0.1720 -0.5002  0.0296
20184SOL    HW163507   1.336   2.736   7.028  0.0343 -0.4991  0.2629
20184SOL    HW263508   1.346   2.595   7.081 -0.2053 -0.6429 -0.0758
20185SOL     OW63509  10.021   7.908   2.874 -0.0620 -0.1643 -0.5964
20185SOL    HW163510  10.090   7.969   2.849 -0.2509 -0.1734 -1.1480
20185SOL    HW263511   9.962   7.959   2.929  2.0971 -0.9676  2.7468
20186SOL     OW63512   4.042   5.906   0.290  0.3805  0.8346 -0.1731
20186SOL    HW163513   4.114   5.869   0.239  1.1710  0.0249  1.4657
20186SOL    HW263514   4.075   5.991   0.319  0.0087  1.2082 -0.8357
20187SOL     OW63515   2.601   1.666   8.590  0.0773  0.0543 -0.3819
20187SOL    HW163516   2.584   1.760   8.584  1.2272  0.2806 -0.2626
20187SOL    HW263517   2.693   1.659   8.613 -0.5665 -1.0743  2.1766
20188SOL     OW63518   5.365   5.169   8.437 -0.2491 -0.1802  0.0995
20188SOL    HW163519   5.412   5.235   8.488  1.2285  0.2138 -1.6835
20188SOL    HW263520   5.284   5.214   8.409 -0.9157 -0.3005  1.7515
20189SOL     OW63521   8.877   5.238   2.872 -0.0764 -0.1144 -0.1404
20189SOL    HW163522   8.833   5.262   2.953 -1.0418 -1.7872 -0.1239
20189SOL    HW263523   8.807   5.231   2.807  0.0882 -2.7741 -0.1226
20190SOL     OW63524   2.499  10.010   6.619 -0.0738  0.3896  0.0495
20190SOL    HW163525   2.518  10.020   6.712 -3.1523  2.9911  0.5646
20190SOL    HW263526   2.569  10.057   6.574  0.8468  0.0395  1.1007
20191SOL     OW63527   1.991   4.110   1.206  0.2919 -0.0851 -0.4424
20191SOL    HW163528   1.940   4.059   1.143  0.4842 -1.1500  0.2424
20191SOL    HW263529   1.938   4.113   1.285 -0.1285  1.6019 -0.7567
20192SOL     OW63530   4.831  10.364   3.011  0.2996 -0.1850  0.7268
20192SOL    HW163531   4.916  10.388   2.974  0.2131 -1.9770 -0.8002
20192SOL    HW263532   4.846  10.361   3.105  0.9074  3.1769  0.8635
20193SOL     OW63533   2.243   3.007   5.134  0.0962 -0.2868 -0.0874
20193SOL    HW163534   2.277   3.086   5.175  0.3335 -0.0595 -0.6994
20193SOL    HW263535   2.158   3.033   5.099 -0.5204 -0.7344  1.0572
20194SOL     OW63536   5.223   3.928   5.885  0.0037  0.1372 -0.2748
20194SOL    HW163537   5.183   3.935   5.972  0.3925  1.2297 -0.1545
20194SOL    HW263538   5.180   3.996   5.834 -0.7395 -0.9792 -1.1749
20195SOL     OW63539   1.480   6.626   3.057  0.2692 -0.0567 -0.1755
20195SOL    HW163540   1.563   6.671   3.073  0.6771 -0.3133 -1.4054
20195SOL    HW263541   1.413   6.687   3.089  0.7808  1.7504 -2.2302
20196SOL     OW63542   5.263  10.053   1.693 -0.0580 -0.2384 -0.2500
20196SOL    HW163543   5.345  10.094   1.719 -1.2590  1.6577  0.7598
20196SOL    HW263544   5.198  10.092   1.751 -1.8722 -0.7658 -1.8514
20197SOL     OW63545   0.113   5.178   6.966 -0.3705  0.0748  0.4909
20197SOL    HW163546   0.124   5.100   7.021 -0.1471 -0.9857 -0.9896
20197SOL    HW263547   0.019   5.180   6.947 -0.3613  0.0951  0.4477
20198SOL     OW63548   0.154   4.640   9.929 -0.5411 -0.5278  0.0893
20198SOL    HW163549   0.112   4.725   9.911  1.0089  0.5062  1.0765
20198SOL    HW263550   0.225   4.636   9.864 -0.5106 -0.9992  0.1552
20199SOL     OW63551   6.893   5.551   3.386 -0.1740  0.0769  0.4707
20199SOL    HW163552   6.877   5.553   3.481  0.0832  0.7656  0.5081
20199SOL    HW263553   6.900   5.643   3.361  2.3941 -0.1055  0.2330
20200SOL     OW63554   6.900   7.182   5.430 -0.3489 -0.0930  0.1038
20200SOL    HW163555   6.847   7.156   5.506  1.6939 -0.7020  1.4382
20200SOL    HW263556   6.946   7.101   5.405  0.3897  0.5301 -0.5945
20201SOL     OW63557   5.186   3.737   8.278  0.3488  0.6562  0.6904
20201SOL    HW163558   5.281   3.727   8.277  0.2820 -0.0449  1.0896
20201SOL    HW263559   5.155   3.687   8.203  0.2303  0.1968  1.0452
20202SOL     OW63560   1.310   8.732   2.221  0.3837  0.5276 -0.3852
20202SOL    HW163561   1.256   8.735   2.300 -3.2753 -1.3090 -2.5614
20202SOL    HW263562   1.368   8.658   2.235 -1.6849 -1.1529 -0.1106
20203SOL     OW63563   8.968   7.679   8.051  0.4388 -0.4212 -0.1760
20203SOL    HW163564   8.893   7.714   8.099 -0.7707 -1.6459 -1.1013
20203SOL    HW263565   9.033   7.749   8.055 -0.3316  0.2697  1.5509
20204SOL     OW63566   2.935   5.251   0.541  0.0015 -0.1167  0.1814
20204SOL    HW163567   3.023   5.222   0.517 -0.3190  0.8441 -2.5448
20204SOL    HW263568   2.940   5.347   0.536 -1.1270 -0.0441  0.2601
20205SOL     OW63569   8.448   2.299   2.828 -0.0988 -0.1563  0.1302
20205SOL    HW163570   8.528   2.248   2.842  1.4057  1.9918 -0.1205
20205SOL    HW263571   8.451   2.366   2.896  0.1916  2.0767 -1.9850
20206SOL     OW63572   8.548   4.358   8.724 -0.3590  0.1865  0.4081
20206SOL    HW163573   8.607   4.429   8.752 -0.6207  0.0697  1.2903
20206SOL    HW263574   8.489   4.399   8.662  0.4695  0.3744 -0.2791
20207SOL     OW63575   4.498   3.543   6.117 -0.8895  0.1549  0.2626
20207SOL    HW163576   4.411   3.535   6.156 -0.5731 -2.3469  0.6118
20207SOL    HW263577   4.482   3.541   6.023 -1.2012 -0.7051  0.3254
20208SOL     OW63578   4.348   2.175   7.749  0.0415  0.1338 -0.2672
20208SOL    HW163579   4.401   2.253   7.733 -0.3277  0.3521 -0.4406
20208SOL    HW263580   4.322   2.145   7.662 -0.1394  0.0417 -0.1811
20209SOL     OW63581   2.278   4.889   3.275 -0.0891 -0.2028 -0.1509
20209SOL    HW163582   2.191   4.850   3.282 -0.5178  0.8358  0.6180
20209SOL    HW263583   2.267   4.963   3.216  0.5370 -0.7374 -0.9571
20210SOL     OW63584   1.383   9.400   9.620  0.2220  0.0567  0.0990
20210SOL    HW163585   1.449   9.402   9.551 -0.7249 -0.7559 -0.8603
20210SOL    HW263586   1.367   9.492   9.640 -0.9843  0.4645 -2.2891
20211SOL     OW63587  10.140   7.236   4.644 -0.3248  0.3021 -0.3225
20211SOL    HW163588  10.194   7.280   4.578 -0.4394  2.4165  0.8985
20211SOL    HW263589  10.051   7.245   4.612 -0.3615  1.1453 -0.0031
20212SOL     OW63590   0.383   6.238   8.239  0.0313  0.2913  0.1086
20212SOL    HW163591   0.394   6.278   8.153  0.0921  0.2629  0.1025
20212SOL    HW263592   0.291   6.250   8.260  0.2633  1.3261  0.5588
20213SOL     OW63593   4.255   0.643   8.605 -0.0775  0.5871  0.2659
20213SOL    HW163594   4.230   0.730   8.637  0.2135  1.1988 -1.1234
20213SOL    HW263595   4.184   0.617   8.546  0.1706  0.1748  0.1420
20214SOL     OW63596   6.665   6.441   1.215 -0.5482  0.0900 -0.2157
20214SOL    HW163597   6.751   6.475   1.241 -0.2371 -0.7004 -0.2010
20214SOL    HW263598   6.685   6.369   1.156 -1.2002 -0.3135  0.0538
20215SOL     OW63599   1.515   4.229   8.621 -0.0328  0.0032 -0.6444
20215SOL    HW163600   1.482   4.261   8.537 -1.1311 -0.4918 -0.4184
20215SOL    HW263601   1.608   4.253   8.621 -0.1496  0.5200 -1.7459
20216SOL     OW63602   8.931   6.046   6.879  0.5575  0.0085 -0.0138
20216SOL    HW163603   9.007   5.994   6.851  1.2017  2.0381 -2.3124
20216SOL    HW263604   8.926   6.118   6.816 -1.7625  1.3904  1.6012
20217SOL     OW63605   7.659   8.149   3.383 -0.4874 -0.2464 -0.1676
20217SOL    HW163606   7.642   8.239   3.355 -0.1642  0.3403  1.3702
20217SOL    HW263607   7.611   8.095   3.321 -1.3533  1.0240 -0.6590
20218SOL     OW63608   8.356   1.838   0.097 -0.1812 -0.1038 -0.0569
20218SOL    HW163609   8.379   1.886   0.176  0.0376  3.4229 -2.0845
20218SOL    HW263610   8.271   1.873   0.071 -0.0724 -0.8720 -1.5810
20219SOL     OW63611  10.405   0.716   5.901  0.1136 -0.9356  0.1947
20219SOL    HW163612  10.437   0.643   5.847 -1.7097 -1.7210  0.1056
20219SOL    HW263613  10.344   0.763   5.844  0.6516  0.2131  0.5254
20220SOL     OW63614   7.854   8.685   4.748  0.5006  0.1944  0.0703
20220SOL    HW163615   7.855   8.591   4.765  0.7397  0.0453 -0.7122
20220SOL    HW263616   7.944   8.714   4.763  0.5855  0.1653 -0.3724
20221SOL     OW63617   4.095   9.190   5.594 -0.7513  0.3554 -0.3837
20221SOL    HW163618   4.045   9.260   5.636 -0.5096  0.4931 -0.3275
20221SOL    HW263619   4.029   9.142   5.543 -1.0730  0.0928  0.2641
20222SOL     OW63620   1.483   1.046   1.372  0.4392  0.0692  0.6386
20222SOL    HW163621   1.525   1.130   1.354  0.7379 -0.4797 -1.4089
20222SOL    HW263622   1.400   1.049   1.323 -0.3182 -0.2278  1.8487
20223SOL     OW63623   6.405   7.224   9.867  0.2393  0.1906 -0.0756
20223SOL    HW163624   6.438   7.314   9.872  0.5872  0.0825 -0.4418
20223SOL    HW263625   6.367   7.217   9.780  0.9451 -0.2685 -0.3517
20224SOL     OW63626   0.885   9.146   3.045 -0.6012 -0.3983 -0.0494
20224SOL    HW163627   0.816   9.092   3.086 -1.8544  0.1678 -1.3396
20224SOL    HW263628   0.928   9.086   2.984 -0.3276 -0.5966  0.3324
20225SOL     OW63629   4.184   5.458   8.602 -0.5730 -0.3036  0.2537
20225SOL    HW163630   4.104   5.509   8.593 -0.3204  0.1142  0.3323
20225SOL    HW263631   4.199   5.420   8.516 -1.4968 -1.3617  0.5434
20226SOL     OW63632  10.561   0.288   8.164  0.1539  0.1341 -0.4463
20226SOL    HW163633  10.625   0.219   8.183 -1.2988 -1.0053  0.5003
20226SOL    HW263634  10.548   0.282   8.069  0.4821 -0.5118 -0.4630
20227SOL     OW63635   5.123   6.236   3.599  0.1589  0.4150 -0.3040
20227SOL    HW163636   5.183   6.280   3.538 -0.2714  1.8144  0.2300
20227SOL    HW263637   5.109   6.150   3.561  1.8109  0.3620 -0.9034
20228SOL     OW63638   2.795   8.644   3.261  0.0840  0.0031 -0.1026
20228SOL    HW163639   2.766   8.681   3.345 -2.4039  0.3560 -1.0220
20228SOL    HW263640   2.878   8.688   3.243 -0.5958  1.8644  0.9738
20229SOL     OW63641   4.532   3.470   6.495 -0.1266 -0.3572  0.6046
20229SOL    HW163642   4.566   3.471   6.406 -0.8468 -1.6606  0.2740
20229SOL    HW263643   4.560   3.552   6.534  1.3727 -0.3770 -0.3833
20230SOL     OW63644   5.313   7.423   2.359  0.3732 -0.0436  0.0258
20230SOL    HW163645   5.381   7.439   2.425  0.3629 -2.6741  0.8174
20230SOL    HW263646   5.333   7.335   2.326 -2.2597 -0.6539 -0.1625
20231SOL     OW63647   9.207   5.967   8.156 -0.1452 -0.7285 -0.1073
20231SOL    HW163648   9.132   5.911   8.176 -1.6798  1.2495 -0.0532
20231SOL    HW263649   9.284   5.911   8.171 -1.5505 -2.3953  1.2025
20232SOL     OW63650   9.775   7.129   4.777 -0.6051  0.1490  0.3015
20232SOL    HW163651   9.787   7.099   4.867 -0.0087 -2.3849 -0.5391
20232SOL    HW263652   9.753   7.050   4.728 -1.8477  1.6007 -1.6588
20233SOL     OW63653   3.524   6.108   0.832 -0.1151  0.2082  0.2075
20233SOL    HW163654   3.558   6.158   0.907 -0.8567  0.7436  0.2050
20233SOL    HW263655   3.430   6.124   0.834 -0.4849 -1.7656  0.6107
20234SOL     OW63656   2.380   0.202   6.453  0.0606  0.0494  0.2020
20234SOL    HW163657   2.397   0.282   6.402  0.8743  0.4623  1.1080
20234SOL    HW263658   2.359   0.136   6.387  1.7229  0.4107 -0.7385
20235SOL     OW63659   6.855   5.036   2.476 -0.5461  0.4761 -0.4876
20235SOL    HW163660   6.762   5.045   2.455 -0.8180  3.3457  1.3507
20235SOL    HW263661   6.894   5.118   2.447  1.8438 -1.3010 -2.7145
20236SOL     OW63662   5.545   1.191  10.606  0.0304 -0.1784 -0.0366
20236SOL    HW163663   5.491   1.179  10.685 -0.0896 -0.4636 -0.1602
20236SOL    HW263664   5.502   1.261  10.558  0.4511  0.4235  0.4511
20237SOL     OW63665   5.113   6.199   6.925  0.1161  0.0432  0.1042
20237SOL    HW163666   5.087   6.150   7.003  1.7477 -1.9428 -0.5244
20237SOL    HW263667   5.141   6.132   6.863 -1.1186  1.5669 -2.2300
20238SOL     OW63668   2.079   4.538   1.605  0.3830 -0.1384  0.7648
20238SOL    HW163669   2.068   4.630   1.583  0.9842 -0.1316  0.4499
20238SOL    HW263670   2.001   4.494   1.570 -0.2001  0.3307  1.4568
20239SOL     OW63671   2.287   7.260   7.413  0.3683 -0.2512 -0.0068
20239SOL    HW163672   2.225   7.276   7.341  1.7789  0.4062 -1.1304
20239SOL    HW263673   2.364   7.224   7.370  0.8477 -0.8737  1.3415
20240SOL     OW63674   1.697   2.326   6.335  0.3838  0.1478  0.4242
20240SOL    HW163675   1.643   2.261   6.289  1.0495  0.9168 -1.5615
20240SOL    HW263676   1.786   2.293   6.326  0.5811  0.6097  0.6683
20241SOL     OW63677  10.307   4.218   2.810 -1.0017 -0.1235 -0.2453
20241SOL    HW163678  10.219   4.179   2.809 -1.1708  0.2484 -0.8503
20241SOL    HW263679  10.294   4.305   2.847 -1.1994  0.5822 -1.8877
20242SOL     OW63680   6.776   4.926   1.608  0.2722  0.0517 -0.4524
20242SOL    HW163681   6.858   4.885   1.633 -0.0182  0.2284  0.8431
20242SOL    HW263682   6.732   4.862   1.553  0.3207 -0.9337  0.6225
20243SOL     OW63683   7.013   6.132   6.647  0.5856 -0.2089 -1.1752
20243SOL    HW163684   7.075   6.136   6.575  0.9048 -1.8219 -1.0393
20243SOL    HW263685   6.937   6.182   6.617  1.6152  1.1210 -1.6584
20244SOL     OW63686   2.584   2.364   1.941  0.1847  0.0578 -0.2405
20244SOL    HW163687   2.542   2.287   1.902  0.2678 -0.0080 -0.1985
20244SOL    HW263688   2.635   2.402   1.870 -1.4472  1.2353 -0.8607
20245SOL     OW63689   4.609   8.865  10.254 -0.2275  0.2868 -0.0364
20245SOL    HW163690   4.583   8.919  10.329  2.3917  2.3606 -0.4642
20245SOL    HW263691   4.678   8.808  10.288 -0.2944 -0.0527 -0.4575
20246SOL     OW63692   3.509   2.943   7.579 -0.4084 -0.7523 -0.5392
20246SOL    HW163693   3.413   2.947   7.579 -0.6549 -3.6153 -2.8079
20246SOL    HW263694   3.536   3.010   7.517 -0.7413  1.0889  1.1801
20247SOL     OW63695   3.468   0.636   4.285 -0.4712 -0.1923 -0.5308
20247SOL    HW163696   3.505   0.572   4.224 -0.2825  0.4738 -1.1302
20247SOL    HW263697   3.379   0.650   4.253 -0.1597  0.6542 -1.0786
20248SOL     OW63698   7.061   4.891  10.550 -0.0964  0.3345  0.4971
20248SOL    HW163699   6.966   4.903  10.541 -0.3068 -0.8752  0.9887
20248SOL    HW263700   7.071   4.834  10.626  1.0270  0.3843  0.3997
20249SOL     OW63701   3.299   0.249   4.277 -0.0528  0.0182 -0.0156
20249SOL    HW163702   3.261   0.196   4.347  0.4558 -0.2205  0.0840
20249SOL    HW263703   3.270   0.206   4.197 -0.3613  0.0992  0.0493
20250SOL     OW63704   9.363   1.658   7.295 -0.5768  0.0854 -0.0992
20250SOL    HW163705   9.278   1.666   7.339 -0.5285  0.6260 -0.1029
20250SOL    HW263706   9.407   1.587   7.341 -0.1840  1.1978  1.2927
20251SOL     OW63707   9.305   5.015   7.178  0.2267 -0.3866 -0.1067
20251SOL    HW163708   9.215   5.025   7.207  0.0832  0.5480 -0.8180
20251SOL    HW263709   9.320   5.090   7.120  1.9067  0.2635  1.1052
20252SOL     OW63710   1.351   9.232   0.846  0.2042  0.0260 -0.1202
20252SOL    HW163711   1.291   9.179   0.794  0.1635 -0.3666  0.3169
20252SOL    HW263712   1.420   9.258   0.785  0.4622 -0.9140 -0.2404
20253SOL     OW63713   3.052   0.104   9.414  0.2744  0.1281 -0.2652
20253SOL    HW163714   3.141   0.088   9.444  0.1543 -0.6350 -0.2926
20253SOL    HW263715   3.048   0.198   9.398  1.4532 -0.0001 -1.4893
20254SOL     OW63716  10.468   7.443   2.615  0.2682  0.2504 -0.0218
20254SOL    HW163717  10.473   7.538   2.631  1.8547 -0.1121  2.0043
20254SOL    HW263718  10.460   7.405   2.702 -2.7827 -1.4440 -0.9024
20255SOL     OW63719   2.656   2.568   8.977  0.0875  0.0065 -0.3296
20255SOL    HW163720   2.736   2.557   9.028  0.1079  1.9191  0.1392
20255SOL    HW263721   2.637   2.481   8.943  1.4923 -0.8039  0.8385
20256SOL     OW63722   2.516   5.961   3.388 -0.6068  0.2670  0.6690
20256SOL    HW163723   2.423   5.960   3.412 -0.9732 -4.1542 -0.2106
20256SOL    HW263724   2.556   5.896   3.445  1.2739 -0.2734 -1.1571
20257SOL     OW63725   5.848   7.211   5.630 -0.0416 -0.2432 -0.2183
20257SOL    HW163726   5.855   7.140   5.695  1.1539 -0.9069 -1.0273
20257SOL    HW263727   5.920   7.270   5.651 -0.1790 -0.0064 -0.4120
20258SOL     OW63728   4.427   5.552   5.914  0.0316 -0.1567 -0.3863
20258SOL    HW163729   4.357   5.565   5.978 -1.2984 -2.1619 -1.3479
20258SOL    HW263730   4.458   5.640   5.894 -0.6034  0.6287  1.7839
20259SOL     OW63731   9.644   8.545   9.338 -0.0337  0.7171  0.4252
20259SOL    HW163732   9.666   8.542   9.431  0.7125  1.1434  0.2712
20259SOL    HW263733   9.677   8.631   9.309 -0.4261  0.6631 -0.1872
20260SOL     OW63734   0.883   2.991   5.135  0.3109 -0.1577 -0.3175
20260SOL    HW163735   0.954   3.026   5.189 -0.7815 -1.0515  1.8530
20260SOL    HW263736   0.823   2.951   5.198 -2.5763  1.2891 -1.9423
20261SOL     OW63737   6.712   9.951   1.474  0.1358 -0.2719 -0.3048
20261SOL    HW163738   6.659  10.015   1.522 -0.2788  0.4525 -1.6700
20261SOL    HW263739   6.655   9.874   1.469 -0.0725 -0.1294 -0.1966
20262SOL     OW63740   0.710   6.203   0.478  0.1443  0.4120 -0.2196
20262SOL    HW163741   0.669   6.211   0.392 -0.2875 -2.3555 -0.3642
20262SOL    HW263742   0.737   6.111   0.484  1.9647  0.9679  1.8360
20263SOL     OW63743   3.536   2.371   3.404 -0.0235 -0.1988 -0.0041
20263SOL    HW163744   3.447   2.341   3.418  0.6262 -2.1704  0.2271
20263SOL    HW263745   3.546   2.375   3.309 -0.2730 -0.1876 -0.0303
20264SOL     OW63746   0.450   4.433   8.174  0.1359  0.0688  0.3963
20264SOL    HW163747   0.361   4.429   8.140  0.7381 -0.2418 -1.2563
20264SOL    HW263748   0.466   4.526   8.189 -0.8336  0.0338  1.8203
20265SOL     OW63749   7.158   1.171   2.214  0.3485  0.0788  0.4709
20265SOL    HW163750   7.084   1.158   2.155  0.1291  0.5215  0.6403
20265SOL    HW263751   7.129   1.241   2.274  0.7488 -0.0250  0.7925
20266SOL     OW63752   7.404  10.554   2.778  0.5429 -0.4227 -0.1285
20266SOL    HW163753   7.435  10.613   2.709 -0.3419 -0.2210 -0.3696
20266SOL    HW263754   7.311  10.543   2.759  0.5620 -1.3918  0.2879
20267SOL     OW63755   1.033   0.197   1.504  0.2693  0.4054 -0.4876
20267SOL    HW163756   1.018   0.107   1.534  0.7926 -0.2198 -1.9879
20267SOL    HW263757   1.081   0.238   1.576 -0.8449 -0.1976  0.6349
20268SOL     OW63758   3.822   1.163   1.730 -0.4215 -0.0766  0.7362
20268SOL    HW163759   3.894   1.114   1.691 -1.8346 -1.1423 -0.6076
20268SOL    HW263760   3.764   1.185   1.657 -1.6955  0.3888  1.8345
20269SOL     OW63761   8.498   8.592   9.248 -0.2224 -0.6478 -0.3463
20269SOL    HW163762   8.439   8.667   9.255  0.6683  0.0530 -0.2251
20269SOL    HW263763   8.503   8.573   9.154 -0.6963 -0.7584 -0.3500
20270SOL     OW63764   4.791  10.287   1.434  0.5719 -0.4824  0.2038
20270SOL    HW163765   4.782  10.283   1.530 -1.6531 -1.3274  0.0224
20270SOL    HW263766   4.742  10.210   1.403 -0.9438  1.1427 -1.6984
20271SOL     OW63767  10.635   9.497   3.616 -0.4941 -0.1702 -0.2224
20271SOL    HW163768  10.670   9.523   3.530  1.9938  0.0920  0.7831
20271SOL    HW263769  10.577   9.569   3.640  0.2141  0.6643 -0.9139
20272SOL     OW63770   2.535   1.498   9.718  0.8546  0.1255  0.7524
20272SOL    HW163771   2.602   1.433   9.736  0.7014 -0.0165  0.8171
20272SOL    HW263772   2.455   1.447   9.703  1.1733  0.1486 -1.4057
20273SOL     OW63773  10.165   2.683   3.436 -0.0968  0.0256  0.1415
20273SOL    HW163774  10.250   2.660   3.473  0.1059  1.9178  0.9843
20273SOL    HW263775  10.184   2.703   3.344  0.2398 -0.2563  0.1466
20274SOL     OW63776   1.482   6.541   2.495 -0.2109 -0.3198 -0.4802
20274SOL    HW163777   1.389   6.553   2.475 -0.2910  1.3726  0.6875
20274SOL    HW263778   1.496   6.592   2.574  1.3352 -2.0444  0.4298
20275SOL     OW63779   5.227   2.763   8.779  0.5415  0.3348  0.5610
20275SOL    HW163780   5.225   2.843   8.831  0.0426  0.7022 -0.0149
20275SOL    HW263781   5.235   2.792   8.688 -0.8397 -0.2090  0.2363
20276SOL     OW63782   3.683   8.169   9.303 -0.4274  0.0408  0.0679
20276SOL    HW163783   3.714   8.152   9.391 -1.3939 -1.1515  0.2012
20276SOL    HW263784   3.746   8.231   9.267  0.0010  0.5193  1.5705
20277SOL     OW63785   6.256   2.880   0.528  0.5295 -0.5049  0.2424
20277SOL    HW163786   6.197   2.818   0.571  0.4865 -0.8517 -0.3017
20277SOL    HW263787   6.307   2.918   0.599 -2.1881  1.8618  1.1039
20278SOL     OW63788   9.588   5.796   2.170 -0.4027  0.2852 -0.2310
20278SOL    HW163789   9.649   5.726   2.195  0.1961  0.9211  0.1097
20278SOL    HW263790   9.519   5.792   2.237 -1.0252 -0.7630 -0.8984
20279SOL     OW63791   1.983   6.663   9.802 -0.4673 -0.1050 -0.4771
20279SOL    HW163792   2.017   6.740   9.756 -0.8882 -0.2420 -1.0284
20279SOL    HW263793   1.890   6.660   9.778 -0.1096 -1.8006 -1.9509
20280SOL     OW63794   4.561   8.278   0.290  0.0585  0.2082 -0.3703
20280SOL    HW163795   4.533   8.220   0.219 -1.0188 -0.7185  0.7602
20280SOL    HW263796   4.607   8.221   0.351 -1.5036  0.3527  1.0409
20281SOL     OW63797   6.172   2.555   0.478  0.1989  0.3597 -0.4718
20281SOL    HW163798   6.125   2.614   0.536  0.9209  0.2938  0.1820
20281SOL    HW263799   6.264   2.579   0.487  0.5475 -1.0857  0.0853
20282SOL     OW63800   6.686   4.259   2.027  0.5999 -0.2365 -0.3122
20282SOL    HW163801   6.616   4.303   1.979  0.5561  0.5485  0.4596
20282SOL    HW263802   6.646   4.178   2.058  0.1778 -0.0300 -0.3076
20283SOL     OW63803   6.351   7.581   3.379  0.4455 -0.1039 -0.0809
20283SOL    HW163804   6.265   7.540   3.366 -0.0130  0.4576  1.0451
20283SOL    HW263805   6.408   7.535   3.318  0.0138 -2.6278  1.2721
20284SOL     OW63806   2.705   6.005   1.322  0.6238 -0.0604  0.2033
20284SOL    HW163807   2.680   5.933   1.380  0.7606  0.1705  0.5562
20284SOL    HW263808   2.626   6.027   1.275  1.2021 -2.2992 -1.9929
20285SOL     OW63809   4.118   6.700   3.275 -0.0644 -0.0303 -0.4550
20285SOL    HW163810   4.041   6.726   3.326 -1.2858 -0.2773 -2.0951
20285SOL    HW263811   4.192   6.737   3.323 -1.3270  1.6426  0.3082
20286SOL     OW63812   8.583   2.435   1.109 -0.5130 -0.4658 -0.0745
20286SOL    HW163813   8.490   2.437   1.088 -0.5567  2.2268  0.0766
20286SOL    HW263814   8.591   2.368   1.177 -2.4835 -0.1578  0.5183
20287SOL     OW63815   6.888   7.744   4.257  0.0824  0.5285  0.3010
20287SOL    HW163816   6.835   7.817   4.288  0.3506  0.2765  1.4016
20287SOL    HW263817   6.825   7.677   4.232 -0.1333  0.3269  1.3626
20288SOL     OW63818   1.147   8.357   0.117  0.0214  0.5555  0.0915
20288SOL    HW163819   1.122   8.309   0.038  0.1678 -0.9067  0.8950
20288SOL    HW263820   1.241   8.341   0.126  0.1615  1.3822  0.1371
20289SOL     OW63821   5.311   2.869   1.537 -0.3864 -0.1509 -0.5539
20289SOL    HW163822   5.241   2.804   1.529  0.2495 -1.0315  0.7200
20289SOL    HW263823   5.275   2.936   1.596 -0.2242 -0.5262 -0.0219
20290SOL     OW63824   0.721   4.645   1.357  0.3593  0.1682  0.0229
20290SOL    HW163825   0.760   4.591   1.289  0.6698 -0.4802  0.6962
20290SOL    HW263826   0.638   4.601   1.378  0.9443 -0.4674  1.0692
20291SOL     OW63827   5.400   3.112   9.178 -0.4634  0.0517 -0.1206
20291SOL    HW163828   5.491   3.125   9.151 -0.0341  0.9962  1.6216
20291SOL    HW263829   5.370   3.199   9.202 -1.7405 -0.3123 -0.3318
20292SOL     OW63830   0.748   5.398   5.079  0.1534  0.2891 -0.2573
20292SOL    HW163831   0.813   5.464   5.053  0.1991  0.1704 -0.4496
20292SOL    HW263832   0.672   5.449   5.107  0.4112  0.4324  0.1850
20293SOL     OW63833   7.175   6.816   9.690 -0.3288 -0.0215 -0.4689
20293SOL    HW163834   7.110   6.747   9.684 -1.6599  1.1252  0.2528
20293SOL    HW263835   7.126   6.897   9.672  1.0434  0.8043 -0.6321
20294SOL     OW63836   3.297   3.056  10.285  0.3544  0.0372  0.7548
20294SOL    HW163837   3.207   3.053  10.318 -0.4503 -1.1944 -1.3073
20294SOL    HW263838   3.352   3.055  10.363 -1.4121  0.7319  2.0647
20295SOL     OW63839   6.301   7.127   3.593  0.2778  0.1078  0.0531
20295SOL    HW163840   6.278   7.181   3.517 -0.4925  0.3709  0.4686
20295SOL    HW263841   6.311   7.039   3.558  0.4049  0.3152 -0.4368
20296SOL     OW63842   0.997   1.749   6.743  0.0335  0.4159  0.6726
20296SOL    HW163843   0.938   1.804   6.692  0.2129 -0.5237 -0.5859
20296SOL    HW263844   1.065   1.722   6.681 -0.0539 -1.2229  1.2448
20297SOL     OW63845   7.835   5.139   4.637  0.3991 -0.2157  0.5150
20297SOL    HW163846   7.793   5.056   4.663  0.3456 -0.1769  0.5548
20297SOL    HW263847   7.781   5.206   4.679  1.4209 -0.2213  1.8891
20298SOL     OW63848   3.221   0.255   4.771 -0.1316  0.1885  0.0813
20298SOL    HW163849   3.158   0.184   4.757  2.4615 -1.9647 -1.5159
20298SOL    HW263850   3.218   0.271   4.866 -2.7230 -0.0669  0.1311
20299SOL     OW63851  10.685   7.649   2.447 -0.0707  0.2049  0.5936
20299SOL    HW163852  10.592   7.663   2.462 -0.7346 -0.3185 -2.3288
20299SOL    HW263853  10.707   7.709   2.376  1.2062 -1.3210 -0.3826
20300SOL     OW63854   8.159   7.823   4.370 -0.1237  0.0392  0.1881
20300SOL    HW163855   8.251   7.825   4.345 -0.0300  1.0381  0.5369
20300SOL    HW263856   8.141   7.913   4.400 -1.4622  0.1191 -0.7671
20301SOL     OW63857   5.952   0.377   8.918 -0.2537 -0.0973 -0.7562
20301SOL    HW163858   5.906   0.447   8.872  0.8585 -0.8000 -3.1168
20301SOL    HW263859   5.997   0.328   8.848  0.0736 -2.3645  0.9198
20302SOL     OW63860   4.582   1.531   6.487  0.4996 -0.3446  0.3815
20302SOL    HW163861   4.669   1.520   6.525  0.5568  2.6979  1.4229
20302SOL    HW263862   4.522   1.524   6.562  0.0752 -0.0150  0.0800
20303SOL     OW63863   3.367   6.412   6.213 -0.6476 -0.1801  0.0502
20303SOL    HW163864   3.390   6.319   6.200 -2.2114 -0.5368 -0.3858
20303SOL    HW263865   3.322   6.414   6.297 -1.0859  0.0841 -0.1868
20304SOL     OW63866   5.860   7.375   9.644 -0.2915 -0.2659  1.0695
20304SOL    HW163867   5.842   7.451   9.589  0.4337 -0.1641  0.9596
20304SOL    HW263868   5.773   7.344   9.671 -0.6874 -0.4106 -0.2490
20305SOL     OW63869   4.678   6.573   4.932  0.0221  0.0900  0.0640
20305SOL    HW163870   4.706   6.502   4.990 -1.7532 -1.4034 -0.8168
20305SOL    HW263871   4.667   6.532   4.847  0.5094  1.8042 -0.8700
20306SOL     OW63872   0.622   1.198   5.623 -0.5144 -0.3277 -0.0635
20306SOL    HW163873   0.620   1.144   5.702  0.7582 -0.5225 -0.1432
20306SOL    HW263874   0.713   1.195   5.595 -0.8094  0.3475 -1.1261
20307SOL     OW63875   1.303   4.849   5.701  0.4074 -0.4668  0.0997
20307SOL    HW163876   1.257   4.862   5.619  1.0679 -1.0688 -0.3769
20307SOL    HW263877   1.373   4.787   5.680  1.6448  0.6720  0.7166
20308SOL     OW63878   5.650   8.446   6.447  0.1168 -0.0833 -0.1636
20308SOL    HW163879   5.588   8.470   6.516  1.9240  1.1534  1.1343
20308SOL    HW263880   5.659   8.351   6.455  1.0691  0.1313  2.0890
20309SOL     OW63881   1.242   2.449   2.947 -0.1357  0.1063  0.1289
20309SOL    HW163882   1.187   2.514   2.903  0.0495 -0.1857 -0.5423
20309SOL    HW263883   1.245   2.478   3.038 -0.7896  0.5397  0.0189
20310SOL     OW63884   0.243  10.092   0.570 -0.2627  0.0350  0.2461
20310SOL    HW163885   0.269  10.024   0.508  1.2810  1.3517 -0.6218
20310SOL    HW263886   0.323  10.142   0.586 -1.6075  2.4537 -0.1620
20311SOL     OW63887   6.316   6.232   3.396  0.3881 -0.1092 -0.5270
20311SOL    HW163888   6.271   6.310   3.365  1.2027 -0.0457 -1.5966
20311SOL    HW263889   6.379   6.265   3.461 -0.3072 -0.0651  0.1299
20312SOL     OW63890   3.698   8.889   0.740 -0.3135 -0.9364 -0.0390
20312SOL    HW163891   3.704   8.836   0.820 -1.2009  1.4021  1.7111
20312SOL    HW263892   3.614   8.866   0.702 -0.3643 -1.2983  0.2849
20313SOL     OW63893   2.213   3.481   9.324 -0.1133 -0.0413 -0.0855
20313SOL    HW163894   2.268   3.450   9.252  0.4972 -1.3631  0.9229
20313SOL    HW263895   2.262   3.554   9.361  0.2855 -0.3243 -0.0592
20314SOL     OW63896   2.971   5.218  10.075  0.4773 -0.4788  0.4261
20314SOL    HW163897   2.884   5.193  10.108  0.6594 -1.7090  0.0417
20314SOL    HW263898   2.995   5.295  10.126 -1.6790  1.1538 -0.8115
20315SOL     OW63899   2.647   3.920   5.727  0.1333  0.3032 -0.0830
20315SOL    HW163900   2.708   3.865   5.678  0.6618  0.7673  0.0342
20315SOL    HW263901   2.632   3.995   5.671  1.4659  1.2886  0.7995
20316SOL     OW63902   0.279   6.423   2.197  0.5585 -0.1952  0.8926
20316SOL    HW163903   0.273   6.473   2.279  0.0923  1.7870 -0.2829
20316SOL    HW263904   0.271   6.489   2.128  0.4572 -1.8637 -0.7690
20317SOL     OW63905   8.550   6.631   4.617  0.1097  0.0452 -0.3353
20317SOL    HW163906   8.579   6.698   4.555 -1.5619 -1.3466 -2.7875
20317SOL    HW263907   8.595   6.552   4.589 -0.9325 -0.6839  0.0043
20318SOL     OW63908   1.218   4.084   7.212  0.1357  0.1667  0.8526
20318SOL    HW163909   1.232   4.006   7.157 -1.8600 -0.5600  1.2901
20318SOL    HW263910   1.168   4.051   7.287 -1.0342  1.9113  0.8861
20319SOL     OW63911   8.851   5.378   9.785 -0.5270 -0.5455 -0.1572
20319SOL    HW163912   8.799   5.305   9.819 -2.0601 -2.0038 -4.8487
20319SOL    HW263913   8.790   5.451   9.783 -0.3351 -0.3625  0.4049
20320SOL     OW63914   4.709   7.223   0.480 -0.7627  0.2060  0.1129
20320SOL    HW163915   4.797   7.210   0.514 -0.5989 -0.9277 -0.6742
20320SOL    HW263916   4.698   7.155   0.414 -2.3445  0.1390  0.3917
20321SOL     OW63917   9.894   5.625   3.738  0.0388 -0.2208  0.4119
20321SOL    HW163918   9.822   5.580   3.694  0.7836 -0.7245 -0.2943
20321SOL    HW263919   9.867   5.717   3.739 -1.2554 -0.5674  1.4056
20322SOL     OW63920   3.831   8.056   0.394 -0.0257  0.3900  0.1791
20322SOL    HW163921   3.866   8.134   0.352  0.5401  0.6296  1.0633
20322SOL    HW263922   3.863   7.983   0.340  1.4285  0.6382  0.6605
20323SOL     OW63923   0.719   3.839   1.430  0.2416 -0.5089 -0.3018
20323SOL    HW163924   0.650   3.860   1.368  1.1762 -0.0403 -1.2218
20323SOL    HW263925   0.716   3.910   1.495  0.7331  0.2906 -1.1193
20324SOL     OW63926   2.992   8.470   7.670  0.0262  0.2988 -0.4667
20324SOL    HW163927   2.919   8.528   7.648  0.2497  1.3265  1.2892
20324SOL    HW263928   2.993   8.469   7.766  0.6139 -1.9026 -0.4503
20325SOL     OW63929   3.365   8.971   1.648 -0.1299  0.1972 -0.1524
20325SOL    HW163930   3.443   8.916   1.640  0.6963  0.8376  2.4338
20325SOL    HW263931   3.400   9.059   1.665 -1.4261  0.7833 -0.3867
20326SOL     OW63932  10.223   1.518   4.619 -0.1997  0.3262  0.0809
20326SOL    HW163933  10.250   1.607   4.597  2.7287 -0.7375 -1.1513
20326SOL    HW263934  10.185   1.484   4.537 -1.1699  0.3552  0.5045
20327SOL     OW63935   2.173   1.590   9.266 -0.2780 -0.1975 -0.7173
20327SOL    HW163936   2.152   1.576   9.173  0.8252  1.2671 -1.2309
20327SOL    HW263937   2.247   1.651   9.265 -1.4562  1.4200  1.1507
20328SOL     OW63938   2.657   3.745   6.353 -0.3199 -0.8211  0.3143
20328SOL    HW163939   2.693   3.686   6.419 -1.0362  0.7139  2.1555
20328SOL    HW263940   2.735   3.784   6.312  0.1878  0.2760  2.2174
20329SOL     OW63941   7.793   5.785   5.523 -0.4716 -0.1337  0.0659
20329SOL    HW163942   7.871   5.738   5.551  0.2581  1.0967  0.2147
20329SOL    HW263943   7.728   5.769   5.591  0.7382  1.4573  1.6923
20330SOL     OW63944   4.407   7.664   4.573  0.1261  0.0368  0.2860
20330SOL    HW163945   4.340   7.702   4.630 -1.7415 -1.3117 -0.8737
20330SOL    HW263946   4.471   7.627   4.633 -1.0058 -0.0342  1.5136
20331SOL     OW63947  10.317   1.913  10.562  0.2517  0.3561  0.1411
20331SOL    HW163948  10.323   1.824  10.598 -1.4804 -0.0093 -0.3947
20331SOL    HW263949  10.400   1.926  10.516  0.7009 -0.8227  0.5803
20332SOL     OW63950   3.475   1.797   1.717 -0.2450 -0.1296  0.2711
20332SOL    HW163951   3.516   1.841   1.791  1.3970 -0.5653 -0.3327
20332SOL    HW263952   3.470   1.863   1.648 -0.9309  0.0266  0.4645
20333SOL     OW63953   4.146   4.778   8.859  0.4790 -0.4632 -0.1864
20333SOL    HW163954   4.166   4.752   8.949 -0.7775  1.9038  0.8836
20333SOL    HW263955   4.223   4.827   8.831  0.5282 -0.4745 -0.0723
20334SOL     OW63956   8.053   2.605   3.379  0.3638 -0.1122 -0.5711
20334SOL    HW163957   7.992   2.543   3.419 -0.0428 -0.6518 -1.9784
20334SOL    HW263958   8.092   2.651   3.454  1.0307 -2.3580  0.5892
20335SOL     OW63959   5.117   0.984   2.568 -0.4488 -0.2572  0.0647
20335SOL    HW163960   5.023   0.997   2.564 -0.5263 -1.0621 -1.4839
20335SOL    HW263961   5.139   0.989   2.661 -2.0776 -0.5227  0.4804
20336SOL     OW63962   9.550   7.130   5.013  0.0207 -0.3590  0.1327
20336SOL    HW163963   9.564   7.215   5.055 -1.0773  0.2409 -0.6730
20336SOL    HW263964   9.636   7.087   5.016  0.9429  1.3574 -0.7016
20337SOL     OW63965   6.738   0.474   3.679  0.8557  0.1525  0.0613
20337SOL    HW163966   6.655   0.489   3.725  1.0985  2.3187 -0.0759
20337SOL    HW263967   6.773   0.562   3.665  2.7079 -0.6681 -0.7721
20338SOL     OW63968   6.160   3.663   0.770 -0.4773 -0.6455 -0.6981
20338SOL    HW163969   6.187   3.573   0.756 -0.1346 -0.4715 -1.1869
20338SOL    HW263970   6.106   3.660   0.848  0.7121 -1.0522  0.1358
20339SOL     OW63971   1.666   1.922   3.720 -0.4053 -0.4534  0.1429
20339SOL    HW163972   1.675   1.973   3.801  1.7169 -3.4913  2.0029
20339SOL    HW263973   1.636   1.836   3.748  0.2795 -1.5967 -2.3257
20340SOL     OW63974   9.331   0.309   8.341  0.4320  0.3063 -0.0985
20340SOL    HW163975   9.332   0.338   8.250 -0.8924  1.8481  0.3315
20340SOL    HW263976   9.337   0.390   8.392  1.1730 -0.5239  1.2155
20341SOL     OW63977   8.283   8.083   9.247  0.2640  0.1784 -0.5287
20341SOL    HW163978   8.202   8.103   9.293 -0.4363 -0.3757 -1.4657
20341SOL    HW263979   8.324   8.013   9.298 -0.6270 -0.6050 -0.8742
20342SOL     OW63980   3.317   2.407   1.915 -0.4707  0.9623 -0.2137
20342SOL    HW163981   3.375   2.407   1.992  0.5094  1.6272 -0.9403
20342SOL    HW263982   3.272   2.491   1.919  1.1752  1.9595 -1.5146
20343SOL     OW63983   1.443   9.734  10.353 -0.3543 -0.0021 -0.4383
20343SOL    HW163984   1.357   9.705  10.324 -0.6158  0.3245  0.0016
20343SOL    HW263985   1.467   9.804  10.292 -1.0167  0.8642  0.2630
20344SOL     OW63986   9.765   9.102   9.709 -0.1626 -0.0985  0.3180
20344SOL    HW163987   9.734   9.014   9.685  1.0487 -0.5765  0.4460
20344SOL    HW263988   9.855   9.088   9.740 -0.1186  1.1263  0.7940
20345SOL     OW63989   6.149   4.696  10.656 -0.2719 -0.4465 -0.0888
20345SOL    HW163990   6.058   4.711  10.629 -0.4867 -1.0000  0.2951
20345SOL    HW263991   6.201   4.754  10.600 -0.8489 -0.2371 -0.4180
20346SOL     OW63992   4.699   3.968   8.887 -0.5827  0.0360 -0.3203
20346SOL    HW163993   4.668   4.011   8.807  0.0341 -0.7488 -0.9985
20346SOL    HW263994   4.619   3.954   8.938 -1.3571 -1.5717 -1.8435
20347SOL     OW63995   0.996   3.872   4.163 -0.6656 -0.3816 -0.0746
20347SOL    HW163996   0.920   3.930   4.166  0.4713  1.1409  1.7026
20347SOL    HW263997   1.052   3.910   4.094 -1.3214 -1.2789 -1.1202
20348SOL     OW63998   3.566   5.812   9.910  0.3990  0.6505 -0.2601
20348SOL    HW163999   3.562   5.744   9.977 -0.0592  0.1156 -0.8138
20348SOL    HW264000   3.623   5.776   9.842  1.0154  1.2654 -0.0795
20349SOL     OW64001   2.905   6.171   7.618 -0.2948 -1.0947  0.5157
20349SOL    HW164002   2.814   6.158   7.645 -0.8568  1.9024  0.4382
20349SOL    HW264003   2.949   6.203   7.696 -0.3072  1.1457 -0.3079
20350SOL     OW64004   9.144   7.429   3.095 -0.0417 -0.0031 -0.0857
20350SOL    HW164005   9.186   7.349   3.064 -1.3053 -0.9688  0.5653
20350SOL    HW264006   9.187   7.500   3.048  0.2573 -1.1665 -1.6239
20351SOL     OW64007   5.880   4.746   3.393 -0.5889 -0.3172  0.0852
20351SOL    HW164008   5.860   4.691   3.318  0.6693 -1.3638  0.4906
20351SOL    HW264009   5.887   4.686   3.467  1.5729  0.2094  0.4029
20352SOL     OW64010   0.693   0.616   5.189  0.4886 -0.1681  0.2804
20352SOL    HW164011   0.766   0.554   5.183 -1.1994 -2.4208  1.4720
20352SOL    HW264012   0.659   0.621   5.099  1.5655  0.2624 -0.1242
20353SOL     OW64013   7.719   3.302   7.305  0.2196  0.6625 -0.1065
20353SOL    HW164014   7.770   3.234   7.350  0.7749 -0.6639 -2.5879
20353SOL    HW264015   7.723   3.377   7.364  2.0975 -0.4975  1.3869
20354SOL     OW64016   6.329  10.305   7.553  0.2457 -0.0607  0.1723
20354SOL    HW164017   6.258  10.369   7.560  0.9948  0.6627  1.7493
20354SOL    HW264018   6.331  10.282   7.461 -0.3156  1.9091 -0.3962
20355SOL     OW64019   4.054   8.831   8.966 -0.0395  0.1325  0.5885
20355SOL    HW164020   4.093   8.917   8.978  0.9244 -0.5334  2.5653
20355SOL    HW264021   3.964   8.849   8.940  0.5905  1.7048 -0.6614
20356SOL     OW64022   3.264   1.621   8.198  0.4559  0.3148  0.0015
20356SOL    HW164023   3.219   1.667   8.127  1.4444  1.2764 -0.0406
20356SOL    HW264024   3.312   1.551   8.154  0.8922  0.7757 -0.2745
20357SOL     OW64025   9.619   6.566   7.908  0.0641 -0.0741  0.1506
20357SOL    HW164026   9.671   6.579   7.829  0.2522 -1.0383  0.1029
20357SOL    HW264027   9.536   6.609   7.889  0.3319  0.2513 -0.3210
20358SOL     OW64028   0.319   9.897  10.128  0.0220  0.2828  0.2525
20358SOL    HW164029   0.390   9.938  10.079 -0.2111 -0.4999 -0.7748
20358SOL    HW264030   0.239   9.931  10.087 -0.1743 -0.2666  0.1701
20359SOL     OW64031   1.919   5.805   9.769 -0.6997 -0.0216 -0.5687
20359SOL    HW164032   1.911   5.769   9.680  0.1676 -2.9465  0.4294
20359SOL    HW264033   1.830   5.804   9.804 -0.8044 -0.5402 -0.8321
20360SOL     OW64034   4.932   8.566   5.098  0.4745  0.0902  0.8994
20360SOL    HW164035   4.908   8.505   5.029 -3.4317  1.0438  1.1677
20360SOL    HW264036   4.972   8.639   5.052  1.0557 -0.7423  0.0579
20361SOL     OW64037   7.336   0.390   4.378 -0.0920  0.2124  0.3307
20361SOL    HW164038   7.243   0.398   4.399  0.0235 -1.8513  1.9920
20361SOL    HW264039   7.338   0.353   4.290 -0.7471  2.4476 -0.6809
20362SOL     OW64040   7.202   6.889   5.199 -0.6122  0.0628  0.3036
20362SOL    HW164041   7.222   6.874   5.107 -0.8372  1.3874  0.0228
20362SOL    HW264042   7.226   6.807   5.242 -1.5111 -0.9802 -1.0782
20363SOL     OW64043   0.113  10.652   9.853 -0.2616  0.2127  0.0889
20363SOL    HW164044   0.106  10.686   9.764  0.1746 -0.1009 -0.0696
20363SOL    HW264045   0.201  10.614   9.858  0.1824  1.2983  1.0198
20364SOL     OW64046   6.916  10.548   8.630 -0.0439 -0.2963  0.4917
20364SOL    HW164047   6.848  10.615   8.629  0.5936  0.3944 -1.2222
20364SOL    HW264048   6.870  10.466   8.614 -0.8183 -0.2802  2.4710
20365SOL     OW64049  10.535   8.991   4.118 -0.3183  0.7131 -0.0783
20365SOL    HW164050  10.599   9.054   4.152  1.3537 -2.0897  2.4143
20365SOL    HW264051  10.582   8.947   4.047  0.4064 -0.9015  1.3311
20366SOL     OW64052   0.122   2.583   5.903 -0.3052  0.2554  0.4391
20366SOL    HW164053   0.177   2.565   5.827 -1.3532  0.5909 -0.4266
20366SOL    HW264054   0.051   2.520   5.897 -0.1920  0.0290  1.3670
20367SOL     OW64055   5.603   2.188   2.651  0.1498 -0.1482  0.6621
20367SOL    HW164056   5.586   2.094   2.662  0.8548 -0.5650 -1.4331
20367SOL    HW264057   5.535   2.218   2.591  0.3513  0.5295  0.7671
20368SOL     OW64058   3.884   4.595   0.276  0.0391 -0.0403 -0.4215
20368SOL    HW164059   3.900   4.659   0.345  1.2579 -1.6323  0.8548
20368SOL    HW264060   3.906   4.641   0.194  0.3379  1.3248  0.3989
20369SOL     OW64061   8.861  10.599   2.553 -0.1611  0.3888 -0.2272
20369SOL    HW164062   8.941  10.606   2.605  0.2423 -0.1069 -0.7658
20369SOL    HW264063   8.863  10.675   2.496 -0.4265  0.7478  0.2430
20370SOL     OW64064   0.658   3.188   1.813 -0.3725 -0.3318 -0.2399
20370SOL    HW164065   0.629   3.214   1.726 -2.9943 -0.7041  0.4333
20370SOL    HW264066   0.725   3.252   1.837 -0.1665  0.2354 -2.1965
20371SOL     OW64067   8.095   9.251   3.537 -0.3699 -0.0490  0.0512
20371SOL    HW164068   8.030   9.278   3.472  1.2039 -0.5777 -1.8773
20371SOL    HW264069   8.083   9.156   3.546 -1.2115  0.1583  1.3179
20372SOL     OW64070   4.957   6.733   6.294 -0.1931 -0.2971  0.0734
20372SOL    HW164071   4.955   6.670   6.222  0.1355  0.8433 -0.9692
20372SOL    HW264072   4.981   6.816   6.253 -3.4624  1.2109  0.8224
20373SOL     OW64073   2.039   6.572   6.623  0.8984  0.0539 -0.3918
20373SOL    HW164074   2.070   6.490   6.663 -0.0929  0.4314  1.2679
20373SOL    HW264075   2.031   6.551   6.530  1.0704 -1.6230 -0.0730
20374SOL     OW64076  10.205  10.341   2.615  0.3579  0.7403  0.0738
20374SOL    HW164077  10.257  10.358   2.694 -2.4781  2.0383  1.8272
20374SOL    HW264078  10.150  10.266   2.638 -2.3678  2.6998  0.5034
20375SOL     OW64079   4.158   4.094   8.982  0.0921 -0.2602 -0.6180
20375SOL    HW164080   4.148   4.053   9.068  0.1807  0.1877 -0.3921
20375SOL    HW264081   4.069   4.121   8.958  0.2744  0.9588  0.0124
20376SOL     OW64082   2.886   9.748   9.185 -0.0125  0.8062  0.3247
20376SOL    HW164083   2.865   9.682   9.251 -1.4868  1.2191  0.2884
20376SOL    HW264084   2.904   9.827   9.236  2.7013  0.2208  0.4358
20377SOL     OW64085   3.876   5.491   3.736 -0.3681  0.4075 -0.4104
20377SOL    HW164086   3.856   5.507   3.644  0.7575  0.7732 -0.5958
20377SOL    HW264087   3.937   5.560   3.760  0.3015 -0.4083  0.2738
20378SOL     OW64088   5.284  10.075   4.822 -0.6290 -0.3888 -0.4712
20378SOL    HW164089   5.304  10.165   4.797  0.9974 -0.8298 -0.8751
20378SOL    HW264090   5.280  10.077   4.918  1.0543 -0.1622 -0.3720
20379SOL     OW64091   2.762   6.028   4.763 -0.3623 -0.4105  0.1897
20379SOL    HW164092   2.705   6.024   4.840 -1.3071 -0.0122 -0.4779
20379SOL    HW264093   2.790   6.119   4.758  1.2418 -0.7934  1.1220
20380SOL     OW64094   8.826   2.902   8.247  0.3226  0.2723 -0.5990
20380SOL    HW164095   8.892   2.858   8.301  0.2130 -0.9938 -1.4570
20380SOL    HW264096   8.822   2.991   8.282  0.8168 -0.2849  0.9605
20381SOL     OW64097   0.277   1.580   8.365 -0.3649  0.2994  0.3960
20381SOL    HW164098   0.243   1.647   8.425 -0.8454 -0.2964  0.8126
20381SOL    HW264099   0.222   1.503   8.382 -0.4354  0.0815 -0.7423
20382SOL     OW64100   8.956   9.504   5.880 -0.0940  0.3203 -0.2198
20382SOL    HW164101   8.895   9.577   5.891  0.4948  0.7343  0.3527
20382SOL    HW264102   9.018   9.534   5.814 -1.4094 -0.7146 -2.0126
20383SOL     OW64103   7.060   8.896  10.270 -0.2575 -0.5419  0.8169
20383SOL    HW164104   7.015   8.885  10.354 -1.1189  0.3099  0.4869
20383SOL    HW264105   7.011   8.840  10.209 -1.6997  1.3188  0.1845
20384SOL     OW64106   3.080   3.096   8.499  0.1682 -0.4985  0.1544
20384SOL    HW164107   3.007   3.087   8.437  0.0660  1.0280  0.0214
20384SOL    HW264108   3.158   3.093   8.444  0.2458 -2.0854  0.2915
20385SOL     OW64109   4.280   1.028   8.036 -0.2872  0.2974  0.6345
20385SOL    HW164110   4.365   0.985   8.048  0.0312  0.4639 -0.8795
20385SOL    HW264111   4.301   1.113   7.997 -1.1575  0.2524  0.0422
20386SOL     OW64112   6.551   4.884   9.019  0.4105 -0.0367 -0.3052
20386SOL    HW164113   6.465   4.903   9.056  0.8845  0.2027  0.7002
20386SOL    HW264114   6.612   4.904   9.090  1.3830  0.8875 -1.3699
20387SOL     OW64115   8.239   6.887   1.306  0.1485 -0.0624  0.3277
20387SOL    HW164116   8.219   6.801   1.343 -0.5096  0.0656  0.2797
20387SOL    HW264117   8.289   6.932   1.375 -0.1596 -0.2116  0.6525
20388SOL     OW64118   8.365   6.389  10.283  0.4357 -0.2512  0.1413
20388SOL    HW164119   8.392   6.428  10.366 -0.1074 -1.1562  0.7617
20388SOL    HW264120   8.446   6.381  10.233  1.1649 -1.7255  1.4587
20389SOL     OW64121   4.477   0.871   1.543  0.3001  0.8371 -0.1832
20389SOL    HW164122   4.400   0.879   1.486  1.8463  1.4824 -2.3016
20389SOL    HW264123   4.488   0.959   1.579 -1.1015  0.2660  1.8208
20390SOL     OW64124   7.898   8.973   4.534 -0.5427  0.1831  0.3691
20390SOL    HW164125   7.836   8.915   4.490  0.0709 -0.3285  0.1558
20390SOL    HW264126   7.975   8.918   4.548  0.1644  1.0358 -0.1271
20391SOL     OW64127   4.310   2.555   6.806 -0.6153 -0.2887 -0.8343
20391SOL    HW164128   4.219   2.579   6.823  0.2284  2.6224  0.1602
20391SOL    HW264129   4.340   2.620   6.743  1.4778  0.5247  0.8871
20392SOL     OW64130   0.122  10.175   6.933  0.5165  0.0575 -0.2392
20392SOL    HW164131   0.200  10.197   6.984  0.4050  0.9672 -0.4447
20392SOL    HW264132   0.157  10.136   6.852  0.7586  0.3980 -0.3019
20393SOL     OW64133   3.252   4.533   5.782  0.2793 -0.1618  0.0906
20393SOL    HW164134   3.218   4.473   5.716 -0.0136 -0.7676  0.7683
20393SOL    HW264135   3.314   4.480   5.832  1.9862  0.8175 -0.8951
20394SOL     OW64136   1.912   3.847   8.994  0.5366  0.0832 -0.1983
20394SOL    HW164137   1.904   3.941   8.976 -0.1616  0.5968  2.3411
20394SOL    HW264138   1.879   3.837   9.083 -0.1064 -2.7141 -0.6541
20395SOL     OW64139   6.263   7.492   1.858  0.1942 -0.3324 -0.3216
20395SOL    HW164140   6.297   7.452   1.778 -0.5102  0.2460 -0.9252
20395SOL    HW264141   6.333   7.552   1.887  0.4406 -0.5248 -0.5139
20396SOL     OW64142   9.392  10.078   3.295  0.2270  0.4533 -0.3888
20396SOL    HW164143   9.311  10.057   3.248 -0.2316  0.2284  0.4690
20396SOL    HW264144   9.462  10.062   3.232 -0.3533 -0.1180 -0.8954
20397SOL     OW64145   4.354   3.540   3.252 -0.4576 -0.1525 -0.2435
20397SOL    HW164146   4.426   3.490   3.215 -2.3414 -3.4574  0.0784
20397SOL    HW264147   4.290   3.546   3.181 -0.9954  0.2413  0.2603
20398SOL     OW64148   9.588   6.392  10.437 -0.0328  0.6197 -0.4150
20398SOL    HW164149   9.580   6.469  10.493  2.1531  0.0107  0.8729
20398SOL    HW264150   9.614   6.322  10.497 -0.5567 -0.7913 -1.7650
20399SOL     OW64151   7.583   2.973   3.112  0.9729  0.0633 -0.0735
20399SOL    HW164152   7.652   2.926   3.064  1.4370 -0.6498  1.2506
20399SOL    HW264153   7.630   3.029   3.173  0.3952 -0.5806  0.9853
20400SOL     OW64154   9.889   1.536   3.884  0.5989  0.2205 -0.2783
20400SOL    HW164155   9.799   1.537   3.850  0.8032 -0.5225 -0.8610
20400SOL    HW264156   9.935   1.473   3.828  1.5697  0.8468 -0.2043
20401SOL     OW64157   2.587   0.264   0.162  0.2569  0.8842 -0.6252
20401SOL    HW164158   2.666   0.227   0.123 -1.1695 -0.8263 -2.0425
20401SOL    HW264159   2.593   0.241   0.255  0.4031 -1.2062 -1.1026
20402SOL     OW64160  10.386   5.955   4.542  0.0505 -0.6177 -0.5532
20402SOL    HW164161  10.371   5.884   4.479 -1.5030  0.1915 -1.1630
20402SOL    HW264162  10.440   5.916   4.610  0.1488 -2.0699 -1.4165
20403SOL     OW64163   5.139   2.821   9.843  0.1247  0.1165 -0.5609
20403SOL    HW164164   5.167   2.732   9.822 -1.0984 -0.6751  0.9429
20403SOL    HW264165   5.113   2.816   9.935 -1.2051  1.7076 -0.8126
20404SOL     OW64166   5.359   8.753   5.589 -0.2744 -0.1027  0.1440
20404SOL    HW164167   5.449   8.786   5.593  0.2178 -0.8407 -2.6607
20404SOL    HW264168   5.344   8.715   5.676  2.8797 -1.7262  0.1255
20405SOL     OW64169   5.963   1.531   2.393 -0.1053  0.3690 -0.2532
20405SOL    HW164170   5.998   1.619   2.384  0.7216  0.6498  3.8986
20405SOL    HW264171   5.874   1.543   2.427  0.1924 -0.3374  0.8513
20406SOL     OW64172   4.500   8.936   1.404 -0.0848 -0.2146 -0.4195
20406SOL    HW164173   4.419   8.987   1.396 -0.0404 -0.4415 -3.5610
20406SOL    HW264174   4.560   8.995   1.450 -0.9211  1.4974 -1.3942
20407SOL     OW64175   5.069   0.591   4.046  0.0043 -0.0007  0.2581
20407SOL    HW164176   5.123   0.645   3.988 -0.2339  2.1860  1.9224
20407SOL    HW264177   4.980   0.603   4.015 -0.1211  1.1579  0.9906
20408SOL     OW64178   5.297   5.808   2.302 -0.2299  0.6041  0.3651
20408SOL    HW164179   5.256   5.892   2.279 -0.0163  0.3355 -1.0860
20408SOL    HW264180   5.252   5.744   2.249  2.3579  0.3534 -1.7463
20409SOL     OW64181   3.601   8.669   2.459  0.7835 -0.2333  0.4425
20409SOL    HW164182   3.661   8.632   2.524  2.0275  1.6355  0.4261
20409SOL    HW264183   3.605   8.608   2.386  1.7779 -0.7317  0.8944
20410SOL     OW64184   2.873   3.610   7.937 -0.5736  0.1482 -0.2019
20410SOL    HW164185   2.861   3.597   8.031 -0.8204  0.8017 -0.1393
20410SOL    HW264186   2.835   3.696   7.919  0.0287  0.3063 -0.7918
20411SOL     OW64187   7.481   9.807   1.392 -0.2228 -0.3592  0.6761
20411SOL    HW164188   7.532   9.875   1.437 -1.6421  1.6177 -0.5376
20411SOL    HW264189   7.546   9.753   1.349  0.9485  0.6613  1.0870
20412SOL     OW64190   3.167   6.232  10.262 -0.3198  0.4717  0.0675
20412SOL    HW164191   3.229   6.220  10.190 -1.7779  2.5846 -1.6804
20412SOL    HW264192   3.152   6.144  10.295  2.1076 -0.3251 -0.6906
20413SOL     OW64193   5.139   6.612   4.528  0.0996  0.4549  0.5541
20413SOL    HW164194   5.172   6.692   4.569 -1.0936  1.0205  0.4381
20413SOL    HW264195   5.056   6.638   4.488 -0.0531 -0.7252  0.0695
20414SOL     OW64196   1.836   3.973   2.256 -0.4299 -0.1456 -0.8841
20414SOL    HW164197   1.882   4.015   2.184  0.1687 -0.0660 -0.4657
20414SOL    HW264198   1.898   3.975   2.329 -0.9458 -0.4057 -0.4239
20415SOL     OW64199   1.446   5.575   5.242 -0.6239 -0.1714 -0.0292
20415SOL    HW164200   1.436   5.538   5.154 -0.0737  1.6038 -0.9043
20415SOL    HW264201   1.380   5.644   5.246  0.6666  1.1053  0.1424
20416SOL     OW64202   1.427   7.595   8.123 -0.2003  0.0012  0.1810
20416SOL    HW164203   1.340   7.584   8.084 -0.6244 -0.2289  1.1524
20416SOL    HW264204   1.411   7.646   8.202  0.5129 -0.2606  0.5022
20417SOL     OW64205   3.983  10.277   2.733  0.1876 -0.1191  0.5556
20417SOL    HW164206   4.001  10.362   2.691 -2.4329  0.1294 -0.2665
20417SOL    HW264207   4.063  10.227   2.720  1.8271  2.1803  1.0395
20418SOL     OW64208   8.737   1.278   0.536  0.2449 -0.5067 -0.0322
20418SOL    HW164209   8.775   1.359   0.503  0.0800  0.0484  1.0715
20418SOL    HW264210   8.812   1.226   0.565  0.2590  0.3102  1.5301
20419SOL     OW64211   5.198   6.952   9.004  0.7937  0.0588  0.2448
20419SOL    HW164212   5.254   6.882   8.971  0.6085 -0.5981  1.2719
20419SOL    HW264213   5.255   7.005   9.059  1.0952  1.1360 -1.0475
20420SOL     OW64214   7.786   3.975   4.131  0.3202 -0.1382 -0.4307
20420SOL    HW164215   7.709   4.023   4.159  1.7542  2.0669 -0.0200
20420SOL    HW264216   7.800   3.910   4.200 -0.2165  0.5536  0.3520
20421SOL     OW64217   6.551   6.177   8.837  0.1790 -0.1507  0.5556
20421SOL    HW164218   6.504   6.175   8.754 -1.1939 -1.1723  1.3097
20421SOL    HW264219   6.637   6.140   8.817  0.2148  0.5004 -0.5814
20422SOL     OW64220   9.970   1.506   7.009  0.2308 -0.1047  0.1807
20422SOL    HW164221   9.887   1.465   7.031  0.5780 -0.7244  0.3663
20422SOL    HW264222   9.954   1.600   7.020 -0.3399 -0.2414  0.5623
20423SOL     OW64223   6.669   3.265   7.759  0.5521 -0.0812 -0.3355
20423SOL    HW164224   6.709   3.299   7.678  0.0657 -1.7262 -1.3061
20423SOL    HW264225   6.575   3.271   7.744  0.4599 -0.7383 -0.0289
20424SOL     OW64226   1.837   7.324   0.065  0.1152 -0.0505  0.0562
20424SOL    HW164227   1.916   7.365   0.030 -1.3370  1.5303 -1.5345
20424SOL    HW264228   1.794   7.394   0.114 -1.4413 -0.2073 -1.0424
20425SOL     OW64229  10.627   8.088   0.176 -0.3317  0.1603 -0.3154
20425SOL    HW164230  10.676   8.099   0.258  2.1126 -0.2260 -1.6125
20425SOL    HW264231  10.583   8.004   0.185  0.0833  0.0270  0.5267
20426SOL     OW64232   6.603  10.617   2.186  0.6086 -0.2116 -0.1696
20426SOL    HW164233   6.669  10.611   2.117 -0.7811 -0.7062 -1.5287
20426SOL    HW264234   6.606  10.533   2.230  0.8494 -0.2604 -0.2791
20427SOL     OW64235   0.234   5.399   6.895  0.1372  0.3701 -0.4829
20427SOL    HW164236   0.209   5.467   6.959  1.5753 -0.3453  0.9155
20427SOL    HW264237   0.189   5.320   6.926 -0.1905  0.3073 -1.1183
20428SOL     OW64238   3.500   7.465   3.986 -0.7049 -0.5036 -0.3666
20428SOL    HW164239   3.547   7.442   4.066  0.4001  0.0093 -0.8434
20428SOL    HW264240   3.540   7.409   3.919 -1.3288 -0.6254 -0.6428
20429SOL     OW64241  10.172   5.265   2.329  0.2038  0.8486 -0.0966
20429SOL    HW164242  10.205   5.347   2.365 -0.7079  0.9154  0.6298
20429SOL    HW264243  10.225   5.197   2.372  0.7434  1.0390 -0.4572
20430SOL     OW64244   0.437   4.826   5.533  0.2024  0.1266 -0.1367
20430SOL    HW164245   0.530   4.848   5.538  0.0520  0.9859 -0.8888
20430SOL    HW264246   0.436   4.730   5.530  1.0043  0.0728  0.7430
20431SOL     OW64247   6.300   9.903   9.890  0.3610 -0.0633 -0.1249
20431SOL    HW164248   6.337   9.890   9.802 -0.3457 -0.2868 -0.3981
20431SOL    HW264249   6.356   9.968   9.930  0.8034 -0.0930 -0.6824
20432SOL     OW64250   4.621   2.129  10.180 -0.2230  0.3523  1.2961
20432SOL    HW164251   4.699   2.079  10.205 -0.5870 -1.0888 -0.2524
20432SOL    HW264252   4.573   2.071  10.121 -0.9518  2.3640 -0.2024
20433SOL     OW64253   8.018   4.605   3.745  0.6290  0.2063  0.3442
20433SOL    HW164254   8.023   4.686   3.694  0.9813 -0.4188 -0.6348
20433SOL    HW264255   7.926   4.578   3.739  0.5980  0.3147  0.3314
20434SOL     OW64256   5.183   2.164   3.450 -0.9759 -0.3516  0.2493
20434SOL    HW164257   5.158   2.224   3.520 -1.5033  1.3931 -1.3452
20434SOL    HW264258   5.157   2.209   3.370 -0.8869 -2.5156 -1.0597
20435SOL     OW64259   2.148   9.036   6.185  0.9847  0.1815 -0.3046
20435SOL    HW164260   2.127   9.088   6.108  1.3510 -2.1318 -2.0740
20435SOL    HW264261   2.244   9.037   6.190  0.9390  1.8505  1.3118
20436SOL     OW64262   0.774   4.752   9.140 -0.0442 -0.2138  0.4133
20436SOL    HW164263   0.773   4.802   9.058 -1.6225 -0.6875  0.1032
20436SOL    HW264264   0.691   4.704   9.139  1.0238 -2.1779  1.1090
20437SOL     OW64265  10.283   3.511   1.531 -0.1021  0.2167 -0.2612
20437SOL    HW164266  10.250   3.423   1.512  1.6507 -0.7952  0.9988
20437SOL    HW264267  10.224   3.545   1.599 -0.0835 -0.5134  0.1335
20438SOL     OW64268  10.320   5.077   0.359 -0.2513 -0.4740  0.5562
20438SOL    HW164269  10.393   5.112   0.307  1.3015 -0.2438  2.7688
20438SOL    HW264270  10.251   5.143   0.350  1.1390  1.1641  1.2922
20439SOL     OW64271   3.663   9.812   1.738 -0.0334  0.5888  0.3612
20439SOL    HW164272   3.609   9.838   1.813 -0.6262  1.1321 -0.2402
20439SOL    HW264273   3.750   9.798   1.775 -0.4649  0.1627  1.2710
20440SOL     OW64274   9.247   4.946   5.367 -0.0732 -0.2602  0.2762
20440SOL    HW164275   9.172   4.894   5.337 -1.6188  2.7038 -1.4627
20440SOL    HW264276   9.303   4.953   5.290 -0.2110  1.1041  0.2852
20441SOL     OW64277   9.936   5.019   9.405 -0.1399 -0.1062 -0.6826
20441SOL    HW164278   9.900   5.036   9.492 -1.5677  1.3155 -1.5087
20441SOL    HW264279   9.994   5.093   9.388 -1.5457  0.7976 -1.7748
20442SOL     OW64280   4.271   2.306  10.545  0.4663  0.0722  0.1403
20442SOL    HW164281   4.353   2.269  10.579  0.0700  0.0437  1.0948
20442SOL    HW264282   4.252   2.378  10.606  0.9203  1.5022 -1.3270
20443SOL     OW64283   0.513   6.571   4.568 -0.7891 -0.3775 -0.8449
20443SOL    HW164284   0.447   6.637   4.589  1.1514  1.0078  1.4001
20443SOL    HW264285   0.498   6.500   4.630  0.4031  0.4162  0.4054
20444SOL     OW64286   3.245   5.422   1.968  0.2561  0.0102  0.1506
20444SOL    HW164287   3.260   5.422   1.874 -1.4226  2.4118 -0.2158
20444SOL    HW264288   3.317   5.473   2.004 -0.4487  1.2780 -0.1776
20445SOL     OW64289   9.018   1.500   3.056  0.2882  0.5665  0.1525
20445SOL    HW164290   8.986   1.452   2.979  0.2657  0.8548 -0.0208
20445SOL    HW264291   8.978   1.456   3.130  1.7962 -0.9322  0.1437
20446SOL     OW64292   1.371   8.997   0.114 -0.1495  0.4333  0.1221
20446SOL    HW164293   1.285   8.966   0.144 -0.2953  0.6928 -0.0308
20446SOL    HW264294   1.392   8.941   0.039  0.4476 -0.5646  1.0008
20447SOL     OW64295   0.125  10.251   2.219 -0.0082  0.0861  0.3060
20447SOL    HW164296   0.089  10.331   2.180  0.1259  0.4803  0.9684
20447SOL    HW264297   0.200  10.229   2.164  0.6561  1.0827  0.7772
20448SOL     OW64298   2.649   7.036   9.229  0.5281 -1.0171 -0.1985
20448SOL    HW164299   2.584   6.968   9.249  0.3100 -0.3818  1.4429
20448SOL    HW264300   2.622   7.071   9.144 -1.2798 -0.8113  0.4172
20449SOL     OW64301   3.625   1.347   5.838 -0.0990 -0.4455  0.0746
20449SOL    HW164302   3.553   1.300   5.797  0.3878 -0.3814 -0.8914
20449SOL    HW264303   3.701   1.290   5.826  0.2636  0.0592 -0.0811
20450SOL     OW64304   0.256   3.697   5.210  0.3581  0.6203 -0.4328
20450SOL    HW164305   0.167   3.663   5.212  1.2068 -1.8337 -0.6174
20450SOL    HW264306   0.270   3.722   5.119  0.9853 -2.6663 -1.4066
20451SOL     OW64307   4.319   3.063  10.278 -0.3048 -0.6573 -0.5430
20451SOL    HW164308   4.353   3.046  10.190 -0.5755  0.1371 -0.8155
20451SOL    HW264309   4.294   3.156  10.276  1.9146  0.0624  1.1206
20452SOL     OW64310   7.480   2.614   3.534 -0.3972 -0.4044 -0.3887
20452SOL    HW164311   7.431   2.621   3.615  0.8216  3.7611  0.1954
20452SOL    HW264312   7.551   2.554   3.554 -2.1940 -2.4177  0.3302
20453SOL     OW64313   8.160   4.121   7.591  0.7078 -0.2960 -0.3524
20453SOL    HW164314   8.158   4.159   7.679  3.1221  0.0974 -0.4258
20453SOL    HW264315   8.192   4.032   7.605  1.8684  0.0236 -0.8870
20454SOL     OW64316   3.489   9.816   5.595  0.3293 -0.0614 -0.2737
20454SOL    HW164317   3.580   9.844   5.598  0.7310 -1.3492  0.1156
20454SOL    HW264318   3.487   9.747   5.528  0.2380 -1.9830  1.6165
20455SOL     OW64319   6.848   5.297   6.564  0.0969  0.0213  0.3045
20455SOL    HW164320   6.855   5.211   6.523 -2.3932 -1.0801  1.9605
20455SOL    HW264321   6.933   5.309   6.607 -0.2435 -2.7391  1.9938
20456SOL     OW64322   8.692   1.787   7.056 -0.3771  0.3413  0.1446
20456SOL    HW164323   8.746   1.842   6.999  1.0619 -1.3122 -0.1958
20456SOL    HW264324   8.693   1.832   7.140 -1.8709  2.4177 -0.8711
20457SOL     OW64325   9.378  10.553   2.763  0.5054 -0.3455 -0.0246
20457SOL    HW164326   9.463  10.541   2.721  0.8141 -1.2522  0.8239
20457SOL    HW264327   9.396  10.604   2.842  0.1052  0.3262 -0.3598
20458SOL     OW64328   6.816   3.871   2.296  0.3302 -0.0596 -0.2503
20458SOL    HW164329   6.896   3.904   2.254  0.3353  1.4562  0.8756
20458SOL    HW264330   6.745   3.912   2.248  0.2568 -0.4078 -0.4421
20459SOL     OW64331   0.098   9.742   4.411  0.6259  0.1533 -0.1570
20459SOL    HW164332   0.052   9.690   4.477  0.5131  1.1215  0.5567
20459SOL    HW264333   0.047   9.823   4.406  0.5460  0.0443 -1.5552
20460SOL     OW64334   0.628   8.487   7.908 -0.1393  0.0599  0.2394
20460SOL    HW164335   0.627   8.424   7.837  2.1584 -0.2664  0.4472
20460SOL    HW264336   0.699   8.459   7.965 -0.8270  1.2849  1.7832
20461SOL     OW64337   0.556   1.063   8.414  0.3900  0.2683 -0.1130
20461SOL    HW164338   0.589   1.043   8.502 -1.3678  1.6134  0.8999
20461SOL    HW264339   0.561   1.158   8.408 -0.6613  0.2797 -0.9828
20462SOL     OW64340   4.340   3.790   0.423  0.2728  0.3543 -0.3782
20462SOL    HW164341   4.348   3.703   0.462 -3.0842 -0.0367 -0.2350
20462SOL    HW264342   4.376   3.780   0.335  0.0661 -1.1710 -0.3203
20463SOL     OW64343   5.546   8.597  10.678 -0.0265 -0.3572 -0.7374
20463SOL    HW164344   5.519   8.680  10.718  0.2249 -1.0388  0.9587
20463SOL    HW264345   5.475   8.576  10.617 -0.2982  0.8891 -0.8817
20464SOL     OW64346   7.890   2.503   7.992  0.2589  0.3836  0.1238
20464SOL    HW164347   7.876   2.568   8.061 -0.3551  0.6905 -0.2765
20464SOL    HW264348   7.801   2.482   7.961  0.4736 -0.4353  0.0614
20465SOL     OW64349   5.794   2.868   8.415  0.4801  0.5497 -0.1992
20465SOL    HW164350   5.710   2.875   8.461  0.1173  1.8356 -0.9946
20465SOL    HW264351   5.846   2.941   8.447  0.9877  0.2528 -0.3273
20466SOL     OW64352   7.990  10.685   1.483  0.8153  0.3613 -0.4003
20466SOL    HW164353   7.901  10.650   1.481  1.0852 -0.5181  0.9555
20466SOL    HW264354   7.981  10.778   1.460 -0.8909  1.0260  2.4732
20467SOL     OW64355   8.794   7.344   5.337  0.2444  0.1936  0.9031
20467SOL    HW164356   8.817   7.253   5.358 -0.5957 -0.4494 -0.7742
20467SOL    HW264357   8.875   7.393   5.350  0.7683 -0.8183  1.6215
20468SOL     OW64358  10.152   7.049   3.569 -0.3979  0.7812 -0.2236
20468SOL    HW164359  10.083   7.020   3.508 -0.0111  1.3089 -0.9168
20468SOL    HW264360  10.185   7.130   3.531 -0.8506  1.6863  1.2345
20469SOL     OW64361  10.344   0.842   9.530  0.7499 -0.5781 -0.7401
20469SOL    HW164362  10.289   0.786   9.476  0.4066 -1.0308  0.0605
20469SOL    HW264363  10.285   0.908   9.566  0.9994 -0.1981 -1.0230
20470SOL     OW64364   6.783   2.255  10.659 -0.1047  0.2833 -0.2953
20470SOL    HW164365   6.857   2.198  10.638  1.4900  1.7101  1.1020
20470SOL    HW264366   6.728   2.202  10.717 -0.8436 -1.1819 -2.2299
20471SOL     OW64367   7.511   5.981   7.626 -0.1518  0.4587 -0.0899
20471SOL    HW164368   7.502   6.069   7.591 -3.2510  1.5239  2.8907
20471SOL    HW264369   7.451   5.928   7.574  0.8783  0.2671 -1.1410
20472SOL     OW64370  10.185   8.334   7.795  0.6810 -0.3246  0.3186
20472SOL    HW164371  10.179   8.249   7.839 -2.6094 -0.7828 -0.7069
20472SOL    HW264372  10.213   8.314   7.706  2.3742  0.0118  0.7491
20473SOL     OW64373   5.436   6.089   8.080 -0.4985 -0.4945  0.2382
20473SOL    HW164374   5.418   6.174   8.040 -0.5017 -0.1210  1.0354
20473SOL    HW264375   5.531   6.081   8.077 -0.4220 -0.0070  1.0791
20474SOL     OW64376  10.478   9.329   9.265 -0.5198  0.1155 -0.1027
20474SOL    HW164377  10.502   9.269   9.194 -1.6161 -0.1315 -0.2887
20474SOL    HW264378  10.507   9.284   9.345  0.3745  0.2216 -0.3546
20475SOL     OW64379  10.035   9.482   1.071  0.1294 -0.0670  0.4132
20475SOL    HW164380  10.048   9.390   1.050 -0.0026  0.3950 -1.9790
20475SOL    HW264381  10.104   9.502   1.135  1.8632 -1.1972 -1.0109
20476SOL     OW64382   6.058   7.083   7.201  0.0045 -0.0691 -0.4593
20476SOL    HW164383   6.096   7.000   7.227 -0.4400  0.2303  1.2384
20476SOL    HW264384   6.013   7.115   7.279 -1.2676  0.9679 -1.5637
20477SOL     OW64385   6.630   4.081   7.997 -0.3120 -0.4014  0.3518
20477SOL    HW164386   6.704   4.024   8.017 -0.1544 -0.3531 -0.1063
20477SOL    HW264387   6.668   4.158   7.956 -0.1459  1.4918  3.7089
20478SOL     OW64388   1.902   1.697   0.828 -0.4009  0.0508  0.4004
20478SOL    HW164389   1.882   1.781   0.786 -1.4116  0.7884  2.2593
20478SOL    HW264390   1.844   1.634   0.785  0.1596  0.3318 -0.8113
20479SOL     OW64391   1.297   4.682   7.737 -0.2001  0.0600 -0.0329
20479SOL    HW164392   1.252   4.766   7.725  0.3424  0.5405  1.1253
20479SOL    HW264393   1.228   4.617   7.738 -0.5840  0.4054 -1.5908
20480SOL     OW64394  10.601   4.527   2.188 -0.1518 -0.4132 -0.4998
20480SOL    HW164395  10.641   4.444   2.161 -0.8202 -1.3134  1.1478
20480SOL    HW264396  10.634   4.542   2.277 -0.1306  1.0594 -0.7267
20481SOL     OW64397   3.526   4.969   8.275  0.3908  0.1141 -0.3939
20481SOL    HW164398   3.477   4.890   8.250 -1.7399  0.8451  1.1841
20481SOL    HW264399   3.614   4.954   8.241 -0.2540 -2.4174 -1.1722
20482SOL     OW64400   4.824   9.369   0.516 -0.1895  0.3216 -0.0735
20482SOL    HW164401   4.892   9.329   0.570  0.7826 -0.7078 -1.9512
20482SOL    HW264402   4.743   9.358   0.566  0.5330 -1.3534  0.7914
20483SOL     OW64403  10.536   0.946   1.247  0.2462 -0.1417 -0.1915
20483SOL    HW164404  10.526   0.851   1.239  0.0923 -0.1790  0.4436
20483SOL    HW264405  10.446   0.979   1.251  0.3095 -0.1027  1.1294
20484SOL     OW64406   2.095   4.264  10.070  0.4824  0.2492 -0.3442
20484SOL    HW164407   2.002   4.287  10.069  0.5234  0.4205 -0.6727
20484SOL    HW264408   2.128   4.297   9.986 -0.0350 -3.5045 -2.2346
20485SOL     OW64409   8.702   4.317   4.067  0.4950 -0.2738 -0.3655
20485SOL    HW164410   8.724   4.224   4.058  1.9254  0.0473 -0.4819
20485SOL    HW264411   8.762   4.348   4.135 -0.6877  0.3450  0.4179
20486SOL     OW64412   6.180   8.430   0.075  0.1934  0.4411 -0.9472
20486SOL    HW164413   6.262   8.454   0.118 -0.6615  2.0257 -0.0947
20486SOL    HW264414   6.185   8.473  -0.011  0.0007  1.0982 -0.6399
20487SOL     OW64415   9.862   0.915   5.320  0.6650  0.3090  0.2926
20487SOL    HW164416   9.864   0.942   5.228  0.7786  2.2022  0.8117
20487SOL    HW264417   9.939   0.956   5.359  0.2724  0.0597  1.3735
20488SOL     OW64418   9.427   7.304   0.490  0.4738  0.0063  0.3168
20488SOL    HW164419   9.440   7.263   0.576  0.6627 -0.2758  0.1556
20488SOL    HW264420   9.340   7.343   0.495  0.2002 -0.5994  0.3970
20489SOL     OW64421   3.019   2.371  10.642 -0.3734 -0.3240 -0.2975
20489SOL    HW164422   2.968   2.387  10.563 -0.6844  0.3851  0.0461
20489SOL    HW264423   2.990   2.285  10.673 -0.8311 -0.2435 -0.5034
20490SOL     OW64424   4.457   5.128  10.090 -0.0156  0.4170 -0.0573
20490SOL    HW164425   4.392   5.083  10.144 -0.3966  1.1317  0.0930
20490SOL    HW264426   4.446   5.220  10.112  2.7127  0.4239  1.8525
20491SOL     OW64427   8.961  10.468   8.544  0.0227  0.2450 -0.3673
20491SOL    HW164428   9.018  10.391   8.545 -0.7084 -0.3394  1.4512
20491SOL    HW264429   8.891  10.446   8.606 -0.4284  2.2073 -0.1168
20492SOL     OW64430   6.489   7.486   9.905  0.1937  0.0833  0.0958
20492SOL    HW164431   6.409   7.489   9.957  0.4418 -2.6274  0.7795
20492SOL    HW264432   6.549   7.546   9.950 -0.7646  0.5294  0.8103
20493SOL     OW64433   4.139   7.508   3.354 -0.1470 -0.0864 -0.1774
20493SOL    HW164434   4.078   7.571   3.393 -0.8266  0.2072 -1.6483
20493SOL    HW264435   4.115   7.424   3.394 -1.0367  0.1444 -0.2091
20494SOL     OW64436   5.180   0.843   9.536 -0.3165 -0.6154 -0.3678
20494SOL    HW164437   5.111   0.818   9.475 -0.5218  1.0277 -0.8472
20494SOL    HW264438   5.262   0.822   9.491 -0.4636  0.7100 -1.2812
20495SOL     OW64439   1.582   8.276   3.335  1.2716  0.1113 -0.1953
20495SOL    HW164440   1.543   8.189   3.346  1.2276  0.0619 -0.6873
20495SOL    HW264441   1.654   8.262   3.273  1.1353  0.4590 -0.4319
20496SOL     OW64442   4.301   0.854   5.354  0.2586  0.3248  0.0358
20496SOL    HW164443   4.295   0.931   5.297 -1.2789  0.4657  0.3283
20496SOL    HW264444   4.337   0.887   5.436  0.7703  0.4800 -0.2492
20497SOL     OW64445   4.285   1.538   6.488 -0.4668 -0.2748  0.1927
20497SOL    HW164446   4.296   1.444   6.474  0.5133 -0.1615  0.1306
20497SOL    HW264447   4.322   1.579   6.410 -0.1769  0.1887  0.5696
20498SOL     OW64448   6.576   4.952   1.808  0.1211  0.1346  0.0356
20498SOL    HW164449   6.642   4.952   1.739 -0.3769  1.9377 -0.5005
20498SOL    HW264450   6.493   4.964   1.762 -0.2250  1.3301  0.9297
20499SOL     OW64451   1.509   9.357   6.824 -0.2047 -0.0475  0.4065
20499SOL    HW164452   1.528   9.308   6.744  0.4090 -0.3176  0.7086
20499SOL    HW264453   1.569   9.431   6.822  1.1721 -1.0607  1.5076
20500SOL     OW64454   8.080   2.597   0.580 -0.5120  0.3406  0.6921
20500SOL    HW164455   8.095   2.654   0.655 -0.2392  1.1707  0.0321
20500SOL    HW264456   8.031   2.652   0.518 -0.0182 -0.0455 -0.0600
20501SOL     OW64457   1.018   3.340   6.883  0.3953 -0.7018 -0.4898
20501SOL    HW164458   1.111   3.350   6.903  0.1113 -0.8335  1.1043
20501SOL    HW264459   1.016   3.305   6.795  1.7472  2.0847 -1.7583
20502SOL     OW64460   5.716  10.469   1.949  0.0879  0.5907 -0.4949
20502SOL    HW164461   5.687  10.507   1.866 -1.5718  2.3274  0.8063
20502SOL    HW264462   5.685  10.530   2.016  3.8767  0.8591  1.3266
20503SOL     OW64463  10.220  10.186   4.128 -0.2921  0.1417  0.2539
20503SOL    HW164464  10.178  10.243   4.064 -1.1251 -0.8861 -0.1371
20503SOL    HW264465  10.258  10.115   4.076 -1.7595 -1.1981  0.9391
20504SOL     OW64466   4.821   8.183   9.913  0.8082 -0.5212  0.1033
20504SOL    HW164467   4.741   8.144   9.947  0.5287 -0.6919 -0.7175
20504SOL    HW264468   4.874   8.108   9.885 -0.4712 -0.3840 -3.1600
20505SOL     OW64469   0.970   2.561   6.550  0.5072  0.3191 -0.3645
20505SOL    HW164470   0.907   2.491   6.565  0.9331 -0.5960 -2.4852
20505SOL    HW264471   1.054   2.517   6.540  1.4860  1.4867  1.9105
20506SOL     OW64472   1.370   9.639   2.969 -0.1485 -0.3713  0.2766
20506SOL    HW164473   1.443   9.621   2.910 -0.4411  2.3711 -1.1180
20506SOL    HW264474   1.387   9.586   3.046  1.2285 -2.7316 -1.5236
20507SOL     OW64475   7.716   0.454   2.181 -0.2090  0.0197  0.5429
20507SOL    HW164476   7.795   0.402   2.195 -0.1341 -0.0019  0.0606
20507SOL    HW264477   7.746   0.545   2.178  0.3046 -0.1080 -2.6773
20508SOL     OW64478   6.015   6.228   8.867 -0.1957  0.0460 -0.7637
20508SOL    HW164479   5.967   6.150   8.841  1.4211 -1.4736  0.5944
20508SOL    HW264480   6.079   6.242   8.797 -0.0178 -0.2910 -0.6713
20509SOL     OW64481   6.141   4.588   3.831 -0.1296  0.2688  0.1202
20509SOL    HW164482   6.197   4.613   3.905  0.0994 -0.0310  0.0510
20509SOL    HW264483   6.202   4.550   3.767 -0.0170  2.3553 -1.0763
20510SOL     OW64484   6.881   3.283   4.782 -0.6408 -0.3191 -0.2509
20510SOL    HW164485   6.869   3.249   4.871 -2.3166  1.5964  0.3274
20510SOL    HW264486   6.971   3.260   4.760 -0.4481 -1.5700  1.6174
20511SOL     OW64487   9.114   7.702   9.239  0.0090 -0.3383  0.1702
20511SOL    HW164488   9.099   7.609   9.223 -0.2726 -0.4265  0.9142
20511SOL    HW264489   9.027   7.740   9.246  0.1096  0.1480 -0.9903
20512SOL     OW64490   4.832   6.092   6.906 -0.3557 -0.1128 -0.2399
20512SOL    HW164491   4.850   6.179   6.872  0.0237  0.8352  2.1554
20512SOL    HW264492   4.915   6.045   6.901  0.2122  0.6890  1.0956
20513SOL     OW64493   4.343  10.504   9.751 -0.5222  0.0805 -0.5037
20513SOL    HW164494   4.322  10.568   9.820  0.7367 -0.1983  0.1821
20513SOL    HW264495   4.418  10.456   9.786 -1.2487 -1.5828 -1.1346
20514SOL     OW64496   2.750   0.531   4.365 -1.0790 -0.0288  0.1576
20514SOL    HW164497   2.658   0.513   4.350 -1.1673 -0.5314  1.2093
20514SOL    HW264498   2.795   0.450   4.339 -0.7531  0.7333 -1.8182
20515SOL     OW64499   9.886   4.957   4.801  0.3925 -0.1006  0.6803
20515SOL    HW164500   9.798   4.993   4.788 -0.0146 -1.4517 -0.6522
20515SOL    HW264501   9.939   5.032   4.825 -0.9893  0.8714  0.8493
20516SOL     OW64502   4.163   6.422   8.862 -0.1925  0.1575 -0.0611
20516SOL    HW164503   4.093   6.435   8.926 -0.4967 -3.0503  0.4197
20516SOL    HW264504   4.149   6.334   8.829  1.4667  0.7889 -2.7537
20517SOL     OW64505   6.421   8.893   9.327  0.0438 -0.6482  0.3793
20517SOL    HW164506   6.442   8.889   9.420 -0.0666  0.6609  0.4812
20517SOL    HW264507   6.326   8.907   9.325  0.1486  0.0410  0.0933
20518SOL     OW64508   0.376   8.654   8.397 -0.3842 -0.2628 -0.6573
20518SOL    HW164509   0.375   8.691   8.308 -1.2243 -1.8378 -1.3461
20518SOL    HW264510   0.386   8.560   8.383 -0.5672 -0.5391  0.9284
20519SOL     OW64511   7.358   4.804   2.495 -0.0459 -1.2037  0.1729
20519SOL    HW164512   7.321   4.879   2.449 -0.1768 -2.3513 -1.7165
20519SOL    HW264513   7.337   4.819   2.587  0.9616  1.6270  0.0506
20520SOL     OW64514   3.296   0.696   0.713 -0.3767  0.9083 -0.3846
20520SOL    HW164515   3.357   0.675   0.642 -1.0308  0.2407 -0.7547
20520SOL    HW264516   3.345   0.677   0.793  0.0084  0.6899 -0.6693
20521SOL     OW64517   5.891   6.277   1.676  0.5301 -0.0930  0.3253
20521SOL    HW164518   5.851   6.233   1.751  0.0577 -0.2262  0.0026
20521SOL    HW264519   5.907   6.366   1.706 -0.5772  0.1336  0.2806
20522SOL     OW64520   7.136   8.708   0.685  0.0225 -0.0525 -0.5649
20522SOL    HW164521   7.191   8.776   0.645 -1.0214  0.9989 -0.3002
20522SOL    HW264522   7.047   8.743   0.677 -0.3847 -0.6051  1.1009
20523SOL     OW64523   3.402   5.819   3.918 -0.4233  0.1561  0.7485
20523SOL    HW164524   3.397   5.839   3.825  0.5292 -0.1255  0.6251
20523SOL    HW264525   3.343   5.883   3.960  0.3393  1.3214  0.0992
20524SOL     OW64526   3.992   4.900   8.497 -0.1752  0.2678 -0.3538
20524SOL    HW164527   4.085   4.881   8.508 -0.3857 -1.0354 -0.6830
20524SOL    HW264528   3.952   4.815   8.480 -1.1789  1.0145 -1.9382
20525SOL     OW64529   0.932   4.287   6.583  0.5872 -0.2815  0.1026
20525SOL    HW164530   1.008   4.332   6.547  0.2814 -0.9204 -1.4414
20525SOL    HW264531   0.857   4.337   6.549  0.3033 -0.2988  0.7024
20526SOL     OW64532   7.899   1.785   3.071  0.1915  0.1579 -0.5663
20526SOL    HW164533   7.861   1.867   3.039  0.4231  0.5788  0.2024
20526SOL    HW264534   7.969   1.765   3.009  0.1019  0.5195 -0.7851
20527SOL     OW64535   2.981   7.231   1.962 -0.0793 -0.0288 -0.3010
20527SOL    HW164536   2.990   7.174   1.886  0.5382 -2.3166  1.3853
20527SOL    HW264537   3.005   7.318   1.930  2.5986 -1.3294 -2.1807
20528SOL     OW64538   8.581   4.440   3.472 -0.1262  0.0127  0.1618
20528SOL    HW164539   8.657   4.470   3.522  0.4648 -0.6782 -0.3041
20528SOL    HW264540   8.579   4.345   3.486  1.2624 -0.5535 -2.6567
20529SOL     OW64541  10.293  10.465   0.916  0.4237  0.4335  0.1925
20529SOL    HW164542  10.316  10.457   1.008  0.8443 -1.6150 -0.0394
20529SOL    HW264543  10.212  10.517   0.916  0.0745 -0.0487  1.7564
20530SOL     OW64544   3.304  10.563   5.520  0.1103 -0.6670  0.0820
20530SOL    HW164545   3.331  10.473   5.539  2.5995  0.2086  1.1527
20530SOL    HW264546   3.337  10.580   5.432 -0.6717 -0.8929 -0.2613
20531SOL     OW64547   6.668   6.995  10.256 -0.1234 -0.6695  0.1653
20531SOL    HW164548   6.609   7.066  10.281  0.4342 -0.1797  0.1275
20531SOL    HW264549   6.652   6.983  10.163 -2.4761 -2.7531  0.7304
20532SOL     OW64550   8.809   9.693   3.444 -0.4419  0.2333  0.3967
20532SOL    HW164551   8.779   9.602   3.443  1.4526 -0.4205 -0.5763
20532SOL    HW264552   8.856   9.701   3.527 -2.2574  0.9618  1.4286
20533SOL     OW64553   6.442   1.002   5.761  0.1394 -0.3388  0.1253
20533SOL    HW164554   6.465   0.913   5.733 -0.2898 -0.0986 -1.0737
20533SOL    HW264555   6.402   1.041   5.683 -1.1823  0.3699  1.1329
20534SOL     OW64556   0.139  10.637   7.737  0.4026  0.0739  0.0968
20534SOL    HW164557   0.126  10.542   7.745 -2.8103  0.4767  0.8462
20534SOL    HW264558   0.052  10.672   7.721  1.5710  2.9121 -0.5947
20535SOL     OW64559  10.533   1.484   2.603  0.3697 -0.7579  0.2618
20535SOL    HW164560  10.625   1.462   2.619 -0.0290 -1.7829  1.2902
20535SOL    HW264561  10.518   1.564   2.653  0.5693 -0.8816  0.5214
20536SOL     OW64562   3.993   9.898   5.494 -0.4682 -0.6287  0.2431
20536SOL    HW164563   3.953   9.893   5.407 -1.0036  1.8406  0.2812
20536SOL    HW264564   4.076   9.851   5.484 -1.3445 -2.0114 -1.0518
20537SOL     OW64565   2.516   7.441   3.275 -0.2927  0.0782 -0.2101
20537SOL    HW164566   2.478   7.526   3.251 -1.0936 -0.2379 -0.1065
20537SOL    HW264567   2.476   7.421   3.360  1.0539  0.2999  0.4916
20538SOL     OW64568   9.404   4.016   1.597 -0.4213  0.1453 -1.1229
20538SOL    HW164569   9.315   4.033   1.567 -0.1557  0.1890 -1.8927
20538SOL    HW264570   9.435   3.943   1.543  0.1762  0.4411 -1.1883
20539SOL     OW64571   8.894   5.673   9.522 -0.1323  0.4034 -0.4228
20539SOL    HW164572   8.840   5.681   9.601  0.4360 -1.0028  0.1565
20539SOL    HW264573   8.854   5.732   9.459 -0.2570  2.0319  1.1091
20540SOL     OW64574   7.763  10.281   3.235 -0.4481 -0.1405 -0.1728
20540SOL    HW164575   7.784  10.282   3.329  0.2231  0.1455 -0.3198
20540SOL    HW264576   7.668  10.282   3.232 -0.4859  2.0126  0.4838
20541SOL     OW64577   4.956   0.865   1.879  0.1498  0.2669  0.4458
20541SOL    HW164578   4.875   0.914   1.864  0.2315 -0.0359 -1.1447
20541SOL    HW264579   4.999   0.911   1.951 -1.4740  0.3784  1.3854
20542SOL     OW64580   2.124   7.537   9.218  0.0368  0.0559  0.3917
20542SOL    HW164581   2.137   7.628   9.194  0.1059  0.0139  0.2714
20542SOL    HW264582   2.068   7.501   9.149 -0.5048  0.1673  0.7673
20543SOL     OW64583   8.110   7.010  10.528  0.2088  0.2000 -0.1169
20543SOL    HW164584   8.074   7.098  10.528  0.2191  0.2322  1.6955
20543SOL    HW264585   8.200   7.021  10.498 -0.0590  0.6696 -0.7684
20544SOL     OW64586   8.252   4.427   4.019  0.4360  0.2169 -0.0768
20544SOL    HW164587   8.257   4.355   3.957 -1.7133 -1.8602  1.9402
20544SOL    HW264588   8.163   4.421   4.056  0.5867  3.1837  1.0519
20545SOL     OW64589   7.806   0.985   4.430 -0.2774 -0.3273  0.3146
20545SOL    HW164590   7.862   0.967   4.354  0.9917  0.3124  1.0624
20545SOL    HW264591   7.769   0.900   4.453 -1.7459 -0.3542 -1.7665
20546SOL     OW64592   9.347   8.632  10.218 -0.2183  0.1241 -0.8801
20546SOL    HW164593   9.275   8.680  10.177 -2.0332 -2.3936 -0.8959
20546SOL    HW264594   9.313   8.543  10.230  2.6847 -1.0239 -0.2323
20547SOL     OW64595  10.143   3.425  10.660  0.2333  0.0212  0.0213
20547SOL    HW164596  10.187   3.506  10.686 -1.3726  0.3394  2.0057
20547SOL    HW264597  10.132   3.376  10.742 -1.7030 -0.7020 -0.5954
20548SOL     OW64598   7.617   3.135   8.848 -0.2375  0.2585  0.3141
20548SOL    HW164599   7.584   3.062   8.901  2.0385 -1.1561 -0.0545
20548SOL    HW264600   7.699   3.160   8.891 -0.3615  1.7810 -0.2932
20549SOL     OW64601   5.158   8.854   9.984  0.0097  0.1103  0.4468
20549SOL    HW164602   5.185   8.773  10.026  0.7426 -0.1067 -0.4030
20549SOL    HW264603   5.184   8.843   9.892  0.0629  1.2793  0.3098
20550SOL     OW64604   7.377   5.843   9.472 -0.1393  0.1676  0.0395
20550SOL    HW164605   7.319   5.788   9.525 -3.7523  2.2202 -1.4644
20550SOL    HW264606   7.360   5.932   9.503  0.4473  1.0592 -2.0621
20551SOL     OW64607   9.219   1.553   0.325  0.1625 -0.5198  0.1208
20551SOL    HW164608   9.216   1.608   0.404  0.5646 -1.8285  1.0830
20551SOL    HW264609   9.166   1.600   0.261  0.3304  0.8876  0.9652
20552SOL     OW64610   4.685   5.729  10.463  0.1020 -0.4126  0.4389
20552SOL    HW164611   4.602   5.719  10.510 -0.4667  1.0293 -0.2012
20552SOL    HW264612   4.744   5.768  10.526  0.2382 -1.2289  0.8285
20553SOL     OW64613   9.911   5.108   6.092  0.1675  0.2423  0.4948
20553SOL    HW164614   9.946   5.019   6.091  1.0415  0.5736  0.4743
20553SOL    HW264615   9.865   5.115   6.176 -0.5559 -0.4549  0.1737
20554SOL     OW64616   8.964   9.434  10.118 -0.1451  0.4048  0.2065
20554SOL    HW164617   8.893   9.383  10.157  1.5683 -2.2623  0.0893
20554SOL    HW264618   8.962   9.413  10.025  1.5125 -0.7681  0.3832
20555SOL     OW64619   4.850   7.623   4.939 -0.5044 -0.3805 -0.7341
20555SOL    HW164620   4.879   7.687   4.875  0.6806 -1.5085 -1.3760
20555SOL    HW264621   4.931   7.588   4.976 -1.1291 -1.2950 -0.1907
20556SOL     OW64622   6.673   0.840   1.974  0.3020 -0.0707  0.4239
20556SOL    HW164623   6.617   0.803   2.043  1.9762 -0.4901  1.6293
20556SOL    HW264624   6.646   0.794   1.894 -0.7874 -0.5408  1.0333
20557SOL     OW64625   6.707   2.427   8.960 -0.0762 -0.1091  0.3045
20557SOL    HW164626   6.773   2.437   8.892 -1.7172  0.1715 -1.3410
20557SOL    HW264627   6.737   2.353   9.013  1.1908 -0.4114 -0.8011
20558SOL     OW64628   3.063   7.679   0.161  0.3118 -0.4176  0.1544
20558SOL    HW164629   3.014   7.600   0.139  1.2518 -0.8226 -0.5480
20558SOL    HW264630   3.006   7.727   0.222 -0.2205 -1.6804  0.6740
20559SOL     OW64631   5.853  10.301   4.624  0.0932 -0.5196  0.2018
20559SOL    HW164632   5.806  10.379   4.653  0.1027 -0.4058 -0.0933
20559SOL    HW264633   5.929  10.297   4.682 -0.6518 -1.1197  1.1718
20560SOL     OW64634  10.422   6.505   4.000 -0.3522  0.3382  0.1602
20560SOL    HW164635  10.473   6.452   4.062 -1.2127 -0.9130 -0.1752
20560SOL    HW264636  10.404   6.446   3.927 -0.3435  1.4565 -0.7759
20561SOL     OW64637   5.718   9.258   9.365  0.5064  0.6954 -0.0216
20561SOL    HW164638   5.691   9.333   9.312  0.2796  0.7268  0.1362
20561SOL    HW264639   5.753   9.195   9.303  0.4866  0.8392 -0.1783
20562SOL     OW64640   8.970   4.291  10.534  0.0244  0.0479  0.3171
20562SOL    HW164641   8.928   4.208  10.515 -1.2310  0.9045 -0.8567
20562SOL    HW264642   9.029   4.306  10.460  0.3579  0.1596  0.5969
20563SOL     OW64643  10.540   5.457   5.704 -1.0635 -0.2789 -0.2104
20563SOL    HW164644  10.576   5.378   5.665 -1.2052 -0.5460  0.1904
20563SOL    HW264645  10.554   5.445   5.798  1.2107  1.2790 -0.2532
20564SOL     OW64646   1.616   5.083   1.999 -0.0306 -0.2645 -0.6065
20564SOL    HW164647   1.582   5.010   2.051 -0.8044  1.7111  1.8900
20564SOL    HW264648   1.544   5.106   1.941 -0.6451 -0.0812  0.2068
20565SOL     OW64649   6.089   2.029   3.688 -0.2569  0.9418 -0.1781
20565SOL    HW164650   6.097   1.943   3.646 -2.3436  0.5801  0.0727
20565SOL    HW264651   6.132   2.089   3.628  1.3420 -0.2744 -0.3156
20566SOL     OW64652   5.017   5.895   1.668 -0.5496 -0.6549 -0.1425
20566SOL    HW164653   4.998   5.830   1.600 -0.4551 -0.6943 -0.1319
20566SOL    HW264654   4.936   5.945   1.677 -0.5983 -0.7217 -0.2051
20567SOL     OW64655   5.049   3.299   8.798 -0.1133 -0.2469  0.0134
20567SOL    HW164656   5.078   3.238   8.731  1.8849 -1.4246  1.8062
20567SOL    HW264657   5.110   3.373   8.792  1.0778 -1.0537  1.4271
20568SOL     OW64658   5.259   9.354   0.487  0.5865 -0.3510  0.4543
20568SOL    HW164659   5.230   9.279   0.539 -1.0224  0.1340  0.3074
20568SOL    HW264660   5.336   9.322   0.440 -0.6867 -2.2746 -0.4330
20569SOL     OW64661   3.009   3.161   1.765 -0.4315 -0.2177 -0.2478
20569SOL    HW164662   3.056   3.100   1.821 -1.0042 -0.0504  0.4326
20569SOL    HW264663   3.016   3.245   1.811  0.6773  0.3314 -1.3575
20570SOL     OW64664   1.393   7.852   2.035 -0.2757 -0.2860 -0.3241
20570SOL    HW164665   1.408   7.899   1.953 -0.1503  0.8513  0.3269
20570SOL    HW264666   1.370   7.920   2.098  0.7009 -1.0017  0.8604
20571SOL     OW64667   9.663   4.537   3.111 -0.0789 -0.8700  0.0126
20571SOL    HW164668   9.582   4.549   3.161 -1.4444 -1.5937 -1.8948
20571SOL    HW264669   9.706   4.461   3.152 -1.2800 -1.5984 -0.0339
20572SOL     OW64670   8.109   3.986   9.187  0.4432  0.5428 -0.2020
20572SOL    HW164671   8.063   4.058   9.231  0.8395  0.7638 -0.1475
20572SOL    HW264672   8.170   4.029   9.128 -0.1504  0.2462 -1.0465
20573SOL     OW64673   2.492   1.484   4.920 -0.1335 -0.2876  0.5812
20573SOL    HW164674   2.405   1.524   4.924  0.5487  1.3515  0.1555
20573SOL    HW264675   2.476   1.390   4.912 -1.8631  0.0163  0.1657
20574SOL     OW64676   4.085   3.251   7.863  0.2600  0.0005  0.1900
20574SOL    HW164677   4.052   3.338   7.886  0.6816 -0.2417  1.8217
20574SOL    HW264678   4.143   3.266   7.788 -1.9731  0.6860 -1.5177
20575SOL     OW64679   5.314   0.667   9.860  0.0395  0.1472 -0.4732
20575SOL    HW164680   5.228   0.706   9.876 -0.9831 -2.6567  1.5711
20575SOL    HW264681   5.370   0.707   9.926 -0.5688 -0.4375  0.4307
20576SOL     OW64682   1.225   9.104   4.559  0.6559 -0.6024 -0.2306
20576SOL    HW164683   1.196   9.154   4.635  2.9623  2.4405 -1.1514
20576SOL    HW264684   1.147   9.099   4.503 -0.2114  0.0207  0.8765
20577SOL     OW64685   3.113   2.908   1.866  0.0925  0.7523  0.0509
20577SOL    HW164686   3.159   2.905   1.950  1.3065 -2.7902 -0.5705
20577SOL    HW264687   3.182   2.928   1.802 -0.2490  0.5717 -0.3770
20578SOL     OW64688   9.911   7.289   2.506  0.3423 -0.1819  0.3262
20578SOL    HW164689  10.005   7.301   2.514  0.4159  0.9405 -1.6079
20578SOL    HW264690   9.900   7.198   2.479  1.2001  0.4594 -2.6099
20579SOL     OW64691   0.172   1.073   3.433 -0.4499 -0.2414 -0.0180
20579SOL    HW164692   0.162   0.985   3.468 -0.0660 -0.1757  0.2606
20579SOL    HW264693   0.182   1.129   3.511  2.9774 -0.3891 -0.1879
20580SOL     OW64694   2.160   3.759   8.046 -0.2290  0.5601  0.3148
20580SOL    HW164695   2.088   3.793   8.099 -0.4361  1.0753 -0.2866
20580SOL    HW264696   2.161   3.815   7.968 -0.6783 -0.8924 -0.7756
20581SOL     OW64697   7.180   6.004   5.566 -0.8064  0.3617 -0.1678
20581SOL    HW164698   7.182   6.039   5.477  1.2852 -0.1445 -0.3725
20581SOL    HW264699   7.165   5.910   5.555 -4.6637  0.7588  0.3023
20582SOL     OW64700   9.851   0.183   2.985 -0.1105  0.0497  0.1611
20582SOL    HW164701   9.898   0.136   2.916 -0.6371 -1.0352  0.5382
20582SOL    HW264702   9.838   0.119   3.054 -2.7204  0.1241 -0.1706
20583SOL     OW64703   0.414   8.319   2.402  0.1049 -0.4210  0.1636
20583SOL    HW164704   0.441   8.254   2.338 -0.8111 -0.6381 -0.0224
20583SOL    HW264705   0.325   8.344   2.375  0.7759  1.6361 -0.3538
20584SOL     OW64706   4.818   4.726   0.149 -0.2979 -0.2853  0.2075
20584SOL    HW164707   4.907   4.760   0.155  0.1847 -1.6196  0.9011
20584SOL    HW264708   4.827   4.631   0.158 -1.7646 -0.4660  0.0696
20585SOL     OW64709  10.078   6.008   3.720  0.3061 -0.0102  0.0237
20585SOL    HW164710  10.127   6.090   3.712  1.6651 -0.6754  1.0996
20585SOL    HW264711  10.139   5.948   3.763 -1.3040 -1.0205  1.0015
20586SOL     OW64712   3.115   5.648   5.380  0.4538 -0.1846  0.1416
20586SOL    HW164713   3.040   5.604   5.421  1.0452 -0.9103  0.4903
20586SOL    HW264714   3.134   5.595   5.303  0.7491 -0.1401  0.1845
20587SOL     OW64715   4.035   2.934   5.571  0.0025 -0.1097 -0.2065
20587SOL    HW164716   4.126   2.906   5.585 -0.0121 -0.4027 -0.6929
20587SOL    HW264717   3.993   2.921   5.656  0.9948  2.3355  0.7682
20588SOL     OW64718   5.345   3.973   6.909 -0.2427 -0.6778 -0.6566
20588SOL    HW164719   5.385   4.002   6.991 -0.1430 -0.8895 -0.6299
20588SOL    HW264720   5.317   3.883   6.926  0.1506 -0.8658 -0.9813
20589SOL     OW64721   3.248   7.083   8.699 -0.3963  0.3515  0.2838
20589SOL    HW164722   3.178   7.111   8.640 -0.4160 -0.5080 -0.1240
20589SOL    HW264723   3.318   7.054   8.641 -1.2458 -2.6408  0.5543
20590SOL     OW64724   9.100  10.376   2.524  0.5585 -0.2881  0.6571
20590SOL    HW164725   9.093  10.354   2.617 -0.9629 -2.2140  0.1554
20590SOL    HW264726   9.178  10.330   2.493 -1.4986 -3.7368  0.0621
20591SOL     OW64727   0.864  10.081   2.976  0.0839 -0.4343 -0.4845
20591SOL    HW164728   0.891  10.039   3.058 -0.9979 -0.4113 -0.1026
20591SOL    HW264729   0.904  10.027   2.908  3.2694  1.0628  0.0143
20592SOL     OW64730   9.473   7.103   7.780  0.0328 -0.2136 -0.0858
20592SOL    HW164731   9.435   7.069   7.699  0.7945  1.3535 -1.1414
20592SOL    HW264732   9.480   7.197   7.766  3.6556 -0.2901  0.2669
20593SOL     OW64733   6.693   6.994   9.508  0.3026  0.5539 -0.1924
20593SOL    HW164734   6.667   7.074   9.462 -1.2366 -0.2548 -0.7654
20593SOL    HW264735   6.776   7.017   9.551  0.4179  2.1260 -1.2065
20594SOL     OW64736  10.572   2.053   0.793  0.4067  0.0952  0.4600
20594SOL    HW164737  10.629   2.025   0.722  1.3640 -0.2563  1.3394
20594SOL    HW264738  10.526   1.973   0.820 -1.5150  0.6184 -1.0938
20595SOL     OW64739   0.024   0.439   2.464 -0.0892  0.8642 -0.1527
20595SOL    HW164740  -0.027   0.376   2.413  2.4378 -0.0820 -1.6952
20595SOL    HW264741   0.009   0.414   2.555 -2.6195  0.9025 -0.4932
20596SOL     OW64742   9.981   0.468   2.210 -0.6701 -0.0522 -0.3666
20596SOL    HW164743   9.980   0.557   2.176 -1.5761 -0.1202 -0.5201
20596SOL    HW264744  10.068   0.435   2.187 -0.1861  0.9155  0.0364
20597SOL     OW64745  10.413   0.319   0.634  0.1200 -0.8611  0.0804
20597SOL    HW164746  10.451   0.311   0.722  0.2623 -1.7009 -0.0400
20597SOL    HW264747  10.352   0.245   0.629 -0.6400 -0.2165 -0.1613
20598SOL     OW64748   7.412   4.874   2.092 -0.1672  0.0996  0.2700
20598SOL    HW164749   7.415   4.785   2.057  1.4669  0.4507 -0.5944
20598SOL    HW264750   7.342   4.917   2.043 -1.6475 -0.9301  1.3752
20599SOL     OW64751   7.195   4.025  10.580  0.0521 -0.2590  0.1512
20599SOL    HW164752   7.113   4.057  10.542 -0.2882 -0.2921  0.8450
20599SOL    HW264753   7.257   4.024  10.506 -0.4290  0.2466 -0.2684
20600SOL     OW64754   6.565   5.586   9.446  0.4269  0.2486  0.4208
20600SOL    HW164755   6.655   5.594   9.479  0.3954  0.4472  0.4608
20600SOL    HW264756   6.514   5.645   9.501 -0.1939 -1.6822  2.0772
20601SOL     OW64757   8.600   5.372  10.428 -0.2443  0.7053 -0.1049
20601SOL    HW164758   8.635   5.438  10.369 -0.4772  0.9849  0.0620
20601SOL    HW264759   8.554   5.422  10.495 -2.7332  0.3382 -1.4050
20602SOL     OW64760   4.153  10.682   6.498 -0.3683  0.1558 -0.4551
20602SOL    HW164761   4.106  10.692   6.415 -1.3831  4.4020  0.3760
20602SOL    HW264762   4.246  10.679   6.473 -0.6167  2.0003 -1.8030
20603SOL     OW64763   7.788   1.133   4.891 -0.4660 -0.2004  0.6319
20603SOL    HW164764   7.752   1.093   4.811 -0.1784  1.4601 -0.3736
20603SOL    HW264765   7.782   1.064   4.957 -2.6728 -0.9809 -0.2662
20604SOL     OW64766   1.365   7.171   2.394  0.3442  0.1633  0.1450
20604SOL    HW164767   1.405   7.093   2.355  0.1374  0.2111 -0.1694
20604SOL    HW264768   1.333   7.221   2.320  1.5033  1.1339  0.2780
20605SOL     OW64769  10.532   4.868   2.708  0.0007 -0.2897  0.4362
20605SOL    HW164770  10.604   4.807   2.694  0.2727 -0.6283  2.8873
20605SOL    HW264771  10.463   4.816   2.748 -1.5112  0.1222 -1.4713
20606SOL     OW64772   7.445   8.632   2.511 -0.2524 -0.4036  0.0970
20606SOL    HW164773   7.439   8.665   2.601  0.6892 -1.2440  0.4793
20606SOL    HW264774   7.372   8.675   2.465 -0.8177 -0.0592  1.2826
20607SOL     OW64775   3.114   4.460   0.694 -0.1885  0.3669  0.3164
20607SOL    HW164776   3.197   4.505   0.711 -0.8894  1.5104  0.8674
20607SOL    HW264777   3.086   4.491   0.608 -0.4652  0.6751  0.5128
20608SOL     OW64778   7.607  10.518   1.243 -0.3014  0.2818 -0.0821
20608SOL    HW164779   7.597  10.497   1.150  0.3216 -0.5580  0.0317
20608SOL    HW264780   7.518  10.511   1.278 -0.5660  0.7435 -0.6276
20609SOL     OW64781   3.029   6.439   4.411  0.1240  0.3052  0.4741
20609SOL    HW164782   2.973   6.384   4.356  0.9617 -0.4204  0.3128
20609SOL    HW264783   3.115   6.433   4.370  1.1189 -1.4223  2.6018
20610SOL     OW64784   0.597   1.205  10.627 -0.4985 -0.0094  0.4164
20610SOL    HW164785   0.608   1.289  10.671 -1.2917 -0.0060  0.6256
20610SOL    HW264786   0.597   1.141  10.698 -1.0190 -0.0749  0.3651
20611SOL     OW64787   7.276   7.480   0.765  0.0942 -0.8504 -0.2224
20611SOL    HW164788   7.362   7.462   0.728 -0.3574 -0.9870 -1.2713
20611SOL    HW264789   7.218   7.482   0.689 -0.5733  0.8597  0.2968
20612SOL     OW64790   2.902   8.284   3.322  0.0500  0.4100 -0.4269
20612SOL    HW164791   2.957   8.358   3.347  0.9288 -0.7689  1.3384
20612SOL    HW264792   2.820   8.323   3.293  0.3859  2.0610  0.7371
20613SOL     OW64793   7.186   1.147   5.649 -0.4200  0.4280 -0.0901
20613SOL    HW164794   7.200   1.114   5.560 -2.1440 -1.2567  0.1788
20613SOL    HW264795   7.272   1.175   5.679  1.5696 -4.6429 -0.1263
20614SOL     OW64796   6.094   3.576   8.567  0.2003  0.4368 -0.4569
20614SOL    HW164797   6.079   3.647   8.505 -1.4038 -1.1603 -2.0310
20614SOL    HW264798   6.007   3.554   8.599  0.4211 -1.8227 -1.2335
20615SOL     OW64799   2.541   5.800   7.504  0.2760 -0.2063 -0.0836
20615SOL    HW164800   2.522   5.743   7.430  0.4199 -0.9011  0.4048
20615SOL    HW264801   2.608   5.754   7.554  1.3040  0.9727 -0.3325
20616SOL     OW64802   7.031   6.583   9.009  0.5564 -0.5344 -0.3003
20616SOL    HW164803   7.068   6.520   9.071 -0.3045  0.5048  1.3478
20616SOL    HW264804   6.940   6.594   9.038 -0.0414 -0.4448 -2.1259
20617SOL     OW64805   1.154   8.973   3.233 -0.3234  0.0611 -0.4537
20617SOL    HW164806   1.199   8.959   3.316 -0.5638 -0.9268 -0.4778
20617SOL    HW264807   1.065   8.942   3.248 -0.2218 -0.6245 -1.2354
20618SOL     OW64808   5.365   5.852   7.325  0.5068 -0.2167 -0.5274
20618SOL    HW164809   5.384   5.946   7.328 -1.8051  0.2796  1.4512
20618SOL    HW264810   5.403   5.823   7.242  2.2215  2.2130 -0.7107
20619SOL     OW64811   4.057   8.196   4.409  0.0851  0.0348  0.2937
20619SOL    HW164812   4.070   8.206   4.504  2.1740  0.7404 -0.0025
20619SOL    HW264813   4.106   8.116   4.387  0.3030  0.3267 -0.2987
20620SOL     OW64814   2.219   1.549   4.889  0.6659  0.7385  0.0308
20620SOL    HW164815   2.241   1.526   4.798 -0.0997  0.0864  0.0054
20620SOL    HW264816   2.130   1.519   4.901 -0.2124  3.1645  0.2010
20621SOL     OW64817   8.912   0.237   0.585  0.4348 -0.3980  0.3277
20621SOL    HW164818   8.900   0.144   0.565 -0.8137  0.0144 -1.0195
20621SOL    HW264819   8.825   0.275   0.574  0.8817  0.9119  1.0638
20622SOL     OW64820   5.124   5.777   6.675 -0.1972  0.2973 -0.4968
20622SOL    HW164821   5.162   5.690   6.685 -0.2536  0.3648  0.4153
20622SOL    HW264822   5.109   5.787   6.581  1.3044 -0.0386 -0.7900
20623SOL     OW64823   1.503   5.275   5.382  0.3593 -0.2131  0.3172
20623SOL    HW164824   1.445   5.268   5.306 -0.1933 -2.5183  0.8609
20623SOL    HW264825   1.459   5.335   5.441 -0.8951 -0.9780  0.1953
20624SOL     OW64826   8.094   0.264   8.406 -0.0862  0.3747  0.0552
20624SOL    HW164827   8.012   0.269   8.456  0.5686  0.6849  1.1243
20624SOL    HW264828   8.154   0.323   8.451  0.8807 -0.2101 -0.4237
20625SOL     OW64829   3.224  10.635   1.963  0.0663 -0.8932 -0.2715
20625SOL    HW164830   3.215  10.551   2.008  1.3637 -1.4773 -1.0601
20625SOL    HW264831   3.147  10.640   1.905 -1.8786  0.0647  2.1869
20626SOL     OW64832   7.130   9.393   6.291 -0.4464 -0.3431 -0.6949
20626SOL    HW164833   7.043   9.380   6.330 -0.9301  0.2971 -1.5269
20626SOL    HW264834   7.112   9.421   6.201  0.5954  0.9699 -0.5303
20627SOL     OW64835   6.351   5.596  10.504  0.0182 -0.5997  0.6075
20627SOL    HW164836   6.402   5.572  10.427  0.8177 -1.2485  1.3128
20627SOL    HW264837   6.291   5.523  10.517  0.4310 -0.8712  1.0457
20628SOL     OW64838   9.947   3.730  10.069 -0.8784 -0.0208 -0.1089
20628SOL    HW164839   9.889   3.760  10.139 -1.0133  0.7827 -0.5596
20628SOL    HW264840  10.033   3.726  10.110 -1.0578 -0.1371  0.2636
20629SOL     OW64841   0.841   6.507   0.900 -0.5404  0.3863 -0.5531
20629SOL    HW164842   0.847   6.467   0.813 -0.1585 -0.5168 -0.1302
20629SOL    HW264843   0.873   6.439   0.960 -1.8882  0.5591  0.4133
20630SOL     OW64844   2.564   5.964   7.054 -0.3005  0.6531 -0.3358
20630SOL    HW164845   2.641   5.986   7.001 -0.2698  0.7731 -0.2421
20630SOL    HW264846   2.583   6.002   7.140  0.1973 -0.5777  0.1276
20631SOL     OW64847   7.542   8.573   6.220 -0.2417  0.4152  0.3998
20631SOL    HW164848   7.559   8.667   6.215  0.5558  0.3762  2.0397
20631SOL    HW264849   7.483   8.556   6.146 -0.2640  2.1609 -0.0254
20632SOL     OW64850   0.071   3.742   3.541 -0.0715 -0.1271 -0.6521
20632SOL    HW164851   0.145   3.735   3.602 -0.2807 -0.1917 -0.4036
20632SOL    HW264852   0.111   3.748   3.455  0.3319  2.1159 -0.3717
20633SOL     OW64853   9.466   2.513   3.632  0.3001  0.4998  0.1440
20633SOL    HW164854   9.481   2.421   3.609  0.2130  0.2647  0.9936
20633SOL    HW264855   9.512   2.525   3.715 -0.1660  1.0735  0.3285
20634SOL     OW64856   2.129   0.945   6.473  0.0149 -0.3320 -0.2793
20634SOL    HW164857   2.050   0.934   6.420  0.4651 -1.1055 -0.8253
20634SOL    HW264858   2.110   0.898   6.555 -0.1231 -0.4342 -0.3705
20635SOL     OW64859   4.989   9.800   1.719 -0.0012 -0.1103 -0.0714
20635SOL    HW164860   4.997   9.761   1.806  2.3042  0.8685  0.2307
20635SOL    HW264861   5.001   9.726   1.659 -2.7510 -1.0029  0.3286
20636SOL     OW64862   0.832   2.084   7.637  0.0245  0.1000 -0.3936
20636SOL    HW164863   0.763   2.140   7.602 -0.2848 -0.3302 -0.4892
20636SOL    HW264864   0.815   1.998   7.596  0.9628  0.1307 -0.8713
20637SOL     OW64865   5.042  10.148   5.256 -0.0611 -0.2262  0.6065
20637SOL    HW164866   4.998  10.088   5.316 -0.3435 -0.0355  0.5958
20637SOL    HW264867   4.978  10.162   5.186  0.0060  0.0773  0.6038
20638SOL     OW64868   0.668   0.168   3.060 -0.3302  0.2850  0.4406
20638SOL    HW164869   0.729   0.094   3.065 -1.0289 -0.2292  3.9643
20638SOL    HW264870   0.698   0.228   3.128 -2.8230  0.7403  1.2140
20639SOL     OW64871   5.522   8.856   7.657  0.0320  0.5718  0.1648
20639SOL    HW164872   5.482   8.788   7.711  0.6375  1.0968  1.3022
20639SOL    HW264873   5.597   8.813   7.616 -1.6366 -0.4355 -2.0271
20640SOL     OW64874   4.352   8.949   4.598  0.1355 -0.1390  0.2847
20640SOL    HW164875   4.301   9.023   4.563  0.7910 -0.2469 -0.9753
20640SOL    HW264876   4.374   8.897   4.521  0.1726 -1.3539  1.0947
20641SOL     OW64877   9.302   2.807   8.485  0.3406 -0.2964  0.2977
20641SOL    HW164878   9.262   2.735   8.534 -1.4149 -0.3131 -1.0536
20641SOL    HW264879   9.337   2.864   8.553 -1.5796 -0.5598  1.6212
20642SOL     OW64880   8.505   7.988  10.454 -0.4253  0.0434  0.5091
20642SOL    HW164881   8.429   7.990  10.512  0.7348  0.8990  2.0507
20642SOL    HW264882   8.580   7.983  10.512  0.7153 -1.9604 -0.9948
20643SOL     OW64883   8.667   0.190   5.256  0.4881  0.1420 -0.1458
20643SOL    HW164884   8.578   0.166   5.281  0.6945  0.0333  0.5249
20643SOL    HW264885   8.709   0.108   5.232  0.5783  0.1062  0.1239
20644SOL     OW64886   9.703   6.480   5.270 -0.1886 -0.7309 -0.9606
20644SOL    HW164887   9.697   6.565   5.226 -0.6407 -0.7050 -0.8583
20644SOL    HW264888   9.664   6.495   5.356  2.4338 -0.2829  0.2518
20645SOL     OW64889   8.697   3.397   1.122  0.1264 -0.1675 -0.0555
20645SOL    HW164890   8.613   3.427   1.085 -0.4783 -1.6580  0.0569
20645SOL    HW264891   8.673   3.326   1.181  1.4400 -0.2477  0.4019
20646SOL     OW64892   0.092   9.378   4.635  0.3702 -0.5137 -0.1200
20646SOL    HW164893   0.002   9.377   4.602  0.1743 -1.9318  0.3996
20646SOL    HW264894   0.091   9.316   4.708  1.6417 -0.1163  0.2516
20647SOL     OW64895   5.667   5.312   4.207  0.1031 -0.5131 -0.2569
20647SOL    HW164896   5.629   5.273   4.128  1.4546 -0.4034 -0.9904
20647SOL    HW264897   5.651   5.406   4.199 -0.2270 -0.5557 -0.1260
20648SOL     OW64898  10.296   9.685   6.730  0.6340 -0.8086 -0.2340
20648SOL    HW164899  10.206   9.669   6.757  0.6908 -1.6926 -0.5420
20648SOL    HW264900  10.340   9.600   6.740  1.2474 -0.5698 -0.7874
20649SOL     OW64901   0.449   7.871   5.978  0.3787  0.4204 -0.5383
20649SOL    HW164902   0.464   7.880   6.072  0.5817 -1.1798 -0.3775
20649SOL    HW264903   0.469   7.957   5.941 -1.6779  1.6838  1.0966
20650SOL     OW64904   4.474   5.459   0.031  0.1675  0.2702  0.6173
20650SOL    HW164905   4.391   5.415   0.052 -0.5454 -0.2910 -2.8243
20650SOL    HW264906   4.503   5.420  -0.051  2.4632  2.3580  0.2895
20651SOL     OW64907   8.181   9.277   5.622  0.1755 -0.8308  0.4777
20651SOL    HW164908   8.150   9.356   5.578  0.1332 -1.2869 -0.3329
20651SOL    HW264909   8.195   9.304   5.713 -3.3844 -0.7945  1.1528
20652SOL     OW64910   1.803  10.430   5.089 -0.2116  0.3964  0.5602
20652SOL    HW164911   1.860  10.484   5.144  0.0764 -0.1244  0.7845
20652SOL    HW264912   1.754  10.493   5.036  0.8228  0.8441  0.1142
20653SOL     OW64913   9.816   2.616   4.993  0.4036 -0.3619  0.4051
20653SOL    HW164914   9.889   2.677   4.991 -0.5135  0.7815  0.8119
20653SOL    HW264915   9.852   2.537   5.034  1.2367  0.4072  1.1860
20654SOL     OW64916   8.475   5.404   1.864 -0.0492 -0.3190 -0.0958
20654SOL    HW164917   8.508   5.488   1.831  0.8601 -0.4848  0.3798
20654SOL    HW264918   8.395   5.427   1.911  1.5083  0.6643  2.2227
20655SOL     OW64919   5.766   8.889   1.941  0.3982  0.1260  1.0829
20655SOL    HW164920   5.748   8.803   1.978  0.3675  0.2888  1.4445
20655SOL    HW264921   5.726   8.886   1.854  2.3098 -0.9978  0.1842
20656SOL     OW64922   3.985   1.693   5.780  0.2321 -0.4023 -0.4635
20656SOL    HW164923   3.899   1.685   5.740  1.1749 -0.4169 -2.6337
20656SOL    HW264924   4.006   1.786   5.774  0.1462 -0.2999  0.6084
20657SOL     OW64925   0.240   6.750   5.302  0.3437 -0.3163  0.5719
20657SOL    HW164926   0.227   6.775   5.210 -0.9379 -0.6473  0.6526
20657SOL    HW264927   0.217   6.658   5.305 -1.0160  0.0271  1.4936
20658SOL     OW64928   1.623  10.177   2.741  0.0962  0.0061 -0.9079
20658SOL    HW164929   1.672  10.106   2.783 -0.0834 -0.2915 -1.1956
20658SOL    HW264930   1.538  10.177   2.785  0.2391  0.3114 -0.6296
20659SOL     OW64931   1.793   3.243   2.623  0.1089  0.5663 -0.0339
20659SOL    HW164932   1.709   3.198   2.617 -0.0506  0.7743  0.5371
20659SOL    HW264933   1.849   3.183   2.671  0.3286  0.3716 -0.5316
20660SOL     OW64934   9.150  10.541  10.560 -0.8123 -0.5435  0.2181
20660SOL    HW164935   9.058  10.532  10.534 -0.6630 -2.0326  0.1415
20660SOL    HW264936   9.168  10.463  10.613  0.9348 -1.3123 -1.3911
20661SOL     OW64937   1.017   3.785   6.230 -0.1916  0.1536 -0.0231
20661SOL    HW164938   0.931   3.823   6.244 -0.0505  1.0782 -1.4697
20661SOL    HW264939   1.064   3.800   6.312 -1.1829  0.2316  0.5401
20662SOL     OW64940   7.323   6.883   8.215  0.0803 -0.4027 -0.5233
20662SOL    HW164941   7.311   6.789   8.228  2.0650 -0.6423 -0.0961
20662SOL    HW264942   7.418   6.894   8.210 -0.1565  1.4325 -1.7869
20663SOL     OW64943   3.564   2.141   5.719  0.0548  0.3124 -0.5571
20663SOL    HW164944   3.490   2.161   5.776 -0.1194  0.3134 -0.7844
20663SOL    HW264945   3.525   2.115   5.636  0.2880 -0.4048 -0.4498
20664SOL     OW64946   2.425   2.415   6.827  0.4085  0.3875 -0.0981
20664SOL    HW164947   2.339   2.436   6.790  0.5879  2.0376  0.3439
20664SOL    HW264948   2.441   2.324   6.801 -0.9657  0.4147 -1.1447
20665SOL     OW64949   2.834   7.374   5.464 -0.0310 -0.2087  0.1428
20665SOL    HW164950   2.743   7.386   5.493 -0.0552  0.3804 -0.1693
20665SOL    HW264951   2.884   7.373   5.545  0.0193  2.4500  0.2286
20666SOL     OW64952   1.988   4.051   7.996 -0.2863 -0.2953 -0.2796
20666SOL    HW164953   2.039   3.991   7.941 -1.1040  0.0192 -1.4328
20666SOL    HW264954   1.928   4.093   7.934 -1.5988 -0.3078  0.9572
20667SOL     OW64955   1.602   5.945   9.225  0.2529  0.2999  0.0419
20667SOL    HW164956   1.661   6.006   9.179  2.3445 -1.0476  0.7711
20667SOL    HW264957   1.516   5.985   9.217  0.8760  1.3625 -2.9280
20668SOL     OW64958   5.227   0.596   1.607  0.7427  0.0527  0.3779
20668SOL    HW164959   5.161   0.534   1.638 -0.3662  0.1978 -1.5523
20668SOL    HW264960   5.278   0.547   1.542 -0.8583  1.3488 -2.0189
20669SOL     OW64961  10.363   7.575   1.666  0.2577  0.3162 -0.3103
20669SOL    HW164962  10.270   7.569   1.688  0.4644  1.2259  0.9286
20669SOL    HW264963  10.376   7.506   1.601 -1.5669  1.0426 -1.5552
20670SOL     OW64964   9.689   7.179   9.928 -0.8443  0.3806 -0.0827
20670SOL    HW164965   9.684   7.110   9.862 -0.9645 -0.1537  0.4680
20670SOL    HW264966   9.607   7.227   9.919 -1.1945 -0.1604  0.1760
20671SOL     OW64967   2.435   7.978   7.976 -0.0004  0.1962  0.2234
20671SOL    HW164968   2.442   7.947   8.066 -0.5652 -0.6707 -0.0161
20671SOL    HW264969   2.404   8.068   7.983  0.5404  0.3344  0.9069
20672SOL     OW64970   2.157   2.733   0.701 -0.2698  0.1025 -0.3903
20672SOL    HW164971   2.098   2.658   0.705  0.9466 -0.8769 -0.2556
20672SOL    HW264972   2.144   2.779   0.784  0.9349 -1.5303  0.7544
20673SOL     OW64973   1.997   0.343   2.050 -0.5035  0.2934  0.4327
20673SOL    HW164974   1.996   0.340   2.145 -2.0250 -0.1381  0.4202
20673SOL    HW264975   2.052   0.419   2.029 -0.1419  0.3747  1.6389
20674SOL     OW64976   5.230   9.259   5.270  0.3227 -0.0299  0.0555
20674SOL    HW164977   5.259   9.241   5.359  0.3444  0.3262  0.1244
20674SOL    HW264978   5.142   9.295   5.280  0.5043  0.4505 -0.0260
20675SOL     OW64979  10.326  10.151   3.455  0.7435  0.0537 -0.1502
20675SOL    HW164980  10.384  10.087   3.414  0.1939 -1.4569  1.3055
20675SOL    HW264981  10.242  10.139   3.411  0.6806 -0.1252  0.0165
20676SOL     OW64982   8.402   4.740   9.926  0.2333  0.3216 -0.3604
20676SOL    HW164983   8.484   4.749   9.974 -0.0093  1.6247 -0.1370
20676SOL    HW264984   8.345   4.691   9.985  0.4693  0.4922  0.0133
20677SOL     OW64985   2.882   7.548   1.464  0.6427 -0.5315  0.3294
20677SOL    HW164986   2.817   7.481   1.483  0.2996 -0.3011 -0.0308
20677SOL    HW264987   2.844   7.600   1.393 -0.4647  1.9454  2.6097
20678SOL     OW64988   0.273   4.183   9.851  0.3059 -0.2293 -0.3368
20678SOL    HW164989   0.204   4.117   9.843 -0.2440  0.1374  1.1877
20678SOL    HW264990   0.227   4.266   9.859  0.8948  0.0016  0.9173
20679SOL     OW64991   1.550   0.760   9.709 -0.0394  0.0379  0.1530
20679SOL    HW164992   1.603   0.753   9.630  2.3971  2.1488  1.4266
20679SOL    HW264993   1.557   0.675   9.751 -0.1579 -0.6468 -1.1875
20680SOL     OW64994   3.709   5.092   2.353  0.3877  0.1917  0.0693
20680SOL    HW164995   3.779   5.136   2.304  1.3217 -1.5178 -0.2218
20680SOL    HW264996   3.737   5.000   2.357 -1.6419 -0.4605  0.3366
20681SOL     OW64997   6.647   6.515   0.844 -0.2352  0.3124 -0.4380
20681SOL    HW164998   6.593   6.465   0.906 -1.9724  3.0111  0.4289
20681SOL    HW264999   6.708   6.563   0.900 -0.3899  1.1758 -1.0011
20682SOL     OW65000   1.636   4.184   1.632 -0.1204 -0.1196 -0.3246
20682SOL    HW165001   1.594   4.269   1.646 -1.0542 -0.7132  0.6531
20682SOL    HW265002   1.563   4.122   1.631  0.2564 -0.6885 -3.6597
20683SOL     OW65003   4.684   4.621   8.180  0.2508  0.1027  0.3815
20683SOL    HW165004   4.613   4.563   8.209  1.1351 -1.4219 -0.3790
20683SOL    HW265005   4.763   4.567   8.188  1.2172  1.4865  0.4089
20684SOL     OW65006   9.868   1.285   5.471 -0.6631  0.7796  0.0597
20684SOL    HW165007   9.940   1.340   5.440 -0.6322 -0.1088 -1.5524
20684SOL    HW265008   9.790   1.322   5.430 -0.3843 -1.6082 -2.9673
20685SOL     OW65009   5.096   3.901   8.523  0.4346 -0.0037  0.4899
20685SOL    HW165010   5.166   3.892   8.458 -0.0590 -2.4250  0.1905
20685SOL    HW265011   5.122   3.977   8.576  1.6091  1.1341 -1.5801
20686SOL     OW65012   9.622   7.944  10.363  0.0739  0.1710  0.2327
20686SOL    HW165013   9.586   8.030  10.387  0.6478  0.3240  0.5556
20686SOL    HW265014   9.706   7.964  10.322 -0.8545 -0.0815 -1.9292
20687SOL     OW65015   1.559  10.306   0.387  0.3647 -0.2396 -0.3269
20687SOL    HW165016   1.473  10.331   0.421  1.2015  2.6190 -0.0625
20687SOL    HW265017   1.542  10.274   0.298 -0.9081  1.1423 -0.6172
20688SOL     OW65018   1.587   5.010   8.575 -0.6498  0.2063  0.3832
20688SOL    HW165019   1.650   5.041   8.640 -0.3459  2.9319 -1.0633
20688SOL    HW265020   1.512   5.068   8.584 -0.2944  1.1796 -2.1268
20689SOL     OW65021   1.097   5.900   3.460  0.0308 -0.1376 -0.1212
20689SOL    HW165022   1.144   5.816   3.455 -0.3134 -0.3488  0.1539
20689SOL    HW265023   1.005   5.876   3.454 -0.0443  0.2763 -0.6715
20690SOL     OW65024   2.555   7.409   8.501  0.8163 -0.5738 -0.2097
20690SOL    HW165025   2.596   7.366   8.426 -0.5079 -1.2446 -0.5782
20690SOL    HW265026   2.522   7.492   8.467  1.1362 -0.4083 -0.1163
20691SOL     OW65027   4.022   9.950   3.249  0.7133 -0.1122  0.3075
20691SOL    HW165028   4.048   9.966   3.339 -1.0574  0.0649  0.8247
20691SOL    HW265029   3.961   9.876   3.255 -1.7126  1.7255 -0.3271
20692SOL     OW65030   3.403   9.799   6.257  0.4310 -0.0834 -0.0613
20692SOL    HW165031   3.479   9.858   6.262 -0.0519  0.4330  2.1378
20692SOL    HW265032   3.357   9.812   6.340 -1.1337 -1.6662 -0.6241
20693SOL     OW65033   6.143   8.064   6.511 -0.2851  0.1882 -0.5350
20693SOL    HW165034   6.179   8.077   6.598 -1.4325 -1.6851  0.2676
20693SOL    HW265035   6.090   8.143   6.495  0.7134  0.9914  0.0166
20694SOL     OW65036   4.078   6.157   6.280 -0.7145  0.5476 -0.4409
20694SOL    HW165037   4.154   6.203   6.245  1.0752 -2.0065 -0.1611
20694SOL    HW265038   4.010   6.169   6.214 -0.5703  3.8587 -0.1753
20695SOL     OW65039   9.789   2.856   5.166 -0.4034 -0.4077 -0.2171
20695SOL    HW165040   9.777   2.770   5.205 -0.4064 -0.9636 -1.4092
20695SOL    HW265041   9.785   2.841   5.072  0.6181  0.7456 -0.4701
20696SOL     OW65042   5.936   9.275   2.549 -0.4902 -0.7538 -0.1360
20696SOL    HW165043   5.979   9.360   2.550  0.2923 -1.1389 -0.4448
20696SOL    HW265044   5.992   9.220   2.494 -1.8187 -1.0330 -1.2678
20697SOL     OW65045   1.173   9.847   5.859  0.0286 -0.2868 -0.1188
20697SOL    HW165046   1.250   9.904   5.864 -0.1984  0.0156 -0.0096
20697SOL    HW265047   1.193   9.774   5.918 -0.8556  1.1288  2.0659
20698SOL     OW65048   3.220   5.183   3.279  0.1851  0.2065  0.4459
20698SOL    HW165049   3.190   5.240   3.350  2.5297  0.9137  0.9520
20698SOL    HW265050   3.281   5.237   3.229 -0.0350 -0.8626 -1.0228
20699SOL     OW65051   5.143   6.327   0.852  0.2415 -0.5521 -0.3089
20699SOL    HW165052   5.106   6.306   0.938  0.6353  1.4448  0.4064
20699SOL    HW265053   5.190   6.409   0.866  0.6179 -0.3699 -2.3661
20700SOL     OW65054   2.657   1.758   4.907  0.9205 -0.1345 -0.3442
20700SOL    HW165055   2.689   1.840   4.945  0.3476 -0.4129  0.7624
20700SOL    HW265056   2.562   1.769   4.904  0.6965 -1.3689  1.2861
20701SOL     OW65057   2.917   3.269   2.481  0.8043  0.3104 -0.3887
20701SOL    HW165058   2.896   3.218   2.559 -2.1008  1.5785 -0.1984
20701SOL    HW265059   2.982   3.217   2.434 -0.4374 -2.5062  0.8247
20702SOL     OW65060   8.228   0.112   7.104  0.0682 -0.4116  0.4255
20702SOL    HW165061   8.142   0.073   7.124 -0.1566 -0.2059 -0.1281
20702SOL    HW265062   8.280   0.038   7.073  0.9944 -1.1189  3.3492
20703SOL     OW65063   4.916   1.603   6.679  0.3214  0.2177 -0.2582
20703SOL    HW165064   4.970   1.638   6.749  0.8170 -0.1291 -0.4585
20703SOL    HW265065   4.963   1.525   6.649 -0.1445  0.0728 -0.6303
20704SOL     OW65066   0.643   8.088   3.381 -0.0817 -0.7087  0.2304
20704SOL    HW165067   0.725   8.090   3.432 -0.2374  1.1899  0.4641
20704SOL    HW265068   0.640   7.999   3.345  1.2173 -1.3691  1.6158
20705SOL     OW65069   4.108   7.137   6.021 -0.4155 -0.6352  0.2130
20705SOL    HW165070   4.134   7.204   6.085 -0.7420 -1.6670  1.4833
20705SOL    HW265071   4.025   7.103   6.054 -1.4776 -0.0383 -1.7099
20706SOL     OW65072   2.183   2.455   2.334 -0.3129 -0.2031  0.0251
20706SOL    HW165073   2.171   2.420   2.246 -0.6416 -0.8999  0.3421
20706SOL    HW265074   2.133   2.537   2.334  0.3216  0.2004 -0.6643
20707SOL     OW65075  10.537   8.081   2.899 -0.5511  0.1570 -0.0639
20707SOL    HW165076  10.454   8.036   2.916 -0.4305 -0.1451 -0.2600
20707SOL    HW265077  10.592   8.014   2.858 -1.0833  1.0335 -2.3701
20708SOL     OW65078   4.512   0.032  10.254 -0.2954 -0.1814 -0.1836
20708SOL    HW165079   4.419   0.009  10.254 -0.1095 -0.9583 -0.4506
20708SOL    HW265080   4.540   0.018  10.163 -0.2875  1.6532 -0.5103
20709SOL     OW65081   4.547   7.460   3.240 -0.5945 -0.1778 -0.2281
20709SOL    HW165082   4.462   7.431   3.209  0.6199 -1.7239 -2.4009
20709SOL    HW265083   4.578   7.521   3.173  0.5635 -0.7275 -0.2174
20710SOL     OW65084   6.991   0.594   1.560 -0.5462 -0.0779 -0.0127
20710SOL    HW165085   6.937   0.515   1.550  1.2973 -1.5560  0.9373
20710SOL    HW265086   7.049   0.593   1.484 -1.7462  1.4695 -1.0047
20711SOL     OW65087   1.769   8.572   3.155  0.1407  0.4670  0.1714
20711SOL    HW165088   1.719   8.503   3.113 -2.2148  1.6423  0.8566
20711SOL    HW265089   1.835   8.527   3.208 -1.8395 -1.3272  1.2552
20712SOL     OW65090   8.325   0.074   1.754  0.0816 -1.1051  0.6340
20712SOL    HW165091   8.335   0.130   1.677  1.4752 -1.7455  0.3130
20712SOL    HW265092   8.231   0.053   1.757  0.0482 -1.2988 -1.0565
20713SOL     OW65093   7.086   4.429   2.677 -0.3876 -0.3134 -0.1421
20713SOL    HW165094   7.174   4.463   2.658  0.3384 -2.1471 -0.2425
20713SOL    HW265095   7.033   4.507   2.689  1.4521  0.8608  0.8590
20714SOL     OW65096   4.835   1.393   4.118 -0.1868  0.1536  0.1566
20714SOL    HW165097   4.838   1.310   4.166 -0.3987  0.4479  0.6816
20714SOL    HW265098   4.775   1.376   4.046  0.4575 -0.4208 -0.2624
20715SOL     OW65099   1.891   4.657   2.131  0.0964 -0.1492 -0.9078
20715SOL    HW165100   1.810   4.635   2.178  0.8534 -1.8686 -0.3197
20715SOL    HW265101   1.864   4.667   2.040 -1.1997  2.0340 -0.3599
20716SOL     OW65102   7.863   7.952   2.085  0.0180  0.1058  0.1491
20716SOL    HW165103   7.872   7.954   2.181 -1.7259 -0.6968  0.3602
20716SOL    HW265104   7.877   8.043   2.059 -0.0722  0.4513  1.2331
20717SOL     OW65105   8.033   8.899   2.920 -0.3788 -0.4030 -0.1961
20717SOL    HW165106   7.975   8.880   2.993 -0.9608  1.6479 -0.0614
20717SOL    HW265107   8.095   8.826   2.919 -0.3267 -0.4883  2.3791
20718SOL     OW65108   1.608   1.650   8.291  0.4902  0.0356 -0.0315
20718SOL    HW165109   1.588   1.619   8.202  1.1399 -1.6995  0.3909
20718SOL    HW265110   1.531   1.701   8.316  0.9059  1.8028 -2.1163
20719SOL     OW65111   5.630   5.234   2.640 -0.0674  0.8444  0.8129
20719SOL    HW165112   5.686   5.228   2.562  0.4038 -0.0844  1.2013
20719SOL    HW265113   5.619   5.328   2.655 -1.9295  1.1113 -1.6094
20720SOL     OW65114   3.869  10.210   7.441  0.2288  0.4366  0.0482
20720SOL    HW165115   3.819  10.156   7.381 -2.0844 -0.0416  2.2488
20720SOL    HW265116   3.870  10.297   7.401 -0.1999 -0.1275 -1.2257
20721SOL     OW65117   5.150   7.327   7.704 -0.4672  0.6688 -0.6117
20721SOL    HW165118   5.078   7.328   7.766  1.6346  1.1952  1.9949
20721SOL    HW265119   5.177   7.236   7.699 -1.1705  0.4880 -1.5094
20722SOL     OW65120   5.742   9.494   7.251  0.2307 -0.2907 -0.2144
20722SOL    HW165121   5.660   9.509   7.298  0.2175 -0.7488 -0.0829
20722SOL    HW265122   5.717   9.445   7.173  0.2773  0.3063 -0.6148
20723SOL     OW65123   6.590   4.327   5.581  0.6926  0.1692  0.3643
20723SOL    HW165124   6.497   4.352   5.585  0.2130 -1.6308  1.6699
20723SOL    HW265125   6.631   4.375   5.652  1.3730  2.9404 -1.7212
20724SOL     OW65126   4.699   9.466   8.203 -0.2349 -0.4397  0.1113
20724SOL    HW165127   4.614   9.467   8.246 -0.3352  0.6495 -0.0956
20724SOL    HW265128   4.761   9.489   8.271 -0.3179  0.5992 -0.1519
20725SOL     OW65129   2.660   3.471   1.907  0.0860 -0.0239 -0.2826
20725SOL    HW165130   2.617   3.536   1.850 -0.5250  0.4194  0.6559
20725SOL    HW265131   2.641   3.387   1.865  0.6600  0.3607 -1.3739
20726SOL     OW65132  10.383   3.116   6.947  0.2204  0.1533  0.4287
20726SOL    HW165133  10.365   3.139   6.856 -0.7624 -0.7920  0.3695
20726SOL    HW265134  10.477   3.133   6.958  0.1203  1.3804 -0.4216
20727SOL     OW65135  10.452   5.593   8.069  0.1146  0.5596  0.3179
20727SOL    HW165136  10.410   5.676   8.090 -0.9139 -0.3290  1.9631
20727SOL    HW265137  10.463   5.549   8.153  0.5549 -1.0181 -0.5164
20728SOL     OW65138   8.929   2.773   5.645  0.2687 -0.1244  0.1849
20728SOL    HW165139   8.887   2.805   5.725  2.0649  1.9204  0.4200
20728SOL    HW265140   8.892   2.826   5.575  1.0185  0.3652  0.1427
20729SOL     OW65141   8.193   1.975   2.775 -0.0074  0.4485  0.2042
20729SOL    HW165142   8.199   1.992   2.869 -0.7549  0.8668  0.1908
20729SOL    HW265143   8.107   2.010   2.750  0.4674  0.9783 -0.7667
20730SOL     OW65144   9.991   9.320   9.774  0.2486  0.1833 -0.4839
20730SOL    HW165145   9.975   9.319   9.868  1.7226  0.5484 -0.2118
20730SOL    HW265146   9.906   9.344   9.736 -0.2058  0.6645  0.7800
20731SOL     OW65147   9.921   4.767   5.651 -0.3628 -0.3300 -0.2642
20731SOL    HW165148   9.900   4.765   5.744  0.4862 -1.8693 -0.0801
20731SOL    HW265149   9.854   4.824   5.612 -0.7851  0.2464  1.2498
20732SOL     OW65150   3.708   4.196   0.456 -0.1549 -0.1804 -0.1682
20732SOL    HW165151   3.802   4.187   0.446  0.2045  0.2752  2.1604
20732SOL    HW265152   3.691   4.288   0.435 -0.0179 -0.1832 -0.2903
20733SOL     OW65153   2.513  10.426   5.712  0.6831 -0.5519 -0.0162
20733SOL    HW165154   2.502  10.499   5.773  1.9925 -0.1178 -0.2612
20733SOL    HW265155   2.493  10.463   5.626  1.8081 -0.3267 -0.1992
20734SOL     OW65156   5.264   4.400   7.228  0.8201 -0.2623 -0.8656
20734SOL    HW165157   5.235   4.491   7.239 -0.0541 -0.4980 -1.1389
20734SOL    HW265158   5.293   4.373   7.315 -2.0745 -0.7783  0.0667
20735SOL     OW65159   5.218   7.123   8.751 -0.3656  0.3803  0.6490
20735SOL    HW165160   5.170   7.105   8.670  1.9935 -0.5822 -0.6426
20735SOL    HW265161   5.207   7.044   8.803 -0.1916  0.1541  0.3491
20736SOL     OW65162   6.439   8.593   1.797 -0.0201 -0.1344  0.6562
20736SOL    HW165163   6.517   8.631   1.757 -0.6732  0.7218  0.1628
20736SOL    HW265164   6.432   8.506   1.757  0.4476 -0.0556  0.3943
20737SOL     OW65165   9.372   1.579   4.459  0.0881 -0.2360  0.5225
20737SOL    HW165166   9.454   1.586   4.509  0.0482 -0.6923  0.6582
20737SOL    HW265167   9.357   1.484   4.452 -0.4180 -0.1516  0.4772
20738SOL     OW65168   1.803   6.183   2.844 -0.2587  0.3666 -0.1614
20738SOL    HW165169   1.785   6.101   2.799 -0.0551  0.6958 -0.8717
20738SOL    HW265170   1.790   6.250   2.777  1.4890  0.7749 -0.1438
20739SOL     OW65171   8.276   1.202   3.936  0.0903  0.0349 -0.6542
20739SOL    HW165172   8.212   1.231   3.871 -0.6358 -0.1459 -0.0238
20739SOL    HW265173   8.357   1.248   3.911 -0.2933  0.3257 -1.4025
20740SOL     OW65174   6.003   6.625  10.551  0.5937  0.3725  0.6628
20740SOL    HW165175   6.061   6.562  10.509 -0.1897  0.7883 -1.1236
20740SOL    HW265176   6.037   6.711  10.525 -0.5003  0.6257  0.0117
20741SOL     OW65177   1.931   2.264   0.212 -0.4619  0.1254  0.5000
20741SOL    HW165178   1.892   2.278   0.126 -1.1119  0.6885  0.8765
20741SOL    HW265179   1.886   2.187   0.246  0.5575 -0.7575 -0.0902
20742SOL     OW65180   5.067   6.699   6.752 -0.0657  0.5482 -0.2029
20742SOL    HW165181   5.086   6.611   6.785 -1.4994  0.6014  0.8422
20742SOL    HW265182   4.997   6.687   6.688  0.4882  0.8301 -0.8828
20743SOL     OW65183   1.678   8.029  10.344  0.1415 -0.3164 -0.0627
20743SOL    HW165184   1.685   8.068  10.431 -0.3983  0.9371 -0.5532
20743SOL    HW265185   1.760   8.050  10.300  0.4582 -1.0415  0.1663
20744SOL     OW65186   4.728   2.073   5.546  0.0500  0.2945 -0.4131
20744SOL    HW165187   4.707   2.013   5.474 -0.6707  1.2772 -1.0379
20744SOL    HW265188   4.725   2.160   5.507  1.9002  0.7151  0.2927
20745SOL     OW65189   2.492   8.832  10.171  0.0141 -0.3569  0.4322
20745SOL    HW165190   2.465   8.812  10.261  3.2593 -0.1791  1.5751
20745SOL    HW265191   2.577   8.788  10.161  0.6308  1.1712 -1.9002
20746SOL     OW65192   3.011   5.725   3.164 -0.4458 -0.4712 -0.1972
20746SOL    HW165193   3.036   5.799   3.219 -1.0241  0.3161 -0.9713
20746SOL    HW265194   3.093   5.678   3.149 -0.3596 -1.0480  1.7961
20747SOL     OW65195   5.155  10.059   2.280 -0.6581  0.3258 -1.1616
20747SOL    HW165196   5.212  10.003   2.332 -2.0124  0.3709  0.4836
20747SOL    HW265197   5.107   9.998   2.223 -0.7982 -0.0037 -0.7004
20748SOL     OW65198   8.193   3.978   8.809 -0.0346 -0.2242  0.5524
20748SOL    HW165199   8.175   3.887   8.786  0.4349 -0.5544  1.4367
20748SOL    HW265200   8.227   3.974   8.899  2.8347  0.4913 -0.3843
20749SOL     OW65201   9.149   7.421   9.786  0.1805 -0.0703  0.3681
20749SOL    HW165202   9.150   7.353   9.855 -0.0124 -1.1630 -0.6698
20749SOL    HW265203   9.068   7.405   9.738 -1.1376  2.4968  1.5768
20750SOL     OW65204   8.344   5.980   3.102  0.0233 -0.4534 -0.0967
20750SOL    HW165205   8.248   5.983   3.096 -0.0840 -1.6851  0.6897
20750SOL    HW265206   8.363   6.013   3.189  0.4940  1.8139 -0.9821
20751SOL     OW65207   6.084  10.343   0.982 -0.2389 -0.1623  0.4311
20751SOL    HW165208   6.122  10.282   1.046  0.1568 -0.4878 -0.1060
20751SOL    HW265209   6.017  10.291   0.936  0.0284 -0.1676  0.0413
20752SOL     OW65210   1.431   1.180   2.471  0.1151  0.2764  0.2305
20752SOL    HW165211   1.427   1.261   2.420  1.7048 -0.1253 -0.6138
20752SOL    HW265212   1.342   1.168   2.505 -0.6819  1.2233 -1.4167
20753SOL     OW65213   7.809   7.674   2.305 -0.3665  0.2024  0.3413
20753SOL    HW165214   7.795   7.769   2.304 -1.1354  0.0991  0.6215
20753SOL    HW265215   7.816   7.652   2.398 -2.3559 -0.3004  0.4111
20754SOL     OW65216   1.786   7.375   1.733 -0.1686 -1.4279  0.4282
20754SOL    HW165217   1.840   7.363   1.811  0.1176 -2.7141  0.0474
20754SOL    HW265218   1.720   7.440   1.759  1.3466 -0.0528  0.9937
20755SOL     OW65219   9.582   1.827   0.981  0.1232  0.4306  0.1474
20755SOL    HW165220   9.526   1.814   0.905 -2.7869  1.0109  2.0528
20755SOL    HW265221   9.596   1.922   0.985 -0.6730  0.5271  0.9207
20756SOL     OW65222   3.084   8.973   1.232 -0.2016  0.5272 -0.0386
20756SOL    HW165223   3.151   9.011   1.289 -0.2927 -0.2639  0.6253
20756SOL    HW265224   3.010   9.035   1.238  0.1572  0.9648 -0.0993
20757SOL     OW65225   5.485   4.419   7.413 -0.6663  0.1521 -0.4250
20757SOL    HW165226   5.459   4.477   7.484  0.7660  0.5894 -0.2418
20757SOL    HW265227   5.521   4.477   7.346  1.1349 -0.5257 -0.0860
20758SOL     OW65228   0.846   5.388   6.393  0.5079 -0.5130  0.6993
20758SOL    HW165229   0.928   5.425   6.425  0.6851 -1.1733  1.0400
20758SOL    HW265230   0.791   5.463   6.373  1.1374 -0.0654  0.6271
20759SOL     OW65231   2.952   7.015   1.742 -0.4855  0.3963  0.3060
20759SOL    HW165232   3.044   7.043   1.739 -0.2065 -0.5189  0.1621
20759SOL    HW265233   2.914   7.052   1.662  0.5774 -1.9303 -1.4179
20760SOL     OW65234   6.520   7.536   9.621 -0.2802 -0.0494  0.2315
20760SOL    HW165235   6.589   7.473   9.597  2.1289  1.9138  1.5877
20760SOL    HW265236   6.511   7.527   9.716  1.2482  2.6068  0.7089
20761SOL     OW65237   7.778   6.922   0.838 -0.1569  0.0312  0.5882
20761SOL    HW165238   7.862   6.876   0.844 -0.6509 -0.9137  0.4194
20761SOL    HW265239   7.775   6.954   0.748 -0.5643 -1.1100  0.1807
20762SOL     OW65240   8.040   7.995   0.494  0.2766  0.0742 -0.1976
20762SOL    HW165241   7.947   8.007   0.475  0.0506  1.3017  1.4231
20762SOL    HW265242   8.043   7.976   0.588  1.6401 -0.3676 -0.3053
20763SOL     OW65243   8.996  10.027   9.521 -0.3962  0.2734 -0.2662
20763SOL    HW165244   8.922  10.083   9.546 -1.4168 -1.3932  0.6440
20763SOL    HW265245   9.073  10.073   9.554 -1.3187  0.4802  1.7949
20764SOL     OW65246   4.668  10.383   0.938  0.6691  0.1849 -0.5948
20764SOL    HW165247   4.719  10.309   0.970  0.1134 -0.6312 -1.5353
20764SOL    HW265248   4.622  10.349   0.860 -2.6570  0.3064  1.1125
20765SOL     OW65249   6.694  10.635   4.151 -0.2142 -0.4410 -0.6508
20765SOL    HW165250   6.782  10.601   4.165  0.0544 -0.1405 -1.5593
20765SOL    HW265251   6.653  10.633   4.238  1.3114  1.1853  0.1574
20766SOL     OW65252   7.912   7.187  10.373 -0.4157 -0.8571 -0.8871
20766SOL    HW165253   7.884   7.120  10.311 -1.8798 -1.4004  0.2976
20766SOL    HW265254   7.884   7.269  10.334 -1.4330 -1.2025 -0.9172
20767SOL     OW65255   5.955   0.113   4.820  0.5328  0.4151 -0.0382
20767SOL    HW165256   6.014   0.185   4.799  0.3686  0.3986 -0.5595
20767SOL    HW265257   5.897   0.106   4.745  2.1393 -1.9060 -1.1846
20768SOL     OW65258   0.943   1.289   1.411  0.4404 -0.2446 -0.1042
20768SOL    HW165259   0.974   1.341   1.337 -1.0859 -0.0531 -0.6464
20768SOL    HW265260   0.899   1.352   1.468  1.3112 -0.4480  0.8126
20769SOL     OW65261   0.453   1.659   0.970 -0.1100  0.3446 -0.2236
20769SOL    HW165262   0.450   1.748   1.004  0.1632  0.1696  0.2829
20769SOL    HW265263   0.543   1.647   0.940  1.2190 -1.1394  3.6982
20770SOL     OW65264   7.651   6.812   3.977  0.1209 -0.5855 -0.5008
20770SOL    HW165265   7.703   6.858   4.042  2.3921 -2.7885 -0.5833
20770SOL    HW265266   7.617   6.881   3.920  0.1236  1.1970  1.5254
20771SOL     OW65267   0.652   8.860   2.660 -0.1503 -0.3450  0.1504
20771SOL    HW165268   0.738   8.819   2.671  1.6656  2.9530 -0.2997
20771SOL    HW265269   0.663   8.947   2.698 -2.4851  1.1225 -2.2493
20772SOL     OW65270   5.025   3.947   2.276 -0.5753  0.0202  0.0777
20772SOL    HW165271   4.937   3.984   2.267 -0.4657  0.1898 -0.3218
20772SOL    HW265272   5.032   3.884   2.204  0.0573  0.8742 -0.6187
20773SOL     OW65273   0.639   8.508   0.901  0.4767 -0.3301  0.4925
20773SOL    HW165274   0.577   8.563   0.853 -0.8001 -1.4706  0.7733
20773SOL    HW265275   0.589   8.430   0.924  1.8859 -1.0650  1.1920
20774SOL     OW65276  10.179  10.660   3.398 -0.0743  0.0359 -0.1666
20774SOL    HW165277  10.128  10.739   3.417  0.0996 -0.0759  0.8267
20774SOL    HW265278  10.249  10.660   3.463  0.4984 -0.4385 -0.7679
20775SOL     OW65279   4.374   7.767   7.967  0.1892  1.0166 -0.2378
20775SOL    HW165280   4.279   7.782   7.971  0.0622  0.0234  1.8775
20775SOL    HW265281   4.412   7.846   8.004  0.0051  0.3730  1.4315
20776SOL     OW65282   4.109   4.414   2.208 -0.3102 -0.1935  0.8019
20776SOL    HW165283   4.083   4.392   2.298 -0.9429 -2.9519  0.0513
20776SOL    HW265284   4.035   4.385   2.154 -0.4942  2.5403 -0.5825
20777SOL     OW65285   5.904   8.053   2.847 -0.0341  0.1253 -0.0700
20777SOL    HW165286   5.874   7.985   2.907  0.4253 -0.5855 -0.6307
20777SOL    HW265287   5.916   8.008   2.764  0.0043  0.9560 -0.5240
20778SOL     OW65288   2.947   0.591   5.238  0.7141  0.8238 -0.1049
20778SOL    HW165289   2.957   0.545   5.155 -0.6578  1.8423 -0.8592
20778SOL    HW265290   2.919   0.523   5.299  0.1263  0.3720 -0.8615
20779SOL     OW65291   6.885   1.691   2.357 -0.0530  0.1826 -0.2197
20779SOL    HW165292   6.912   1.730   2.440 -0.0886  2.6293 -1.2668
20779SOL    HW265293   6.806   1.642   2.378 -0.5428  1.4560  1.0586
20780SOL     OW65294   5.038   3.717   9.624 -0.7712 -0.4028  0.2937
20780SOL    HW165295   5.119   3.668   9.612  0.3672  0.8031  2.4322
20780SOL    HW265296   4.969   3.657   9.596  0.7798 -1.6646 -1.0590
20781SOL     OW65297   5.203   1.889   1.501 -0.1639  0.1350 -0.1430
20781SOL    HW165298   5.285   1.873   1.454 -0.1588  1.1044 -0.4848
20781SOL    HW265299   5.164   1.802   1.511 -0.7130 -0.0524 -2.9564
20782SOL     OW65300   3.528  10.622   0.960 -0.1101 -0.0434 -0.2254
20782SOL    HW165301   3.582  10.602   0.884 -0.3115  0.0250 -0.3857
20782SOL    HW265302   3.591  10.632   1.032  0.3023  2.2425 -0.8412
20783SOL     OW65303   5.743   4.226   3.037  0.0984  0.7578  0.3569
20783SOL    HW165304   5.738   4.164   3.111  1.0075  0.0885 -0.1251
20783SOL    HW265305   5.835   4.228   3.014 -0.1406  1.1820 -0.5894
20784SOL     OW65306   0.129   8.942   0.521  0.5045  0.0750 -0.0141
20784SOL    HW165307   0.092   8.890   0.449 -2.4199  1.7803  0.1028
20784SOL    HW265308   0.132   8.881   0.595  1.8440 -1.1945 -1.0300
20785SOL     OW65309   9.452   3.696   4.569  0.3683 -0.0775 -0.2351
20785SOL    HW165310   9.545   3.682   4.551  0.1360 -2.2625 -0.0678
20785SOL    HW265311   9.413   3.715   4.484  0.8816  0.3292 -0.3835
20786SOL     OW65312   4.480   9.644   7.908  0.1254  0.3636 -0.3636
20786SOL    HW165313   4.512   9.554   7.905 -0.3405  0.0864  1.8082
20786SOL    HW265314   4.432   9.654   7.826  0.6953 -1.1526 -0.9240
20787SOL     OW65315   4.176   8.102   1.488  0.2352  0.2520  0.3243
20787SOL    HW165316   4.252   8.160   1.498 -0.2658  0.8097  1.0708
20787SOL    HW265317   4.212   8.014   1.494  0.7014  0.5168  1.8859
20788SOL     OW65318  10.477   7.532   3.526  0.3233 -0.6736 -0.2643
20788SOL    HW165319  10.407   7.481   3.566 -0.7147 -0.5712 -1.8691
20788SOL    HW265320  10.432   7.598   3.473  1.6330  0.8492  0.3966
20789SOL     OW65321   4.422   5.824   1.120 -0.2128  0.0527 -0.5764
20789SOL    HW165322   4.481   5.804   1.047 -0.3145  0.2098 -0.7010
20789SOL    HW265323   4.335   5.804   1.087 -0.1573 -0.9709 -0.1145
20790SOL     OW65324   2.211   6.194   4.550 -0.0676  0.1077 -0.3029
20790SOL    HW165325   2.266   6.133   4.599 -0.4925 -1.3207 -1.5260
20790SOL    HW265326   2.151   6.137   4.501 -2.3698  1.5701  0.6430
20791SOL     OW65327   9.190   7.319   8.202  0.2351 -0.1331 -0.0422
20791SOL    HW165328   9.227   7.398   8.242 -0.8665 -0.0911  0.9727
20791SOL    HW265329   9.117   7.352   8.149 -0.0952 -0.4416  0.2161
20792SOL     OW65330   2.067   5.898   0.129  0.0714 -0.1198  0.3274
20792SOL    HW165331   2.136   5.933   0.072  1.1342 -1.7729  0.5452
20792SOL    HW265332   2.065   5.959   0.203  2.5949 -0.9688  1.1962
20793SOL     OW65333   9.990   3.155   9.361  0.9767  0.2922  0.2916
20793SOL    HW165334   9.972   3.071   9.404 -0.9441  0.1238 -0.7197
20793SOL    HW265335   9.904   3.186   9.333  1.9506  1.1736 -1.9655
20794SOL     OW65336   3.988   2.500   6.122  0.1940 -0.2759  0.2199
20794SOL    HW165337   4.063   2.441   6.126  0.7823  0.3478 -0.9329
20794SOL    HW265338   3.924   2.454   6.067  1.5037  0.9441 -2.5721
20795SOL     OW65339   0.490   7.446   9.391  0.0574 -0.1601 -0.3734
20795SOL    HW165340   0.573   7.401   9.408 -0.5446 -1.5177 -0.8777
20795SOL    HW265341   0.479   7.440   9.296 -0.0338  1.1045 -0.4572
20796SOL     OW65342   8.163   6.837   0.035 -0.5733 -0.1016 -0.2919
20796SOL    HW165343   8.123   6.914   0.076  1.9541  2.0520 -1.5636
20796SOL    HW265344   8.161   6.856  -0.059  1.8835 -0.5590 -0.5116
20797SOL     OW65345   0.048   1.859   1.110 -0.3476 -0.1140  0.1455
20797SOL    HW165346   0.069   1.766   1.112  0.9341  0.1770  2.0624
20797SOL    HW265347   0.121   1.902   1.153 -1.5737  1.6729  0.5793
20798SOL     OW65348   9.863   4.325   9.054  0.1909 -0.3303  0.3091
20798SOL    HW165349   9.832   4.383   9.123  2.8520 -0.8611  2.0938
20798SOL    HW265350   9.958   4.324   9.064  0.6376 -1.0242 -2.9538
20799SOL     OW65351  10.197   0.496   2.813  0.1753 -0.4061  0.0076
20799SOL    HW165352  10.151   0.466   2.734  0.5748 -0.6593 -0.1279
20799SOL    HW265353  10.285   0.459   2.806  0.1875 -0.5054  0.6162
20800SOL     OW65354   9.812   5.564   5.173  0.2033 -0.1568  0.2268
20800SOL    HW165355   9.862   5.553   5.254  1.4068  2.0334 -0.1339
20800SOL    HW265356   9.724   5.587   5.203  0.4125 -0.2138  0.9011
20801SOL     OW65357   9.001   9.522   1.227  0.2912 -0.2776  0.5887
20801SOL    HW165358   9.060   9.583   1.272  1.3338 -0.4543 -0.4773
20801SOL    HW265359   8.916   9.565   1.228  0.7573  0.6652  0.8873
20802SOL     OW65360   5.478   8.781   9.845 -0.4947  0.3855  0.0576
20802SOL    HW165361   5.526   8.714   9.797  1.1565  1.7806 -0.3395
20802SOL    HW265362   5.396   8.792   9.797 -0.5133 -0.8717 -0.2240
20803SOL     OW65363  10.233   9.119   4.997  0.0042  0.2763  0.4993
20803SOL    HW165364  10.314   9.139   4.951 -1.0570  3.3428 -0.2825
20803SOL    HW265365  10.261   9.090   5.084  1.9322  0.5476  0.0105
20804SOL     OW65366   1.840   3.051   4.750  0.1489  0.1475  0.2819
20804SOL    HW165367   1.820   3.143   4.731 -0.6921 -0.0872  0.0203
20804SOL    HW265368   1.908   3.028   4.686 -0.5878  0.2112 -0.5526
20805SOL     OW65369   0.248   8.595   0.398  0.3106  0.3119  0.5030
20805SOL    HW165370   0.226   8.511   0.358  2.6212  0.1118 -0.4898
20805SOL    HW265371   0.236   8.659   0.328  0.4043  0.5605  0.7110
20806SOL     OW65372   0.413   0.176   2.071  0.1131 -0.5768  0.1382
20806SOL    HW165373   0.331   0.210   2.109 -0.9559 -0.5833 -1.9810
20806SOL    HW265374   0.446   0.249   2.019  0.2542 -1.2982 -0.7984
20807SOL     OW65375   8.089  10.585   7.654  0.6053  0.0015  0.4180
20807SOL    HW165376   8.184  10.589   7.667  0.4513  1.2510  1.3208
20807SOL    HW265377   8.052  10.620   7.735 -0.6297 -0.2853  0.0026
20808SOL     OW65378   8.843   3.851   7.300 -0.5580  0.3531  0.0399
20808SOL    HW165379   8.868   3.761   7.278  1.5254  1.1533 -1.1335
20808SOL    HW265380   8.835   3.852   7.395  0.7473 -0.7703  0.1818
20809SOL     OW65381   3.547   1.558   2.134 -0.1292  0.4346 -0.4479
20809SOL    HW165382   3.614   1.492   2.147 -2.6132 -2.3901 -0.9081
20809SOL    HW265383   3.486   1.546   2.208 -1.9118  0.4926 -1.8401
20810SOL     OW65384   9.272   1.325   0.119  0.0376  0.1658 -0.1328
20810SOL    HW165385   9.190   1.347   0.072 -0.0309  0.7242  0.2363
20810SOL    HW265386   9.268   1.377   0.199  0.7514  0.1834 -0.1027
20811SOL     OW65387   3.527   3.755   7.169 -0.1249 -0.2610 -0.8267
20811SOL    HW165388   3.532   3.834   7.115  0.2159 -0.1009 -0.5704
20811SOL    HW265389   3.478   3.782   7.246  0.3270 -0.1874 -0.5584
20812SOL     OW65390   0.275   2.089   9.371 -0.7803 -0.1202 -0.2635
20812SOL    HW165391   0.316   2.129   9.295  1.1179 -2.5915 -0.6688
20812SOL    HW265392   0.280   2.156   9.439  0.3857  1.0339 -1.4267
20813SOL     OW65393   6.119   8.564   0.823  0.4531  0.6489 -0.5653
20813SOL    HW165394   6.210   8.593   0.814  0.3348  1.1242 -0.2535
20813SOL    HW265395   6.100   8.519   0.741  0.6516  1.4235 -1.0444
20814SOL     OW65396   6.790   5.349   9.262  0.1310  0.0055 -0.1537
20814SOL    HW165397   6.773   5.442   9.249 -0.1118 -0.0763 -0.4304
20814SOL    HW265398   6.703   5.309   9.263  0.2929 -0.4893 -2.1108
20815SOL     OW65399   1.996   2.300   6.316  0.1377 -0.2988 -0.0862
20815SOL    HW165400   2.081   2.338   6.295  0.3134 -0.5433  0.1732
20815SOL    HW265401   1.961   2.272   6.231  0.2044  0.0317 -0.2216
20816SOL     OW65402   2.799   3.346   7.180 -0.5294 -0.2000  0.5164
20816SOL    HW165403   2.761   3.426   7.213 -0.7688 -0.3345  0.5654
20816SOL    HW265404   2.834   3.302   7.257  1.0138  0.5983  0.3111
20817SOL     OW65405   1.581  10.513   7.921  0.1720 -0.3253  0.0250
20817SOL    HW165406   1.618  10.430   7.890 -0.5759 -0.9459  0.7518
20817SOL    HW265407   1.495  10.489   7.957 -0.3689  0.8822 -0.4207
20818SOL     OW65408  10.581   4.374   2.701  0.6897 -0.2320 -0.1987
20818SOL    HW165409  10.505   4.331   2.740  1.0263 -1.1974 -0.5783
20818SOL    HW265410  10.625   4.305   2.652  0.2933  0.9303 -2.3070
20819SOL     OW65411   5.027   0.893   3.883  0.0969  0.0566 -0.4810
20819SOL    HW165412   5.114   0.874   3.849  0.7550  0.1160  1.0946
20819SOL    HW265413   4.972   0.820   3.852  1.0182 -0.7286 -0.2985
20820SOL     OW65414   9.376   5.667   3.233  0.3135  0.1900 -0.5065
20820SOL    HW165415   9.454   5.706   3.273  0.5553 -0.3028 -0.4885
20820SOL    HW265416   9.333   5.740   3.188  0.8623  0.4347 -0.6412
20821SOL     OW65417   0.463   6.319   6.243  0.0358 -0.8924  0.1183
20821SOL    HW165418   0.429   6.233   6.268 -0.1348 -0.7895  0.2445
20821SOL    HW265419   0.486   6.361   6.326  0.5104 -0.9776  0.0295
20822SOL     OW65420   8.105   4.378   8.880 -0.6701  0.4289  0.7802
20822SOL    HW165421   8.128   4.456   8.829 -0.7937 -0.1027 -0.1149
20822SOL    HW265422   8.189   4.340   8.905 -0.6020  1.1524  1.7352
20823SOL     OW65423   0.246   9.856   1.556 -0.1544  0.0255  0.2597
20823SOL    HW165424   0.257   9.951   1.565 -1.7704  0.0912  2.2970
20823SOL    HW265425   0.158   9.838   1.588 -0.9170 -1.9258 -2.5299
20824SOL     OW65426   0.642   0.799   4.064  0.3044 -0.5995  0.6515
20824SOL    HW165427   0.640   0.763   3.975 -1.7096 -0.9398  0.8021
20824SOL    HW265428   0.718   0.858   4.063  1.1058 -1.5636 -0.8878
20825SOL     OW65429   3.010   2.776   4.414 -0.1557 -0.1128 -0.6512
20825SOL    HW165430   2.969   2.748   4.331  0.3772 -0.4020 -0.8231
20825SOL    HW265431   3.079   2.835   4.387 -0.7223  0.7089 -0.3315
20826SOL     OW65432   5.738   4.492  10.590  0.2354  0.4891  0.7721
20826SOL    HW165433   5.650   4.469  10.618 -0.1136  2.1514  1.1777
20826SOL    HW265434   5.750   4.445  10.507 -0.8701 -0.0758  0.9156
20827SOL     OW65435   8.793  10.435   1.717 -0.5046  0.6729  0.2483
20827SOL    HW165436   8.828  10.504   1.773  1.6410 -0.1632  0.0178
20827SOL    HW265437   8.802  10.355   1.770 -0.4410  0.1749 -0.5052
20828SOL     OW65438   6.557   4.991  10.033 -0.0446 -0.1620  0.3530
20828SOL    HW165439   6.605   4.969  10.113 -1.4204  0.5230  1.4156
20828SOL    HW265440   6.508   4.912  10.011  0.8586 -0.5747 -0.2292
20829SOL     OW65441   2.240   8.990   5.541 -0.2083 -0.4123  1.1219
20829SOL    HW165442   2.210   9.030   5.459  1.1931  1.2354  1.3441
20829SOL    HW265443   2.327   8.954   5.520  0.3124  0.3319  1.9350
20830SOL     OW65444   0.929   9.217   3.551 -0.3362  0.0789  0.1484
20830SOL    HW165445   0.846   9.199   3.508  0.5055 -2.1341 -0.7230
20830SOL    HW265446   0.979   9.267   3.487 -0.4745  0.1495  0.0951
20831SOL     OW65447   0.419   7.567   3.089  0.7518  0.3538  0.0713
20831SOL    HW165448   0.406   7.476   3.062 -2.4804  1.3677 -2.4288
20831SOL    HW265449   0.466   7.561   3.172 -0.6182 -3.6771  0.7663
20832SOL     OW65450   0.815   8.719   9.449  0.1931 -0.2384 -0.8967
20832SOL    HW165451   0.883   8.652   9.460 -0.4279 -0.7074  0.1537
20832SOL    HW265452   0.769   8.721   9.532  0.6656  2.0490 -0.6252
20833SOL     OW65453   1.825   7.663   2.352 -0.1840 -0.2127  0.0441
20833SOL    HW165454   1.891   7.663   2.283 -0.2314 -0.9442 -0.0052
20833SOL    HW265455   1.841   7.745   2.399  0.2449 -0.0008 -0.4515
20834SOL     OW65456   7.575   6.199   4.523  0.0136 -0.1426  0.0055
20834SOL    HW165457   7.545   6.245   4.445  0.9664  0.0134 -0.2856
20834SOL    HW265458   7.505   6.137   4.543 -0.6615  0.4778 -0.4114
20835SOL     OW65459   8.128   9.359   3.986 -0.4953  0.6165 -0.0143
20835SOL    HW165460   8.102   9.364   4.078 -0.9438  1.3101 -0.1716
20835SOL    HW265461   8.113   9.267   3.962 -3.8323  1.1376 -0.3769
20836SOL     OW65462   9.374   8.330   4.801  0.3472  0.1478  0.1049
20836SOL    HW165463   9.428   8.300   4.728  0.4809  2.0364 -0.6367
20836SOL    HW265464   9.396   8.271   4.873  1.9427 -0.3468 -0.7468
20837SOL     OW65465   1.026   1.061   1.541  0.0331  0.8135  0.6578
20837SOL    HW165466   1.005   1.154   1.538 -1.1164  0.5336 -1.2643
20837SOL    HW265467   1.077   1.045   1.462 -1.6954 -0.5930 -0.2250
20838SOL     OW65468   0.591   1.416   8.928  0.1888  0.2377 -0.4125
20838SOL    HW165469   0.536   1.449   9.000 -0.1098 -1.5494  0.2240
20838SOL    HW265470   0.538   1.348   8.887  1.2621 -0.3280 -0.8918
20839SOL     OW65471   7.867   2.452   9.341  0.2709 -0.0657  0.2433
20839SOL    HW165472   7.851   2.409   9.258 -1.5532  0.3483  0.3387
20839SOL    HW265473   7.787   2.502   9.358  0.5138 -0.2972  2.3392
20840SOL     OW65474   4.955   8.683   0.062  0.5685  0.1594 -0.3536
20840SOL    HW165475   5.037   8.650   0.099  1.1274  0.6812 -1.1055
20840SOL    HW265476   4.956   8.776   0.081 -0.1527  0.0647  0.1758
20841SOL     OW65477   4.091   8.571   4.660  0.7185  0.7540 -0.5084
20841SOL    HW165478   4.142   8.637   4.708 -0.4047  1.5309 -0.3442
20841SOL    HW265479   4.010   8.616   4.636 -0.5643 -0.8809  0.5408
20842SOL     OW65480   4.256   7.051   4.694 -0.2393 -0.1965 -0.5560
20842SOL    HW165481   4.281   7.104   4.618 -1.0939 -2.1202 -2.2544
20842SOL    HW265482   4.329   6.991   4.707  0.1968  0.5570  0.6031
20843SOL     OW65483   2.247   4.486   9.626 -0.6677 -0.4382  0.1509
20843SOL    HW165484   2.251   4.390   9.630  0.3887 -0.4166 -0.0020
20843SOL    HW265485   2.231   4.505   9.534  2.7673 -0.4394 -0.5735
20844SOL     OW65486   8.351   7.368   2.803 -0.3127  0.1644 -0.2457
20844SOL    HW165487   8.331   7.292   2.749  1.3528  1.3843 -2.7758
20844SOL    HW265488   8.323   7.443   2.750  1.3500  1.4352  0.5675
20845SOL     OW65489   4.027   3.652   9.763  0.6261  0.3481 -0.1681
20845SOL    HW165490   3.945   3.624   9.723 -0.8344 -0.0289  2.8268
20845SOL    HW265491   4.087   3.579   9.748 -0.0355 -0.0255 -1.0909
20846SOL     OW65492   2.185   3.464   3.505 -0.6589  0.5164 -0.2922
20846SOL    HW165493   2.132   3.529   3.459 -0.0956 -0.7792 -2.9685
20846SOL    HW265494   2.233   3.418   3.435 -0.5081 -2.3082  1.5035
20847SOL     OW65495   6.199   5.317   4.134  0.4279 -0.3015 -0.6036
20847SOL    HW165496   6.141   5.392   4.130  2.3437  1.2501 -1.1475
20847SOL    HW265497   6.218   5.296   4.042  0.2129 -1.2127 -0.4490
20848SOL     OW65498   0.217   6.679   7.593 -0.0770 -0.4180 -0.2405
20848SOL    HW165499   0.236   6.702   7.502 -1.3496 -1.7979 -0.9027
20848SOL    HW265500   0.297   6.699   7.641  1.0467 -0.8141 -1.8867
20849SOL     OW65501   2.932  10.292   3.106 -0.3183 -0.0883 -0.1755
20849SOL    HW165502   2.842  10.265   3.126 -1.8794  1.1044 -4.3865
20849SOL    HW265503   2.933  10.386   3.121 -0.7214  0.3621 -2.5749
20850SOL     OW65504   7.930   7.383   2.800 -0.2284 -0.0603 -0.1127
20850SOL    HW165505   7.927   7.299   2.847 -0.6209  0.2427  0.4056
20850SOL    HW265506   7.967   7.444   2.863 -1.8863  0.6237  0.2355
20851SOL     OW65507   4.741  10.368   6.356 -0.2895 -0.3073 -0.2015
20851SOL    HW165508   4.690  10.442   6.324 -0.5376 -1.0922 -1.7419
20851SOL    HW265509   4.711  10.294   6.303  0.5526 -1.3336  0.7085
20852SOL     OW65510   8.982   6.667   4.899 -0.0015  0.7395  0.2359
20852SOL    HW165511   9.071   6.640   4.924 -0.9436 -0.5219  2.5387
20852SOL    HW265512   8.932   6.586   4.899 -1.1337  1.4086 -1.2698
20853SOL     OW65513   4.146   1.159   1.102  0.2590  0.1754 -0.3987
20853SOL    HW165514   4.116   1.242   1.140 -2.2709 -0.0229 -1.7306
20853SOL    HW265515   4.240   1.158   1.118  0.0605  2.3364  1.4454
20854SOL     OW65516   4.917  10.213   5.927  0.4517 -0.8461 -0.4697
20854SOL    HW165517   4.985  10.261   5.972  0.1775 -0.7863 -0.1102
20854SOL    HW265518   4.836  10.238   5.972 -0.0692  0.5791 -2.1136
20855SOL     OW65519   0.851   8.738   4.025  0.3663 -0.2201  0.0375
20855SOL    HW165520   0.849   8.684   4.104  0.5026 -0.8544 -0.3863
20855SOL    HW265521   0.764   8.777   4.020 -0.6091 -2.3869 -1.0053
20856SOL     OW65522   3.947   8.688   7.433  0.2686 -0.0642 -0.1002
20856SOL    HW165523   3.897   8.754   7.482 -0.2624 -0.7309  0.2618
20856SOL    HW265524   4.037   8.701   7.461  0.0429 -0.0905  0.6509
20857SOL     OW65525   3.876   9.225   6.066 -0.0042 -0.3049 -0.0136
20857SOL    HW165526   3.827   9.305   6.089  1.8024  1.3404 -1.5247
20857SOL    HW265527   3.816   9.175   6.011 -0.8555  0.4454  0.1936
20858SOL     OW65528   3.080   1.162   3.616  0.2996 -0.1056  0.0274
20858SOL    HW165529   3.025   1.102   3.566  1.0245 -1.2201  0.5425
20858SOL    HW265530   3.018   1.208   3.674 -0.1704 -0.9373  0.2076
20859SOL     OW65531   3.885   5.612   2.393 -0.1117 -0.0227  0.2985
20859SOL    HW165532   3.903   5.520   2.411 -2.1913 -0.9984 -2.0909
20859SOL    HW265533   3.971   5.650   2.374  0.5332 -2.1934 -1.5779
20860SOL     OW65534   8.371   3.927   1.783 -0.0422 -0.0567  0.1920
20860SOL    HW165535   8.439   3.960   1.842 -0.7603 -0.4481  1.2687
20860SOL    HW265536   8.411   3.931   1.696  1.0737  0.4544  0.7069
20861SOL     OW65537   2.820  10.548  10.028  0.1703 -0.3033  0.3550
20861SOL    HW165538   2.824  10.583   9.939  0.9789  0.8010  0.8128
20861SOL    HW265539   2.796  10.623  10.082  2.6790 -0.2175  1.4584
20862SOL     OW65540   7.221   4.070   5.294  0.0947 -0.0768 -0.0218
20862SOL    HW165541   7.265   4.000   5.246  0.6282  0.8024 -0.8696
20862SOL    HW265542   7.288   4.138   5.303 -0.8864  1.0112 -0.7353
20863SOL     OW65543   5.763   3.153   7.848  0.7980 -0.2496 -0.6935
20863SOL    HW165544   5.758   3.226   7.785 -1.4677 -0.4847 -0.8805
20863SOL    HW265545   5.806   3.191   7.925 -1.7387  1.8667 -0.1626
20864SOL     OW65546   2.962   5.814   4.748  0.1766 -0.3208 -0.8783
20864SOL    HW165547   2.943   5.860   4.667  0.7411  0.2650 -0.6848
20864SOL    HW265548   2.913   5.862   4.815 -0.4234 -0.9014 -0.8799
20865SOL     OW65549   9.969   1.220   8.429  0.0746  0.1251  0.1772
20865SOL    HW165550   9.993   1.131   8.457 -1.9025 -0.1528  1.1918
20865SOL    HW265551  10.002   1.277   8.498  3.0841  0.4865 -1.4102
20866SOL     OW65552   8.548   7.987   4.099 -0.2533 -0.1225  0.1532
20866SOL    HW165553   8.567   8.077   4.072 -0.5924  0.4126  1.5735
20866SOL    HW265554   8.628   7.939   4.082  0.9138  1.0867  1.8852
20867SOL     OW65555   3.194   7.296   4.294 -0.1783  0.5686  0.2207
20867SOL    HW165556   3.214   7.269   4.204 -0.5903 -0.3287  0.3930
20867SOL    HW265557   3.274   7.280   4.343  0.1043  1.2204 -0.0086
20868SOL     OW65558   7.772   1.129   0.113  0.6240  0.3098  0.0710
20868SOL    HW165559   7.727   1.214   0.105 -0.6809 -0.1693  1.7049
20868SOL    HW265560   7.701   1.065   0.113  1.5458 -0.7330 -0.3474
20869SOL     OW65561   6.928   7.215   5.741  0.2149 -0.0658  0.0275
20869SOL    HW165562   6.854   7.164   5.709 -0.3060 -0.2410  1.4601
20869SOL    HW265563   6.990   7.216   5.668 -0.2658 -1.7573 -0.4276
20870SOL     OW65564  10.323   7.664   7.137 -0.9695  0.0630  0.5583
20870SOL    HW165565  10.346   7.582   7.182 -0.8524 -0.0295  0.3338
20870SOL    HW265566  10.229   7.657   7.120 -0.3630 -1.7544 -2.8534
20871SOL     OW65567   6.294   8.830   9.740 -0.1246  0.3194  0.2717
20871SOL    HW165568   6.276   8.745   9.700 -1.8668  0.1028  1.4302
20871SOL    HW265569   6.356   8.872   9.680 -0.6759 -0.9996 -1.2889
20872SOL     OW65570   2.663   0.364   2.584 -0.1132  0.5188 -0.8090
20872SOL    HW165571   2.589   0.333   2.531 -1.5587 -0.3377  1.5556
20872SOL    HW265572   2.622   0.400   2.662  1.9970 -0.3828  0.7928
20873SOL     OW65573   8.095   0.803   9.302 -0.3166 -0.4106  0.3640
20873SOL    HW165574   8.181   0.836   9.279 -0.9143  0.1421 -1.2392
20873SOL    HW265575   8.053   0.876   9.348 -0.4793 -0.0687 -0.3012
20874SOL     OW65576   7.545   6.464   6.170  0.1087  0.0154  1.0637
20874SOL    HW165577   7.532   6.557   6.188 -2.3981 -0.3635  1.6602
20874SOL    HW265578   7.456   6.431   6.154  0.8573 -2.4085  1.5343
20875SOL     OW65579   3.037   2.089   3.652  0.4171  0.4301 -0.3840
20875SOL    HW165580   3.064   2.179   3.633  2.2812  0.2858  1.2710
20875SOL    HW265581   2.974   2.068   3.583  0.9110  2.5478 -1.5701
20876SOL     OW65582   1.194   2.042   7.256  0.0340  0.2005  0.4669
20876SOL    HW165583   1.243   2.115   7.218 -1.1294 -0.6794 -3.0361
20876SOL    HW265584   1.256   1.969   7.253  0.4456  0.4652  1.8394
20877SOL     OW65585   4.360   5.206   6.693 -0.1977  0.0158 -0.1907
20877SOL    HW165586   4.409   5.139   6.739 -0.4717 -0.3788 -0.4726
20877SOL    HW265587   4.407   5.217   6.610 -0.5807 -0.3641 -0.4627
20878SOL     OW65588   4.723   3.363   7.062  0.0016  0.3992 -0.6751
20878SOL    HW165589   4.739   3.272   7.085 -0.7737  0.2072 -0.8744
20878SOL    HW265590   4.651   3.390   7.119 -0.2757  0.6607 -1.1424
20879SOL     OW65591   2.683   3.567   9.245  0.1861 -0.2548  0.6839
20879SOL    HW165592   2.615   3.508   9.275 -0.5347  0.0530 -0.2856
20879SOL    HW265593   2.759   3.511   9.230  0.6435 -0.3956  3.1530
20880SOL     OW65594   4.878   5.247   1.604  0.0695  0.2637  0.1283
20880SOL    HW165595   4.812   5.225   1.670  0.1387  0.7065  0.3497
20880SOL    HW265596   4.832   5.240   1.520 -0.1508  0.1824  0.2540
20881SOL     OW65597   9.737   1.808   4.216  0.6077  0.0993 -0.3952
20881SOL    HW165598   9.754   1.855   4.298  2.8685  0.7653 -1.1843
20881SOL    HW265599   9.668   1.858   4.174  0.1289  0.3332  0.6374
20882SOL     OW65600   6.546   1.123   5.242 -0.2103  0.0754  0.3457
20882SOL    HW165601   6.509   1.061   5.180  1.4185 -0.9280  0.3182
20882SOL    HW265602   6.562   1.072   5.321 -0.3077  0.8393  0.8714
20883SOL     OW65603   0.651   0.117   0.972  0.9000  0.1588 -0.0077
20883SOL    HW165604   0.557   0.099   0.965  0.4600  1.8695  1.0233
20883SOL    HW265605   0.676   0.149   0.885  0.2233  0.9382  0.0750
20884SOL     OW65606   1.629   6.138   1.733  0.2159  0.6645  0.4090
20884SOL    HW165607   1.566   6.156   1.802 -1.1385 -2.8499  0.2515
20884SOL    HW265608   1.715   6.143   1.776 -0.5556 -0.7961  2.2123
20885SOL     OW65609   3.675   4.651   3.679 -0.2372 -0.2342  0.2828
20885SOL    HW165610   3.739   4.712   3.717 -0.7132  0.7653 -0.4768
20885SOL    HW265611   3.715   4.623   3.597 -0.6306  0.1201 -0.0267
20886SOL     OW65612   0.833  10.142   9.327  0.1798  0.5279  0.2778
20886SOL    HW165613   0.895  10.109   9.262 -0.5527 -0.9404  0.2851
20886SOL    HW265614   0.887  10.190   9.390  0.8074  2.7920 -1.8518
20887SOL     OW65615   3.858   2.605   0.049 -0.1653 -0.0637  0.8270
20887SOL    HW165616   3.770   2.628   0.080 -0.9248  0.0480 -1.2557
20887SOL    HW265617   3.843   2.556  -0.032  1.7030 -0.0597  0.4357
20888SOL     OW65618   2.254   0.194   9.835 -0.4793 -0.3826 -0.2221
20888SOL    HW165619   2.271   0.178   9.742  4.6665 -0.2814  0.4309
20888SOL    HW265620   2.233   0.108   9.870 -0.5372 -0.7758 -1.1909
20889SOL     OW65621   7.824   7.622   4.017 -0.2719 -0.2577  0.3283
20889SOL    HW165622   7.803   7.714   4.000 -0.1814 -0.2428  0.2988
20889SOL    HW265623   7.917   7.621   4.037  0.5738 -0.8000 -3.0831
20890SOL     OW65624   5.330   9.532   0.863 -0.3002  0.1366 -0.0703
20890SOL    HW165625   5.290   9.619   0.861 -1.2837 -0.2880  0.1243
20890SOL    HW265626   5.371   9.526   0.949 -1.4214 -0.0761  0.4768
20891SOL     OW65627   5.063   1.864   1.959 -0.6523 -0.5381 -0.3913
20891SOL    HW165628   5.081   1.830   2.046 -0.8803  0.2791 -0.0167
20891SOL    HW265629   5.141   1.843   1.908  0.3398  0.7311  0.5361
20892SOL     OW65630   5.505   6.993   9.560  0.0370  0.2408  0.5983
20892SOL    HW165631   5.544   7.077   9.585 -0.7340  0.6107  0.5914
20892SOL    HW265632   5.555   6.966   9.483  1.3420 -0.1049  1.5299
20893SOL     OW65633   8.363   0.703   2.193  0.2354 -0.0072 -0.3239
20893SOL    HW165634   8.331   0.776   2.246  0.4993  0.0461 -0.2358
20893SOL    HW265635   8.413   0.649   2.255  0.3163 -0.0887 -0.4595
20894SOL     OW65636   0.565   6.021   5.449  0.5379  0.4670  0.0519
20894SOL    HW165637   0.628   6.027   5.377 -0.1386  1.8334 -0.4698
20894SOL    HW265638   0.536   6.111   5.463 -1.8160 -0.1851 -0.2175
20895SOL     OW65639   9.989   9.584   8.040  0.1696 -0.3248  0.1734
20895SOL    HW165640  10.014   9.535   8.118 -1.8558  2.0574  2.5262
20895SOL    HW265641   9.899   9.556   8.021 -0.2781  0.9457  0.3189
20896SOL     OW65642   5.573   6.453  10.330  0.0168 -0.0102 -0.3365
20896SOL    HW165643   5.618   6.513  10.388 -0.2692 -0.6798  0.5987
20896SOL    HW265644   5.641   6.419  10.272  0.4759 -0.0345  0.2115
20897SOL     OW65645   7.242   1.696   3.912 -0.3813  0.1897 -0.0905
20897SOL    HW165646   7.235   1.752   3.834 -0.6636  0.3145  0.0223
20897SOL    HW265647   7.187   1.620   3.892  0.5764 -0.4024 -0.5403
20898SOL     OW65648   5.933   8.901   9.280 -0.0271 -0.5657  0.3760
20898SOL    HW165649   5.854   8.857   9.308 -0.5066 -0.9491 -1.4240
20898SOL    HW265650   5.906   8.954   9.205  0.8958  1.4024  1.3443
20899SOL     OW65651   9.178   0.845   9.190  0.5627 -0.0553  0.4076
20899SOL    HW165652   9.234   0.922   9.179  0.2028  0.1418 -0.0413
20899SOL    HW265653   9.172   0.833   9.285 -0.3717  1.1932  0.5313
20900SOL     OW65654   3.398   5.081   3.728  0.0852  0.7149 -0.1803
20900SOL    HW165655   3.371   5.065   3.637 -1.9412 -1.1586  0.6769
20900SOL    HW265656   3.344   5.155   3.756  0.0546  0.7039 -0.2104
20901SOL     OW65657   9.891   3.960   6.809  0.1615 -0.0160 -0.4818
20901SOL    HW165658   9.866   4.050   6.827  2.0632 -0.0436  3.6522
20901SOL    HW265659   9.987   3.963   6.799  0.4101 -1.6317  0.9076
20902SOL     OW65660   4.394   2.900   0.538 -0.2514 -0.3114 -0.5799
20902SOL    HW165661   4.440   2.817   0.526 -1.8300 -1.3091 -0.0968
20902SOL    HW265662   4.440   2.962   0.481  0.5176 -1.6950 -1.5171
20903SOL     OW65663   4.326   7.994   1.213 -0.2335 -0.4068 -0.4704
20903SOL    HW165664   4.404   7.999   1.268  0.1544 -2.3157 -0.7659
20903SOL    HW265665   4.290   7.907   1.230 -2.4492  0.5146 -0.1848
20904SOL     OW65666   0.019   4.885   4.338 -0.5255 -0.1114 -0.0251
20904SOL    HW165667   0.062   4.874   4.423 -0.7963 -0.2028  0.1031
20904SOL    HW265668   0.048   4.810   4.286 -0.2027  0.0502 -0.0824
20905SOL     OW65669   4.457   1.392   5.507 -0.1573  0.2814 -0.2227
20905SOL    HW165670   4.496   1.456   5.567  0.7722 -0.2706 -0.2126
20905SOL    HW265671   4.463   1.433   5.421 -0.0303  0.4238 -0.1470
20906SOL     OW65672   5.771   8.076   6.347 -0.1789 -0.2505  0.2329
20906SOL    HW165673   5.831   8.006   6.373  0.8972  0.3672 -0.5032
20906SOL    HW265674   5.719   8.038   6.276  0.6982 -0.1884 -0.4563
20907SOL     OW65675   2.078   2.118   2.425  0.5312  0.6745  0.2213
20907SOL    HW165676   2.172   2.128   2.444  1.1834  1.9967 -3.0550
20907SOL    HW265677   2.036   2.190   2.471  0.9960 -0.1570  2.0456
20908SOL     OW65678   2.702   9.119   7.466  0.5933 -0.1262 -0.4521
20908SOL    HW165679   2.721   9.120   7.560  2.5664  2.3863 -0.7667
20908SOL    HW265680   2.781   9.156   7.426 -0.7100  0.0723 -2.9833
20909SOL     OW65681  10.652   2.561   1.697 -0.4315 -0.0247  0.5115
20909SOL    HW165682  10.559   2.559   1.720 -1.0483  1.3892 -1.5812
20909SOL    HW265683  10.660   2.634   1.636  1.8133 -0.9110 -0.3694
20910SOL     OW65684   1.363   2.483   1.377 -0.1116 -0.1664  0.0518
20910SOL    HW165685   1.317   2.407   1.413 -0.7961  0.2791  0.1354
20910SOL    HW265686   1.383   2.537   1.453  1.5535 -0.8658  0.1538
20911SOL     OW65687   0.359  10.188   9.742 -0.0244  0.6382  0.1238
20911SOL    HW165688   0.437  10.200   9.687 -0.3435  0.9177 -0.2724
20911SOL    HW265689   0.363  10.096   9.769  0.7171  0.7750  0.5332
20912SOL     OW65690   2.929   7.174   6.237  0.5508  0.2088 -0.3522
20912SOL    HW165691   2.914   7.265   6.263 -3.8569 -0.6369  0.8218
20912SOL    HW265692   2.912   7.173   6.142 -3.2719  0.1693  0.1853
20913SOL     OW65693   1.396   8.514   4.305 -0.1998 -0.3229 -0.0746
20913SOL    HW165694   1.464   8.528   4.371 -1.9335 -1.5823  2.1077
20913SOL    HW265695   1.412   8.425   4.273  0.8861  0.4242 -1.7670
20914SOL     OW65696   1.486   8.421   2.723  0.4819  0.1081  0.5260
20914SOL    HW165697   1.436   8.394   2.645  1.3538 -0.4905  0.1444
20914SOL    HW265698   1.434   8.391   2.797  0.5751 -1.1063  0.1230
20915SOL     OW65699   0.413   7.841   1.722 -0.2298 -0.0667  0.2688
20915SOL    HW165700   0.484   7.779   1.702 -0.6469  0.0860 -2.0387
20915SOL    HW265701   0.372   7.858   1.637 -0.8368  2.5301  0.9838
20916SOL     OW65702   7.891   1.624   3.784 -0.4903 -0.6469 -0.5830
20916SOL    HW165703   7.937   1.544   3.807 -2.3893 -1.7747 -0.4882
20916SOL    HW265704   7.885   1.622   3.689 -2.0970 -1.5952 -0.4994
20917SOL     OW65705   1.360   2.027   3.214 -0.3710  0.0092 -0.0380
20917SOL    HW165706   1.380   2.068   3.298 -2.2398  0.8104  0.0403
20917SOL    HW265707   1.270   2.052   3.195 -0.1816 -0.6548 -2.0073
20918SOL     OW65708   3.800   6.911   0.145 -0.6419 -0.3085 -0.0771
20918SOL    HW165709   3.846   6.868   0.218  0.9265 -0.5766 -1.1711
20918SOL    HW265710   3.824   7.003   0.153  0.8182 -0.5588 -1.0966
20919SOL     OW65711   0.079   4.375   9.884 -0.2680  0.8162  0.2672
20919SOL    HW165712  -0.005   4.355   9.843 -0.1030 -1.0040  0.7278
20919SOL    HW265713   0.085   4.470   9.881 -1.6186  0.8960 -1.1929
20920SOL     OW65714   1.679   7.150   5.543  0.2270  0.2799 -0.1562
20920SOL    HW165715   1.714   7.186   5.462  0.1019  2.1159  0.5614
20920SOL    HW265716   1.613   7.214   5.571  0.6965 -0.0033  1.7088
20921SOL     OW65717   1.487   2.817   3.543 -0.7376 -1.1331  0.3382
20921SOL    HW165718   1.508   2.797   3.634 -0.6520  0.7644  0.7796
20921SOL    HW265719   1.569   2.806   3.496 -0.9565 -2.8932  0.3164
20922SOL     OW65720   0.206   8.821   7.671  0.4244  0.6520  0.1571
20922SOL    HW165721   0.186   8.844   7.762  2.4377 -1.9599  1.3893
20922SOL    HW265722   0.189   8.727   7.666 -2.7095  1.1465 -3.1807
20923SOL     OW65723   7.524   0.892   1.657 -0.3464 -0.0100  0.4220
20923SOL    HW165724   7.544   0.839   1.734 -1.2704  0.5714  1.1000
20923SOL    HW265725   7.607   0.900   1.610 -0.2742 -2.4454  0.0146
20924SOL     OW65726   2.860   5.746   5.565 -0.4387  0.1928 -0.7144
20924SOL    HW165727   2.828   5.675   5.509 -2.3478 -1.1172  1.8076
20924SOL    HW265728   2.796   5.816   5.554 -0.5781  0.0992 -0.5101
20925SOL     OW65729   5.694   5.772   7.856 -0.1613 -0.1111  0.5008
20925SOL    HW165730   5.745   5.699   7.892  0.1917  0.4600  1.1854
20925SOL    HW265731   5.760   5.828   7.815  0.0220  1.4297  2.7394
20926SOL     OW65732   7.286   5.074   2.391 -0.0494 -0.2781 -0.5490
20926SOL    HW165733   7.238   5.123   2.324 -0.3483  0.0712 -0.0934
20926SOL    HW265734   7.284   5.132   2.468 -1.2521 -1.3967  0.3105
20927SOL     OW65735   0.240   5.946   4.465 -0.1240 -0.5659 -0.1180
20927SOL    HW165736   0.322   5.898   4.452  0.6773  0.4809  0.8709
20927SOL    HW265737   0.265   6.025   4.513 -1.5013  0.5692 -1.1783
20928SOL     OW65738   9.647   0.499   1.665  0.1355  0.2348  0.1682
20928SOL    HW165739   9.674   0.409   1.678  1.2412  0.4490 -0.4825
20928SOL    HW265740   9.670   0.518   1.574 -0.5711  1.0151  0.1326
20929SOL     OW65741   5.928  10.172   1.394  0.0372 -0.0924 -0.1942
20929SOL    HW165742   5.988  10.112   1.439 -0.8361  0.2429  1.5240
20929SOL    HW265743   5.916  10.244   1.456 -0.3045  1.0072 -1.4976
20930SOL     OW65744   2.513   6.244   5.194 -0.6319 -0.3992  0.3943
20930SOL    HW165745   2.507   6.243   5.289 -1.4225  3.2323  0.5271
20930SOL    HW265746   2.566   6.321   5.174 -2.7556  0.5888 -2.0791
20931SOL     OW65747   4.860   9.672   7.837 -0.6018  0.1943 -0.1036
20931SOL    HW165748   4.926   9.736   7.812 -1.7499  2.0210  1.2510
20931SOL    HW265749   4.872   9.660   7.931 -2.2415  0.6819  0.2024
20932SOL     OW65750  10.090   9.102   9.242 -0.6269 -0.1036 -0.1357
20932SOL    HW165751  10.017   9.111   9.303 -0.4598 -0.6462  0.1558
20932SOL    HW265752  10.168   9.116   9.296 -0.4261 -1.6668  0.0310
20933SOL     OW65753   8.409   4.449   6.727 -0.2791 -0.4756  0.2343
20933SOL    HW165754   8.396   4.360   6.694 -1.1027  0.4070 -2.0187
20933SOL    HW265755   8.330   4.469   6.777  0.3061 -1.2953  1.5281
20934SOL     OW65756   6.069   5.523   1.894  0.3166  0.0507  0.2790
20934SOL    HW165757   6.103   5.474   1.820 -1.2711  1.6021 -1.6210
20934SOL    HW265758   6.138   5.586   1.915  0.9402 -0.6613  0.4008
20935SOL     OW65759   9.272  10.076   6.103 -0.3096  0.2132  0.1404
20935SOL    HW165760   9.356  10.121   6.106  0.1508 -0.5499 -0.7405
20935SOL    HW265761   9.295   9.984   6.090 -1.2784  0.0544 -0.5466
20936SOL     OW65762   5.632   4.572   2.116 -0.3052 -0.0558  0.0708
20936SOL    HW165763   5.603   4.483   2.137 -1.7011  0.1408 -0.8145
20936SOL    HW265764   5.669   4.565   2.028  0.4410  0.0839  0.3666
20937SOL     OW65765   0.073   6.253   4.269 -0.6140  0.0023 -0.4247
20937SOL    HW165766   0.081   6.159   4.286  3.4020  0.1291 -0.5812
20937SOL    HW265767   0.074   6.260   4.174 -1.4393  0.2180 -0.4252
20938SOL     OW65768   0.520   7.897   4.190 -0.3086  0.5085  0.3251
20938SOL    HW165769   0.606   7.855   4.194 -0.4617  0.1078 -0.4024
20938SOL    HW265770   0.492   7.903   4.281  0.6409  0.9652  0.5943
20939SOL     OW65771   7.549  10.528   3.005  0.2290 -0.2943 -0.7688
20939SOL    HW165772   7.534  10.528   2.910 -0.2620 -0.0103 -0.6941
20939SOL    HW265773   7.506  10.449   3.036  1.6462 -1.1826 -0.9615
20940SOL     OW65774   9.401   9.635   3.822 -1.0023 -0.0867 -0.5067
20940SOL    HW165775   9.422   9.727   3.835  1.5899 -0.7037  0.1603
20940SOL    HW265776   9.336   9.616   3.890 -0.4938  0.9091  0.2980
20941SOL     OW65777  10.125   0.410   8.124  0.5227 -0.3197  1.1906
20941SOL    HW165778  10.113   0.471   8.197 -2.9911  0.3890  0.2084
20941SOL    HW265779  10.069   0.336   8.145  2.4900 -1.9617  0.9632
20942SOL     OW65780   2.662  10.233   0.510  0.1704 -0.0259 -0.3598
20942SOL    HW165781   2.682  10.242   0.417  5.2787  2.6521  0.6798
20942SOL    HW265782   2.710  10.154   0.537 -1.3324 -0.8259  0.1281
20943SOL     OW65783   5.475   5.021   3.264  0.0561  0.0875  0.3318
20943SOL    HW165784   5.488   5.116   3.262  0.7037  0.1536  3.2380
20943SOL    HW265785   5.552   4.985   3.221 -0.8035  0.8138 -1.9895
20944SOL     OW65786   1.324   4.862   0.329  0.1261 -0.1103  0.1530
20944SOL    HW165787   1.412   4.828   0.344 -0.7377 -2.4962  0.3429
20944SOL    HW265788   1.335   4.929   0.262  1.7848 -2.4209 -2.0999
20945SOL     OW65789   1.163   0.638   9.129 -0.3271  0.0189 -0.5099
20945SOL    HW165790   1.230   0.663   9.192 -0.5066 -1.0227  0.1203
20945SOL    HW265791   1.127   0.721   9.098 -0.5008  0.5481  1.0412
20946SOL     OW65792   9.780   5.629   7.782  0.7433  0.2361  0.3986
20946SOL    HW165793   9.763   5.573   7.706 -0.9089  0.4581  0.5802
20946SOL    HW265794   9.711   5.608   7.844  1.3565  0.9434  1.3519
20947SOL     OW65795   5.025   4.250   7.114  0.3799  0.4245  0.4886
20947SOL    HW165796   5.027   4.165   7.159  1.7127 -0.4748 -1.1389
20947SOL    HW265797   4.940   4.288   7.137  0.0264 -1.0457  1.7857
20948SOL     OW65798   0.668  10.355   7.989  0.2881 -0.2585 -0.0521
20948SOL    HW165799   0.715  10.382   7.910  1.5864 -0.9616  0.4388
20948SOL    HW265800   0.600  10.421   8.001  0.3461  0.0911 -1.5085
20949SOL     OW65801   1.667   0.230   8.399  0.0533  0.4569  0.6516
20949SOL    HW165802   1.613   0.294   8.353  0.2200  0.8076  0.9385
20949SOL    HW265803   1.726   0.282   8.452  0.1570  0.0614  0.9314
20950SOL     OW65804  10.104   8.478   6.529 -0.2544 -1.0943 -0.5688
20950SOL    HW165805  10.143   8.564   6.545 -1.8763  0.1770 -2.8245
20950SOL    HW265806  10.066   8.452   6.613  0.4786  0.2967  0.2135
20951SOL     OW65807   5.462   8.683   3.765 -0.4220 -0.0941 -0.1004
20951SOL    HW165808   5.445   8.616   3.698 -0.2252 -0.1121 -0.1321
20951SOL    HW265809   5.492   8.759   3.715  0.4634 -0.3558  0.0294
20952SOL     OW65810   4.113   6.359   0.642 -0.2475  0.0401  0.3793
20952SOL    HW165811   4.123   6.385   0.733 -0.0628  0.9604  0.1044
20952SOL    HW265812   4.127   6.439   0.592  1.9614 -0.8634 -0.5922
20953SOL     OW65813   3.173   8.000   1.307  0.3218 -0.0835 -0.1870
20953SOL    HW165814   3.229   7.968   1.378 -0.1898 -2.3799 -0.7446
20953SOL    HW265815   3.116   8.065   1.349  1.7691  0.5279  0.8985
20954SOL     OW65816   9.280   6.205   2.634  0.4262  0.0491 -0.3183
20954SOL    HW165817   9.272   6.123   2.681  0.1075  0.8398  1.0795
20954SOL    HW265818   9.226   6.193   2.556  0.2929 -1.0170 -0.0781
20955SOL     OW65819   5.643   0.818   4.413  0.1933 -0.0061 -0.2569
20955SOL    HW165820   5.552   0.820   4.384  0.1164  1.6676  0.0162
20955SOL    HW265821   5.641   0.856   4.500  0.9856 -1.2477  0.3269
20956SOL     OW65822   4.665   6.919   8.049  0.2583 -0.0782 -0.1862
20956SOL    HW165823   4.706   7.001   8.078 -0.9424  0.7438 -0.7136
20956SOL    HW265824   4.643   6.873   8.129 -1.9202  1.6076  0.2704
20957SOL     OW65825   0.380   1.873   0.292  0.2123 -0.0431 -0.4439
20957SOL    HW165826   0.286   1.885   0.304  0.1910 -0.4483 -0.2032
20957SOL    HW265827   0.420   1.946   0.340  0.0294  0.0027 -0.3623
20958SOL     OW65828   1.581   4.568   1.195 -0.0346 -0.3376  0.2358
20958SOL    HW165829   1.611   4.483   1.162 -1.5115 -0.6175 -0.4434
20958SOL    HW265830   1.550   4.615   1.117 -3.1613 -0.8239  1.0456
20959SOL     OW65831   4.506   7.905   3.739 -0.6055  0.0202 -0.0186
20959SOL    HW165832   4.589   7.942   3.708 -0.0997 -0.9323  0.1843
20959SOL    HW265833   4.440   7.946   3.684  0.1423 -0.4404 -1.2952
20960SOL     OW65834   9.266   3.834   9.878  0.2262  0.3879 -0.1680
20960SOL    HW165835   9.249   3.928   9.873 -0.7348  0.1519 -2.0498
20960SOL    HW265836   9.346   3.822   9.827 -0.7981 -0.0445 -1.7292
20961SOL     OW65837   4.035   1.040   1.637 -0.1990  0.0213 -0.2822
20961SOL    HW165838   4.066   1.122   1.598 -1.6655  1.0523  0.6193
20961SOL    HW265839   4.026   0.980   1.564 -0.1947  1.0308 -1.1324
20962SOL     OW65840   3.894   1.206   5.798  0.0913 -0.3162  0.3436
20962SOL    HW165841   3.958   1.278   5.793 -0.2944 -0.0756 -1.7773
20962SOL    HW265842   3.920   1.145   5.729 -1.6657 -0.4604 -0.2403
20963SOL     OW65843   2.307   9.826   5.189 -0.1864 -0.0756 -0.2684
20963SOL    HW165844   2.277   9.831   5.098 -1.4229 -1.4474  0.0230
20963SOL    HW265845   2.238   9.868   5.240  0.3810  0.4625  0.0750
20964SOL     OW65846   0.611   2.696   2.855 -0.3138  0.1518  0.0811
20964SOL    HW165847   0.616   2.615   2.805 -1.8962  0.4745 -0.6514
20964SOL    HW265848   0.519   2.721   2.852  0.1229  1.9653  0.3144
20965SOL     OW65849   0.170   5.386   5.305 -0.4240 -0.4451  0.1741
20965SOL    HW165850   0.165   5.481   5.311  1.2828 -0.2789 -0.5237
20965SOL    HW265851   0.216   5.359   5.384  3.5106 -0.1506 -1.7736
20966SOL     OW65852   7.401  10.536  10.233  0.1552  0.3868 -0.5515
20966SOL    HW165853   7.413  10.544  10.328  0.5371  0.4434 -0.6019
20966SOL    HW265854   7.475  10.483  10.204  0.6892  1.3256 -0.9701
20967SOL     OW65855   7.297   5.365   3.415 -0.1101 -0.2471  0.2363
20967SOL    HW165856   7.355   5.421   3.466 -1.1841 -0.2309  1.5072
20967SOL    HW265857   7.267   5.421   3.343  0.7744  0.0050  0.0594
20968SOL     OW65858   7.421   9.755   9.983  0.6477 -0.4000 -0.2330
20968SOL    HW165859   7.360   9.787   9.916  1.5201  0.2001 -0.7599
20968SOL    HW265860   7.504   9.744   9.937  0.6992 -2.2695  0.2134
20969SOL     OW65861   6.981   5.840   6.592 -0.6489 -0.0497 -0.5833
20969SOL    HW165862   6.937   5.755   6.591 -0.7465 -0.1329  2.5093
20969SOL    HW265863   6.914   5.902   6.621  0.2442  0.4873  0.3931
20970SOL     OW65864   8.963   2.280   2.714 -0.5148 -0.1758 -0.1194
20970SOL    HW165865   8.991   2.240   2.796  2.3764 -1.3617 -1.5477
20970SOL    HW265866   8.878   2.242   2.696 -0.8341 -0.5148  1.8892
20971SOL     OW65867   4.290   0.942   5.086  0.0316 -0.5793 -0.2586
20971SOL    HW165868   4.200   0.936   5.119  0.1656  1.2147  0.5229
20971SOL    HW265869   4.295   1.029   5.047  1.2890 -0.8670 -0.7582
20972SOL     OW65870   4.746   8.349   6.225 -0.2441 -0.1822  0.0355
20972SOL    HW165871   4.837   8.322   6.219  0.4887  0.9445  3.6839
20972SOL    HW265872   4.749   8.441   6.249 -2.3594 -0.0891  0.1278
20973SOL     OW65873   0.261   8.108   0.275 -0.5958 -0.4450  0.1948
20973SOL    HW165874   0.343   8.058   0.276 -0.4772 -0.2595  1.5684
20973SOL    HW265875   0.248   8.135   0.366 -0.5166  2.2757 -0.5099
20974SOL     OW65876   0.702  10.320   2.086  0.3106 -0.1439 -0.5654
20974SOL    HW165877   0.690  10.263   2.011  0.9995 -0.5569 -0.3719
20974SOL    HW265878   0.632  10.295   2.147 -0.2426  0.1850 -1.0516
20975SOL     OW65879   2.641   5.133   5.520 -0.7730  0.1749  0.3505
20975SOL    HW165880   2.670   5.224   5.512  0.4613 -0.1514  0.8625
20975SOL    HW265881   2.712   5.090   5.566 -1.8436 -0.8106  1.1384
20976SOL     OW65882   2.370   9.955   7.540  0.0029 -0.1151  0.4063
20976SOL    HW165883   2.356   9.987   7.629 -2.3855 -1.4700  0.6179
20976SOL    HW265884   2.283   9.957   7.500  0.7182 -1.1169 -1.3285
20977SOL     OW65885   3.538   0.248   3.828  0.1650  0.3922  0.3198
20977SOL    HW165886   3.458   0.257   3.776  0.9734  2.7145 -0.6732
20977SOL    HW265887   3.523   0.170   3.882 -1.0579 -1.7074 -2.7865
20978SOL     OW65888   6.450   3.911   7.456  0.3516  0.4141 -0.5015
20978SOL    HW165889   6.361   3.930   7.485  0.7024  0.1422  0.7854
20978SOL    HW265890   6.503   3.915   7.535  1.1730 -1.4823 -0.9009
20979SOL     OW65891   2.896   7.656   7.732  0.1166 -0.1904 -0.1275
20979SOL    HW165892   2.845   7.734   7.756 -1.1235 -1.1936  0.6425
20979SOL    HW265893   2.973   7.660   7.789  0.4690  0.8511 -0.6395
20980SOL     OW65894   5.389   0.143   7.086 -0.4449  0.0374 -0.1778
20980SOL    HW165895   5.352   0.078   7.027  1.0508 -1.1086  0.0957
20980SOL    HW265896   5.457   0.187   7.035  1.0013 -1.1025  0.6861
20981SOL     OW65897   5.587  10.206   5.903 -0.0684  0.0207  0.3910
20981SOL    HW165898   5.536  10.212   5.984 -2.5706  0.0640 -1.0783
20981SOL    HW265899   5.554  10.127   5.860  0.2742  0.6998 -1.1887
20982SOL     OW65900   9.672  10.422   4.027 -0.2038 -0.7741  0.1338
20982SOL    HW165901   9.586  10.464   4.034  0.8010  1.1863  1.7190
20982SOL    HW265902   9.698  10.436   3.936 -1.2868 -0.8491 -0.2011
20983SOL     OW65903   3.253   2.164   0.763 -0.4882  0.2258 -0.2177
20983SOL    HW165904   3.211   2.079   0.746 -1.1435  0.5419 -0.2227
20983SOL    HW265905   3.218   2.191   0.847 -1.1730  1.0167 -0.7419
20984SOL     OW65906   6.125   1.041   2.185 -0.0926 -0.1780  0.1885
20984SOL    HW165907   6.115   1.136   2.177 -0.3224 -0.0409  1.7690
20984SOL    HW265908   6.202   1.020   2.133 -1.0058  0.6214 -1.5621
20985SOL     OW65909   9.528   1.124   5.444 -0.2873 -0.2830 -0.2749
20985SOL    HW165910   9.552   1.214   5.422 -1.3987 -0.0551 -0.6293
20985SOL    HW265911   9.556   1.073   5.368  0.2579 -0.2252 -0.1151
20986SOL     OW65912   0.634   8.469   9.606 -0.1443 -0.0407  0.0206
20986SOL    HW165913   0.721   8.466   9.568 -0.2752 -0.0538 -0.2815
20986SOL    HW265914   0.575   8.451   9.533 -0.4889  1.4834 -0.1190
20987SOL     OW65915   7.201   3.758   6.925 -0.8769 -0.1651 -0.2453
20987SOL    HW165916   7.297   3.760   6.923 -0.7454 -1.2862  2.1013
20987SOL    HW265917   7.175   3.847   6.947 -0.4615  0.3455 -1.6834
20988SOL     OW65918   3.448   6.950   5.579  0.5635  0.1555  0.5233
20988SOL    HW165919   3.531   6.932   5.535  0.1993  1.4745 -0.8001
20988SOL    HW265920   3.461   6.918   5.669  1.6652 -1.7496 -0.2595
20989SOL     OW65921   0.165   4.909   3.802 -0.1733  0.5306  0.0336
20989SOL    HW165922   0.183   4.826   3.757 -2.0012 -0.1885  0.5235
20989SOL    HW265923   0.202   4.897   3.889  1.2177  0.9842 -0.4694
20990SOL     OW65924   6.772  10.336   7.449 -0.1391 -0.0515 -0.0660
20990SOL    HW165925   6.785  10.430   7.452  2.7378 -0.3721 -0.0063
20990SOL    HW265926   6.680  10.325   7.423  0.0790  2.7295 -2.4722
20991SOL     OW65927   4.017   7.503   6.239 -0.6669 -0.5591 -0.1908
20991SOL    HW165928   4.080   7.431   6.232  0.8552  0.6657  0.2940
20991SOL    HW265929   3.931   7.461   6.239  0.2029 -2.4462  1.1362
20992SOL     OW65930   1.989   5.855   2.458  0.1641 -0.5726 -0.3629
20992SOL    HW165931   1.918   5.918   2.453  0.4603 -0.1736  0.2232
20992SOL    HW265932   1.979   5.799   2.381 -2.7620 -2.6278  1.3226
20993SOL     OW65933   0.042  10.084   8.719  0.3277 -0.4612 -0.0790
20993SOL    HW165934  -0.049  10.104   8.700  0.9138  1.4020 -1.1453
20993SOL    HW265935   0.085  10.169   8.723  2.0937 -1.3158  0.0328
20994SOL     OW65936   1.919   7.318   9.381 -0.5521  0.0483 -0.5597
20994SOL    HW165937   1.976   7.394   9.380  0.3976 -0.5308  1.8615
20994SOL    HW265938   1.919   7.286   9.290 -0.5848  2.5739 -1.5148
20995SOL     OW65939   7.526   5.690   1.500 -0.0575 -0.3206  0.4921
20995SOL    HW165940   7.495   5.758   1.559 -0.2971 -1.5508  1.8474
20995SOL    HW265941   7.513   5.726   1.412 -2.4275  0.4292  1.0795
20996SOL     OW65942   9.678   0.561   0.890 -0.6815 -0.3471  0.7398
20996SOL    HW165943   9.665   0.516   0.974 -0.1784 -0.1110  0.9531
20996SOL    HW265944   9.626   0.512   0.827 -2.0520  0.1998  1.4168
20997SOL     OW65945   9.228   9.691   7.795  0.1303 -0.3721  0.3239
20997SOL    HW165946   9.219   9.785   7.781 -1.9734 -0.7159 -1.2087
20997SOL    HW265947   9.272   9.660   7.715 -1.4684 -0.9521 -0.3687
20998SOL     OW65948   7.600   6.133   8.785  0.4332 -0.6190  0.0764
20998SOL    HW165949   7.650   6.210   8.814  0.7168 -0.1266 -1.6409
20998SOL    HW265950   7.523   6.133   8.842 -0.2464  1.7412 -0.7257
20999SOL     OW65951   2.471  10.365   6.880 -0.1765  0.3585 -0.4459
20999SOL    HW165952   2.377  10.348   6.891 -0.2157  0.7075 -0.2228
20999SOL    HW265953   2.481  10.383   6.786 -0.8138  3.0545 -0.1050
21000SOL     OW65954   3.903   9.515   4.487  0.3321 -0.2178 -0.4198
21000SOL    HW165955   3.846   9.449   4.447  1.5341 -0.8022 -1.2366
21000SOL    HW265956   3.946   9.469   4.560 -1.4778  0.7044  1.3210
21001SOL     OW65957  10.103   9.765   2.212  0.0335 -0.7391  0.4753
21001SOL    HW165958  10.132   9.839   2.266  1.7561 -0.2520 -0.9827
21001SOL    HW265959  10.183   9.714   2.197 -0.7578 -1.8559 -0.0902
21002SOL     OW65960   5.235   7.480   8.650 -0.1522 -0.0398  0.5551
21002SOL    HW165961   5.250   7.435   8.733  3.2731  0.8714  0.5955
21002SOL    HW265962   5.298   7.553   8.650 -0.2921  0.2456 -2.6286
21003SOL     OW65963   3.664   6.134   5.887  0.2090 -0.0258  0.0637
21003SOL    HW165964   3.648   6.224   5.858  1.3979 -0.0643 -0.7867
21003SOL    HW265965   3.745   6.108   5.842  0.0999 -1.3869  0.5963
21004SOL     OW65966   0.205   2.041   6.585  0.2267 -0.9334 -0.3858
21004SOL    HW165967   0.182   1.989   6.662  0.2354  0.0834  0.3242
21004SOL    HW265968   0.300   2.034   6.579  0.2313 -0.9803 -0.2703
21005SOL     OW65969   6.014   4.660   4.881  0.2101  0.4942 -0.3607
21005SOL    HW165970   5.960   4.581   4.885  1.6250 -0.5171 -0.2655
21005SOL    HW265971   5.994   4.707   4.962 -2.1973  1.3430 -1.3708
21006SOL     OW65972   8.521   4.947   9.282 -0.0015 -0.5302 -0.2110
21006SOL    HW165973   8.491   5.035   9.307  0.6316 -0.0681 -1.0318
21006SOL    HW265974   8.536   4.953   9.188  1.7447 -1.0046  0.0148
21007SOL     OW65975   6.049   1.361   7.806 -0.0088 -0.0664 -0.2326
21007SOL    HW165976   5.964   1.381   7.845 -0.4336 -0.0995 -1.1047
21007SOL    HW265977   6.057   1.423   7.733 -0.0349 -1.1313 -1.1795
21008SOL     OW65978   2.069   3.378   0.258 -0.2977 -0.1625 -0.0820
21008SOL    HW165979   2.097   3.287   0.266  0.3109 -0.1964 -2.1332
21008SOL    HW265980   2.130   3.427   0.314  2.0225 -0.6018 -2.0394
21009SOL     OW65981   7.350   6.457   2.672  0.2299  0.4903 -0.5257
21009SOL    HW165982   7.352   6.361   2.671 -0.3015  0.4447  0.5512
21009SOL    HW265983   7.395   6.483   2.592  0.0787 -0.6633 -1.0070
21010SOL     OW65984   4.764   3.876   3.768  0.1803 -0.5596  0.2623
21010SOL    HW165985   4.844   3.845   3.809  0.8216  0.1087 -0.4429
21010SOL    HW265986   4.773   3.972   3.768 -0.5570 -0.4843  0.0574
21011SOL     OW65987   5.733   4.642   7.570 -0.5848  0.5225  0.4642
21011SOL    HW165988   5.673   4.661   7.643 -1.3600  2.1589 -0.5396
21011SOL    HW265989   5.786   4.721   7.562  2.0756 -1.0206  1.5645
21012SOL     OW65990   2.772   6.642   8.069  0.1574  0.3296 -0.4756
21012SOL    HW165991   2.730   6.602   7.993 -0.0700 -0.9822  0.3254
21012SOL    HW265992   2.864   6.652   8.044  0.3485 -1.2664 -0.4763
21013SOL     OW65993   3.640   4.056   9.272 -0.2528 -0.3086 -0.3770
21013SOL    HW165994   3.613   4.143   9.241  0.9654  0.5176  0.7508
21013SOL    HW265995   3.560   4.016   9.304 -0.4218  1.6602  1.9512
21014SOL     OW65996   5.781   9.360   6.214  0.0961  0.0042  0.0926
21014SOL    HW165997   5.768   9.309   6.134 -1.3606  1.7773 -0.8888
21014SOL    HW265998   5.851   9.420   6.193  0.0174  0.1706  0.3036
21015SOL     OW65999   4.872   4.716   8.904 -0.5038 -0.1388  0.0227
21015SOL    HW166000   4.947   4.657   8.897  0.3521  0.6216  2.0032
21015SOL    HW266001   4.804   4.665   8.948  0.0029  0.1233  1.1319
21016SOL     OW66002   5.907   9.784   4.823 -0.4223 -0.0496  0.4836
21016SOL    HW166003   5.835   9.830   4.867  0.3436  1.2936  0.3843
21016SOL    HW266004   5.981   9.791   4.885  0.3302  0.8196 -0.4844
21017SOL     OW66005   8.176   8.848   4.613 -0.0024 -0.1134  0.1277
21017SOL    HW166006   8.264   8.879   4.633  0.0875 -0.6077  0.5159
21017SOL    HW266007   8.156   8.785   4.682 -0.8419  0.3283  0.3104
21018SOL     OW66008   6.426   9.884   0.201  0.1045  0.1344  0.4621
21018SOL    HW166009   6.477   9.828   0.143 -0.6636  0.7680 -0.8687
21018SOL    HW266010   6.352   9.830   0.227  0.8924 -0.4498  1.6088
21019SOL     OW66011   3.784   5.587   5.981 -0.2972  0.7883 -0.8020
21019SOL    HW166012   3.837   5.643   6.038  1.5996 -1.8458  0.2496
21019SOL    HW266013   3.842   5.567   5.907  0.6106 -2.6152  0.6470
21020SOL     OW66014   0.026   7.780   5.475 -0.4772 -0.1727 -0.0247
21020SOL    HW166015  -0.002   7.708   5.532 -0.3298 -1.4262 -1.4802
21020SOL    HW266016   0.027   7.742   5.387 -0.9046  1.7592 -0.9172
21021SOL     OW66017   6.149   9.803   2.138  0.3733  0.0960  0.1388
21021SOL    HW166018   6.079   9.867   2.145 -1.5753 -1.7302 -1.3426
21021SOL    HW266019   6.207   9.838   2.070 -0.3700  0.5610 -0.2667
21022SOL     OW66020   4.083  10.266   8.771 -0.6417  0.0147 -0.1873
21022SOL    HW166021   4.059  10.214   8.847 -0.4404 -0.8179 -0.6874
21022SOL    HW266022   4.179  10.273   8.776 -0.4154 -1.6232 -1.3379
21023SOL     OW66023   6.196   5.503   3.763  0.0701 -0.4155  0.3322
21023SOL    HW166024   6.274   5.555   3.780  0.7932 -0.9738 -1.1881
21023SOL    HW266025   6.132   5.565   3.728  0.5328 -0.3365 -0.3696
21024SOL     OW66026   7.250   4.258   3.610 -0.3262  0.1137 -0.0405
21024SOL    HW166027   7.323   4.209   3.574 -0.1922  0.3492 -0.0903
21024SOL    HW266028   7.256   4.344   3.568  0.8055  0.9528  1.7604
21025SOL     OW66029   2.918   0.251   1.762  0.0111 -0.1978 -1.0780
21025SOL    HW166030   2.915   0.158   1.785  1.1890 -0.5884 -2.3772
21025SOL    HW266031   2.886   0.254   1.672 -1.5479  0.8888 -0.5265
21026SOL     OW66032   5.771   5.066   2.195 -0.2489 -0.6708 -0.0374
21026SOL    HW166033   5.727   4.987   2.227 -0.0061 -0.5510  0.6049
21026SOL    HW266034   5.716   5.095   2.122 -1.2927 -0.4763  0.7916
21027SOL     OW66035   6.965   6.522   8.594  0.3955  0.3377  0.2116
21027SOL    HW166036   6.913   6.508   8.673  0.5698 -0.7145  0.1545
21027SOL    HW266037   7.002   6.437   8.574  0.3832  0.5871 -0.9919
21028SOL     OW66038  10.116   5.941   2.473  0.1330 -0.1820 -0.2421
21028SOL    HW166039  10.188   5.949   2.537 -0.9964 -0.2661  1.0924
21028SOL    HW266040  10.147   5.989   2.397  1.9735 -0.9631 -0.0445
21029SOL     OW66041   3.427   6.835   8.599  0.0186  0.6612  0.4741
21029SOL    HW166042   3.468   6.755   8.567  0.0760  0.7967  0.2004
21029SOL    HW266043   3.456   6.842   8.690 -0.4717  0.0606  0.6796
21030SOL     OW66044   1.101   3.643   6.980  1.0335  0.3179 -0.2874
21030SOL    HW166045   1.046   3.701   6.927  1.0367  0.9435  0.3710
21030SOL    HW266046   1.039   3.602   7.041  0.7552 -1.7044 -1.8474
21031SOL     OW66047   7.994   6.292   0.479  0.5628 -0.0555  0.9836
21031SOL    HW166048   8.024   6.371   0.434 -0.9193  0.8192  1.4478
21031SOL    HW266049   8.002   6.313   0.572 -1.8462  0.4283  1.1465
21032SOL     OW66050   6.894   4.538   7.932 -0.1164  0.1506 -0.1335
21032SOL    HW166051   6.899   4.632   7.914 -0.8019  0.4205  1.0198
21032SOL    HW266052   6.979   4.504   7.905  0.7763  1.3889  1.0124
21033SOL     OW66053  10.487   6.919   2.724  0.7045 -0.4102 -0.1501
21033SOL    HW166054  10.486   7.012   2.749  0.3199 -0.0642 -1.3879
21033SOL    HW266055  10.396   6.900   2.699  0.5101 -1.4658  1.2519
21034SOL     OW66056   0.506   3.888   3.658 -0.2052  0.7117  0.0465
21034SOL    HW166057   0.490   3.872   3.565  0.0211  0.5707  0.0317
21034SOL    HW266058   0.572   3.957   3.660  1.0392 -0.4462  0.0815
21035SOL     OW66059   8.962   9.470   3.972 -0.3709 -0.2005 -0.0589
21035SOL    HW166060   8.908   9.408   4.021  0.6284 -0.0414  1.3214
21035SOL    HW266061   8.937   9.457   3.881 -2.0496 -0.7847  0.4323
21036SOL     OW66062   0.435   6.645   6.300  0.0046  0.0353 -0.5261
21036SOL    HW166063   0.527   6.666   6.319  0.3181 -1.6987  0.0178
21036SOL    HW266064   0.411   6.579   6.365 -1.9397  1.0976 -0.0717
21037SOL     OW66065   4.839   1.450   3.603  0.0469  0.0283  0.2254
21037SOL    HW166066   4.786   1.486   3.531  1.1369  0.7778 -0.2217
21037SOL    HW266067   4.798   1.485   3.682  2.2467  4.1774 -0.2027
21038SOL     OW66068   7.147   0.497  10.428 -0.4340  0.4862 -0.5067
21038SOL    HW166069   7.083   0.546  10.377 -1.8623 -0.1855  0.5701
21038SOL    HW266070   7.117   0.507  10.519  0.2407 -0.9255 -0.1150
21039SOL     OW66071   1.158   8.039   5.682 -0.3308  0.1836  0.3755
21039SOL    HW166072   1.125   8.022   5.594 -0.7760  0.1721  0.5387
21039SOL    HW266073   1.084   8.019   5.739  0.7759 -2.7455  0.9981
21040SOL     OW66074   1.516   4.686   0.919  0.1806  1.0145  0.1636
21040SOL    HW166075   1.561   4.603   0.905 -2.1283 -0.3778  0.4539
21040SOL    HW266076   1.498   4.719   0.831 -1.8363 -0.5692 -0.1046
21041SOL     OW66077   9.569   6.395   5.542 -0.1927  0.1144  0.5959
21041SOL    HW166078   9.551   6.358   5.456 -0.3048  0.4213  0.4897
21041SOL    HW266079   9.483   6.417   5.578 -0.1533 -0.0879  0.8214
21042SOL     OW66080   3.832   8.957   5.736 -0.0383 -0.0416  0.8582
21042SOL    HW166081   3.839   8.865   5.709 -3.2864 -0.6674  1.7580
21042SOL    HW266082   3.834   9.006   5.653 -0.8734 -1.1445  0.1608
21043SOL     OW66083   4.627   8.551   5.867  0.0596 -0.3343  0.4313
21043SOL    HW166084   4.719   8.533   5.886 -0.1315 -0.3485  1.3753
21043SOL    HW266085   4.609   8.501   5.787  0.9872  0.0275 -0.0185
21044SOL     OW66086   1.308   2.970   2.055 -0.1885  0.0661  0.5343
21044SOL    HW166087   1.330   3.037   2.120  0.5615 -0.4088  0.7728
21044SOL    HW266088   1.324   2.887   2.099  0.1101 -0.2657 -0.1832
21045SOL     OW66089   6.854   8.568   8.944  0.0232  0.4433 -0.8298
21045SOL    HW166090   6.836   8.662   8.948  2.8655  1.0446 -0.3026
21045SOL    HW266091   6.819   8.533   9.026  0.5544  1.3720 -0.1891
21046SOL     OW66092   6.206   0.888   0.145  0.6502 -0.3017 -0.5667
21046SOL    HW166093   6.231   0.798   0.124  0.5188 -0.6477  0.6930
21046SOL    HW266094   6.165   0.921   0.065  0.2760 -1.5139 -0.8887
21047SOL     OW66095   2.668   7.695   5.240  0.4212  0.9154  0.1103
21047SOL    HW166096   2.657   7.723   5.148  2.5644  0.3726 -0.3539
21047SOL    HW266097   2.760   7.712   5.260  1.7175 -4.3605  0.1947
21048SOL     OW66098   2.683   7.946   1.401  0.6872 -0.3813 -0.5468
21048SOL    HW166099   2.618   7.905   1.458  0.9914 -0.0598  0.0384
21048SOL    HW266100   2.650   7.930   1.312 -1.9349  2.5465 -0.2522
21049SOL     OW66101   7.406   9.683   2.938  0.0085  0.1781  0.5733
21049SOL    HW166102   7.365   9.672   2.852 -0.1386 -0.7066  0.7502
21049SOL    HW266103   7.392   9.775   2.959 -1.7001 -0.0319  0.5237
21050SOL     OW66104   9.798   1.887  10.151 -0.6209  0.2230 -0.1990
21050SOL    HW166105   9.743   1.812  10.129  0.0279 -0.2181 -0.3371
21050SOL    HW266106   9.868   1.851  10.206  0.6540  0.3941 -1.6298
21051SOL     OW66107   6.267   2.872   2.304  0.0608  0.1010 -0.8908
21051SOL    HW166108   6.353   2.832   2.292  1.6428  1.6580  3.3309
21051SOL    HW266109   6.206   2.809   2.265  2.8134 -3.2476 -0.3161
21052SOL     OW66110   0.111   8.589   8.043 -0.2716 -0.4490  0.2619
21052SOL    HW166111   0.132   8.681   8.026  1.4909 -0.6791  0.9568
21052SOL    HW266112   0.070   8.589   8.130  0.5027 -0.3871  0.6376
21053SOL     OW66113   1.868   2.368   5.855 -0.0947  0.2758 -0.5962
21053SOL    HW166114   1.963   2.364   5.847 -0.0201  1.1885 -0.1952
21053SOL    HW266115   1.836   2.376   5.765  0.0862 -1.8923 -0.9129
21054SOL     OW66116   7.108   0.888   3.904 -0.0657 -0.4020  0.0689
21054SOL    HW166117   7.061   0.919   3.827 -0.0178  1.5949  0.7994
21054SOL    HW266118   7.130   0.797   3.883 -1.0418 -0.2636 -1.7826
21055SOL     OW66119   6.825   4.545   8.191  0.2067 -1.0688 -0.3484
21055SOL    HW166120   6.898   4.577   8.243 -0.0882  0.1622 -0.6642
21055SOL    HW266121   6.858   4.542   8.101  0.7386 -3.2579 -0.1518
21056SOL     OW66122   3.877   0.042   4.217  0.2186  0.0655  0.2466
21056SOL    HW166123   3.962   0.052   4.174  0.2873 -2.3694 -0.3540
21056SOL    HW266124   3.832   0.125   4.203  2.4227  1.3542  0.4621
21057SOL     OW66125   6.467   6.088   9.668 -0.1694 -0.3928  0.2848
21057SOL    HW166126   6.409   6.133   9.606  2.0970  2.3050 -0.0693
21057SOL    HW266127   6.522   6.031   9.613  0.5284  0.5159  0.0230
21058SOL     OW66128   5.556   8.956   2.565  0.1002  0.2076 -0.1102
21058SOL    HW166129   5.512   9.038   2.588  0.1780  0.7413 -1.6885
21058SOL    HW266130   5.640   8.960   2.610 -0.2429  0.5984  0.5046
21059SOL     OW66131   9.415   4.481   8.421  0.1518  0.8475  0.3823
21059SOL    HW166132   9.352   4.552   8.432  0.7296  1.5813 -0.7748
21059SOL    HW266133   9.381   4.429   8.348  0.3802  0.6814  0.3914
21060SOL     OW66134   7.509   1.227   1.530 -0.3373 -0.1592 -0.5495
21060SOL    HW166135   7.513   1.132   1.519  0.6856 -0.2764  0.5930
21060SOL    HW266136   7.589   1.260   1.488  0.1994  0.0076  0.5581
21061SOL     OW66137   5.641   7.974   6.126  0.1940 -0.1762  0.0076
21061SOL    HW166138   5.655   7.989   6.032 -0.0767  0.8444  0.1259
21061SOL    HW266139   5.565   7.915   6.129  0.2065 -0.2222 -0.4107
21062SOL     OW66140   4.329   5.138   5.995 -0.2989  0.9964 -0.6131
21062SOL    HW166141   4.344   5.165   6.085 -0.2334 -2.6921  0.6643
21062SOL    HW266142   4.416   5.126   5.957 -0.2802  0.1177 -0.3045
21063SOL     OW66143   5.027   9.507   7.031 -0.3481 -0.0931  0.2166
21063SOL    HW166144   5.084   9.582   7.019 -0.1740 -0.1200  0.8328
21063SOL    HW266145   4.961   9.515   6.962 -1.2096  1.4369  1.1726
21064SOL     OW66146   0.953   7.767  10.402 -0.2056 -0.5309 -0.1938
21064SOL    HW166147   0.925   7.856  10.382  3.8867  0.2416 -4.1479
21064SOL    HW266148   0.879   7.712  10.376 -1.8822  1.5368 -0.1190
21065SOL     OW66149   7.570   5.719   8.977 -0.4738  0.2969 -0.3075
21065SOL    HW166150   7.584   5.656   9.047 -0.7581  0.7859  0.1894
21065SOL    HW266151   7.582   5.805   9.018  1.8755  0.5660 -1.3869
21066SOL     OW66152   3.119   3.056   5.484 -0.2220  0.0811  0.3203
21066SOL    HW166153   3.146   3.128   5.540  0.5135 -1.8519  2.6046
21066SOL    HW266154   3.077   2.993   5.543  0.4980 -2.0292 -1.2762
21067SOL     OW66155   0.815   6.556   7.686  0.0533  0.6161  0.1276
21067SOL    HW166156   0.723   6.550   7.712 -0.5512 -0.8033 -2.0086
21067SOL    HW266157   0.864   6.536   7.765 -1.5713 -1.0435  0.7844
21068SOL     OW66158   5.376   7.409   9.633 -0.4771  0.2514  0.5149
21068SOL    HW166159   5.307   7.454   9.682  0.6803  1.6742  0.8861
21068SOL    HW266160   5.341   7.401   9.544 -0.6053  2.1786  0.3579
21069SOL     OW66161   1.838   2.803   9.205  0.2468 -0.0282  0.2947
21069SOL    HW166162   1.906   2.739   9.228  0.9172  0.4963 -0.1904
21069SOL    HW266163   1.758   2.751   9.195  0.8572 -0.8442 -0.4673
21070SOL     OW66164   0.349   7.574   1.868  0.6324  0.5026 -0.6451
21070SOL    HW166165   0.264   7.608   1.897  0.0419 -0.2865 -1.3675
21070SOL    HW266166   0.401   7.567   1.948 -0.6250 -0.7216  0.1284
21071SOL     OW66167   6.452   2.526  10.615 -0.2146  0.3218 -0.7417
21071SOL    HW166168   6.519   2.569  10.562  1.5479  0.7703  1.6653
21071SOL    HW266169   6.403   2.597  10.655  0.2153  0.0638  0.2713
21072SOL     OW66170   8.281   1.257   9.724  0.3135  0.4015  0.2665
21072SOL    HW166171   8.300   1.298   9.809  0.5544 -1.4139  1.1315
21072SOL    HW266172   8.234   1.325   9.675  0.2597  1.5285  1.8051
21073SOL     OW66173   9.047   1.211   5.513  0.0772  0.3926 -0.2840
21073SOL    HW166174   9.086   1.210   5.600 -0.2334  1.6076 -0.1173
21073SOL    HW266175   9.114   1.174   5.456  0.3376 -0.2889  0.4370
21074SOL     OW66176   5.555   0.716   0.420  0.3604 -0.1558  0.1727
21074SOL    HW166177   5.470   0.678   0.399  0.8777 -0.6409 -1.1643
21074SOL    HW266178   5.563   0.791   0.361  0.4818  0.4403  0.9310
21075SOL     OW66179   7.779   2.527   0.651 -0.4299 -1.0225  0.5442
21075SOL    HW166180   7.688   2.517   0.623  0.2538 -1.8131 -1.5833
21075SOL    HW266181   7.789   2.621   0.668 -1.1308 -0.5714 -1.2911
21076SOL     OW66182   1.649  10.546   3.049  0.2051  0.6243 -0.5554
21076SOL    HW166183   1.604  10.622   3.085 -0.5727  0.1274 -0.4578
21076SOL    HW266184   1.593  10.472   3.072  1.5811 -0.1373  0.4330
21077SOL     OW66185   6.595   8.988   3.099  0.4095  0.6250  0.8802
21077SOL    HW166186   6.666   8.930   3.072  0.2266  1.0686 -0.6928
21077SOL    HW266187   6.595   8.985   3.194 -0.7627 -3.3784  0.9142
21078SOL     OW66188   1.928   0.618   8.417 -0.3386  0.3916  0.2959
21078SOL    HW166189   1.929   0.704   8.458  2.7656  0.2017  0.8877
21078SOL    HW266190   2.020   0.601   8.394 -0.9970 -2.3170 -0.7539
21079SOL     OW66191  10.121   8.661   7.011 -0.3803  0.0302 -0.1798
21079SOL    HW166192  10.213   8.672   6.988 -0.2921  1.0782  0.5834
21079SOL    HW266193  10.079   8.742   6.984 -0.9911 -0.2398 -0.0721
21080SOL     OW66194   6.247   3.841   8.920 -0.1839  0.2315 -0.1336
21080SOL    HW166195   6.228   3.854   8.827 -0.0672 -1.0342 -0.3539
21080SOL    HW266196   6.166   3.866   8.965 -0.9210 -1.0228 -0.7311
21081SOL     OW66197   4.629   0.316   1.175 -0.3479 -0.1828 -0.0056
21081SOL    HW166198   4.627   0.242   1.235 -1.1823  0.4504  0.7622
21081SOL    HW266199   4.610   0.392   1.229  1.8214  0.7946 -0.5340
21082SOL     OW66200   5.913   0.863   7.736  0.4844  0.1555  0.0576
21082SOL    HW166201   5.944   0.918   7.808 -1.0444  0.7915  0.2585
21082SOL    HW266202   5.860   0.796   7.778 -1.0922  1.0086 -0.5122
21083SOL     OW66203   0.672   5.232   3.231 -0.3752 -0.3668 -0.0159
21083SOL    HW166204   0.701   5.290   3.302  0.8323 -1.7279  0.6522
21083SOL    HW266205   0.590   5.194   3.262 -0.4828 -0.0421  0.1048
21084SOL     OW66206   7.786   5.935   3.277  0.0415 -0.2146  0.1232
21084SOL    HW166207   7.854   5.881   3.318 -0.7059 -0.1612  1.5154
21084SOL    HW266208   7.716   5.938   3.343 -0.4107  1.5002 -0.3980
21085SOL     OW66209   3.257   8.698   3.692  0.1506 -0.0142  0.7355
21085SOL    HW166210   3.292   8.608   3.690  0.6001  0.1130  1.8856
21085SOL    HW266211   3.296   8.737   3.770 -0.5915  0.9659  0.6384
21086SOL     OW66212   3.322   1.678   4.533  0.1170 -0.3982  0.2119
21086SOL    HW166213   3.326   1.638   4.620  0.8858 -1.6460 -0.3610
21086SOL    HW266214   3.340   1.605   4.473 -0.5641  0.3965 -1.0072
21087SOL     OW66215   5.333   4.884  10.224 -0.0234 -0.4338 -0.8121
21087SOL    HW166216   5.394   4.825  10.179 -1.2707 -0.8977 -1.9478
21087SOL    HW266217   5.321   4.844  10.310  0.1614 -1.1237 -1.0993
21088SOL     OW66218   6.162   3.899   7.603 -0.1052 -0.0411  0.4995
21088SOL    HW166219   6.109   3.950   7.542  1.7523  0.5405 -0.7445
21088SOL    HW266220   6.147   3.939   7.689 -1.8414 -0.0940  0.2462
21089SOL     OW66221   0.611   9.104   6.704  0.4596 -0.0474  0.2310
21089SOL    HW166222   0.545   9.117   6.772  0.4084  0.7487  0.0362
21089SOL    HW266223   0.561   9.073   6.628  0.1630  1.4464 -0.2065
21090SOL     OW66224   1.671   4.556   3.766  0.0883  0.0323 -0.1242
21090SOL    HW166225   1.689   4.582   3.676  0.4606 -2.0610 -0.6992
21090SOL    HW266226   1.732   4.485   3.784 -0.2142  0.1721  1.6902
21091SOL     OW66227   7.739   4.205   6.874  0.2330  0.3097 -0.1928
21091SOL    HW166228   7.697   4.274   6.925 -1.3892  1.3993 -2.8061
21091SOL    HW266229   7.808   4.250   6.825  0.2840 -0.2709 -0.6636
21092SOL     OW66230   1.166   1.556   0.898 -0.4039  0.1751  0.2097
21092SOL    HW166231   1.201   1.510   0.822  3.1215  1.1875  1.0372
21092SOL    HW266232   1.144   1.643   0.866 -0.3504  0.1208  0.0244
21093SOL     OW66233  10.477   4.106   7.880  0.3771 -0.4382  0.3800
21093SOL    HW166234  10.535   4.179   7.901  0.1721 -0.4731  1.0717
21093SOL    HW266235  10.516   4.031   7.922  0.9639 -0.8808 -0.9023
21094SOL     OW66236   3.306   4.602   7.876  0.0356 -0.0024  0.5524
21094SOL    HW166237   3.378   4.613   7.938 -0.6116  1.0763  1.1598
21094SOL    HW266238   3.318   4.674   7.813 -0.5443  0.2420  0.7122
21095SOL     OW66239   0.546   9.226   5.861 -0.2019 -0.8613 -0.3295
21095SOL    HW166240   0.484   9.252   5.793  0.2310 -0.7154 -0.6774
21095SOL    HW266241   0.618   9.185   5.813 -0.2314 -1.4267  0.1042
21096SOL     OW66242   5.838   6.483   2.156  0.2123 -0.3742 -0.2127
21096SOL    HW166243   5.929   6.509   2.144  0.0937  0.8295  1.1357
21096SOL    HW266244   5.801   6.553   2.211 -1.6162 -0.6454 -1.0350
21097SOL     OW66245   1.870   4.396   4.240  0.4517  0.0190 -0.9628
21097SOL    HW166246   1.801   4.364   4.182 -1.7307 -0.8239  1.8345
21097SOL    HW266247   1.824   4.449   4.305  2.3949 -0.6997  1.1420
21098SOL     OW66248   0.806   0.877   4.923 -0.1009  0.2957 -1.2766
21098SOL    HW166249   0.791   0.955   4.870  0.7070  0.6807 -0.9661
21098SOL    HW266250   0.851   0.910   5.001  2.6071 -0.7461 -2.2834
21099SOL     OW66251   6.723   1.178  10.638 -0.5564 -0.6548 -0.3550
21099SOL    HW166252   6.665   1.196  10.712  0.5926  1.6327  0.1061
21099SOL    HW266253   6.749   1.087  10.649  1.7885  0.2511  3.7980
21100SOL     OW66254   9.078   7.783   1.629  0.0632  0.7872 -0.5703
21100SOL    HW166255   9.093   7.717   1.562 -1.4723 -0.2119  0.0161
21100SOL    HW266256   9.063   7.864   1.580 -0.7723  0.1305 -1.4379
21101SOL     OW66257   0.196   7.329   0.161 -0.6597  0.4276  0.3071
21101SOL    HW166258   0.143   7.250   0.154  0.2243 -0.2284  0.7129
21101SOL    HW266259   0.277   7.307   0.115  0.5498  0.2188  2.4057
21102SOL     OW66260   1.602   1.690   2.199  0.5953 -0.1926 -0.1967
21102SOL    HW166261   1.599   1.630   2.273  0.9824  1.3562  1.1407
21102SOL    HW266262   1.604   1.634   2.122  2.1475 -1.8966  1.0132
21103SOL     OW66263   7.402   1.177   2.588  0.0625 -0.3527  0.0466
21103SOL    HW166264   7.323   1.212   2.546  1.0584 -0.5249 -2.0716
21103SOL    HW266265   7.370   1.107   2.645 -1.5358  1.1957  1.1436
21104SOL     OW66266   1.561   1.951   9.345 -0.1999  0.6671  0.1276
21104SOL    HW166267   1.579   2.015   9.276  0.3759  0.0983 -0.2619
21104SOL    HW266268   1.621   1.879   9.327  0.2820  0.6896  1.4751
21105SOL     OW66269   3.462   8.881  10.060 -0.4292  0.1423 -0.3720
21105SOL    HW166270   3.510   8.836  10.130 -0.8188 -2.1170 -1.5000
21105SOL    HW266271   3.381   8.911  10.102  1.2605  2.9505  1.2504
21106SOL     OW66272   6.167   1.985   5.037 -0.0217  0.4970 -0.1957
21106SOL    HW166273   6.074   2.002   5.022  0.2278  0.6085 -1.8467
21106SOL    HW266274   6.205   1.981   4.949  1.2400 -1.2999  0.3776
21107SOL     OW66275   6.032   3.390   7.247  0.1759  0.0482  0.1616
21107SOL    HW166276   5.960   3.342   7.206  0.1481  1.8577 -2.1119
21107SOL    HW266277   5.995   3.476   7.265  1.6111  0.8753 -0.6811
21108SOL     OW66278   5.242   8.752   9.702  0.2086 -0.0474 -0.3538
21108SOL    HW166279   5.252   8.792   9.615  0.0816  2.7533  0.8191
21108SOL    HW266280   5.168   8.692   9.692  0.1811  0.2163 -2.1542
21109SOL     OW66281   8.452   2.091   8.766  0.0048  0.2571  0.5025
21109SOL    HW166282   8.415   2.134   8.843 -1.3100  0.0700 -0.0005
21109SOL    HW266283   8.509   2.023   8.802 -0.0932  0.5805  1.3005
21110SOL     OW66284   6.916   3.083   7.754 -0.6187  0.2933  0.0114
21110SOL    HW166285   6.955   3.056   7.837  1.3930 -0.5641 -1.1416
21110SOL    HW266286   6.825   3.054   7.760 -0.4048 -0.1379  1.7353
21111SOL     OW66287   6.492  10.612   6.664  0.1745 -0.4501 -0.4805
21111SOL    HW166288   6.570  10.624   6.611 -0.7586  1.2157 -1.5622
21111SOL    HW266289   6.525  10.600   6.753  1.6745  0.1220 -0.9291
21112SOL     OW66290   3.858   4.370   9.826  0.0941 -0.5332  0.3113
21112SOL    HW166291   3.790   4.418   9.780  0.6798  0.4383  0.4245
21112SOL    HW266292   3.845   4.392   9.918  0.0984 -0.9612  0.4201
21113SOL     OW66293   0.184   3.946   9.616 -0.0966  0.1261 -0.2349
21113SOL    HW166294   0.257   3.913   9.564  0.2336 -0.6503  0.6860
21113SOL    HW266295   0.166   4.033   9.580  0.8915  0.0883 -0.8606
21114SOL     OW66296   7.251   6.924   1.109  0.1399 -0.0122 -0.4278
21114SOL    HW166297   7.322   6.959   1.056  0.8092 -0.8911 -0.1367
21114SOL    HW266298   7.173   6.934   1.054  0.7859 -0.7223 -1.5172
21115SOL     OW66299   2.738   7.767   1.821 -0.3553 -0.2111  0.1543
21115SOL    HW166300   2.709   7.779   1.911 -0.0346 -2.1054  0.5461
21115SOL    HW266301   2.664   7.725   1.777 -0.0462 -0.4609 -0.1320
21116SOL     OW66302  10.426   9.926  10.264  0.5304 -0.4495 -0.4433
21116SOL    HW166303  10.406   9.892  10.351  0.1114  0.1135 -0.3198
21116SOL    HW266304  10.397   9.856  10.205 -1.4746  0.1753 -0.2462
21117SOL     OW66305   2.011   3.856   9.525  0.4961  0.3756 -0.2902
21117SOL    HW166306   2.026   3.913   9.450 -0.6891 -1.7494 -2.2892
21117SOL    HW266307   1.917   3.861   9.541  0.3756 -0.8725 -0.4478
21118SOL     OW66308   8.998   4.691   2.693 -0.2748 -0.2334  0.4020
21118SOL    HW166309   8.907   4.670   2.716 -0.7293  2.0675  0.9363
21118SOL    HW266310   8.993   4.777   2.651  1.6039 -0.3707 -0.2038
21119SOL     OW66311   1.768   5.677   2.993  0.0706 -0.0292  0.6901
21119SOL    HW166312   1.763   5.582   3.004 -0.4838 -0.0225  0.4757
21119SOL    HW266313   1.846   5.702   3.044  1.9661 -0.9411 -1.5592
21120SOL     OW66314   2.184   0.255   0.563  0.3768 -0.2247  0.4561
21120SOL    HW166315   2.244   0.255   0.638  0.1750 -2.3365  0.6704
21120SOL    HW266316   2.212   0.330   0.511  1.4962  0.3997  1.8875
21121SOL     OW66317   7.466   9.860   6.472  0.4235 -0.5665  0.6633
21121SOL    HW166318   7.428   9.882   6.387 -0.8781  0.8509  1.5588
21121SOL    HW266319   7.400   9.804   6.514  1.3872 -1.8804  0.4764
21122SOL     OW66320   6.643   4.271   5.324 -0.1899  0.5060  0.0447
21122SOL    HW166321   6.643   4.296   5.417  0.8317 -1.1665  0.5470
21122SOL    HW266322   6.565   4.215   5.316  1.3506 -1.9369  0.7516
21123SOL     OW66323   9.369   6.126   5.616 -0.5794 -0.1060 -0.0995
21123SOL    HW166324   9.337   6.075   5.690 -1.5972  0.3717 -0.1921
21123SOL    HW266325   9.390   6.062   5.549  0.1239 -0.5267  0.5104
21124SOL     OW66326   1.713   5.697   4.096  0.0733 -0.2453  0.3443
21124SOL    HW166327   1.725   5.792   4.095  2.2553 -0.4583 -1.1222
21124SOL    HW266328   1.791   5.664   4.141 -0.2222 -1.3823  0.0426
21125SOL     OW66329   9.143   7.697   8.844 -0.3718  0.1458 -0.2301
21125SOL    HW166330   9.144   7.792   8.833 -1.5894  0.2378  0.2269
21125SOL    HW266331   9.053   7.672   8.824  0.2798 -1.1180 -1.7866
21126SOL     OW66332   4.055   0.876  10.243 -0.3121  0.2465 -0.1914
21126SOL    HW166333   4.110   0.897  10.168  0.3331  0.4067  0.3188
21126SOL    HW266334   4.020   0.961  10.272 -0.9605  0.1279 -0.6103
21127SOL     OW66335   7.861   0.995   1.878 -0.9099 -0.0144  0.1178
21127SOL    HW166336   7.850   0.909   1.836 -1.2921 -0.0831  0.3485
21127SOL    HW266337   7.826   1.057   1.815 -1.3232 -0.1014  0.2547
21128SOL     OW66338   7.368   7.119   8.338 -0.1730  0.3476  0.6133
21128SOL    HW166339   7.351   7.029   8.310  0.2788  0.6665 -0.7594
21128SOL    HW266340   7.412   7.160   8.263 -0.3411  1.7054  1.2260
21129SOL     OW66341   3.037   3.713   0.403 -0.0085  0.3180 -0.1128
21129SOL    HW166342   2.958   3.664   0.424  0.0934  0.0878 -0.2699
21129SOL    HW266343   3.019   3.802   0.434  0.5034 -0.2180  1.8614
21130SOL     OW66344   5.502   0.300   0.766  0.2095 -0.1272 -0.0605
21130SOL    HW166345   5.503   0.264   0.854  1.0909 -0.4542 -0.1857
21130SOL    HW266346   5.411   0.325   0.750  0.1964  0.7559  1.2626
21131SOL     OW66347   6.577   3.933   2.954  0.0870 -0.1982  0.5177
21131SOL    HW166348   6.658   3.922   3.003 -1.6542 -1.9449  3.3490
21131SOL    HW266349   6.525   3.994   3.006 -0.7989  0.1531 -0.7170
21132SOL     OW66350   1.721   6.225   5.845  0.2397 -0.4467  0.4706
21132SOL    HW166351   1.644   6.195   5.796  0.3570 -2.2527  1.2926
21132SOL    HW266352   1.784   6.154   5.835  0.7912 -0.2079  2.0132
21133SOL     OW66353   4.462   4.263  10.640 -0.7261 -0.0363  0.0699
21133SOL    HW166354   4.525   4.226  10.578 -1.3698 -1.1290  0.0464
21133SOL    HW266355   4.429   4.342  10.596 -0.6484 -0.4071 -0.6719
21134SOL     OW66356   4.390   5.165   0.134  0.0946 -0.0968  0.5474
21134SOL    HW166357   4.330   5.206   0.197  0.6436  0.3643  0.7813
21134SOL    HW266358   4.333   5.131   0.066 -0.4601  0.0474  0.9299
21135SOL     OW66359   7.833   0.689   8.394  0.0029  0.4850 -0.7452
21135SOL    HW166360   7.758   0.677   8.452  0.8512  0.8188  0.4586
21135SOL    HW266361   7.803   0.659   8.308 -1.2772 -0.0265 -0.1312
21136SOL     OW66362   1.520   7.091   7.664  0.3562  0.0442 -0.6091
21136SOL    HW166363   1.558   7.163   7.614 -0.2199 -0.1828 -1.3938
21136SOL    HW266364   1.587   7.070   7.730  2.1405 -1.1420 -2.6749
21137SOL     OW66365   7.489   7.968   4.230 -0.2953  0.2309 -0.3290
21137SOL    HW166366   7.520   8.059   4.228  0.5698 -0.0613 -0.5444
21137SOL    HW266367   7.463   7.950   4.139 -0.3682  0.2258 -0.3074
21138SOL     OW66368   7.914   0.414   1.081  0.3976  0.6403  0.8334
21138SOL    HW166369   7.992   0.360   1.089  0.2498  0.4566  1.0565
21138SOL    HW266370   7.882   0.423   1.171 -1.9778 -2.4298  0.4966
21139SOL     OW66371   2.074   7.902   3.561 -0.1474 -0.0051  0.0516
21139SOL    HW166372   2.003   7.956   3.594 -0.4265 -0.2633 -0.1233
21139SOL    HW266373   2.049   7.812   3.583 -0.3592 -0.1884 -0.8831
21140SOL     OW66374   9.417   0.176   4.833  0.4148 -0.1992 -0.0177
21140SOL    HW166375   9.329   0.191   4.866  0.4565 -0.4577  0.2149
21140SOL    HW266376   9.439   0.088   4.863  0.7846 -0.1036 -0.0073
21141SOL     OW66377   4.180   2.702   9.027  0.0758  0.1436 -0.2605
21141SOL    HW166378   4.250   2.690   8.963 -1.4943 -1.4085 -1.8063
21141SOL    HW266379   4.099   2.693   8.976 -1.2571 -0.7056  1.8477
21142SOL     OW66380   1.975   8.798   8.591 -0.2428 -0.7688  0.3997
21142SOL    HW166381   2.015   8.869   8.541 -2.1754 -0.1690 -0.4129
21142SOL    HW266382   2.046   8.760   8.642  1.1205  0.8139 -0.2593
21143SOL     OW66383   9.144   6.274   6.916  0.0161  0.5837 -0.4806
21143SOL    HW166384   9.152   6.190   6.871  2.6676  0.8884 -0.7105
21143SOL    HW266385   9.152   6.339   6.846  0.7331  1.0282  0.0014
21144SOL     OW66386  10.615   4.872   5.161  0.5711  0.5464 -0.2687
21144SOL    HW166387  10.646   4.947   5.109  0.4088  0.3924 -0.5920
21144SOL    HW266388  10.571   4.816   5.097 -2.3020  1.7573  0.5040
21145SOL     OW66389   6.073   0.493   0.722  0.1607 -0.0733 -0.4205
21145SOL    HW166390   6.005   0.560   0.738  0.3985  0.3879 -1.2718
21145SOL    HW266391   6.148   0.543   0.691  0.7919 -0.6182  0.2136
21146SOL     OW66392   0.498   0.974   0.950  0.2408  0.6637 -0.1709
21146SOL    HW166393   0.498   1.036   1.023 -1.7051  1.9919 -1.2164
21146SOL    HW266394   0.442   0.901   0.980  0.9709  0.3015  0.3380
21147SOL     OW66395  10.652   1.092   4.252 -0.0114 -0.6310 -0.1959
21147SOL    HW166396  10.601   1.156   4.202  0.9297  1.2142  1.1063
21147SOL    HW266397  10.692   1.036   4.185 -0.2284  0.6284 -1.4308
21148SOL     OW66398   7.260   8.279   0.504 -0.5927  0.0352 -0.0188
21148SOL    HW166399   7.293   8.336   0.574 -1.4674  1.0640 -0.4273
21148SOL    HW266400   7.200   8.220   0.549 -0.5463  0.1669  0.2243
21149SOL     OW66401   2.899   2.487   9.078 -0.2667 -0.4205  0.1896
21149SOL    HW166402   2.985   2.444   9.083  0.1528  0.2813 -0.7138
21149SOL    HW266403   2.915   2.575   9.111 -0.6401 -0.2883  0.0163
21150SOL     OW66404   8.107   2.540   0.026  0.1837 -0.1427 -0.0477
21150SOL    HW166405   8.161   2.609  -0.012  1.1158 -0.9389 -0.1938
21150SOL    HW266406   8.017   2.567   0.005  0.5796  0.4969 -1.0080
21151SOL     OW66407  10.637   5.774   6.979  0.2596 -0.3921  0.1601
21151SOL    HW166408  10.548   5.756   7.007  0.5508 -0.8930  0.7885
21151SOL    HW266409  10.653   5.713   6.907 -0.0855  0.0709 -0.3115
21152SOL     OW66410   5.707   1.003   1.636 -0.4841  0.1356  0.6803
21152SOL    HW166411   5.659   0.996   1.718 -0.0332  1.2286  1.0548
21152SOL    HW266412   5.780   1.062   1.655 -0.5699  0.6970 -0.5861
21153SOL     OW66413   0.003  10.248   0.043 -0.2056  0.2767 -0.2416
21153SOL    HW166414   0.078  10.279  -0.009 -0.3497  0.0360 -0.5992
21153SOL    HW266415   0.033  10.165   0.081 -0.4021  0.0159 -0.6512
21154SOL     OW66416   2.639   2.831   6.978 -0.0654 -0.0364 -0.0956
21154SOL    HW166417   2.562   2.810   6.925 -2.2227  3.1621  1.3767
21154SOL    HW266418   2.705   2.859   6.914 -1.0429 -0.3403 -1.2865
21155SOL     OW66419   0.713   9.273   9.788 -0.9252  0.0795 -0.6018
21155SOL    HW166420   0.710   9.349   9.730 -2.5208  0.4241 -0.1052
21155SOL    HW266421   0.804   9.245   9.785 -0.4709  1.5276 -1.4192
21156SOL     OW66422   2.453   8.251   7.697 -0.1962  0.1703  0.1225
21156SOL    HW166423   2.421   8.316   7.634 -0.1607  0.2318  0.1679
21156SOL    HW266424   2.540   8.227   7.664  0.2090  0.8756  0.6458
21157SOL     OW66425   4.005   3.467   7.381 -0.2562  0.5976 -0.1261
21157SOL    HW166426   3.926   3.507   7.417 -0.0108  1.6480 -0.7302
21157SOL    HW266427   3.980   3.376   7.365 -0.2421 -0.0853  3.0905
21158SOL     OW66428   6.173   3.467   0.422  0.0482 -0.0814 -1.0979
21158SOL    HW166429   6.244   3.456   0.359  0.2955  1.3342 -1.0988
21158SOL    HW266430   6.124   3.543   0.391 -0.6192 -0.1715 -0.3082
21159SOL     OW66431   7.509   4.534   3.565 -0.1251 -0.2469 -0.5137
21159SOL    HW166432   7.594   4.573   3.581  1.4503 -3.2713 -0.7301
21159SOL    HW266433   7.465   4.537   3.650  0.2919  1.0580 -0.3246
21160SOL     OW66434   5.409   5.140  10.294  0.0202  0.0991  0.2479
21160SOL    HW166435   5.461   5.162  10.216  1.6394 -0.6649  1.0677
21160SOL    HW266436   5.364   5.059  10.270  0.1897  0.0841 -0.0307
21161SOL     OW66437  10.417   3.421   4.108  0.0593  0.2767  0.2732
21161SOL    HW166438  10.497   3.381   4.076 -2.2612 -2.7700 -2.4554
21161SOL    HW266439  10.399   3.376   4.190  0.8743  0.6559  0.6699
21162SOL     OW66440   7.442   2.795   9.562  0.5870 -0.1261  0.2290
21162SOL    HW166441   7.508   2.838   9.617  1.1393  0.2717 -0.7119
21162SOL    HW266442   7.483   2.792   9.476  0.0463 -1.4501  0.0132
21163SOL     OW66443   1.503   1.500   1.563 -0.0278  0.0031 -0.0492
21163SOL    HW166444   1.473   1.428   1.618 -0.9660  1.5018  1.5104
21163SOL    HW266445   1.425   1.530   1.516  0.3721 -0.0488 -0.7628
21164SOL     OW66446   6.401   2.661   0.917  0.1132 -0.1661  0.0991
21164SOL    HW166447   6.486   2.668   0.960 -0.2877 -1.2631  1.1311
21164SOL    HW266448   6.348   2.731   0.955  0.4443  0.3352 -0.3363
21165SOL     OW66449   4.784  10.081   6.751  0.1041  0.0634  1.1349
21165SOL    HW166450   4.860  10.139   6.743 -0.8283  1.1735 -0.1309
21165SOL    HW266451   4.746  10.104   6.836  2.7671 -2.5890  3.2077
21166SOL     OW66452  10.539   7.930   6.474  0.5249 -0.2180  0.4733
21166SOL    HW166453  10.609   7.939   6.410  0.1096  0.1414  0.0676
21166SOL    HW266454  10.576   7.968   6.554  0.4669  0.8501  0.0125
21167SOL     OW66455   9.414   6.149   0.903 -0.2542  0.0969  0.3127
21167SOL    HW166456   9.356   6.101   0.844  0.8583 -0.4122 -0.3855
21167SOL    HW266457   9.494   6.097   0.907  0.0773  0.6662  1.4489
21168SOL     OW66458   6.052   4.636   0.206  0.3740  0.0298 -0.0637
21168SOL    HW166459   6.074   4.671   0.120 -0.6707 -1.9483 -1.2090
21168SOL    HW266460   5.969   4.591   0.193  1.2359 -2.1757  1.4347
21169SOL     OW66461   9.880   3.574   4.134 -0.2921  0.3818  0.8230
21169SOL    HW166462   9.821   3.589   4.208 -0.2639 -0.8113  1.1091
21169SOL    HW266463   9.824   3.543   4.064  0.1467 -3.0015  1.7772
21170SOL     OW66464   8.325   9.287   6.453  0.0387  0.5513  0.3373
21170SOL    HW166465   8.378   9.218   6.494  1.0237  0.2534 -1.3381
21170SOL    HW266466   8.243   9.245   6.429  1.2414 -0.5586 -2.1393
21171SOL     OW66467   7.914  10.010   6.893 -0.1808  0.2006  0.2284
21171SOL    HW166468   7.915  10.039   6.802  1.9315 -0.0398  0.1431
21171SOL    HW266469   7.952  10.083   6.942  0.8139 -0.5586  0.6098
21172SOL     OW66470   3.290   8.084   7.470  0.0713  0.4959  0.0289
21172SOL    HW166471   3.382   8.098   7.452 -0.2910  0.9761 -1.6860
21172SOL    HW266472   3.251   8.171   7.469 -0.5896  0.2096 -0.5790
21173SOL     OW66473  10.158   2.889   3.191 -0.0514 -0.2422 -0.0986
21173SOL    HW166474  10.130   2.968   3.237  1.5306  0.0385  0.4418
21173SOL    HW266475  10.243   2.912   3.155  1.0047 -2.0649  1.0826
21174SOL     OW66476   5.480  10.509   5.603  0.2813  0.5579 -0.2014
21174SOL    HW166477   5.532  10.589   5.592  2.4518 -1.0951 -4.7410
21174SOL    HW266478   5.545  10.440   5.616 -1.4370 -0.7958  2.0112
21175SOL     OW66479   7.011   6.137   8.062  0.1160  0.1400  0.7667
21175SOL    HW166480   7.031   6.185   8.142  0.2558 -1.7394  1.9182
21175SOL    HW266481   7.083   6.074   8.053  0.0290  0.2125 -0.7748
21176SOL     OW66482   3.743   7.546   7.568  0.2562 -0.2106 -0.0562
21176SOL    HW166483   3.819   7.599   7.543 -0.1287 -0.0520 -0.9097
21176SOL    HW266484   3.757   7.527   7.661  1.9873 -1.2146 -0.4737
21177SOL     OW66485   9.458   7.480   9.424  0.6967  0.3858 -0.0615
21177SOL    HW166486   9.398   7.420   9.380 -1.2007  0.3357  2.4268
21177SOL    HW266487   9.436   7.566   9.388 -0.6951  0.3252  0.5846
21178SOL     OW66488   6.867   2.380   7.321  0.1720  0.2168  0.5193
21178SOL    HW166489   6.907   2.440   7.258 -0.0813 -1.7515 -1.6564
21178SOL    HW266490   6.773   2.392   7.311  0.1348  0.3469  0.9994
21179SOL     OW66491   0.033  10.474   6.535 -0.0765 -0.2850 -0.2466
21179SOL    HW166492   0.103  10.455   6.598 -0.3127 -0.1378  0.0608
21179SOL    HW266493  -0.039  10.507   6.588 -1.0255 -2.0797 -0.3407
21180SOL     OW66494   3.263   2.701   0.994  0.3252  0.0568 -0.5170
21180SOL    HW166495   3.173   2.695   0.962  0.9242  1.9559 -2.8589
21180SOL    HW266496   3.314   2.645   0.936  0.8912  0.3209 -0.2868
21181SOL     OW66497   0.574   4.999   7.312 -0.0645 -0.2347 -0.3216
21181SOL    HW166498   0.506   4.932   7.316 -0.6507  0.2905 -1.1279
21181SOL    HW266499   0.553   5.050   7.233  1.8708 -0.7009 -1.2150
21182SOL     OW66500   9.426   7.467   9.713 -0.3273 -0.1347 -0.0138
21182SOL    HW166501   9.436   7.475   9.618 -0.0061  0.7887  0.0921
21182SOL    HW266502   9.332   7.452   9.726 -0.5743  1.0354 -0.4013
21183SOL     OW66503   6.326   9.721   6.522  0.3879 -0.4990  0.5036
21183SOL    HW166504   6.396   9.659   6.543  0.2849 -1.3413 -1.4469
21183SOL    HW266505   6.257   9.668   6.483 -0.5515  0.5917  0.6133
21184SOL     OW66506   7.798   8.336   6.765  0.0818  0.0877 -0.3127
21184SOL    HW166507   7.838   8.250   6.779 -1.7672 -0.9189 -0.7800
21184SOL    HW266508   7.805   8.380   6.849  0.3400 -0.8519  0.1761
21185SOL     OW66509  10.328   6.752   7.056  0.6303 -0.0440 -0.2114
21185SOL    HW166510  10.303   6.661   7.071 -0.9908  0.4275  0.2024
21185SOL    HW266511  10.264   6.783   6.991  2.3481  0.2870 -1.8108
21186SOL     OW66512   4.222   3.804   7.034  0.4143 -0.1300 -0.0807
21186SOL    HW166513   4.139   3.783   6.990 -0.0585 -1.7090  1.4139
21186SOL    HW266514   4.285   3.742   6.997  0.4628 -0.2075  0.1317
21187SOL     OW66515   1.833   3.304   7.556  0.6430 -0.2684 -0.3901
21187SOL    HW166516   1.904   3.263   7.605 -1.4323  1.0451  4.3122
21187SOL    HW266517   1.876   3.369   7.499  3.2668 -1.3302  0.2721
21188SOL     OW66518   1.939   8.261   2.475 -0.4212  0.3607 -0.1574
21188SOL    HW166519   1.937   8.242   2.381 -0.2974 -1.9271  0.2402
21188SOL    HW266520   2.030   8.284   2.493 -0.1903 -0.2941 -0.4363
21189SOL     OW66521   5.096   0.228   1.366 -0.1028  0.4776  0.1777
21189SOL    HW166522   5.057   0.314   1.380 -0.5869  0.0400  1.6293
21189SOL    HW266523   5.186   0.237   1.396 -0.3844  0.2713  1.1114
21190SOL     OW66524   0.193   0.326   4.644 -0.0551  0.0584 -0.0381
21190SOL    HW166525   0.279   0.346   4.681  0.2075 -1.9056  0.5045
21190SOL    HW266526   0.132   0.340   4.716 -0.0625  0.3822 -0.1058
21191SOL     OW66527   6.286   1.692   4.058 -0.2397 -0.6125  0.3777
21191SOL    HW166528   6.264   1.610   4.101  0.1356 -1.4006 -0.8988
21191SOL    HW266529   6.373   1.714   4.091  1.5929 -3.0026 -2.3964
21192SOL     OW66530   9.667   4.008   2.545  0.0399  0.2969 -0.1196
21192SOL    HW166531   9.676   4.095   2.506  0.1894  0.5102  0.3755
21192SOL    HW266532   9.695   4.020   2.636 -1.5853  0.1350  0.4516
21193SOL     OW66533   8.523   3.693   5.835 -0.0302  0.1356 -0.9159
21193SOL    HW166534   8.434   3.670   5.809 -0.8084 -0.7006  2.0633
21193SOL    HW266535   8.511   3.766   5.896  1.5298  1.2795 -1.9193
21194SOL     OW66536   0.987   5.184   1.372 -0.3176 -0.1978 -0.3565
21194SOL    HW166537   1.071   5.205   1.331 -0.4919  0.5835 -0.3370
21194SOL    HW266538   0.971   5.257   1.432  0.0020 -1.4043  1.2506
21195SOL     OW66539   0.529   4.992   1.689 -0.1982 -0.4004 -0.3447
21195SOL    HW166540   0.472   4.914   1.689 -1.3804  0.4294 -1.4088
21195SOL    HW266541   0.576   4.986   1.772 -1.4636 -1.4014  0.3430
21196SOL     OW66542   9.286   5.537   7.380  0.7488  0.4540  0.7035
21196SOL    HW166543   9.207   5.509   7.334  1.3556  0.8476 -0.6221
21196SOL    HW266544   9.263   5.531   7.472 -1.0677  1.2205  0.3456
21197SOL     OW66545   8.193   8.620   5.694  0.0816  0.1334 -0.1322
21197SOL    HW166546   8.105   8.584   5.680  0.0349  0.0514  0.3729
21197SOL    HW266547   8.186   8.712   5.665  0.1843 -0.2238 -1.3563
21198SOL     OW66548   5.785   5.007   7.786  0.6665 -0.0753 -0.3110
21198SOL    HW166549   5.751   4.958   7.860  2.1195 -2.2296 -0.9852
21198SOL    HW266550   5.843   5.072   7.824 -1.9412  1.8859  0.6578
21199SOL     OW66551   6.251   8.619   6.055  0.0565 -0.5045 -0.1633
21199SOL    HW166552   6.256   8.677   6.131  0.3696 -1.7469  0.8031
21199SOL    HW266553   6.282   8.534   6.087  2.0223 -0.6339 -2.1638
21200SOL     OW66554   9.767   4.385   4.624 -0.4801 -0.0287 -0.0156
21200SOL    HW166555   9.762   4.297   4.661 -1.3812  0.3098  0.7223
21200SOL    HW266556   9.791   4.441   4.698 -2.2747  0.6571  0.1094
21201SOL     OW66557   4.472   4.698   8.052 -0.1517  0.4200  0.2100
21201SOL    HW166558   4.539   4.715   8.117 -0.4083  2.0519  0.0931
21201SOL    HW266559   4.493   4.756   7.979 -1.5821  0.8538  0.1090
21202SOL     OW66560   3.472   8.777   5.575  0.1086  0.4320 -0.6117
21202SOL    HW166561   3.398   8.790   5.636 -0.3914 -0.8380 -0.9059
21202SOL    HW266562   3.469   8.853   5.518 -0.2047  1.0216  0.1657
21203SOL     OW66563   7.807   4.138   5.590  0.0172  0.0840 -0.6960
21203SOL    HW166564   7.772   4.181   5.668  0.8072  3.3914 -2.0274
21203SOL    HW266565   7.893   4.105   5.617 -0.4727 -0.4375  0.2730
21204SOL     OW66566   2.634   9.803   0.571  0.6984 -0.7420 -0.4550
21204SOL    HW166567   2.558   9.768   0.525  0.9082  0.9141 -2.1747
21204SOL    HW266568   2.597   9.859   0.639  0.3119  0.7747 -1.8559
21205SOL     OW66569   5.700   9.069   9.575 -0.1867  0.2639  0.0397
21205SOL    HW166570   5.607   9.062   9.597 -0.1613  0.8605  0.3508
21205SOL    HW266571   5.704   9.143   9.513 -0.0319 -0.3137 -0.6565
21206SOL     OW66572   1.887   3.885   2.726  0.9185  0.1071 -0.3750
21206SOL    HW166573   1.909   3.855   2.814  1.0575 -0.7584 -0.6849
21206SOL    HW266574   1.869   3.804   2.678 -0.1016  0.6328 -0.8908
21207SOL     OW66575   6.838   8.252   2.061 -0.1780  0.3317 -0.3518
21207SOL    HW166576   6.819   8.165   2.096  0.4000 -0.2878 -1.5309
21207SOL    HW266577   6.810   8.312   2.130 -4.0153 -0.5991 -0.8584
21208SOL     OW66578   1.056   5.642   0.811 -0.1671  0.2560 -0.0075
21208SOL    HW166579   0.997   5.593   0.753  0.3048 -1.0419  0.5609
21208SOL    HW266580   1.001   5.670   0.883 -0.3239  0.0167 -0.0318
21209SOL     OW66581   1.996  10.524   1.298 -0.5987 -0.3138 -0.3041
21209SOL    HW166582   2.035  10.532   1.211 -1.2046 -3.0620 -0.9094
21209SOL    HW266583   2.070  10.519   1.357 -0.1608  0.5095 -0.7708
21210SOL     OW66584   4.840   3.007   2.905 -0.1856  0.5944  0.5329
21210SOL    HW166585   4.784   3.025   2.981 -1.0993  2.1166 -0.4561
21210SOL    HW266586   4.781   2.969   2.840  0.5907 -0.6875  0.5365
21211SOL     OW66587   7.038   8.103   7.751  0.4131  0.1117  0.0484
21211SOL    HW166588   7.100   8.033   7.731  0.6302  0.2828  0.1187
21211SOL    HW266589   7.070   8.178   7.702 -0.8636 -0.3198 -1.5566
21212SOL     OW66590   3.407   4.082   3.397  0.1350  0.0511 -0.3604
21212SOL    HW166591   3.338   4.037   3.447 -1.0974 -0.0102 -2.0301
21212SOL    HW266592   3.407   4.039   3.312  1.6125  0.6928 -0.7075
21213SOL     OW66593   4.773   2.217   6.021  0.9668  0.0234  0.3819
21213SOL    HW166594   4.786   2.196   6.114 -1.3253 -1.1497  0.5079
21213SOL    HW266595   4.709   2.289   6.022 -1.3251 -1.8737 -0.2357
21214SOL     OW66596   2.010  10.267   0.258  0.2858 -0.6094 -0.1010
21214SOL    HW166597   2.068  10.335   0.292 -1.2429  0.7977 -0.2190
21214SOL    HW266598   1.994  10.293   0.167 -1.6496 -0.1517  0.3328
21215SOL     OW66599   4.567   5.225   1.680 -0.8724 -0.5028  0.2688
21215SOL    HW166600   4.497   5.185   1.629 -1.1012 -2.0354  1.6854
21215SOL    HW266601   4.530   5.309   1.709 -4.3654 -3.1896  5.0885
21216SOL     OW66602   3.687   4.349  10.430  0.2011 -1.1315  0.1507
21216SOL    HW166603   3.692   4.374  10.522 -0.0708  1.9182 -0.5697
21216SOL    HW266604   3.596   4.322  10.417  0.1927 -1.3842  0.7164
21217SOL     OW66605   0.523   2.563   7.134 -0.2105 -0.6186  0.0149
21217SOL    HW166606   0.503   2.469   7.136  0.0754 -0.6847 -0.2344
21217SOL    HW266607   0.537   2.583   7.041 -1.6063 -0.0439 -0.1031
21218SOL     OW66608   5.995   6.327   0.335  0.4146  0.0783  0.6945
21218SOL    HW166609   5.925   6.324   0.400  1.6080 -0.7992  2.0035
21218SOL    HW266610   6.069   6.368   0.380  1.3914 -0.8857  0.0367
21219SOL     OW66611   1.438   6.135   5.798  0.2489 -0.2355 -0.2069
21219SOL    HW166612   1.372   6.135   5.868 -1.1477 -1.2882 -1.4551
21219SOL    HW266613   1.387   6.143   5.718  1.7110 -0.5980 -1.1992
21220SOL     OW66614   4.178   4.004   5.674  0.3758  0.0210 -0.5499
21220SOL    HW166615   4.181   4.041   5.762  0.8276  0.4266 -0.7340
21220SOL    HW266616   4.148   3.914   5.687  1.3685 -0.2265  0.1228
21221SOL     OW66617   6.054   8.622   2.816  0.5067  0.1591  0.2851
21221SOL    HW166618   6.064   8.712   2.846  1.9043  0.4540 -0.9568
21221SOL    HW266619   5.960   8.606   2.817  0.2561  1.5324  0.7566
21222SOL     OW66620   4.078   7.348  10.198 -0.4704  0.4391  0.1642
21222SOL    HW166621   4.032   7.367  10.280 -2.1873  0.5512 -0.7953
21222SOL    HW266622   4.010   7.346  10.131  0.2488 -3.4406 -0.7253
21223SOL     OW66623  10.523   2.942   0.223  0.3714 -0.4177 -0.9779
21223SOL    HW166624  10.446   2.934   0.166 -0.7759 -3.4249  0.7500
21223SOL    HW266625  10.552   2.852   0.237  2.8187  0.4714  0.3328
21224SOL     OW66626   8.554   5.575   9.053  0.0596  0.2590 -0.5013
21224SOL    HW166627   8.551   5.644   8.988  2.1047  0.2145 -0.7004
21224SOL    HW266628   8.574   5.496   9.004 -0.0888 -0.0859 -0.0210
21225SOL     OW66629   2.512   2.219   2.816  0.1898  0.0500 -0.2242
21225SOL    HW166630   2.572   2.254   2.751  1.0258 -0.9197 -0.0047
21225SOL    HW266631   2.567   2.166   2.874 -0.5972  0.5195  1.0051
21226SOL     OW66632   0.615   6.208   8.385 -0.2576 -0.8264  0.3991
21226SOL    HW166633   0.535   6.215   8.333  0.1192 -2.5243 -0.4996
21226SOL    HW266634   0.603   6.269   8.457 -2.2676 -0.8838  0.1591
21227SOL     OW66635   1.471   3.578  10.605  0.4865  0.4809  0.0318
21227SOL    HW166636   1.504   3.488  10.594 -0.2005  0.1386  0.6709
21227SOL    HW266637   1.548   3.633  10.594  1.2560 -0.2887  1.2844
21228SOL     OW66638   9.525   8.774   5.781  0.0377 -0.2400  0.5919
21228SOL    HW166639   9.466   8.829   5.729  0.7087  0.4243  0.5038
21228SOL    HW266640   9.477   8.693   5.795 -1.1833  0.5586  1.1528
21229SOL     OW66641  10.295   7.449   9.020 -0.2277 -0.0970  0.1419
21229SOL    HW166642  10.277   7.362   8.985 -0.0465 -0.1906  0.2783
21229SOL    HW266643  10.236   7.507   8.972 -1.4671 -0.4975  1.1261
21230SOL     OW66644   6.883   3.624   6.350  0.2578 -0.0670  0.2216
21230SOL    HW166645   6.913   3.638   6.260  0.6525 -0.3563  0.3099
21230SOL    HW266646   6.887   3.529   6.362  1.9480  0.0924  1.1466
21231SOL     OW66647   9.186   9.961   6.651 -0.3506  0.2484  0.3589
21231SOL    HW166648   9.279   9.966   6.674 -0.2629 -1.0540  0.3609
21231SOL    HW266649   9.141   9.988   6.731  0.0178  1.5459  0.1511
21232SOL     OW66650   3.728   4.347   8.735  0.2755  0.1575 -0.8650
21232SOL    HW166651   3.689   4.266   8.702  0.7864 -0.0476 -0.9700
21232SOL    HW266652   3.806   4.319   8.782  1.1022  0.6776 -1.8845
21233SOL     OW66653   6.916   9.541   0.705  0.1402  0.5050  0.0840
21233SOL    HW166654   6.862   9.559   0.782 -1.0023  1.6898 -0.9586
21233SOL    HW266655   6.993   9.597   0.717  0.9006 -0.7341  1.2727
21234SOL     OW66656   5.533   4.755   0.849  0.0360  0.0635  0.1826
21234SOL    HW166657   5.575   4.741   0.764 -1.0189  0.0438 -0.3549
21234SOL    HW266658   5.583   4.827   0.888 -0.2148  0.9066 -0.9841
21235SOL     OW66659   0.014   1.527   3.427 -0.0314 -0.1210 -0.1077
21235SOL    HW166660   0.088   1.578   3.394  0.3179 -1.4113 -1.4649
21235SOL    HW266661  -0.061   1.558   3.376 -0.2555  0.5206  0.5958
21236SOL     OW66662   5.652   9.807   7.578 -0.0872 -0.7235 -0.7524
21236SOL    HW166663   5.744   9.800   7.552  0.2799 -2.0624  0.7389
21236SOL    HW266664   5.626   9.896   7.552  2.4275  0.6938  1.1674
21237SOL     OW66665   2.204  10.360   8.022 -0.4174 -0.2120  0.0780
21237SOL    HW166666   2.116  10.365   8.061  0.0608 -0.5290  1.2565
21237SOL    HW266667   2.250  10.295   8.076  0.8463  0.6620  0.0878
21238SOL     OW66668   3.196   5.109   0.478  0.3126 -0.5205 -0.0747
21238SOL    HW166669   3.280   5.153   0.494 -0.0687  0.9438 -1.7634
21238SOL    HW266670   3.209   5.062   0.396 -0.5838 -0.0217 -0.5183
21239SOL     OW66671   4.930   5.731   0.925  0.2799 -0.2183 -0.7028
21239SOL    HW166672   4.838   5.729   0.899  0.2242 -0.4449 -0.4914
21239SOL    HW266673   4.936   5.803   0.987 -0.2809 -1.7485  1.2137
21240SOL     OW66674   9.573   6.539   7.479 -0.1533 -0.1376 -0.2729
21240SOL    HW166675   9.510   6.595   7.434 -1.3476 -1.3398 -0.1504
21240SOL    HW266676   9.623   6.498   7.409  0.1489  0.3964 -0.3822
21241SOL     OW66677   1.325   4.693   1.654  0.2406  0.8612 -0.1466
21241SOL    HW166678   1.396   4.704   1.590  1.1682 -2.7533  0.0612
21241SOL    HW266679   1.361   4.728   1.736  1.7508 -0.6892 -0.1061
21242SOL     OW66680   6.707   2.624   4.118  0.4000  0.7713  0.4265
21242SOL    HW166681   6.628   2.581   4.152  0.5991 -0.0180 -0.0897
21242SOL    HW266682   6.779   2.583   4.166  0.7903 -1.2215 -1.7113
21243SOL     OW66683   9.189   7.095   3.083 -0.4657 -0.2685  0.3072
21243SOL    HW166684   9.102   7.069   3.113 -1.8203  1.8577 -1.4458
21243SOL    HW266685   9.224   7.016   3.042 -1.9383 -0.9517  0.2815
21244SOL     OW66686   5.822   1.309   4.843  0.0663 -0.0026 -0.5690
21244SOL    HW166687   5.777   1.238   4.798 -0.2005  0.6570 -1.3741
21244SOL    HW266688   5.829   1.379   4.777 -0.0466  0.8678  0.3127
21245SOL     OW66689   1.412   7.930   1.773 -0.0978  0.8306 -0.2540
21245SOL    HW166690   1.495   7.961   1.736  0.4868  0.2577  0.5310
21245SOL    HW266691   1.347   7.952   1.707  0.9294 -0.2693 -1.7067
21246SOL     OW66692  10.684   3.747   8.418 -0.1340 -0.2952  0.2500
21246SOL    HW166693  10.597   3.726   8.383 -0.1070 -0.6902  0.4158
21246SOL    HW266694  10.670   3.826   8.470 -0.1730  0.3162 -0.6566
21247SOL     OW66695   8.728   8.115   5.072 -0.1054  0.0524  0.1058
21247SOL    HW166696   8.759   8.087   4.985  0.1582 -0.3904  0.3401
21247SOL    HW266697   8.781   8.065   5.134 -1.4804 -0.9481  0.5308
21248SOL     OW66698   7.448   9.178   2.617 -0.1030  0.4175 -0.4296
21248SOL    HW166699   7.439   9.253   2.675 -0.9668  1.4727 -1.8491
21248SOL    HW266700   7.493   9.213   2.540 -0.2517 -0.5915 -0.9920
21249SOL     OW66701   6.553   5.003   0.687  0.4805  0.0320  0.4203
21249SOL    HW166702   6.609   5.053   0.628  0.9801  0.6824  1.4224
21249SOL    HW266703   6.559   4.913   0.655  1.0523  0.3117 -0.2841
21250SOL     OW66704   1.387   9.691   8.626 -0.2011  0.7260  0.2351
21250SOL    HW166705   1.339   9.621   8.669 -0.8568  1.0665  0.0818
21250SOL    HW266706   1.441   9.647   8.561 -0.5314  0.3503  0.2101
21251SOL     OW66707   0.983   1.953   7.009 -0.2582  0.0657 -0.5625
21251SOL    HW166708   0.941   1.888   7.064  0.4313 -1.4635 -1.7848
21251SOL    HW266709   1.028   2.011   7.071 -2.6622  0.7360  0.6676
21252SOL     OW66710   4.997   4.386   5.910 -0.0535  0.3857  0.1885
21252SOL    HW166711   4.966   4.427   5.991 -1.5875 -0.6305  0.1511
21252SOL    HW266712   4.941   4.310   5.898  0.7118  0.0170 -1.3908
21253SOL     OW66713   0.983   9.010   4.680 -0.2530 -0.6487 -0.4633
21253SOL    HW166714   0.945   9.097   4.662  0.2356 -0.0619  1.1466
21253SOL    HW266715   0.970   8.961   4.599 -0.4190  0.9759 -1.4662
21254SOL     OW66716   5.521   9.782   0.500  0.3055 -0.2032 -0.0402
21254SOL    HW166717   5.505   9.805   0.592  0.0405 -1.7748  0.3444
21254SOL    HW266718   5.493   9.690   0.494  1.5437 -0.5205 -1.3755
21255SOL     OW66719   8.931   6.672   5.445  0.1857 -0.6051  0.3338
21255SOL    HW166720   8.852   6.618   5.450  0.2592 -0.6919  0.5669
21255SOL    HW266721   8.923   6.720   5.363 -0.3744 -0.2048  0.6200
21256SOL     OW66722   1.500   4.173   1.239 -0.0530  0.2728  0.0862
21256SOL    HW166723   1.501   4.215   1.153  0.2520 -0.9212 -0.5275
21256SOL    HW266724   1.443   4.097   1.227 -0.4464  0.4010  1.1044
21257SOL     OW66725   8.213   2.934   5.896 -0.1206 -0.2778 -0.1170
21257SOL    HW166726   8.235   2.844   5.871 -1.6211 -0.4752 -0.8249
21257SOL    HW266727   8.118   2.933   5.908  0.0341  0.8301  1.5124
21258SOL     OW66728   5.563   6.714   1.182 -0.3073 -0.2046  0.6580
21258SOL    HW166729   5.480   6.762   1.180  0.1167  0.6383 -2.2431
21258SOL    HW266730   5.540   6.624   1.158 -0.5000 -0.2276  0.9295
21259SOL     OW66731   5.248   8.931   2.748 -0.0847  0.5548 -0.2871
21259SOL    HW166732   5.230   8.928   2.654 -0.5578  2.2515 -0.2914
21259SOL    HW266733   5.330   8.884   2.759  0.1578  0.6434 -1.6099
21260SOL     OW66734   9.585   6.030   5.992  0.4105  0.5380 -0.7168
21260SOL    HW166735   9.517   5.995   6.050  0.7799 -1.7537 -1.5845
21260SOL    HW266736   9.559   6.122   5.978 -1.3517  0.2956  0.6129
21261SOL     OW66737   9.353   6.121   7.960  0.1382 -0.1845  0.8134
21261SOL    HW166738   9.301   6.189   7.918  1.2539  0.7672  0.9048
21261SOL    HW266739   9.298   6.088   8.032 -1.2278 -0.8595 -0.4973
21262SOL     OW66740   9.396   9.880   9.422 -0.0381  0.0256 -0.4740
21262SOL    HW166741   9.385   9.785   9.426 -0.6084  0.1195  0.1918
21262SOL    HW266742   9.374   9.911   9.509 -1.5506  0.9561 -1.1605
21263SOL     OW66743   6.300   8.771   5.805 -0.0043 -0.0517  0.7217
21263SOL    HW166744   6.205   8.763   5.819  0.1763  0.1256  2.1278
21263SOL    HW266745   6.339   8.714   5.871  0.8776 -0.7641 -0.3771
21264SOL     OW66746   0.036   4.541   5.925  0.5285  0.6853  0.5375
21264SOL    HW166747   0.058   4.450   5.906 -0.5681  0.4192  0.4714
21264SOL    HW266748   0.100   4.568   5.991  0.0609 -0.5545  1.5369
21265SOL     OW66749   7.051   1.742   7.422  0.7131 -0.3968 -0.4952
21265SOL    HW166750   7.138   1.780   7.427  0.3829  0.4202 -0.6707
21265SOL    HW266751   6.994   1.806   7.465  0.2001 -0.8996 -0.4150
21266SOL     OW66752   5.189   3.269   7.848 -0.4699 -0.0363  0.1620
21266SOL    HW166753   5.269   3.270   7.901 -0.4506 -2.3626  0.3024
21266SOL    HW266754   5.118   3.270   7.912 -0.5027 -0.0254  0.1250
21267SOL     OW66755   6.421   7.093   1.514 -0.5375  0.2029 -0.0365
21267SOL    HW166756   6.394   7.123   1.428 -1.2640  3.6237  1.2108
21267SOL    HW266757   6.341   7.059   1.554 -0.1547 -1.5977 -0.7003
21268SOL     OW66758   1.415   8.279   4.462  0.0315  0.5590 -0.2555
21268SOL    HW166759   1.369   8.240   4.387 -2.5389 -0.2472  1.6046
21268SOL    HW266760   1.488   8.219   4.479 -0.4909 -0.2995 -0.9408
21269SOL     OW66761   0.334   7.609   8.665  1.0520  0.0872 -0.5957
21269SOL    HW166762   0.253   7.580   8.707 -0.2248  1.9115 -1.6288
21269SOL    HW266763   0.375   7.667   8.729  1.1213 -0.1889 -0.3888
21270SOL     OW66764   6.478   1.685  10.306  0.5901 -0.2300  0.0352
21270SOL    HW166765   6.391   1.649  10.287  0.6174 -1.0684  1.3504
21270SOL    HW266766   6.505   1.727  10.224 -0.3908 -1.2999 -0.8777
21271SOL     OW66767   1.097   5.170   8.543 -0.3607  0.4868  0.7558
21271SOL    HW166768   1.164   5.135   8.484  0.8833  1.7853  1.3273
21271SOL    HW266769   1.021   5.183   8.488 -0.0193 -0.6031 -0.0188
21272SOL     OW66770   4.713   5.834   6.924 -0.2369 -0.2293 -0.7809
21272SOL    HW166771   4.764   5.916   6.923  0.8218 -0.8544 -1.9531
21272SOL    HW266772   4.624   5.861   6.902 -0.4286  0.8814  1.1730
21273SOL     OW66773   5.483  10.355   0.070 -0.0282 -0.0726  0.2988
21273SOL    HW166774   5.516  10.351   0.160 -0.7817  0.6971  0.6200
21273SOL    HW266775   5.449  10.444   0.061  1.0684  0.2301 -1.1308
21274SOL     OW66776   8.587   7.162  10.242  0.3288  0.1692  0.0788
21274SOL    HW166777   8.581   7.227  10.172 -2.9131 -1.3212 -1.2257
21274SOL    HW266778   8.592   7.214  10.322  3.0472  1.9221 -1.0755
21275SOL     OW66779   7.154   2.897   8.705 -0.1003  0.3179 -0.6259
21275SOL    HW166780   7.115   2.899   8.617  0.5893 -0.7353 -0.9788
21275SOL    HW266781   7.143   2.986   8.738  1.7038  1.4211 -2.7260
21276SOL     OW66782   6.052   4.846   3.779  0.2235 -0.2882  0.3419
21276SOL    HW166783   5.963   4.822   3.753 -0.6468  0.9644  1.9476
21276SOL    HW266784   6.096   4.763   3.796 -0.7924 -0.9167 -0.0151
21277SOL     OW66785   4.414   9.029   6.152  0.1138  0.4271  0.3411
21277SOL    HW166786   4.473   8.995   6.219  0.6838  2.9086  1.2124
21277SOL    HW266787   4.332   8.982   6.164  0.2850  0.6422  2.6532
21278SOL     OW66788   4.481   5.031   2.488  1.0617  0.1629  0.3378
21278SOL    HW166789   4.542   5.073   2.549  0.3322  0.6434  0.7554
21278SOL    HW266790   4.426   4.975   2.544  1.9937 -1.3630 -0.2030
21279SOL     OW66791   5.799   5.655   6.187  0.5160 -0.2109 -0.5347
21279SOL    HW166792   5.813   5.644   6.093  0.0944  0.5714 -0.6978
21279SOL    HW266793   5.841   5.738   6.207 -0.7317  0.3858 -0.3338
21280SOL     OW66794   6.904   8.983   5.085 -0.4553 -0.0279 -0.3078
21280SOL    HW166795   6.965   9.056   5.079  0.1081 -0.4476  0.1974
21280SOL    HW266796   6.959   8.907   5.105 -1.0210 -0.6118 -0.9298
21281SOL     OW66797   6.489   2.180   6.738 -0.4004  0.0244 -0.2107
21281SOL    HW166798   6.432   2.207   6.666  0.6634 -0.0963 -1.1167
21281SOL    HW266799   6.476   2.085   6.744 -0.6257  0.0601 -0.1164
21282SOL     OW66800  10.270   0.248   9.460  0.2362 -0.0784 -0.5834
21282SOL    HW166801  10.322   0.323   9.430  1.9937 -1.1635 -0.3672
21282SOL    HW266802  10.333   0.177   9.467 -1.2987 -1.4489 -0.2414
21283SOL     OW66803   7.309   6.145   7.418  0.1101 -0.1281 -0.1522
21283SOL    HW166804   7.217   6.170   7.429 -0.1244 -0.2883 -1.5447
21283SOL    HW266805   7.307   6.050   7.413  0.4953 -0.2017  0.8836
21284SOL     OW66806   5.652   0.916  10.505 -0.2715  0.4901  0.1757
21284SOL    HW166807   5.620   1.000  10.537 -0.0788  0.0407  1.6224
21284SOL    HW266808   5.587   0.852  10.535  0.7837 -0.1480  1.1809
21285SOL     OW66809   3.404   0.757   2.189 -1.0125  0.0410 -0.5021
21285SOL    HW166810   3.430   0.827   2.249 -0.0573  0.3427 -1.2316
21285SOL    HW266811   3.309   0.753   2.196 -1.0563  1.1787 -0.1749
21286SOL     OW66812   6.361   3.027   0.818  0.8259 -0.1325 -0.0108
21286SOL    HW166813   6.384   3.114   0.851 -2.5484  0.9149 -0.0103
21286SOL    HW266814   6.400   2.966   0.881  0.4839  1.5400  1.9193
21287SOL     OW66815   3.176   3.095   2.793  0.0016 -0.0943  0.6585
21287SOL    HW166816   3.170   3.002   2.775 -1.9087 -0.2585  1.7938
21287SOL    HW266817   3.108   3.111   2.859  0.4483  2.0497  0.6857
21288SOL     OW66818   4.732   6.316   0.586 -0.2359 -0.0173  0.2747
21288SOL    HW166819   4.723   6.316   0.681 -1.5107  0.1868  0.1657
21288SOL    HW266820   4.800   6.380   0.568 -0.6254  0.6056  0.9933
21289SOL     OW66821   2.094   8.446   1.352 -0.4242  0.1382  0.1230
21289SOL    HW166822   2.128   8.406   1.432  1.9271  3.5935  1.1179
21289SOL    HW266823   2.149   8.409   1.282  1.1664  0.9195  0.8956
21290SOL     OW66824   6.265   2.241   3.552  1.0612  0.2876  0.4797
21290SOL    HW166825   6.335   2.230   3.488 -0.1104 -1.1829 -0.6235
21290SOL    HW266826   6.203   2.299   3.510 -0.0701 -1.2667 -0.0977
21291SOL     OW66827   9.965   6.186   2.406  0.1798  0.0071 -0.5236
21291SOL    HW166828  10.010   6.248   2.463 -0.1760 -0.9805  0.8866
21291SOL    HW266829  10.011   6.103   2.419 -1.2035 -0.7213 -0.0341
21292SOL     OW66830   2.525   4.325   4.406 -0.1574 -0.4723  0.1167
21292SOL    HW166831   2.537   4.386   4.333  1.9150  0.2641  0.9861
21292SOL    HW266832   2.594   4.349   4.468 -1.0448 -1.9313  1.7292
21293SOL     OW66833   3.762   1.566   7.472  0.1332 -0.3246 -0.4409
21293SOL    HW166834   3.821   1.516   7.528  0.5454 -0.1739 -0.7334
21293SOL    HW266835   3.697   1.502   7.442 -0.5489 -0.2533  0.8018
21294SOL     OW66836   1.313   2.910   7.223  0.0168 -0.4362 -0.0395
21294SOL    HW166837   1.399   2.926   7.263 -0.1568 -0.5625  0.4014
21294SOL    HW266838   1.250   2.940   7.289 -0.2761  0.1214 -0.5687
21295SOL     OW66839   3.471   2.564   4.482  0.3076  0.1288 -0.4333
21295SOL    HW166840   3.426   2.601   4.407 -0.6742 -0.3354 -0.0873
21295SOL    HW266841   3.456   2.626   4.553  1.7027  0.8498 -0.7312
21296SOL     OW66842  10.478  10.228   6.694 -0.0565 -0.4902  0.0416
21296SOL    HW166843  10.470  10.143   6.739  0.3066 -0.0748  0.9213
21296SOL    HW266844  10.533  10.209   6.617  1.7353 -0.7058  1.3056
21297SOL     OW66845   9.187  10.001   4.581  0.4834 -0.1575  0.1859
21297SOL    HW166846   9.106   9.954   4.565  0.4912 -0.0032 -0.3344
21297SOL    HW266847   9.250   9.962   4.520  1.3228 -1.5559  1.8458
21298SOL     OW66848   3.984   5.346   2.442 -0.6362 -0.0382 -0.7101
21298SOL    HW166849   4.072   5.337   2.405 -1.2588 -0.8241 -2.0859
21298SOL    HW266850   3.992   5.312   2.532  0.4104 -0.3267 -0.8976
21299SOL     OW66851   3.185   6.888   5.386 -0.4184  0.4206  0.2488
21299SOL    HW166852   3.221   6.974   5.410  0.7380  0.0510 -0.0897
21299SOL    HW266853   3.157   6.898   5.295 -0.8572  0.6030  0.3986
21300SOL     OW66854   4.927   5.652   1.934 -0.0213  0.3029 -0.1013
21300SOL    HW166855   5.002   5.662   1.876  0.7000  0.1285  0.7802
21300SOL    HW266856   4.927   5.559   1.958  0.2406  0.5357  0.8732
21301SOL     OW66857   4.793   7.942   1.235 -0.5740 -0.7258 -0.4415
21301SOL    HW166858   4.877   7.971   1.197  0.0451 -2.2803 -0.3286
21301SOL    HW266859   4.753   7.888   1.167 -1.7084  0.3295 -0.6466
21302SOL     OW66860   7.944  10.192   2.133 -0.3667 -0.3295 -0.3934
21302SOL    HW166861   7.983  10.110   2.103  1.2267  0.6409 -1.1170
21302SOL    HW266862   7.873  10.209   2.071 -0.3140 -0.8446 -0.5984
21303SOL     OW66863   0.326   2.529   8.519 -0.2081 -0.7748  0.1683
21303SOL    HW166864   0.372   2.514   8.601  0.4199 -2.1084 -0.4082
21303SOL    HW266865   0.300   2.442   8.489  0.0995 -0.3758 -1.3450
21304SOL     OW66866   4.941   8.637   9.736  0.3335 -0.0125 -0.2522
21304SOL    HW166867   4.906   8.726   9.733  2.4976  0.8655 -1.2368
21304SOL    HW266868   4.984   8.626   9.651  1.5863 -1.3591  0.5311
21305SOL     OW66869   9.318   4.206   0.946  0.1192  0.2303  0.6635
21305SOL    HW166870   9.396   4.246   0.985  0.4468 -1.2026  1.5507
21305SOL    HW266871   9.352   4.152   0.875 -0.2283  0.7142  0.1150
21306SOL     OW66872   3.223   7.083  10.372 -0.6877  0.1373  0.5043
21306SOL    HW166873   3.197   7.044  10.456 -1.4689  1.5985  0.9831
21306SOL    HW266874   3.144   7.127  10.341 -0.1510  0.3860 -0.5556
21307SOL     OW66875   7.677   5.732   4.103  0.1145  0.4972  0.2039
21307SOL    HW166876   7.755   5.696   4.061  0.2703  0.1161  0.8104
21307SOL    HW266877   7.624   5.765   4.030  0.7487  0.5892 -0.2294
21308SOL     OW66878   3.291   2.669   8.290  0.2248  0.0245  0.6370
21308SOL    HW166879   3.246   2.753   8.289 -0.0591 -0.1229  0.8384
21308SOL    HW266880   3.334   2.664   8.205 -0.0871  0.1970  0.4678
21309SOL     OW66881   8.584   2.332   2.499 -0.4610  0.0142  0.0768
21309SOL    HW166882   8.622   2.261   2.551  0.1081  0.1983 -0.0746
21309SOL    HW266883   8.653   2.355   2.436 -0.3366  1.2172  0.6222
21310SOL     OW66884   5.445   0.247   5.995 -0.3079 -0.4167 -0.0093
21310SOL    HW166885   5.405   0.218   5.913 -1.9800 -1.5755  1.1535
21310SOL    HW266886   5.371   0.266   6.052  0.8200 -0.0921  1.4033
21311SOL     OW66887   5.557   9.510   5.318  0.6022  0.1500 -0.0615
21311SOL    HW166888   5.491   9.554   5.265 -1.2992 -0.5210  1.6220
21311SOL    HW266889   5.586   9.436   5.265 -1.4728 -0.6760 -0.1355
21312SOL     OW66890   9.612   9.224   3.393 -0.2403  0.6211  0.1185
21312SOL    HW166891   9.542   9.165   3.422  0.5858 -0.6460 -0.3899
21312SOL    HW266892   9.616   9.291   3.461 -0.8401 -0.2204  1.0119
21313SOL     OW66893   8.247   6.105   2.301 -0.1974  0.0344  0.0714
21313SOL    HW166894   8.303   6.173   2.337 -0.6765 -0.0995  1.1118
21313SOL    HW266895   8.158   6.130   2.328 -0.6595  0.2232 -1.5099
21314SOL     OW66896   0.293   7.518   0.845  0.0538  0.5041 -0.2389
21314SOL    HW166897   0.346   7.474   0.778  0.3600  0.7689 -0.1714
21314SOL    HW266898   0.206   7.526   0.805 -0.2986 -1.0806  0.1359
21315SOL     OW66899   9.421   2.571   4.600 -0.3011  0.1975  0.2081
21315SOL    HW166900   9.369   2.526   4.667  1.6665 -0.4543  1.3828
21315SOL    HW266901   9.457   2.501   4.546  1.3403  0.4118  0.9533
21316SOL     OW66902   2.983   1.614   8.861  0.7257 -0.0066 -0.1006
21316SOL    HW166903   3.070   1.653   8.852  0.2421  1.0557 -0.3956
21316SOL    HW266904   2.946   1.616   8.772 -0.3015  1.3115  0.3144
21317SOL     OW66905   8.744   2.289   4.606  0.4595 -0.5381  0.0016
21317SOL    HW166906   8.663   2.340   4.605  1.4867  1.3169  2.4804
21317SOL    HW266907   8.742   2.242   4.689  1.4745 -1.3224 -0.3854
21318SOL     OW66908  10.119   1.539   0.800  0.1170  0.1284 -0.5965
21318SOL    HW166909  10.024   1.527   0.803 -0.0654  1.2726 -1.2190
21318SOL    HW266910  10.147   1.529   0.891 -0.7941  1.1302 -0.1763
21319SOL     OW66911   9.108   3.401   0.658  0.6944  0.5120 -0.2530
21319SOL    HW166912   9.128   3.485   0.616  2.4150  0.0571 -0.4073
21319SOL    HW266913   9.134   3.413   0.749  0.5194  0.2777 -0.1715
21320SOL     OW66914   5.452   8.927   6.597  0.2420  0.1265 -0.2113
21320SOL    HW166915   5.488   8.963   6.516  0.7916  0.5954  0.2343
21320SOL    HW266916   5.439   8.834   6.578  0.6877  0.1681 -0.7287
21321SOL     OW66917   0.658   6.901   6.709  0.0908  0.2398 -0.6753
21321SOL    HW166918   0.679   6.969   6.773  1.6248 -0.0358 -0.8559
21321SOL    HW266919   0.625   6.949   6.633 -1.0160  0.6130  0.0168
21322SOL     OW66920   4.195   5.062   1.794 -0.2749  0.4098  0.6572
21322SOL    HW166921   4.243   5.112   1.728 -0.8401 -0.2665 -0.2870
21322SOL    HW266922   4.256   4.994   1.821  0.0235  0.7984  0.9865
21323SOL     OW66923   8.081   5.837   1.207  0.5295 -0.5129  0.3468
21323SOL    HW166924   8.126   5.907   1.158  1.1931 -0.2815  1.2712
21323SOL    HW266925   8.011   5.809   1.148  0.0513  1.1453  0.0763
21324SOL     OW66926   9.867   5.749   8.900  0.2227 -0.5651  0.2067
21324SOL    HW166927   9.864   5.771   8.993 -0.3551  0.2587  0.0017
21324SOL    HW266928   9.952   5.779   8.871 -0.4415  1.2416 -0.0065
21325SOL     OW66929   6.438   0.769  10.265  0.1002  0.0162  0.5407
21325SOL    HW166930   6.359   0.817  10.243 -1.1296 -2.5504 -1.2074
21325SOL    HW266931   6.410   0.703  10.329  0.9853 -0.3782  0.5463
21326SOL     OW66932  10.099   3.168   6.636  0.7560  0.0075  0.0980
21326SOL    HW166933  10.033   3.235   6.619 -0.6829 -1.2041  0.7321
21326SOL    HW266934  10.165   3.213   6.690 -0.5526  0.7465  1.1542
21327SOL     OW66935   1.826   9.283   2.244  0.3185 -0.4445  0.2336
21327SOL    HW166936   1.740   9.275   2.202  0.2590  1.9917 -0.2694
21327SOL    HW266937   1.824   9.369   2.286  0.8442 -2.1977  4.3133
21328SOL     OW66938   9.806   0.837   1.405  0.2338 -0.1880 -0.0524
21328SOL    HW166939   9.796   0.747   1.373  1.1631 -0.1278 -0.5259
21328SOL    HW266940   9.742   0.844   1.476  0.0888 -1.1967 -0.0695
21329SOL     OW66941   6.012   7.373   0.240 -0.1829  0.7652 -0.4998
21329SOL    HW166942   6.070   7.343   0.310 -0.0720 -0.4554 -1.0903
21329SOL    HW266943   6.063   7.359   0.159 -1.0611  0.2431 -0.9768
21330SOL     OW66944   5.368   4.369   0.276 -0.4173 -0.1001 -0.3787
21330SOL    HW166945   5.381   4.280   0.310 -1.2378  0.3747  1.2733
21330SOL    HW266946   5.275   4.372   0.254 -0.2505  0.1562 -1.0690
21331SOL     OW66947   0.427   6.952   4.071 -0.2946  0.3695 -0.5875
21331SOL    HW166948   0.338   6.941   4.105  0.2529  0.6365  0.9940
21331SOL    HW266949   0.417   7.009   3.995 -1.5420 -0.1420 -0.8339
21332SOL     OW66950   6.971   0.582   3.937  0.2080  1.0249  0.5713
21332SOL    HW166951   6.889   0.584   3.889  0.6494 -1.2327 -0.4099
21332SOL    HW266952   6.952   0.532   4.017  0.7724 -0.2365 -0.0565
21333SOL     OW66953   1.547   8.641  10.531 -0.9932  0.6907 -0.0353
21333SOL    HW166954   1.577   8.645  10.440  0.8512 -0.2944  0.4802
21333SOL    HW266955   1.627   8.649  10.583 -1.8932  0.1793  1.4917
21334SOL     OW66956   0.831   3.755   0.099 -0.0804  0.7063 -0.3380
21334SOL    HW166957   0.868   3.826   0.152 -0.5016  1.2489 -0.7638
21334SOL    HW266958   0.802   3.798   0.019 -0.3544  0.0490 -0.5934
21335SOL     OW66959   0.482   0.468   8.671  0.3220  0.1389  0.0405
21335SOL    HW166960   0.450   0.426   8.751  0.1490  0.6193  0.2329
21335SOL    HW266961   0.429   0.429   8.601 -0.8117  1.0183  0.3710
21336SOL     OW66962   8.728   4.502   8.860 -0.1748 -0.4289  0.0705
21336SOL    HW166963   8.820   4.525   8.866 -0.3422  0.2495  0.1383
21336SOL    HW266964   8.700   4.490   8.951 -0.3345  0.1416  0.1046
21337SOL     OW66965   4.679   7.410   7.947  0.0550 -0.5003 -0.2832
21337SOL    HW166966   4.758   7.454   7.978 -1.0555  2.6025 -1.5467
21337SOL    HW266967   4.702   7.378   7.859  0.0589 -0.0369 -0.4518
21338SOL     OW66968   5.417   7.061   3.749  0.1145 -0.2923  0.4734
21338SOL    HW166969   5.356   6.988   3.738  0.1061 -0.2248  0.0707
21338SOL    HW266970   5.476   7.033   3.820 -2.5477  1.0586  3.4878
21339SOL     OW66971   0.297   5.962   8.383 -0.1902 -0.0340  0.3511
21339SOL    HW166972   0.342   6.044   8.363 -0.9697  0.5150  0.7914
21339SOL    HW266973   0.360   5.913   8.436 -0.3416  1.0155  1.5513
21340SOL     OW66974   9.921   8.197   8.732 -0.0952 -0.3601  0.0010
21340SOL    HW166975   9.886   8.283   8.710 -0.4306 -0.6190 -0.4884
21340SOL    HW266976   9.997   8.187   8.675 -0.6036 -0.7711 -0.6271
21341SOL     OW66977   8.948   7.500   0.411 -0.3138 -0.0727 -0.0120
21341SOL    HW166978   9.017   7.455   0.459 -1.4270  0.2791  2.0805
21341SOL    HW266979   8.910   7.433   0.354 -0.0064 -0.9882  0.8312
21342SOL     OW66980   3.041  10.014   6.919  0.4402 -0.1818  0.0908
21342SOL    HW166981   3.049  10.109   6.916  1.7820 -0.2846 -0.0334
21342SOL    HW266982   3.037   9.992   7.012 -0.2020  0.0031  0.1147
21343SOL     OW66983   1.600   5.287   2.596  0.2325  0.0001 -0.4854
21343SOL    HW166984   1.548   5.346   2.651 -1.2566 -1.0134 -0.7503
21343SOL    HW266985   1.686   5.329   2.590 -0.4124  1.5057  0.3468
21344SOL     OW66986   9.259   8.233   1.077 -0.1195 -0.4470 -0.2880
21344SOL    HW166987   9.347   8.233   1.113  0.0956 -0.9435 -0.8058
21344SOL    HW266988   9.217   8.311   1.115 -0.2184 -1.4414  1.7969
21345SOL     OW66989   8.490   9.222   2.252  0.6650  0.2215 -0.2369
21345SOL    HW166990   8.530   9.217   2.165  0.3410 -0.2329 -0.3595
21345SOL    HW266991   8.398   9.200   2.238  0.0019  2.6310 -0.1868
21346SOL     OW66992   9.320   5.979   7.644  0.2464  0.0478  0.2294
21346SOL    HW166993   9.310   5.889   7.611  1.1317 -0.5326  1.4710
21346SOL    HW266994   9.287   5.975   7.733  0.4751  0.9133  0.3552
21347SOL     OW66995   1.823   6.627   1.134  0.2877 -0.2856  0.5639
21347SOL    HW166996   1.781   6.711   1.152  2.2449  0.4963  1.7886
21347SOL    HW266997   1.885   6.645   1.063  1.0487 -0.5501  1.1417
21348SOL     OW66998   5.602   3.677   8.588 -0.1240 -0.3063  0.2739
21348SOL    HW166999   5.554   3.736   8.646  2.2732  0.0649  2.0244
21348SOL    HW267000   5.687   3.720   8.575  0.9329 -2.3703 -0.0620
21349SOL     OW67001   8.393   4.324   1.934 -0.5704  0.0628 -0.2896
21349SOL    HW167002   8.477   4.299   1.896 -1.2053 -0.1637 -1.5770
21349SOL    HW267003   8.416   4.380   2.008  0.6953  0.5306 -1.0151
21350SOL     OW67004   5.057  10.007   7.381  0.5391  0.3374 -0.2112
21350SOL    HW167005   5.108   9.967   7.311  3.7377  1.0222  1.5237
21350SOL    HW267006   5.034   9.934   7.439 -0.0282  0.1044 -0.7147
21351SOL     OW67007  10.138  10.387   8.460 -0.0352  0.7527  0.3466
21351SOL    HW167008  10.139  10.483   8.458 -2.2973  0.8139 -0.7012
21351SOL    HW267009  10.198  10.365   8.531  0.7859  2.9276  0.4211
21352SOL     OW67010   9.653   3.918   6.959  0.1050  0.1696  0.1290
21352SOL    HW167011   9.580   3.917   6.896 -0.5718  1.5846  0.8409
21352SOL    HW267012   9.730   3.895   6.907 -0.5495  0.5873 -1.0620
21353SOL     OW67013   2.069   1.683   2.465  0.2404  0.3247  0.1600
21353SOL    HW167014   1.990   1.644   2.504  0.0173  0.2334 -0.3708
21353SOL    HW267015   2.064   1.776   2.489  0.5808  0.1074  1.1120
21354SOL     OW67016   3.849   9.624   3.939 -0.9558 -0.1812 -0.2970
21354SOL    HW167017   3.890   9.547   3.978  2.5946  1.9568  0.6608
21354SOL    HW267018   3.806   9.668   4.012 -3.1959 -1.2415 -0.8865
21355SOL     OW67019   0.683  10.411   9.401  0.3301 -0.3170 -0.0368
21355SOL    HW167020   0.648  10.483   9.454 -0.5283 -1.0690  0.4535
21355SOL    HW267021   0.653  10.430   9.312  0.2798  0.0399  0.0536
21356SOL     OW67022   2.138   4.926   4.157  0.2224 -0.5865 -0.3465
21356SOL    HW167023   2.043   4.932   4.147 -0.5710 -3.2364  3.2840
21356SOL    HW267024   2.159   4.987   4.228  1.1317 -0.5566 -0.6263
21357SOL     OW67025   7.190   0.280   0.357  0.1209  0.8403 -0.1398
21357SOL    HW167026   7.285   0.269   0.359 -0.1230 -2.3526  3.0703
21357SOL    HW267027   7.157   0.197   0.324 -1.5616  1.0459  0.9167
21358SOL     OW67028   6.371   4.942   7.209  0.5437 -0.3391  0.7569
21358SOL    HW167029   6.402   4.973   7.294  1.8246 -1.3896  0.7081
21358SOL    HW267030   6.368   4.847   7.218 -0.1384 -0.4140 -0.1148
21359SOL     OW67031   6.808   8.056   2.969  0.1083 -0.1092 -0.0634
21359SOL    HW167032   6.816   8.024   3.059 -2.2701 -1.9623 -0.3841
21359SOL    HW267033   6.879   8.014   2.922  0.0809 -0.8811  0.5629
21360SOL     OW67034   6.051   2.837   5.950 -0.2264 -0.3191 -0.3962
21360SOL    HW167035   6.145   2.831   5.964 -0.2932  2.2899  2.1902
21360SOL    HW267036   6.016   2.753   5.979  1.1985 -0.8900 -0.2909
21361SOL     OW67037   1.758   6.866   1.430  0.0128  0.7961 -0.2404
21361SOL    HW167038   1.681   6.909   1.465 -1.4498  0.5220 -2.8728
21361SOL    HW267039   1.791   6.925   1.363  0.2494 -0.4278 -1.2504
21362SOL     OW67040   8.940   6.021   1.751  0.2200  0.0420 -0.6059
21362SOL    HW167041   8.981   6.060   1.674  0.7231 -0.3520 -0.5492
21362SOL    HW267042   8.851   5.999   1.723  0.5739 -0.6124 -1.2495
21363SOL     OW67043   9.028   0.979   8.442 -0.4183 -0.4146  0.0902
21363SOL    HW167044   9.014   0.970   8.348  0.2478  1.6856 -0.2640
21363SOL    HW267045   8.948   1.020   8.475  0.1652  0.8128  0.0413
21364SOL     OW67046   7.491   6.117   0.475 -0.3315  0.3583  0.0045
21364SOL    HW167047   7.459   6.141   0.389  1.7790  2.8013 -0.2101
21364SOL    HW267048   7.586   6.132   0.471  0.3436 -2.5638  1.7984
21365SOL     OW67049   7.603  10.199   6.964  0.3298  0.0367  0.1628
21365SOL    HW167050   7.653  10.273   6.932 -1.2613  0.6114 -1.1293
21365SOL    HW267051   7.555  10.166   6.888 -1.6577 -0.1234  1.3843
21366SOL     OW67052   0.368   9.380   8.547  0.1409  0.3902  0.3836
21366SOL    HW167053   0.310   9.436   8.496 -3.3130 -1.4887  1.9342
21366SOL    HW267054   0.354   9.292   8.513  1.8234 -0.2130  1.1121
21367SOL     OW67055   7.789   6.663   4.271 -0.7422 -0.0049  0.2942
21367SOL    HW167056   7.772   6.615   4.190 -1.0110 -0.1000  0.4055
21367SOL    HW267057   7.872   6.708   4.255 -0.3026 -0.8038  0.3274
21368SOL     OW67058   9.005   9.628   8.493  0.1751 -0.9245 -0.1122
21368SOL    HW167059   8.943   9.676   8.548  0.7108 -1.6164  1.1642
21368SOL    HW267060   9.052   9.696   8.444 -0.7200 -0.3245 -0.1474
21369SOL     OW67061   9.459   1.340   3.013  0.1257  0.1762 -0.1681
21369SOL    HW167062   9.495   1.417   2.968  1.3340 -0.0209  0.4145
21369SOL    HW267063   9.520   1.270   2.991 -0.5130 -0.4354 -0.0148
21370SOL     OW67064   7.794   2.938   2.891  0.2800  0.5991  0.1902
21370SOL    HW167065   7.756   2.855   2.861  1.5256  0.2425 -0.4466
21370SOL    HW267066   7.741   3.005   2.849 -0.9230  0.1546  0.9344
21371SOL     OW67067   8.152   4.251   3.732 -0.2256  0.3746  0.0339
21371SOL    HW167068   8.057   4.250   3.737 -0.1984  0.3891  0.5975
21371SOL    HW267069   8.174   4.169   3.688 -0.5228  0.6236 -0.5857
21372SOL     OW67070   6.753   4.020   1.451 -0.1796  0.1157 -0.0306
21372SOL    HW167071   6.823   3.967   1.414  1.4731  0.8048  1.9041
21372SOL    HW267072   6.686   4.022   1.383  1.5643 -0.7681 -1.8886
21373SOL     OW67073   1.446   4.806   6.966  0.0029  0.1372 -0.3930
21373SOL    HW167074   1.367   4.856   6.985  0.8306  1.3971 -0.1761
21373SOL    HW267075   1.427   4.718   7.001 -1.9381 -0.0997 -1.8667
21374SOL     OW67076   2.160   4.920   8.043  0.4083  0.0484  0.4958
21374SOL    HW167077   2.247   4.959   8.050 -0.2828  1.5717  1.0483
21374SOL    HW267078   2.168   4.835   8.085  1.4807  0.4272  1.1006
21375SOL     OW67079   3.171   0.700   8.637  0.2184  0.2242 -0.2630
21375SOL    HW167080   3.141   0.615   8.606  0.7388  0.6035 -1.9338
21375SOL    HW267081   3.185   0.688   8.731 -0.1053 -1.4070 -0.3903
21376SOL     OW67082   8.570   5.477   3.260  0.0082 -0.1558  0.0145
21376SOL    HW167083   8.552   5.498   3.169  0.8478 -0.4647 -0.2243
21376SOL    HW267084   8.578   5.562   3.304 -0.2937 -0.0087 -0.2147
21377SOL     OW67085   5.605  10.085   7.521 -0.4765 -0.0239 -0.0425
21377SOL    HW167086   5.620  10.174   7.553  0.7748  0.7172 -2.4221
21377SOL    HW267087   5.534  10.094   7.458 -1.7754 -1.1288  1.2172
21378SOL     OW67088   3.720   9.456   6.018 -0.3996  0.1541 -0.4591
21378SOL    HW167089   3.718   9.544   6.055 -0.0264  0.2919 -0.7650
21378SOL    HW267090   3.628   9.432   6.010 -0.4955  0.2960  0.1386
21379SOL     OW67091   5.557   0.086   2.872 -0.1243 -0.4610 -0.1772
21379SOL    HW167092   5.558   0.033   2.952 -0.5556 -1.3514 -0.7422
21379SOL    HW267093   5.541   0.022   2.802  1.4474  0.1232 -1.1080
21380SOL     OW67094   6.085   9.491   2.514 -0.1720  0.0726 -0.0658
21380SOL    HW167095   6.107   9.512   2.423  0.7421 -0.3664  0.0426
21380SOL    HW267096   6.164   9.451   2.549  0.5833  2.9551  1.8304
21381SOL     OW67097   0.721   1.056   2.672 -0.0346  0.2950 -0.5009
21381SOL    HW167098   0.677   0.975   2.647 -1.0706  0.1729  1.5027
21381SOL    HW267099   0.650   1.120   2.679  0.7479  1.3467 -1.8715
21382SOL     OW67100   3.006   8.467   8.672  0.2537  0.3790 -0.0169
21382SOL    HW167101   2.975   8.556   8.688 -0.6236  0.7279 -3.0465
21382SOL    HW267102   3.083   8.477   8.616 -0.0117 -0.7535 -0.6236
21383SOL     OW67103   9.365   1.525   8.157 -0.4771 -0.8669  0.5550
21383SOL    HW167104   9.361   1.620   8.170 -0.4043 -0.5300 -1.4476
21383SOL    HW267105   9.458   1.505   8.154 -0.1805 -0.0197 -4.1659
21384SOL     OW67106  10.283   6.259   0.254 -0.1682  0.2691 -0.1849
21384SOL    HW167107  10.332   6.299   0.326 -1.4548 -0.6653  1.2481
21384SOL    HW267108  10.261   6.333   0.197  0.7917  1.0390  0.4046
21385SOL     OW67109   5.048   6.756   2.820 -0.2524  0.4244 -0.1151
21385SOL    HW167110   5.060   6.799   2.735 -0.2786  0.3264 -0.1699
21385SOL    HW267111   5.026   6.826   2.880 -0.6465  0.4422 -0.2787
21386SOL     OW67112   1.911   0.959   6.286 -0.7108  0.8357 -0.5954
21386SOL    HW167113   1.937   0.953   6.194 -1.3954 -1.4540 -0.6936
21386SOL    HW267114   1.839   1.021   6.287 -0.0631  1.6258 -1.4346
21387SOL     OW67115   2.765   2.050   1.064  0.5123 -0.1558  0.0013
21387SOL    HW167116   2.857   2.030   1.051  0.5128 -0.1136 -0.0596
21387SOL    HW267117   2.750   2.131   1.015  0.0808 -0.9779 -1.2695
21388SOL     OW67118   9.193  10.292   7.999  0.1575 -0.8033  0.2206
21388SOL    HW167119   9.261  10.253   7.945  0.4244  0.9988 -0.8077
21388SOL    HW267120   9.238  10.356   8.054 -0.5934 -0.0638  0.0078
21389SOL     OW67121   6.847   7.643   9.141  0.6868  0.1766  0.0911
21389SOL    HW167122   6.852   7.618   9.233 -0.9687 -0.0029  0.1606
21389SOL    HW267123   6.814   7.565   9.097 -2.4000  1.4248 -0.0187
21390SOL     OW67124   8.345   2.575   2.242 -0.1314  0.2021 -0.5059
21390SOL    HW167125   8.433   2.611   2.257 -0.7814  1.1494  1.2102
21390SOL    HW267126   8.307   2.567   2.329 -1.1894 -1.7317 -1.0789
21391SOL     OW67127   8.782   7.322   5.973  0.0512 -0.3079  0.5302
21391SOL    HW167128   8.739   7.392   6.022  1.1217  0.0161  1.0482
21391SOL    HW267129   8.711   7.277   5.927 -0.7491  0.5843  0.8656
21392SOL     OW67130   4.319  10.206   9.498  0.3221 -0.1329  0.2365
21392SOL    HW167131   4.235  10.193   9.541  0.4713 -0.0225  0.5599
21392SOL    HW267132   4.315  10.296   9.465  1.0099  0.5051  1.8087
21393SOL     OW67133   8.519   5.932   5.216  0.2001 -0.3118 -0.1654
21393SOL    HW167134   8.498   5.895   5.130 -0.4102  0.6712 -0.4491
21393SOL    HW267135   8.612   5.952   5.212  0.2429 -0.5579 -0.4760
21394SOL     OW67136   9.156   1.113   9.524  0.3532  0.0491 -0.1316
21394SOL    HW167137   9.132   1.205   9.537  2.0729  0.2891  1.8000
21394SOL    HW267138   9.138   1.072   9.609  1.1251 -1.0486 -0.4802
21395SOL     OW67139   6.298  10.651   1.110  0.1370 -0.2774 -0.1566
21395SOL    HW167140   6.231  10.672   1.045  1.4127 -1.3870 -1.9252
21395SOL    HW267141   6.254  10.593   1.172 -0.9519  0.3132 -0.3627
21396SOL     OW67142   4.274   9.616   3.610 -0.1100 -0.0616 -0.0640
21396SOL    HW167143   4.196   9.671   3.611 -0.3598 -0.3862 -0.7599
21396SOL    HW267144   4.298   9.609   3.517  0.6034 -0.1649  0.1189
21397SOL     OW67145   0.167   5.574   9.474 -0.6334 -0.1486 -0.5016
21397SOL    HW167146   0.190   5.494   9.521  2.0604  1.1196  0.6245
21397SOL    HW267147   0.160   5.641   9.542 -2.0910  0.7350 -1.4647
21398SOL     OW67148   4.914   0.726   1.401  0.1752  0.3763 -0.0377
21398SOL    HW167149   4.941   0.639   1.428 -0.1858  0.7286  1.5571
21398SOL    HW267150   4.957   0.785   1.462 -0.2536  1.2607 -0.5650
21399SOL     OW67151   3.909   8.545   5.892  0.4562  0.7055 -0.1829
21399SOL    HW167152   3.956   8.517   5.971 -0.4161 -1.3534 -0.3413
21399SOL    HW267153   3.969   8.526   5.820  0.3868  0.4602 -0.1789
21400SOL     OW67154   3.334   1.324   8.084 -0.0678 -0.0911 -0.5934
21400SOL    HW167155   3.390   1.307   8.160  0.2367  1.4894 -0.4239
21400SOL    HW267156   3.336   1.243   8.034  0.0137 -1.0540  0.9005
21401SOL     OW67157   3.827   5.493   6.908 -0.0880  0.3219  0.3415
21401SOL    HW167158   3.821   5.543   6.989 -0.7537  1.2089 -0.2346
21401SOL    HW267159   3.857   5.406   6.935 -0.1695  0.6469  1.5092
21402SOL     OW67160   5.374   9.222   3.259 -0.1594  0.1456 -0.2331
21402SOL    HW167161   5.421   9.142   3.236 -0.3649  0.0785 -0.4229
21402SOL    HW267162   5.393   9.282   3.187  1.2665  0.8086  0.6523
21403SOL     OW67163   7.615   6.912  10.496  0.0929 -0.0176  0.3491
21403SOL    HW167164   7.696   6.867  10.476  0.1878 -0.3317  1.3950
21403SOL    HW267165   7.642   6.999  10.525 -0.0607  0.5487 -1.0998
21404SOL     OW67166   2.891   1.425   0.517  0.3301  0.2145  0.2621
21404SOL    HW167167   2.877   1.491   0.585 -0.4596 -1.1049  1.4153
21404SOL    HW267168   2.834   1.453   0.445 -2.0573 -0.5777  1.7397
21405SOL     OW67169   6.002   6.225   3.861  0.6949 -0.1620  0.2100
21405SOL    HW167170   6.039   6.159   3.919  1.1584 -0.3118 -0.2515
21405SOL    HW267171   6.070   6.242   3.796 -0.3060 -1.0225 -1.1302
21406SOL     OW67172   6.160   9.395   2.980 -0.1116 -0.0920  0.5481
21406SOL    HW167173   6.206   9.361   3.057  1.1928  0.9302  0.2655
21406SOL    HW267174   6.118   9.475   3.010  1.5664  1.0903 -0.0565
21407SOL     OW67175   0.174   1.758   1.409  0.2306  0.3292 -0.0664
21407SOL    HW167176   0.157   1.824   1.343 -0.4949  0.9263  0.6926
21407SOL    HW267177   0.268   1.740   1.402 -0.0382 -0.5407 -2.0753
21408SOL     OW67178   5.590   9.826   7.147  0.0355 -0.8215  0.1009
21408SOL    HW167179   5.619   9.915   7.124  0.2811 -1.4944 -2.5572
21408SOL    HW267180   5.495   9.828   7.135 -0.3268 -0.3157  2.5424
21409SOL     OW67181   8.385   0.075   4.151 -0.5464 -0.1768  0.4688
21409SOL    HW167182   8.443   0.119   4.089 -0.2382  0.2504  1.0433
21409SOL    HW267183   8.441   0.056   4.226 -1.5208  2.0089  1.8670
21410SOL     OW67184   2.880   2.217   9.191  0.1396 -0.1456  0.5431
21410SOL    HW167185   2.961   2.179   9.225 -0.5338 -1.0000  1.2439
21410SOL    HW267186   2.908   2.297   9.146  1.3977 -0.5772  0.5192
21411SOL     OW67187   1.386   2.347  10.400  0.2517  0.0746 -0.6697
21411SOL    HW167188   1.424   2.431  10.426 -0.2410  0.0446  0.1766
21411SOL    HW267189   1.310   2.370  10.347  0.0394  0.1621 -0.3252
21412SOL     OW67190   6.376   0.205   3.223  0.2113  0.4436  0.2018
21412SOL    HW167191   6.419   0.283   3.188  0.4123  0.5104  0.6031
21412SOL    HW267192   6.316   0.238   3.290 -1.7106  0.5338 -1.4641
21413SOL     OW67193   5.717   8.866   8.801  0.4991 -0.8186  0.5346
21413SOL    HW167194   5.626   8.841   8.789 -0.0225  1.9785 -3.3377
21413SOL    HW267195   5.762   8.832   8.723  2.3553 -0.5757  1.4358
21414SOL     OW67196   8.952   9.982  10.096 -0.0979 -0.5597 -0.1786
21414SOL    HW167197   8.895   9.957  10.169  0.1470  0.7458  0.5072
21414SOL    HW267198   8.988  10.067  10.123  0.1011 -0.1092 -1.7705
21415SOL     OW67199   6.007  10.061   4.049 -0.4834  0.2337  0.7099
21415SOL    HW167200   6.077  10.008   4.087  0.8769  1.1959 -0.3314
21415SOL    HW267201   6.029  10.151   4.075 -2.3326  0.4172  1.8212
21416SOL     OW67202   6.801   2.534   2.422  0.2904  0.0329 -0.3497
21416SOL    HW167203   6.744   2.462   2.395 -0.5119 -0.4679  2.3342
21416SOL    HW267204   6.885   2.516   2.380 -0.2197 -1.8803 -0.6368
21417SOL     OW67205   5.879   6.091   4.925  0.9257  0.0596  0.0376
21417SOL    HW167206   5.942   6.102   4.853  0.2887  0.7434 -0.4300
21417SOL    HW267207   5.933   6.096   5.004  1.4961  0.4733 -0.3658
21418SOL     OW67208   5.898   0.720   4.401  0.3106  0.1496 -0.1083
21418SOL    HW167209   5.968   0.786   4.403 -1.2535  1.9225 -1.1600
21418SOL    HW267210   5.817   0.770   4.393 -1.1078 -1.8535  0.6706
21419SOL     OW67211   6.765   4.199   8.259  0.2555 -0.3570 -0.4427
21419SOL    HW167212   6.700   4.195   8.329 -0.6779  0.3235 -1.2423
21419SOL    HW267213   6.715   4.182   8.179  0.8474  1.2468 -1.1921
21420SOL     OW67214   4.160   3.421   4.141 -0.1487  0.2269  0.1788
21420SOL    HW167215   4.203   3.343   4.106  1.2729  1.4190 -0.8624
21420SOL    HW267216   4.124   3.465   4.064 -0.4652  0.8762  0.6885
21421SOL     OW67217   2.490   2.638   5.330  0.8301 -0.3598 -0.5936
21421SOL    HW167218   2.430   2.694   5.281  0.2841  0.0087  0.4777
21421SOL    HW267219   2.433   2.578   5.378  1.3651 -0.9124 -0.6381
21422SOL     OW67220   7.971   3.305   2.128 -0.8655 -0.1680 -0.0600
21422SOL    HW167221   7.950   3.211   2.123 -0.5644 -0.1869 -1.5401
21422SOL    HW267222   7.947   3.339   2.042  2.6215  0.3340 -0.9791
21423SOL     OW67223   6.453   3.434   2.676  0.0356  0.3984  0.1166
21423SOL    HW167224   6.528   3.387   2.713 -0.7959  0.0103  1.4136
21423SOL    HW267225   6.381   3.371   2.683 -0.5183  0.9311 -0.6655
21424SOL     OW67226   5.514   4.582   0.370  0.4066 -0.0228 -0.8351
21424SOL    HW167227   5.475   4.500   0.340 -1.2470  0.7632 -0.9240
21424SOL    HW267228   5.606   4.560   0.386 -0.3104 -2.2756  0.6335
21425SOL     OW67229   1.123   6.799   1.986  0.4852  0.1500  0.6429
21425SOL    HW167230   1.148   6.706   1.990  0.5193 -0.0448 -2.1038
21425SOL    HW267231   1.031   6.799   2.014  0.3330 -0.7936  0.1891
21426SOL     OW67232   7.698   6.850   9.786 -0.3773 -0.0521 -0.1938
21426SOL    HW167233   7.770   6.849   9.849 -0.7366 -0.4974  0.2130
21426SOL    HW267234   7.741   6.859   9.701  0.0398  2.8736  0.2182
21427SOL     OW67235   3.192   3.883   5.799 -0.0501 -0.3489  0.1218
21427SOL    HW167236   3.148   3.809   5.840 -1.3276 -1.2998 -2.6976
21427SOL    HW267237   3.120   3.938   5.766  0.8543  2.2561  2.1764
21428SOL     OW67238   8.328  10.446   2.460  0.1758 -0.2051 -0.2992
21428SOL    HW167239   8.349  10.355   2.439 -1.6150 -0.5018 -1.0731
21428SOL    HW267240   8.292  10.442   2.548 -1.5317 -0.5943 -0.9553
21429SOL     OW67241   5.645  10.614   3.367 -0.0148 -1.0145 -0.4366
21429SOL    HW167242   5.691  10.662   3.436  1.6804 -1.2993 -1.3254
21429SOL    HW267243   5.552  10.632   3.384  0.1036 -2.9169  3.2785
21430SOL     OW67244   7.334   7.473   9.294  0.0976 -0.1533  0.0413
21430SOL    HW167245   7.287   7.484   9.211 -0.5194 -0.1848  0.3801
21430SOL    HW267246   7.362   7.561   9.318  0.3068 -0.1477 -0.2106
21431SOL     OW67247   0.129   7.643   4.755 -0.0922 -0.0908 -0.4253
21431SOL    HW167248   0.062   7.670   4.818  0.2098  2.6624 -1.1631
21431SOL    HW267249   0.082   7.587   4.693 -1.0005 -0.6654  0.7573
21432SOL     OW67250  10.106  10.323   5.905  0.1761  0.5848 -0.6732
21432SOL    HW167251  10.107  10.299   5.998  1.5200  2.3166 -0.1841
21432SOL    HW267252  10.045  10.397   5.901 -1.7694 -0.9666 -1.6601
21433SOL     OW67253   9.445   4.791   1.483 -0.5863  0.1299  0.0416
21433SOL    HW167254   9.513   4.750   1.536 -0.9940 -1.7544 -0.8395
21433SOL    HW267255   9.493   4.844   1.419  0.0209 -0.5340 -0.0599
21434SOL     OW67256   3.480   4.179   4.786 -0.3379  0.7419  0.1822
21434SOL    HW167257   3.555   4.143   4.833 -0.0563  1.5883  0.4105
21434SOL    HW267258   3.409   4.117   4.801  0.7486 -1.0335 -1.5199
21435SOL     OW67259  10.328   6.398   6.889 -0.0773  0.3388  0.4294
21435SOL    HW167260  10.297   6.309   6.909  0.0836 -0.0244 -0.8296
21435SOL    HW267261  10.275   6.455   6.945 -0.3791 -0.5301  1.0555
21436SOL     OW67262  10.524   4.531   1.063 -0.1694 -0.1557 -0.0810
21436SOL    HW167263  10.536   4.447   1.019 -0.2874 -0.4388  0.4145
21436SOL    HW267264  10.441   4.522   1.110  1.1824 -0.8802  2.3644
21437SOL     OW67265   3.345   5.851   2.168  0.2248  0.0897  0.2104
21437SOL    HW167266   3.318   5.927   2.117  0.2779  0.0274  0.0900
21437SOL    HW267267   3.388   5.793   2.105  0.0730 -0.0958  0.2750
21438SOL     OW67268   0.587   0.027   6.171 -0.1553  0.3942 -0.1877
21438SOL    HW167269   0.592   0.106   6.117  1.4842 -0.0838 -0.7875
21438SOL    HW267270   0.528  -0.031   6.124 -0.3933  0.7854 -0.3787
21439SOL     OW67271   4.792   9.344   1.797  0.0796  0.4000  0.1202
21439SOL    HW167272   4.815   9.361   1.706 -0.6441  0.5907 -0.0307
21439SOL    HW267273   4.766   9.429   1.832 -2.1011 -0.0683 -0.2148
21440SOL     OW67274   3.552   1.416   8.753  0.7204  0.3949 -0.8793
21440SOL    HW167275   3.484   1.347   8.753 -1.4511  2.3654  0.8370
21440SOL    HW267276   3.511   1.490   8.708  2.1741  1.3048 -0.7668
21441SOL     OW67277   5.376   1.386   6.996 -0.2253 -0.2502  0.4826
21441SOL    HW167278   5.346   1.467   7.039  0.7879  0.5959 -0.3566
21441SOL    HW267279   5.296   1.348   6.960 -0.7057  0.4345  0.7984
21442SOL     OW67280  10.470   7.855   0.174 -0.1701  0.2052 -0.0423
21442SOL    HW167281  10.407   7.785   0.191 -0.4627  0.3188 -0.6381
21442SOL    HW267282  10.418   7.927   0.138  0.3863  0.0773 -1.1266
21443SOL     OW67283   9.383   7.062   4.181 -0.1655  0.5029  0.5520
21443SOL    HW167284   9.451   7.125   4.204  0.6283  0.5404 -1.6581
21443SOL    HW267285   9.431   6.984   4.153 -1.1075 -0.4436  1.4835
21444SOL     OW67286   3.610   6.762   4.101  0.0551  0.1476  0.1010
21444SOL    HW167287   3.700   6.792   4.115  0.1080 -0.5688  1.4887
21444SOL    HW267288   3.610   6.727   4.012  1.5305 -1.1051  0.5528
21445SOL     OW67289   8.052   5.269   6.815  0.9550  0.1111 -0.7766
21445SOL    HW167290   7.968   5.315   6.812  0.2025 -1.0401  0.9111
21445SOL    HW267291   8.111   5.329   6.859  1.0423  0.9064 -1.9247
21446SOL     OW67292   1.496   8.882   0.648  0.2194  0.2411  0.3854
21446SOL    HW167293   1.472   8.793   0.676  1.1512  0.1405  0.8907
21446SOL    HW267294   1.412   8.926   0.635 -0.2959 -1.1375 -1.3016
21447SOL     OW67295   1.834  10.543   9.994  0.1310  0.3834  0.0303
21447SOL    HW167296   1.767  10.545   9.926  0.9131  0.3183 -0.7706
21447SOL    HW267297   1.882  10.462   9.977  0.9416  0.8495  0.0473
21448SOL     OW67298   9.707   2.428   7.596  0.0189  0.2629  0.0743
21448SOL    HW167299   9.685   2.347   7.641 -2.1344  0.6817 -0.1278
21448SOL    HW267300   9.761   2.400   7.522  0.2097 -0.8548  0.6147
21449SOL     OW67301   0.659   4.350   1.538 -0.2012  0.1812 -0.8670
21449SOL    HW167302   0.601   4.362   1.463 -0.2360 -0.5015 -0.9590
21449SOL    HW267303   0.746   4.340   1.500 -0.2559 -0.4328 -0.8390
21450SOL     OW67304  10.213   3.240   1.625 -0.3271 -0.2437  0.3250
21450SOL    HW167305  10.150   3.175   1.594 -1.4059  1.6216 -1.6335
21450SOL    HW267306  10.165   3.291   1.691  0.9865 -2.2283  3.0175
21451SOL     OW67307   5.528   7.475   2.502  0.0348 -0.4829  0.1330
21451SOL    HW167308   5.521   7.566   2.473 -3.1831 -0.4287  0.7328
21451SOL    HW267309   5.562   7.481   2.591 -1.7456  0.3432  0.8070
21452SOL     OW67310   9.235   5.503   8.721 -0.1347  0.2980  0.4034
21452SOL    HW167311   9.210   5.449   8.646 -0.7282  0.9960  0.0941
21452SOL    HW267312   9.312   5.458   8.758 -0.5885 -0.7310  0.1333
21453SOL     OW67313  10.607   1.092  10.022 -0.1920  0.2322 -0.1531
21453SOL    HW167314  10.655   1.040  10.088  0.6224 -0.0553 -0.9505
21453SOL    HW267315  10.555   1.153  10.074 -1.8011 -1.8462  0.8686
21454SOL     OW67316   3.631   1.912   0.840  0.1832  0.4233 -0.0139
21454SOL    HW167317   3.687   1.861   0.899 -0.8547 -1.0121 -0.2304
21454SOL    HW267318   3.552   1.859   0.830  0.4514  0.4147 -2.9561
21455SOL     OW67319   6.725   0.303   6.283  0.1162 -0.0174 -0.0435
21455SOL    HW167320   6.669   0.257   6.221  1.2406  0.7874 -1.7422
21455SOL    HW267321   6.807   0.254   6.282 -0.0811 -0.4058  1.3762
21456SOL     OW67322   1.505   1.200   5.177  0.2475  0.0576  0.0584
21456SOL    HW167323   1.427   1.225   5.127  0.5583 -1.7838 -1.4988
21456SOL    HW267324   1.478   1.120   5.224  0.8686  0.0469  0.3969
21457SOL     OW67325   0.001  10.577   3.631 -0.3343  0.3386 -0.3292
21457SOL    HW167326  -0.040  10.519   3.567  0.3261 -0.6215  0.0954
21457SOL    HW267327  -0.005  10.664   3.591 -0.6408 -0.1219 -1.3336
21458SOL     OW67328   6.243   4.085   9.730 -0.1233 -0.0307  0.5096
21458SOL    HW167329   6.325   4.041   9.710  0.0010 -0.5765  2.0390
21458SOL    HW267330   6.187   4.067   9.655  0.5346 -1.2587  0.2791
21459SOL     OW67331  10.346   8.562   4.900  0.7239 -0.1234  0.2411
21459SOL    HW167332  10.365   8.468   4.901  0.2847 -0.2183  1.6768
21459SOL    HW267333  10.299   8.578   4.982  1.5171  1.5057  0.4128
21460SOL     OW67334   5.992   6.072   0.845 -0.0176  0.5180  0.4801
21460SOL    HW167335   5.961   5.997   0.794  0.5560 -0.2212  1.1974
21460SOL    HW267336   6.082   6.050   0.867  0.4144  1.7785  0.0533
21461SOL     OW67337   3.954   4.980   6.539 -0.3030  0.2363  0.4416
21461SOL    HW167338   3.917   5.049   6.484  2.8657  0.6708 -1.3773
21461SOL    HW267339   4.046   5.006   6.551  0.5696 -2.7976  1.0974
21462SOL     OW67340   7.351   5.825   2.258  0.0652 -0.5843  0.3481
21462SOL    HW167341   7.340   5.915   2.229 -0.5472 -0.1935  1.7143
21462SOL    HW267342   7.345   5.830   2.354  1.7141 -1.8300  0.5677
21463SOL     OW67343   3.380   9.578   7.622 -0.0538 -0.3359 -0.5326
21463SOL    HW167344   3.473   9.591   7.606  0.2044 -1.4022 -0.0039
21463SOL    HW267345   3.367   9.607   7.713 -0.0052 -1.2228 -0.2371
21464SOL     OW67346  10.384   3.401   5.085 -0.1280  1.0191 -0.5263
21464SOL    HW167347  10.324   3.350   5.031 -0.1104 -0.6848  0.9706
21464SOL    HW267348  10.386   3.355   5.169  0.7630  2.8889  0.5436
21465SOL     OW67349   9.029   4.560  10.064  0.3645 -0.1016 -0.2464
21465SOL    HW167350   9.015   4.654  10.081 -1.9523 -0.4894  0.2001
21465SOL    HW267351   8.994   4.546   9.977 -1.2587 -0.9283  0.5101
21466SOL     OW67352   3.136   5.500   6.720  0.0613 -0.2033 -0.1897
21466SOL    HW167353   3.050   5.541   6.729 -0.1671 -0.7737  0.2427
21466SOL    HW267354   3.196   5.559   6.765  0.0655  0.6971 -1.3169
21467SOL     OW67355  10.312   8.101   5.227 -0.1505  0.1354 -0.1216
21467SOL    HW167356  10.303   8.044   5.303 -0.4137 -0.5649 -0.6578
21467SOL    HW267357  10.315   8.041   5.153 -0.5275  0.8270 -0.7136
21468SOL     OW67358   7.338   0.810   5.704 -0.3573  0.0030 -0.6191
21468SOL    HW167359   7.300   0.860   5.632 -0.7620  1.1304  0.3551
21468SOL    HW267360   7.422   0.851   5.722 -0.4660  0.0314 -0.1469
21469SOL     OW67361   5.527  10.320   4.907 -0.2761  0.3194  0.3536
21469SOL    HW167362   5.558  10.236   4.875  2.3045  1.3745 -0.2139
21469SOL    HW267363   5.456  10.344   4.847 -0.4210 -0.9971 -0.0301
21470SOL     OW67364   5.655   1.586   5.360  0.5059  0.6017 -0.5458
21470SOL    HW167365   5.577   1.587   5.303 -0.3796  1.2912  0.6352
21470SOL    HW267366   5.667   1.494   5.382  0.1579  0.4651 -0.9045
21471SOL     OW67367   1.365   4.510   0.326 -0.0358  0.0895  0.0373
21471SOL    HW167368   1.435   4.573   0.314  0.2477 -0.3184 -0.5121
21471SOL    HW267369   1.406   4.435   0.370 -0.1859 -0.0453 -0.0487
21472SOL     OW67370   5.459   8.047   4.577 -0.4359 -0.0945  0.0560
21472SOL    HW167371   5.392   8.016   4.516  0.2716  1.5697 -1.6609
21472SOL    HW267372   5.522   7.974   4.582 -2.8069 -2.2053  2.6577
21473SOL     OW67373   5.455   4.296   1.634  0.6053 -0.2093 -1.3969
21473SOL    HW167374   5.484   4.205   1.642  3.9116  0.8095 -0.0753
21473SOL    HW267375   5.486   4.324   1.548  0.1840 -0.1363 -1.5263
21474SOL     OW67376   2.044   9.420   9.423  0.2305  0.0053  0.0231
21474SOL    HW167377   2.137   9.439   9.436  0.1157 -0.2227  1.2422
21474SOL    HW267378   2.040   9.381   9.336  0.8200  2.9627 -1.4617
21475SOL     OW67379   7.042   9.542   8.199  0.0045  0.0492 -0.4270
21475SOL    HW167380   7.085   9.493   8.270 -1.9959 -0.2991  0.6293
21475SOL    HW267381   6.994   9.475   8.150 -1.4479  0.7064  0.0466
21476SOL     OW67382   1.641   7.351   1.134  0.3790  0.6341  0.0987
21476SOL    HW167383   1.615   7.442   1.125 -2.8741 -0.3263 -1.5133
21476SOL    HW267384   1.658   7.340   1.227 -2.0086  2.2215  0.7902
21477SOL     OW67385   4.627   4.255   4.219  0.0055  0.0964 -0.3141
21477SOL    HW167386   4.669   4.184   4.171 -0.2347 -0.7157  0.6398
21477SOL    HW267387   4.540   4.261   4.181  0.3853  0.6454 -1.1437
21478SOL     OW67388   4.026  10.635   1.895 -0.2531 -0.0187  0.4860
21478SOL    HW167389   3.937  10.635   1.857 -0.4682 -2.4810  0.7699
21478SOL    HW267390   4.083  10.656   1.821 -0.9857  0.0420 -0.0799
21479SOL     OW67391   5.277   4.777   5.774  0.3127  0.0369  0.4416
21479SOL    HW167392   5.220   4.785   5.851 -1.9235  0.4829 -1.1876
21479SOL    HW267393   5.238   4.835   5.709  2.4033 -0.0002 -0.9315
21480SOL     OW67394   0.584   7.993   7.614  0.1756 -0.2735 -0.2319
21480SOL    HW167395   0.600   8.003   7.520 -0.5140 -0.3438 -0.3678
21480SOL    HW267396   0.658   7.942   7.647  0.0865 -0.8216 -0.8648
21481SOL     OW67397   9.637   3.537   0.212  0.6441  0.5829  0.3689
21481SOL    HW167398   9.569   3.533   0.144 -0.2794  0.6502  1.2655
21481SOL    HW267399   9.677   3.623   0.200  1.5203  0.0156 -1.0340
21482SOL     OW67400   4.178   9.553   4.939 -0.4685  0.1581  0.2601
21482SOL    HW167401   4.138   9.638   4.926 -0.8948 -0.3882 -2.5814
21482SOL    HW267402   4.257   9.554   4.885  0.4955 -0.6610  1.5775
21483SOL     OW67403   3.381   0.923   5.925 -0.0920 -1.1950 -0.2927
21483SOL    HW167404   3.474   0.929   5.907 -0.4884 -1.0543 -2.6230
21483SOL    HW267405   3.343   0.888   5.844 -1.8914 -2.6806  1.0919
21484SOL     OW67406   2.367   2.839   9.515  0.1143  0.1896  0.2982
21484SOL    HW167407   2.334   2.760   9.558 -0.8454  0.6137  0.3548
21484SOL    HW267408   2.297   2.903   9.524  0.1302  0.4940 -1.3240
21485SOL     OW67409   4.441   0.161   7.943  0.1214  0.1986 -0.4748
21485SOL    HW167410   4.488   0.214   8.007 -0.9936 -1.1531  1.5841
21485SOL    HW267411   4.502   0.151   7.870  2.1405  0.3572  1.1153
21486SOL     OW67412   3.117   7.924  10.690 -0.3539  0.0476 -0.1008
21486SOL    HW167413   3.078   7.837  10.688  0.2353 -0.2392  0.5153
21486SOL    HW267414   3.184   7.922  10.621 -2.7776  1.2423 -2.7069
21487SOL     OW67415   4.122   0.460   1.505  0.1582  0.0067  0.5716
21487SOL    HW167416   4.208   0.481   1.543 -0.7690 -0.1291  2.9004
21487SOL    HW267417   4.060   0.511   1.557 -1.2904 -0.8587 -0.2433
21488SOL     OW67418   3.571   9.458   3.367 -0.1554 -0.0637 -0.3232
21488SOL    HW167419   3.659   9.435   3.395 -0.8834 -0.9635  1.3388
21488SOL    HW267420   3.514   9.396   3.411 -1.7897  1.6946  0.1843
21489SOL     OW67421   7.902   2.222   4.771 -0.2729 -0.1688  0.2393
21489SOL    HW167422   7.989   2.191   4.796 -0.5983  0.1678  1.9436
21489SOL    HW267423   7.919   2.295   4.711  0.6835  0.4602  1.2252
21490SOL     OW67424   9.855   7.178   0.556 -0.1015 -0.7224  0.0704
21490SOL    HW167425   9.877   7.266   0.526 -1.6939  0.1244  1.2443
21490SOL    HW267426   9.788   7.147   0.496 -1.8592  0.1895  1.4735
21491SOL     OW67427   0.690   6.386  10.563  0.3356 -0.0047  0.3075
21491SOL    HW167428   0.679   6.294  10.538  1.7733  0.0155 -0.5084
21491SOL    HW267429   0.601   6.422  10.562 -0.1194 -1.0832 -0.5597
21492SOL     OW67430   6.630   2.608   5.385 -0.1057  0.4674 -0.6848
21492SOL    HW167431   6.584   2.586   5.467  1.4775  0.2093  0.1762
21492SOL    HW267432   6.601   2.543   5.322 -0.1448 -0.3160  0.1301
21493SOL     OW67433   7.130   9.401   5.448  0.0585  0.3786 -0.2596
21493SOL    HW167434   7.081   9.483   5.460  1.1780  1.0752 -0.3126
21493SOL    HW267435   7.208   9.412   5.501  0.3270 -0.5801 -0.4435
21494SOL     OW67436   0.096   6.402   0.061  0.4200  0.6126 -0.1476
21494SOL    HW167437   0.009   6.440   0.076 -0.4723 -1.2844 -0.2164
21494SOL    HW267438   0.108   6.405  -0.033 -0.1670 -0.2534 -0.2725
21495SOL     OW67439   2.195   8.099   3.205 -0.1884  0.4307  0.5596
21495SOL    HW167440   2.211   8.190   3.229 -0.8006  0.3098  1.4710
21495SOL    HW267441   2.185   8.100   3.110 -0.0148  1.2809  0.5480
21496SOL     OW67442   5.035   8.330   6.217  0.2772  0.1373 -0.5540
21496SOL    HW167443   5.108   8.307   6.159  0.8178  2.2747 -0.8210
21496SOL    HW267444   5.054   8.285   6.299  0.9690 -0.7243 -1.1648
21497SOL     OW67445   8.028   7.489   8.742  0.7509 -0.0454 -0.1935
21497SOL    HW167446   7.964   7.539   8.692 -0.1326 -0.0799  0.8496
21497SOL    HW267447   8.046   7.544   8.819 -0.9835 -1.6628  1.4927
21498SOL     OW67448   6.585   7.002   9.907 -0.0441  0.0075  0.0295
21498SOL    HW167449   6.514   7.066   9.897  0.1554  0.1821 -0.2741
21498SOL    HW267450   6.665   7.051   9.891  0.2467  0.0934  1.6185
21499SOL     OW67451   4.863   3.621   0.022  0.5403 -0.1746  0.1633
21499SOL    HW167452   4.776   3.654   0.000  0.4828  0.9902  1.9499
21499SOL    HW267453   4.851   3.527   0.034 -0.6165  0.0605  0.9725
21500SOL     OW67454   4.503   6.661   7.356  0.2630 -0.1498  1.0623
21500SOL    HW167455   4.492   6.632   7.265  1.4102 -1.1284  1.2128
21500SOL    HW267456   4.442   6.607   7.406  0.0684 -0.0376  0.9465
21501SOL     OW67457   1.299   9.234   2.309 -0.1519  0.4446 -0.2335
21501SOL    HW167458   1.364   9.277   2.365  0.0686  0.2041 -0.3049
21501SOL    HW267459   1.334   9.147   2.294  0.0855  0.7031 -1.2370
21502SOL     OW67460   8.837  10.361   2.433  0.3212 -1.0197  0.0887
21502SOL    HW167461   8.932  10.352   2.444  0.5698  1.5241  0.7505
21502SOL    HW267462   8.815  10.440   2.482 -1.7428 -0.1310 -2.0821
21503SOL     OW67463   6.395   2.491   6.523 -0.0024  0.3909  0.0061
21503SOL    HW167464   6.457   2.525   6.587  0.6036 -0.3100 -0.1875
21503SOL    HW267465   6.425   2.526   6.439 -0.9033  1.4585  0.1039
21504SOL     OW67466   1.975   4.097   3.848 -0.1691  0.0887  0.5071
21504SOL    HW167467   2.000   4.006   3.837 -1.7613 -0.2750 -0.4096
21504SOL    HW267468   2.044   4.147   3.803 -0.0294 -0.7462 -0.2247
21505SOL     OW67469   9.622   2.338   0.213 -0.2208 -0.5092  0.4399
21505SOL    HW167470   9.530   2.354   0.235 -0.6112 -1.0218 -0.7407
21505SOL    HW267471   9.625   2.342   0.118  1.1849  0.4624  0.4944
21506SOL     OW67472   6.696   7.849   0.692 -0.0966  0.1901 -0.6569
21506SOL    HW167473   6.657   7.933   0.718  0.2842  0.6761 -1.5935
21506SOL    HW267474   6.627   7.785   0.705 -0.4110  0.6581  0.0391
21507SOL     OW67475   6.894   7.789   1.245  0.0347  0.6164 -0.1624
21507SOL    HW167476   6.923   7.838   1.322 -1.2840  0.4298  0.4966
21507SOL    HW267477   6.800   7.777   1.260  0.0321 -0.6630 -1.1272
21508SOL     OW67478   4.339   8.372   3.443 -0.8603  0.0725  0.0164
21508SOL    HW167479   4.309   8.462   3.447  0.3037  0.5119 -0.6750
21508SOL    HW267480   4.355   8.347   3.534  0.1260  1.0230  0.1110
21509SOL     OW67481   9.115   7.209   2.851  0.5765  0.3048  0.0151
21509SOL    HW167482   9.100   7.172   2.938  0.1876  2.8516  1.1046
21509SOL    HW267483   9.208   7.234   2.852  0.7648 -0.3163 -0.6125
21510SOL     OW67484   8.200   8.320   2.595 -0.1229 -0.2756  0.1787
21510SOL    HW167485   8.239   8.248   2.545  1.7302  0.2431  0.7874
21510SOL    HW267486   8.215   8.398   2.540 -1.2727 -0.1892 -0.0466
21511SOL     OW67487   4.095   0.516   2.753  0.5494  0.1853 -0.1847
21511SOL    HW167488   4.052   0.569   2.685 -0.7422  2.1177  1.9942
21511SOL    HW267489   4.042   0.436   2.757  0.9274 -0.1845 -1.7111
21512SOL     OW67490   1.851   8.329   7.495 -0.1943 -0.2634  0.2023
21512SOL    HW167491   1.845   8.402   7.433 -1.0111 -0.4242  0.0824
21512SOL    HW267492   1.794   8.261   7.459  0.9398 -1.1611  0.0690
21513SOL     OW67493   5.707  10.488   6.677  0.2717 -0.0243  0.2058
21513SOL    HW167494   5.685  10.559   6.737  0.2284 -2.0927  2.8629
21513SOL    HW267495   5.686  10.408   6.726  2.0279 -1.9204 -1.8854
21514SOL     OW67496   1.302   5.690   4.426  0.0485  0.4291 -0.4789
21514SOL    HW167497   1.216   5.728   4.411  0.1269  0.8638  0.1252
21514SOL    HW267498   1.334   5.666   4.339  0.2360  2.2649 -0.9397
21515SOL     OW67499   2.362   7.983   2.042 -0.0050  0.7221  0.3228
21515SOL    HW167500   2.345   7.891   2.061  0.3063  0.3837 -0.9505
21515SOL    HW267501   2.363   8.025   2.128  2.0582 -0.8287  1.1497
21516SOL     OW67502  10.228   0.772   0.905 -0.6738 -0.7740  0.0395
21516SOL    HW167503  10.268   0.842   0.853  0.1218 -0.7833  0.6245
21516SOL    HW267504  10.221   0.698   0.845 -0.5796 -0.5103 -0.2969
21517SOL     OW67505   5.125   4.302   1.263 -0.1966  0.1085  0.1037
21517SOL    HW167506   5.095   4.386   1.298 -1.2507 -0.1562 -0.1084
21517SOL    HW267507   5.174   4.325   1.184  1.3013  0.6417  1.1500
21518SOL     OW67508   8.865   6.595   7.656  0.2314  0.2574  0.2443
21518SOL    HW167509   8.834   6.566   7.742 -0.2389  0.9517  0.3088
21518SOL    HW267510   8.949   6.637   7.675  0.5698 -0.3870  0.2379
21519SOL     OW67511   1.581   3.053   6.851 -0.3287 -0.3467  0.5924
21519SOL    HW167512   1.503   3.084   6.804 -0.2826  1.4466  1.6142
21519SOL    HW267513   1.549   2.981   6.905 -0.7150 -1.3377 -0.9025
21520SOL     OW67514   9.253   6.731   4.888 -0.4945 -0.6067  0.3457
21520SOL    HW167515   9.345   6.727   4.864 -0.5601  0.6907 -0.2011
21520SOL    HW267516   9.235   6.825   4.898 -1.6999 -0.8554  0.6528
21521SOL     OW67517   9.671   1.393   5.986  0.5454 -0.0564  1.2460
21521SOL    HW167518   9.634   1.409   5.899  0.1609 -1.1710  1.2029
21521SOL    HW267519   9.763   1.371   5.968  0.7145  0.6341  1.2059
21522SOL     OW67520   2.279   7.025   9.241 -0.1722  0.3382 -0.4348
21522SOL    HW167521   2.315   6.945   9.279  0.3988  0.6657 -0.2735
21522SOL    HW267522   2.216   7.056   9.306 -2.4788 -1.4497 -1.7105
21523SOL     OW67523   5.486   3.467  10.669 -0.6145 -0.8111 -0.2591
21523SOL    HW167524   5.509   3.469  10.762 -1.0803 -0.3442 -0.1522
21523SOL    HW267525   5.401   3.510  10.664  0.7598  2.0277 -1.2734
21524SOL     OW67526  10.045   7.372   2.773 -0.4877 -0.0062 -0.3880
21524SOL    HW167527   9.999   7.409   2.698  0.3678 -0.6501 -1.2522
21524SOL    HW267528  10.016   7.281   2.777  1.0555 -0.5833 -1.2857
21525SOL     OW67529   4.764   5.803   9.225 -0.4421 -0.0278 -0.1889
21525SOL    HW167530   4.850   5.792   9.186 -0.0498  2.3650 -0.1205
21525SOL    HW267531   4.743   5.717   9.262  2.1624 -0.5039  0.3390
21526SOL     OW67532   7.601   6.806   5.400  0.6219  0.3134 -0.3024
21526SOL    HW167533   7.613   6.870   5.471  0.8695  0.1055 -0.1513
21526SOL    HW267534   7.581   6.859   5.323  0.3801  0.5453 -0.0834
21527SOL     OW67535   6.485   7.476   4.778  0.1213 -0.0746 -0.2904
21527SOL    HW167536   6.502   7.463   4.871 -1.6056 -0.7465 -0.0210
21527SOL    HW267537   6.526   7.400   4.736 -0.3037 -0.5215  0.0864
21528SOL     OW67538   7.055   4.416   4.456  0.4788 -0.6384  0.0709
21528SOL    HW167539   6.972   4.439   4.413 -0.1991 -0.8028  1.2419
21528SOL    HW267540   7.036   4.335   4.503  0.7894  0.1944  1.7233
21529SOL     OW67541   9.601   1.449   7.887  0.3804 -0.3797 -0.1713
21529SOL    HW167542   9.622   1.492   7.969  0.6521  0.1649 -0.5226
21529SOL    HW267543   9.573   1.361   7.912 -1.3753  0.3602  0.6770
21530SOL     OW67544   0.854   3.187   9.165 -0.0392  0.2290 -0.4391
21530SOL    HW167545   0.873   3.270   9.121 -0.1341 -0.2666 -1.4477
21530SOL    HW267546   0.914   3.184   9.239 -0.7378  1.6716  0.2188
21531SOL     OW67547   1.797   9.110   5.134  0.5134 -0.3082  0.6392
21531SOL    HW167548   1.725   9.064   5.178 -1.3418  2.5611  0.8730
21531SOL    HW267549   1.827   9.049   5.067 -2.2812 -1.5961  0.4275
21532SOL     OW67550   0.951   3.952   0.254  0.1936 -0.2848 -0.0825
21532SOL    HW167551   0.870   4.003   0.268  0.2914 -0.0803 -0.2580
21532SOL    HW267552   1.015   3.993   0.313  0.1036 -0.6070  0.2446
21533SOL     OW67553   8.903   3.779   9.169  0.0298 -0.2501  0.1060
21533SOL    HW167554   8.839   3.794   9.100  1.0530  1.9329 -0.4489
21533SOL    HW267555   8.986   3.811   9.133  1.3404 -2.3565  1.0441
21534SOL     OW67556   2.916   5.847   7.059 -0.4320 -0.1774  0.2572
21534SOL    HW167557   3.006   5.867   7.036 -0.5064  1.1824  1.0307
21534SOL    HW267558   2.888   5.920   7.115 -1.8328 -0.8390  0.4865
21535SOL     OW67559   8.444   1.041   9.802 -0.0826 -0.4914 -0.6740
21535SOL    HW167560   8.403   1.124   9.778  1.7221  0.4575 -0.6110
21535SOL    HW267561   8.473   1.003   9.720 -0.3553 -0.7665 -0.6448
21536SOL     OW67562   0.911   2.548  10.231  0.2624 -0.2857  0.0197
21536SOL    HW167563   0.980   2.611  10.250 -0.3456  0.3882  0.0345
21536SOL    HW267564   0.834   2.602  10.212 -1.0063 -1.0194  2.6692
21537SOL     OW67565   3.288   2.136   8.515  0.1579  0.5440  0.0978
21537SOL    HW167566   3.254   2.147   8.427  2.2956  2.9975 -0.5303
21537SOL    HW267567   3.221   2.176   8.572 -0.5686  0.2155 -0.5035
21538SOL     OW67568   9.359   5.137  10.231 -0.0335  0.3774 -0.0978
21538SOL    HW167569   9.389   5.058  10.276 -2.1837 -1.2461 -1.3148
21538SOL    HW267570   9.425   5.203  10.252  0.2963 -0.8480  3.4774
21539SOL     OW67571   7.232   6.952   2.878  0.2153 -0.1670  0.7085
21539SOL    HW167572   7.226   6.881   2.942  0.4990  0.5644  1.5762
21539SOL    HW267573   7.181   6.922   2.803  1.5170 -1.8946  0.4523
21540SOL     OW67574   3.415   3.516   2.304  0.2882  0.0280  0.2727
21540SOL    HW167575   3.495   3.539   2.256  0.3525 -0.6414  0.0532
21540SOL    HW267576   3.444   3.449   2.366 -0.2998 -0.9368 -0.4826
21541SOL     OW67577   6.177   6.405   5.052  0.5061  0.3910 -0.4007
21541SOL    HW167578   6.164   6.470   4.984  0.5250  0.4067 -0.3890
21541SOL    HW267579   6.173   6.454   5.134 -0.8641  0.1709 -0.3253
21542SOL     OW67580   5.626   5.927   9.766 -0.2626  0.1646 -0.0090
21542SOL    HW167581   5.656   6.018   9.770  1.3254 -0.3498  0.4893
21542SOL    HW267582   5.705   5.875   9.781 -1.3858 -1.2815  1.1433
21543SOL     OW67583   1.731   7.140   2.166 -0.0342  0.5462 -0.5728
21543SOL    HW167584   1.791   7.066   2.156 -1.4189 -0.8736  1.0313
21543SOL    HW267585   1.788   7.216   2.177  1.7374 -1.1218  4.0820
21544SOL     OW67586   4.908   9.410   7.680 -0.8178 -0.0067 -0.4560
21544SOL    HW167587   4.918   9.491   7.731 -0.3452  0.9410 -1.9600
21544SOL    HW267588   4.985   9.358   7.703 -2.1949 -1.0551  2.1590
21545SOL     OW67589   3.787   0.459   2.354 -0.3131  0.2152  0.6908
21545SOL    HW167590   3.789   0.491   2.444 -1.6985  1.5634  0.2785
21545SOL    HW267591   3.694   0.456   2.331  0.0296  0.4348 -0.8645
21546SOL     OW67592   5.052   1.996   9.314 -0.0961 -0.0172  0.4005
21546SOL    HW167593   4.993   2.069   9.296  0.1389 -0.2563 -1.6164
21546SOL    HW267594   5.093   1.977   9.229  1.8936 -0.7137  1.4591
21547SOL     OW67595   4.654   0.292   5.933  0.0546 -0.0231 -0.2496
21547SOL    HW167596   4.625   0.371   5.978 -0.5064 -1.0389  1.2877
21547SOL    HW267597   4.749   0.299   5.929  0.1796 -0.1057  1.6292
21548SOL     OW67598   4.505   9.508   1.819 -0.3360 -0.0217 -0.1882
21548SOL    HW167599   4.425   9.553   1.847  1.3097  1.7281  2.0644
21548SOL    HW267600   4.484   9.415   1.827 -2.1442  0.3932  0.3436
21549SOL     OW67601   6.104   2.457   7.730  0.0802  0.4772 -0.2238
21549SOL    HW167602   6.156   2.391   7.683 -1.5439  0.3301 -1.9234
21549SOL    HW267603   6.141   2.457   7.818  1.8931 -0.7578 -0.9091
21550SOL     OW67604   0.393   0.502   3.257  0.5348 -0.0984  0.1409
21550SOL    HW167605   0.451   0.445   3.206 -0.3627 -0.8502 -0.0630
21550SOL    HW267606   0.306   0.485   3.221 -0.0480 -0.2406  1.5719
21551SOL     OW67607   4.289   3.073   0.963  0.4818 -0.1997  0.6333
21551SOL    HW167608   4.293   3.107   1.052  0.9157 -0.0862  0.5721
21551SOL    HW267609   4.311   2.980   0.972  1.4759  0.0141  0.5337
21552SOL     OW67610   9.098   5.573   4.199 -0.4541 -0.4186  0.6706
21552SOL    HW167611   9.130   5.528   4.122  0.1229 -0.7514  1.0979
21552SOL    HW267612   9.010   5.602   4.176  0.1760  0.6213 -0.5789
21553SOL     OW67613   7.899   7.147   3.395  0.4234 -0.5365  0.5597
21553SOL    HW167614   7.880   7.073   3.453 -0.1029 -1.5636 -0.8695
21553SOL    HW267615   7.911   7.222   3.454  0.5873 -1.6732  2.0130
21554SOL     OW67616   2.379   5.418   5.621 -0.2358 -0.2864  0.2186
21554SOL    HW167617   2.400   5.338   5.671  2.5729 -0.3241 -0.8117
21554SOL    HW267618   2.326   5.387   5.548  1.0450 -1.3317 -0.3245
21555SOL     OW67619   5.980   0.602   4.810  0.5783  0.1784  0.0417
21555SOL    HW167620   6.038   0.591   4.735  0.2212  0.9448 -0.3592
21555SOL    HW267621   5.998   0.690   4.842  1.0316 -0.2894  1.1332
21556SOL     OW67622   1.488   3.906   6.115 -0.2926 -0.6390  0.0075
21556SOL    HW167623   1.425   3.948   6.056  0.8582 -0.7131 -1.3351
21556SOL    HW267624   1.526   3.978   6.165 -0.3469 -0.3997 -0.2897
21557SOL     OW67625   3.530   1.450   3.302 -0.1844  0.0791  0.0175
21557SOL    HW167626   3.592   1.492   3.362  1.2043  0.0991 -1.3539
21557SOL    HW267627   3.479   1.392   3.357  1.4444 -0.3482  1.1630
21558SOL     OW67628   9.110   2.790   2.095  0.1828  0.0377 -0.2623
21558SOL    HW167629   9.058   2.731   2.039 -0.2075 -1.0530  1.1746
21558SOL    HW267630   9.105   2.750   2.182  0.3118  1.9645  0.6805
21559SOL     OW67631   2.615  10.565   3.937  0.1056  0.4970 -0.0879
21559SOL    HW167632   2.663  10.537   3.860 -0.2032  0.5356 -0.2973
21559SOL    HW267633   2.572  10.485   3.969  0.7478  0.3504  0.4183
21560SOL     OW67634   1.822   1.643   6.420 -0.0364  0.4033  0.4884
21560SOL    HW167635   1.910   1.656   6.384 -0.9187 -1.6826 -2.8236
21560SOL    HW267636   1.837   1.597   6.503  2.0690 -2.7620 -1.4312
21561SOL     OW67637   5.411  10.351   9.644 -0.0224  0.2433 -0.1930
21561SOL    HW167638   5.427  10.291   9.717  1.2803 -0.2973 -0.8921
21561SOL    HW267639   5.439  10.437   9.676 -0.9766  0.3134  0.4789
21562SOL     OW67640   9.468   6.414   6.728  0.6465  0.2280  0.5118
21562SOL    HW167641   9.449   6.326   6.758  3.2776 -0.5378  0.1430
21562SOL    HW267642   9.451   6.412   6.634 -1.5538  0.8382  0.8535
21563SOL     OW67643   0.504   8.595   5.739  0.2100 -0.7229  0.4644
21563SOL    HW167644   0.476   8.654   5.809  0.0121  1.1906 -1.1492
21563SOL    HW267645   0.488   8.507   5.774  1.7569  0.0594  3.4811
21564SOL     OW67646   4.278   3.007   6.652  0.0644 -0.0507 -0.0793
21564SOL    HW167647   4.342   3.066   6.612  0.8382  1.0240  2.5215
21564SOL    HW267648   4.194   3.049   6.639  0.1619 -0.1968 -1.3134
21565SOL     OW67649   7.653   6.512   8.005  0.0903  0.1498  0.3873
21565SOL    HW167650   7.574   6.508   8.059 -0.6208  0.6298 -0.5618
21565SOL    HW267651   7.651   6.601   7.967 -0.2361 -0.6041 -1.5050
21566SOL     OW67652   9.591   1.025   6.848  0.5646 -0.0315 -0.2612
21566SOL    HW167653   9.585   1.114   6.885 -2.4570 -0.1373 -0.2173
21566SOL    HW267654   9.642   1.036   6.768  0.8301  1.6085  0.0888
21567SOL     OW67655   2.585   6.774   6.614  0.3248 -0.3375 -0.0368
21567SOL    HW167656   2.491   6.770   6.598  0.1181  1.5835  0.4016
21567SOL    HW267657   2.622   6.705   6.560 -1.1011  0.5772 -2.3091
21568SOL     OW67658   9.979   5.468  10.305  0.0484  0.1159 -0.0555
21568SOL    HW167659   9.949   5.429  10.387 -1.0054  0.1920 -0.4011
21568SOL    HW267660   9.960   5.403  10.238  0.6288  0.1795 -0.2958
21569SOL     OW67661   5.654   8.872  10.044  0.4652  0.5228  0.0256
21569SOL    HW167662   5.585   8.868   9.977  0.3902  1.4300  0.0361
21569SOL    HW267663   5.644   8.790  10.093  1.1004 -0.5883 -1.6188
21570SOL     OW67664   0.053   4.833   2.203 -0.2912  0.0533  0.4026
21570SOL    HW167665  -0.036   4.856   2.229  0.1303  1.2704  0.8268
21570SOL    HW267666   0.102   4.833   2.286  0.4266  0.9547 -0.0109
21571SOL     OW67667   6.931   7.924   1.930 -0.3387  0.5693  0.3601
21571SOL    HW167668   6.934   7.871   2.009 -0.0828  0.2167  0.1186
21571SOL    HW267669   7.018   7.914   1.891 -0.9931 -0.6284 -0.8460
21572SOL     OW67670   6.530   8.663   6.799 -0.1499  0.0618  0.6529
21572SOL    HW167671   6.529   8.739   6.741 -0.2490 -0.5315 -0.1304
21572SOL    HW267672   6.604   8.678   6.857  0.2677  0.4144  0.0343
21573SOL     OW67673   6.427   0.104   2.926 -0.8316  0.4148 -0.0467
21573SOL    HW167674   6.384   0.128   3.008  0.4344  0.6545  0.5888
21573SOL    HW267675   6.517   0.082   2.953 -1.0641 -2.0750 -1.0022
21574SOL     OW67676   1.629  10.123   9.415  0.7225 -0.7845  0.4228
21574SOL    HW167677   1.646  10.217   9.409 -1.9638 -0.2472 -0.1488
21574SOL    HW267678   1.656  10.089   9.330 -1.1791  0.1065 -0.6293
21575SOL     OW67679   9.848   2.376   0.796 -0.0709 -1.0895 -0.5155
21575SOL    HW167680   9.809   2.295   0.762 -2.5464  0.0862 -0.7042
21575SOL    HW267681   9.785   2.444   0.774  1.1375  0.6692  1.1144
21576SOL     OW67682   4.091   5.772   6.162 -0.1035 -0.2126 -0.4080
21576SOL    HW167683   4.136   5.841   6.114 -0.0101 -0.2904 -0.4324
21576SOL    HW267684   3.999   5.798   6.162  0.2166  1.1882  1.6474
21577SOL     OW67685   2.090   1.807   2.860  0.1592  0.6077  0.1743
21577SOL    HW167686   2.025   1.804   2.930  1.1510  2.6293  1.2932
21577SOL    HW267687   2.047   1.855   2.789  0.8213  3.3598  1.5058
21578SOL     OW67688   0.997   9.169   9.254 -0.2713  0.0524  0.1089
21578SOL    HW167689   1.039   9.254   9.267 -1.0643  0.1640  2.3396
21578SOL    HW267690   1.070   9.110   9.235  0.4022  1.0101 -0.4013
21579SOL     OW67691   1.243   4.532   0.010 -0.0847 -0.8301 -0.0642
21579SOL    HW167692   1.238   4.536   0.105  1.5367 -1.7011  0.0948
21579SOL    HW267693   1.206   4.447  -0.012  1.2508 -1.4456 -0.0235
21580SOL     OW67694   0.845   0.114   9.193  0.0266 -0.1880  0.3055
21580SOL    HW167695   0.915   0.051   9.209 -0.0910  0.2254  2.7779
21580SOL    HW267696   0.875   0.195   9.235 -0.2064  1.2219 -2.0506
21581SOL     OW67697   2.006   1.285   3.537 -0.3579  0.0604  0.8158
21581SOL    HW167698   1.915   1.314   3.532 -0.2170  0.4031 -0.1355
21581SOL    HW267699   2.041   1.330   3.613 -1.0854 -0.3959  1.4365
21582SOL     OW67700   1.185   9.067   8.292 -0.2022  0.0767  0.2788
21582SOL    HW167701   1.104   9.091   8.336 -0.0543 -0.1728  0.6945
21582SOL    HW267702   1.158   9.002   8.227 -0.4854  0.7757 -0.3113
21583SOL     OW67703   0.486   1.836   3.128 -0.2255 -0.2449 -0.5642
21583SOL    HW167704   0.429   1.876   3.194 -0.1666 -0.0129 -0.6539
21583SOL    HW267705   0.567   1.887   3.132  0.4881 -1.3899  0.4835
21584SOL     OW67706   9.991   6.367   3.820 -0.0655  0.4394 -0.2333
21584SOL    HW167707  10.016   6.380   3.911 -0.2358 -1.3204  0.0929
21584SOL    HW267708   9.898   6.393   3.817  0.0328  0.8270  0.0065
21585SOL     OW67709   0.673   6.647   2.166  0.8612 -0.3218 -0.1847
21585SOL    HW167710   0.628   6.690   2.239  0.5758  0.8744 -1.0345
21585SOL    HW267711   0.643   6.557   2.169 -0.9487  0.2438 -0.2090
21586SOL     OW67712   7.693   4.877   6.654  0.0948 -0.8838  0.7567
21586SOL    HW167713   7.657   4.944   6.713  3.0747  2.8499 -1.1468
21586SOL    HW267714   7.642   4.885   6.574 -1.1159 -2.7697  1.3024
21587SOL     OW67715   1.765   6.885   1.056 -0.3799  0.1560  0.1682
21587SOL    HW167716   1.682   6.884   1.009 -0.5007  0.3608  0.3744
21587SOL    HW267717   1.763   6.967   1.106  0.3169  0.5856 -0.4840
21588SOL     OW67718   8.901   0.900   0.959 -0.0633 -0.3821 -0.8183
21588SOL    HW167719   8.811   0.925   0.982 -0.1003  0.8610 -2.1806
21588SOL    HW267720   8.956   0.968   0.998  0.1874 -0.4439 -1.0626
21589SOL     OW67721   6.463   9.315   8.568  0.0937 -0.3260  0.0818
21589SOL    HW167722   6.419   9.269   8.497 -1.7452  0.4168  0.6743
21589SOL    HW267723   6.393   9.335   8.630  1.7992 -2.1174  2.7833
21590SOL     OW67724   1.733   1.607   1.489 -0.1855  0.6040 -0.0006
21590SOL    HW167725   1.663   1.560   1.534  0.4049  0.6076  0.9385
21590SOL    HW267726   1.711   1.599   1.396 -0.8924 -0.2509  0.2257
21591SOL     OW67727  10.635   1.682   5.985 -0.3025  0.1921  0.4475
21591SOL    HW167728  10.657   1.721   5.900  2.9928  1.7270  1.8143
21591SOL    HW267729  10.650   1.753   6.048 -1.7815 -1.1439  2.4037
21592SOL     OW67730   1.221   7.986   0.228  0.1612  0.2392 -0.9040
21592SOL    HW167731   1.128   8.003   0.242  0.5147  1.4892  0.1141
21592SOL    HW267732   1.235   7.900   0.265 -0.7116 -0.2490 -1.6580
21593SOL     OW67733   7.249   7.631   4.166 -0.5412  0.3838 -0.9290
21593SOL    HW167734   7.182   7.631   4.098 -0.0946 -0.8330 -1.4017
21593SOL    HW267735   7.200   7.638   4.248 -1.2177  0.0436 -1.2973
21594SOL     OW67736   1.122   7.477  10.118  0.2420  0.2930  0.2619
21594SOL    HW167737   1.055   7.516  10.063  0.9164  0.2991 -0.5672
21594SOL    HW267738   1.203   7.485  10.068  0.6637 -0.7932  0.7187
21595SOL     OW67739   9.661   6.288   5.863 -0.2074 -0.3193  0.2283
21595SOL    HW167740   9.642   6.382   5.859  0.4416 -0.1862  0.1983
21595SOL    HW267741   9.641   6.255   5.776  0.6417  0.0027 -0.0928
21596SOL     OW67742   3.514   9.643  10.423  0.6379 -0.2627 -0.3377
21596SOL    HW167743   3.469   9.559  10.415 -0.8337  0.5008 -0.4966
21596SOL    HW267744   3.587   9.626  10.482 -0.0858 -1.4839  0.2449
21597SOL     OW67745   6.993   7.800   7.365 -0.2342  0.2190 -0.0093
21597SOL    HW167746   7.041   7.746   7.428 -0.4375  1.3895  1.2087
21597SOL    HW267747   7.024   7.889   7.382 -3.1726  1.1360  1.2546
21598SOL     OW67748   8.694   8.633   8.497 -0.1378 -0.2303  0.1141
21598SOL    HW167749   8.622   8.648   8.558 -0.1412 -0.0481  0.0657
21598SOL    HW267750   8.667   8.676   8.416  0.7224  1.2630  0.5918
21599SOL     OW67751   2.184   6.849   9.613  0.0640 -0.1751  0.6712
21599SOL    HW167752   2.177   6.930   9.564  0.6813  0.1808  1.1677
21599SOL    HW267753   2.249   6.866   9.681  1.1851 -1.4749 -0.0104
21600SOL     OW67754   4.082   5.926   1.820  0.0465  0.3236  0.5583
21600SOL    HW167755   4.132   5.930   1.738 -0.1602 -1.6470  0.3001
21600SOL    HW267756   4.148   5.907   1.887 -0.0128  0.1940  0.5807
21601SOL     OW67757   2.979   3.667  10.388  0.4720 -0.3707  0.2125
21601SOL    HW167758   2.962   3.584  10.433 -0.1981 -0.5677 -0.3919
21601SOL    HW267759   3.075   3.673  10.384  0.5343 -1.7536 -0.9017
21602SOL     OW67760   6.197   6.870   3.282 -0.3334 -0.0197  0.1265
21602SOL    HW167761   6.222   6.861   3.190  1.7552 -2.3655  0.8289
21602SOL    HW267762   6.114   6.823   3.289 -0.1559 -0.4264 -0.4207
21603SOL     OW67763   6.048   1.148   3.025  0.3036 -0.0467 -0.1542
21603SOL    HW167764   6.023   1.108   2.942 -1.0045  0.3577  0.0192
21603SOL    HW267765   6.073   1.075   3.081  0.6125 -0.3691 -0.7104
21604SOL     OW67766   6.436   2.756   7.337  0.2135 -0.4435  0.0013
21604SOL    HW167767   6.444   2.742   7.242  1.5009  2.1214 -0.3412
21604SOL    HW267768   6.355   2.711   7.361  0.4183 -2.0892 -2.0908
21605SOL     OW67769   3.916   6.282   0.198 -0.0360 -0.5423 -0.2113
21605SOL    HW167770   3.854   6.213   0.174  0.6170 -0.2283 -3.0424
21605SOL    HW267771   3.872   6.329   0.269 -2.3108 -1.3089 -1.0328
21606SOL     OW67772  10.315   0.311   0.044 -0.5687  0.0028  0.1432
21606SOL    HW167773  10.282   0.272   0.125  0.2815 -1.4164 -0.1585
21606SOL    HW267774  10.379   0.248   0.012 -1.5944  0.0349 -2.1650
21607SOL     OW67775   3.259   5.895   7.529 -0.5301  0.0520  0.1632
21607SOL    HW167776   3.197   5.967   7.529  1.6122  2.0167  0.0329
21607SOL    HW267777   3.266   5.870   7.437 -0.5924  0.3240  0.0821
21608SOL     OW67778   6.828   6.707   3.002 -0.0117  0.3814 -0.3368
21608SOL    HW167779   6.778   6.698   2.921 -0.6320 -0.7095  0.1376
21608SOL    HW267780   6.803   6.630   3.054  1.7752  0.0878  0.1427
21609SOL     OW67781   7.269   5.463   0.168  0.1497 -0.2765  0.3269
21609SOL    HW167782   7.181   5.499   0.169  1.1581  2.4290  1.0672
21609SOL    HW267783   7.271   5.406   0.091 -2.6760 -1.8047  1.2574
21610SOL     OW67784   0.745   9.098   5.755 -0.4513 -0.1300  0.0628
21610SOL    HW167785   0.774   9.119   5.666 -1.4230  0.7440 -0.0657
21610SOL    HW267786   0.780   9.010   5.772  1.2937  0.4238 -0.4822
21611SOL     OW67787   7.403   6.896   4.442 -0.0593  0.0094 -0.4491
21611SOL    HW167788   7.409   6.824   4.379 -0.9246 -2.2418  1.9036
21611SOL    HW267789   7.313   6.926   4.436 -0.8380 -1.7929  1.2497
21612SOL     OW67790  10.049   9.486   7.793  0.5770 -0.2384 -0.3114
21612SOL    HW167791  10.050   9.534   7.876 -1.5215  0.1305 -0.4254
21612SOL    HW267792   9.957   9.490   7.765  0.0785 -4.6412 -0.1070
21613SOL     OW67793   1.626   8.866   5.965  0.0028  0.5171  0.5149
21613SOL    HW167794   1.600   8.944   6.014  1.8215  0.3803  1.8063
21613SOL    HW267795   1.705   8.892   5.917 -0.6792  0.0993 -0.8988
21614SOL     OW67796   3.745   1.362   2.137 -0.0580  0.2469  0.2902
21614SOL    HW167797   3.805   1.293   2.109  0.7240  1.3706 -0.9101
21614SOL    HW267798   3.795   1.415   2.199 -1.0971 -0.9833  2.2941
21615SOL     OW67799   1.135   2.199   4.726  0.1403  0.2623  0.0009
21615SOL    HW167800   1.057   2.212   4.671  0.7076  1.9258 -0.4650
21615SOL    HW267801   1.146   2.283   4.771  0.7689 -0.4767  1.2525
21616SOL     OW67802   1.774   6.242   2.115 -0.5830 -0.3253 -0.6115
21616SOL    HW167803   1.829   6.313   2.082  1.3860 -1.3415  0.3685
21616SOL    HW267804   1.779   6.174   2.047  0.1669 -0.7972 -0.0937
21617SOL     OW67805   6.385   9.926   2.021  0.2215  0.6621  0.7539
21617SOL    HW167806   6.325   9.989   1.981 -0.2630  0.5351  1.2681
21617SOL    HW267807   6.400   9.960   2.109 -0.7896 -0.4197  1.3689
21618SOL     OW67808   4.725   2.427   7.413  0.0283 -0.4287  0.3134
21618SOL    HW167809   4.799   2.380   7.452  0.9253  0.4718 -0.2600
21618SOL    HW267810   4.672   2.359   7.372  1.7851 -0.8912 -1.3171
21619SOL     OW67811   0.374   5.692   5.934 -0.4832 -0.0499  0.7713
21619SOL    HW167812   0.455   5.707   5.983 -0.2923 -0.0165  0.4445
21619SOL    HW267813   0.327   5.775   5.939 -0.2481  0.1012  0.4991
21620SOL     OW67814   9.508   0.076   1.310 -0.4004  0.1318  0.4077
21620SOL    HW167815   9.589   0.127   1.322  0.2583  0.1103 -2.9530
21620SOL    HW267816   9.535  -0.000   1.259 -2.5322  0.2189 -0.9761
21621SOL     OW67817   6.453   1.268   2.204  0.2303  0.0567 -0.5993
21621SOL    HW167818   6.509   1.190   2.199  0.5566  0.3223 -1.3138
21621SOL    HW267819   6.477   1.319   2.126 -1.0856  0.1369 -0.9625
21622SOL     OW67820   0.759   9.984   7.685  0.3012 -0.6076 -0.1502
21622SOL    HW167821   0.698  10.048   7.721 -0.2279 -1.1717 -0.0258
21622SOL    HW267822   0.828   9.977   7.751  1.4638  1.3348 -1.0725
21623SOL     OW67823   3.513   1.425   2.769  0.7865 -0.3867  0.1289
21623SOL    HW167824   3.515   1.466   2.856  1.2015 -1.1057  0.4689
21623SOL    HW267825   3.580   1.357   2.773  1.2811  0.0138 -0.9838
21624SOL     OW67826   3.468   5.563   2.049 -0.4502 -0.1165  0.1048
21624SOL    HW167827   3.548   5.516   2.070 -1.0205 -1.9314 -1.4291
21624SOL    HW267828   3.478   5.588   1.957 -1.1535  0.7155  0.2376
21625SOL     OW67829   3.529   8.578   2.811  0.6029  0.0090  0.2170
21625SOL    HW167830   3.603   8.597   2.868  1.2008 -0.5712 -0.3415
21625SOL    HW267831   3.567   8.524   2.741 -0.1171  0.6580 -0.6887
21626SOL     OW67832   4.201   2.381   1.884  0.2191 -0.7655 -0.6053
21626SOL    HW167833   4.186   2.414   1.972 -2.3457 -0.6412 -1.0233
21626SOL    HW267834   4.246   2.297   1.897  1.7150  0.1709  0.6730
21627SOL     OW67835   8.768   4.596   5.408  0.2974  0.0295 -0.2358
21627SOL    HW167836   8.750   4.556   5.493  0.7705 -0.0529 -0.1693
21627SOL    HW267837   8.813   4.528   5.359  3.2428  1.1360  0.6812
21628SOL     OW67838   8.236   7.783   9.099  0.1125  0.7591 -0.1687
21628SOL    HW167839   8.236   7.856   9.038  0.5867  1.0104  0.1287
21628SOL    HW267840   8.180   7.812   9.171 -0.1244  0.6200 -0.2945
21629SOL     OW67841   5.834   0.072   2.582  0.0995  0.6380 -0.2769
21629SOL    HW167842   5.825   0.137   2.652  0.4825 -0.6202  0.9809
21629SOL    HW267843   5.928   0.069   2.565 -0.0752  1.6994 -1.6433
21630SOL     OW67844   1.776   6.768   1.768  1.0639  0.1853  0.0294
21630SOL    HW167845   1.823   6.773   1.685  0.0123  1.7290 -0.5272
21630SOL    HW267846   1.843   6.777   1.835  1.8285 -0.2027 -0.6728
21631SOL     OW67847   0.589   3.673   7.592 -0.0371  0.0424  0.4794
21631SOL    HW167848   0.584   3.769   7.587  0.9468  0.1480  1.1733
21631SOL    HW267849   0.605   3.646   7.502 -0.2219  0.5396  0.2905
21632SOL     OW67850   9.688   0.379   2.800 -0.6567  0.1493 -0.0913
21632SOL    HW167851   9.752   0.448   2.782 -2.0932  1.5787  0.0054
21632SOL    HW267852   9.654   0.354   2.714 -2.3456  1.8330  0.0182
21633SOL     OW67853   7.442   6.673   4.281  0.2393 -0.0548  0.3121
21633SOL    HW167854   7.533   6.692   4.257 -0.1744  0.7061 -0.7526
21633SOL    HW267855   7.444   6.586   4.319  1.2754 -0.4599 -0.6201
21634SOL     OW67856   3.812   1.702   9.387 -0.3030  0.2184  0.4768
21634SOL    HW167857   3.885   1.736   9.335 -0.3042  1.3622  1.1873
21634SOL    HW267858   3.810   1.609   9.367  0.7296  0.3427 -0.3084
21635SOL     OW67859   3.173   6.248   2.342 -0.1016  0.0404 -0.1433
21635SOL    HW167860   3.081   6.272   2.338 -0.1963 -0.4484 -1.3420
21635SOL    HW267861   3.181   6.172   2.284  1.2223  0.6944 -0.8871
21636SOL     OW67862   6.855  10.254   9.648  0.1293  0.1158  0.7443
21636SOL    HW167863   6.789  10.191   9.619  0.4193 -0.6063  1.5950
21636SOL    HW267864   6.902  10.278   9.569  2.1336 -3.2294  0.7282
21637SOL     OW67865   5.664   0.959   7.155 -0.4730  0.1279 -0.3084
21637SOL    HW167866   5.626   1.013   7.224 -0.5417 -0.4275  0.0942
21637SOL    HW267867   5.684   1.021   7.084 -0.7686  0.6401  0.0501
21638SOL     OW67868   3.587   5.491   3.018 -0.0979  0.8607  0.1309
21638SOL    HW167869   3.532   5.418   3.046 -0.8748  1.7732  1.0712
21638SOL    HW267870   3.564   5.505   2.926 -0.6764  0.5672  0.2288
21639SOL     OW67871   6.373  10.318   5.836 -0.0482  0.2366  0.4913
21639SOL    HW167872   6.459  10.353   5.857 -0.8161  1.7516  1.3153
21639SOL    HW267873   6.337  10.288   5.919 -0.8555  0.9532  0.4253
21640SOL     OW67874   5.652   0.017   0.889 -0.1543 -0.1618 -0.1843
21640SOL    HW167875   5.579  -0.039   0.860 -0.4289 -0.2429  0.6238
21640SOL    HW267876   5.730  -0.024   0.853 -0.4611 -0.4215 -0.5559
21641SOL     OW67877   9.182   2.559   5.266 -0.4837  0.7914 -0.3650
21641SOL    HW167878   9.185   2.623   5.195  0.7468 -0.6392 -1.6424
21641SOL    HW267879   9.271   2.524   5.272 -0.1895  1.7244  2.7479
21642SOL     OW67880   8.798  10.403   4.112  0.2631  0.4977 -0.0850
21642SOL    HW167881   8.729  10.469   4.117  0.1843  0.5034 -1.1308
21642SOL    HW267882   8.773  10.337   4.177  0.5436  1.6595  1.2614
21643SOL     OW67883  10.532  10.009   3.051 -0.3726 -0.3020  0.1388
21643SOL    HW167884  10.456  10.028   2.996 -0.8186 -0.0912  0.8173
21643SOL    HW267885  10.602   9.988   2.989 -1.3058 -1.7369 -0.4825
21644SOL     OW67886   6.047   5.087   2.152  0.0604 -0.0530 -0.3444
21644SOL    HW167887   6.037   5.015   2.214  0.9442  0.1049 -0.0018
21644SOL    HW267888   5.959   5.124   2.143 -0.0353  0.1056  1.0416
21645SOL     OW67889   7.334   5.386   0.797  0.0658 -0.1087 -0.2038
21645SOL    HW167890   7.386   5.448   0.848  0.9536 -1.5211  0.6726
21645SOL    HW267891   7.248   5.387   0.838 -0.1178  0.9608 -0.5777
21646SOL     OW67892   2.789   6.697   6.818  0.3202 -0.4288  0.0674
21646SOL    HW167893   2.703   6.723   6.784  0.3718 -1.3001 -0.7634
21646SOL    HW267894   2.850   6.757   6.776  0.0238  1.0955  1.7013
21647SOL     OW67895  10.000   9.603   2.432 -0.2520 -0.1027 -0.0703
21647SOL    HW167896  10.013   9.672   2.367  0.0136 -0.1947 -0.1172
21647SOL    HW267897  10.020   9.522   2.385 -0.0578 -0.1703  0.1272
21648SOL     OW67898   2.552   9.363   7.876 -0.0026 -0.2354  0.0023
21648SOL    HW167899   2.647   9.373   7.862 -0.0824  0.6624  0.0023
21648SOL    HW267900   2.513   9.393   7.794 -0.2851 -0.8231 -0.0792
21649SOL     OW67901   7.344   6.963   9.527 -0.5837  0.3618  0.0389
21649SOL    HW167902   7.282   7.035   9.530 -0.3660  0.5318  2.4784
21649SOL    HW267903   7.300   6.891   9.572 -0.2244 -0.5558 -1.0403
21650SOL     OW67904   0.008   3.388   1.415  0.4391  0.1619  0.0313
21650SOL    HW167905   0.009   3.473   1.458 -2.0652  0.1073  0.3598
21650SOL    HW267906   0.082   3.340   1.454  1.1636  1.7547  0.6922
21651SOL     OW67907   0.433   3.153   9.431  0.4418  0.2544  0.3438
21651SOL    HW167908   0.470   3.135   9.344  0.4701 -0.4808  0.4973
21651SOL    HW267909   0.506   3.140   9.491 -0.0411 -1.2087  0.6495
21652SOL     OW67910   6.749   3.784   6.840 -0.3240  0.2373 -0.0342
21652SOL    HW167911   6.769   3.790   6.933 -1.6015 -0.1175  0.2825
21652SOL    HW267912   6.834   3.770   6.798  0.2118 -0.0850  1.1215
21653SOL     OW67913   5.552   2.646   9.811 -0.4493 -0.2744 -0.1760
21653SOL    HW167914   5.569   2.713   9.878 -2.3762 -0.9634  1.0722
21653SOL    HW267915   5.467   2.670   9.774 -0.6472 -1.4165 -0.4920
21654SOL     OW67916   7.245   9.765   7.630 -0.0959  0.1418 -0.0066
21654SOL    HW167917   7.152   9.758   7.650 -0.9102  2.3535 -2.3869
21654SOL    HW267918   7.276   9.675   7.627 -1.9704 -0.6293  1.4712
21655SOL     OW67919   9.648   7.757   6.750  0.1011  0.3692  0.1903
21655SOL    HW167920   9.607   7.843   6.746  0.4703  0.5243 -0.3580
21655SOL    HW267921   9.729   7.770   6.800  0.0085  0.2749  0.3683
21656SOL     OW67922   3.345  10.204   8.826  0.0385 -0.2417  0.0422
21656SOL    HW167923   3.351  10.181   8.919 -0.3492  2.0435  0.6972
21656SOL    HW267924   3.314  10.124   8.784 -2.3951 -0.6212  2.2925
21657SOL     OW67925   1.398   6.994   5.451 -0.5993 -0.1502 -0.3020
21657SOL    HW167926   1.451   7.056   5.502 -2.3907  1.2552 -0.0472
21657SOL    HW267927   1.393   7.033   5.364  1.5058 -1.9869 -1.3624
21658SOL     OW67928   3.431   8.952   8.301  0.1749 -0.2097  0.0024
21658SOL    HW167929   3.474   8.891   8.361  0.0574  0.4697  0.7824
21658SOL    HW267930   3.344   8.967   8.340 -0.1549 -0.2781 -0.6892
21659SOL     OW67931   3.820   9.022   8.276  0.4193  0.4047  0.3776
21659SOL    HW167932   3.859   9.109   8.282  0.2300  0.6227 -1.1590
21659SOL    HW267933   3.847   8.990   8.190  1.7345 -1.6875  1.4793
21660SOL     OW67934   1.093   0.436   9.946 -0.2678  0.0477  0.4558
21660SOL    HW167935   1.004   0.468   9.934 -0.2897 -0.1045  0.1997
21660SOL    HW267936   1.136   0.453   9.862 -0.6773 -1.8380 -0.1788
21661SOL     OW67937   9.075   7.618   1.861 -0.6593 -0.2847  0.3274
21661SOL    HW167938   8.985   7.588   1.843 -0.2126 -1.0554 -0.7222
21661SOL    HW267939   9.091   7.684   1.794 -1.2480  1.6012  1.9655
21662SOL     OW67940   1.025   6.249   2.391  0.3948 -0.4145 -0.5029
21662SOL    HW167941   1.098   6.283   2.339  0.6747 -0.7579 -0.3425
21662SOL    HW267942   0.954   6.312   2.377  0.7647  0.0010 -0.5559
21663SOL     OW67943   2.592   8.981   3.562  0.4861 -0.2900  0.3785
21663SOL    HW167944   2.553   9.032   3.633  1.5441 -0.0481  0.8104
21663SOL    HW267945   2.568   8.891   3.581 -0.2824 -0.1070  0.3400
21664SOL     OW67946   7.546   5.016   4.711  0.1248  0.4048  0.3158
21664SOL    HW167947   7.501   4.934   4.732 -1.5073  0.6607 -1.8743
21664SOL    HW267948   7.556   5.060   4.795 -1.5024 -0.7853  1.1909
21665SOL     OW67949  10.396   1.075   0.984 -1.0979 -0.1783 -0.0320
21665SOL    HW167950  10.405   1.094   0.891  0.0551  2.1727  0.4839
21665SOL    HW267951  10.484   1.046   1.011 -0.9529  0.7968  0.6125
21666SOL     OW67952   8.432   6.900   0.459  0.8151  0.1559 -0.3207
21666SOL    HW167953   8.433   6.877   0.551  2.2251 -0.8836 -0.5592
21666SOL    HW267954   8.351   6.861   0.425  1.7969 -2.1941 -0.1390
21667SOL     OW67955  10.554   1.236   6.166 -0.4451 -0.3235 -0.2426
21667SOL    HW167956  10.510   1.310   6.123 -2.1102 -1.4343 -0.5534
21667SOL    HW267957  10.612   1.201   6.098  0.5878  0.8419 -0.0005
21668SOL     OW67958   8.789   6.078   7.597  0.2030 -0.9696  0.0562
21668SOL    HW167959   8.785   5.993   7.641  0.1475 -0.6803  0.6256
21668SOL    HW267960   8.831   6.060   7.514  1.7984 -1.2663  0.8930
21669SOL     OW67961   0.663   7.639   8.771  0.4632  0.2944  0.3272
21669SOL    HW167962   0.656   7.557   8.722  0.9038 -0.2431  1.1357
21669SOL    HW267963   0.721   7.618   8.844 -2.1459  0.3438  2.5637
21670SOL     OW67964   4.411   6.168   8.596 -0.1769  0.5613 -0.4402
21670SOL    HW167965   4.404   6.111   8.672  1.2292  1.6587  0.5941
21670SOL    HW267966   4.486   6.134   8.548 -0.4665  0.4459 -0.8103
21671SOL     OW67967   7.014   6.963   3.167  0.3706  0.1744 -0.0648
21671SOL    HW167968   7.054   6.877   3.180 -1.6691 -0.7945  0.1430
21671SOL    HW267969   6.943   6.947   3.105 -0.0334  1.7327 -0.0431
21672SOL     OW67970   1.277  10.154   3.788 -0.0831 -0.5642  0.0797
21672SOL    HW167971   1.354  10.142   3.844  0.2399 -0.7958 -0.4103
21672SOL    HW267972   1.310  10.143   3.699 -0.4881  0.3624 -0.1931
21673SOL     OW67973   3.219   7.668   6.950  0.2924  0.1667  0.5705
21673SOL    HW167974   3.297   7.722   6.935 -0.3396  1.0263  0.3063
21673SOL    HW267975   3.163   7.687   6.874 -0.4010 -0.0251  1.0315
21674SOL     OW67976   6.417   3.072   0.271 -0.5828  0.3553  0.3647
21674SOL    HW167977   6.436   3.051   0.180 -0.5141  1.4568  0.1083
21674SOL    HW267978   6.357   3.003   0.300  0.2290 -0.5913 -0.1848
21675SOL     OW67979   9.477  10.527   0.011  0.5267 -0.1556 -0.0669
21675SOL    HW167980   9.477  10.481   0.095  0.3106  0.0887  0.0704
21675SOL    HW267981   9.385  10.551  -0.003  0.4692 -0.7059 -0.6574
21676SOL     OW67982   8.886   1.941   7.966 -0.2525 -0.4156 -0.0710
21676SOL    HW167983   8.857   2.019   7.920  0.7905  0.3924  0.6015
21676SOL    HW267984   8.952   1.972   8.028  0.3089 -1.8445  0.0981
21677SOL     OW67985   4.889   4.989   2.464  0.6036 -0.1405  0.4508
21677SOL    HW167986   4.942   4.923   2.509 -0.7300 -1.5993 -0.0206
21677SOL    HW267987   4.818   5.009   2.525  1.4199  1.5181  0.9240
21678SOL     OW67988   2.642   3.655   3.947  0.1231 -0.6364  0.4572
21678SOL    HW167989   2.607   3.714   4.014  1.2596  1.3069 -0.5802
21678SOL    HW267990   2.641   3.569   3.989 -0.0594  0.3523  2.6352
21679SOL     OW67991  10.479   5.666   1.345 -0.0109  0.0640  0.3914
21679SOL    HW167992  10.562   5.640   1.384 -0.0683  0.6904  0.9402
21679SOL    HW267993  10.414   5.657   1.415 -0.0847  1.3569  0.5160
21680SOL     OW67994   7.524   5.130   4.473 -0.0642 -0.0310 -0.3500
21680SOL    HW167995   7.550   5.222   4.481 -0.4480  0.0369  0.2129
21680SOL    HW267996   7.524   5.098   4.563 -3.9549  0.5552  0.0304
21681SOL     OW67997   7.052   6.157   1.513 -0.1664  0.8843  0.3370
21681SOL    HW167998   7.051   6.192   1.425 -0.6770  0.3326  0.1166
21681SOL    HW267999   6.966   6.117   1.525  1.0393 -2.2173 -0.2434
21682SOL     OW68000   0.993   6.052   4.718  0.7655  0.2318  0.2377
21682SOL    HW168001   1.054   6.048   4.644 -1.1175 -1.3297 -1.3364
21682SOL    HW268002   0.962   5.962   4.728  0.0182  0.6498  2.1620
21683SOL     OW68003   6.798   1.084   9.263  0.3749 -0.7000  0.8629
21683SOL    HW168004   6.747   1.011   9.299 -0.9839  0.3609  1.1836
21683SOL    HW268005   6.814   1.141   9.338 -1.4554  0.9381  0.0992
21684SOL     OW68006   4.739   9.454   5.616  0.4638 -0.6701 -0.0952
21684SOL    HW168007   4.809   9.517   5.597 -0.2765 -0.0554 -0.8582
21684SOL    HW268008   4.784   9.370   5.620  1.3078 -0.2420 -0.2123
21685SOL     OW68009  10.473   7.752   1.097 -0.7194  0.7703 -0.0841
21685SOL    HW168010  10.533   7.763   1.023  2.2541 -0.7068  1.9190
21685SOL    HW268011  10.474   7.837   1.141  0.0194  0.7271 -0.0061
21686SOL     OW68012   9.484   3.234   3.868  0.2561 -0.1729  0.5275
21686SOL    HW168013   9.461   3.232   3.775  1.3244 -0.8014  0.2645
21686SOL    HW268014   9.472   3.325   3.894  0.6332  0.1539 -0.4120
21687SOL     OW68015   5.470   1.471   3.374  0.0519 -0.3744  0.3883
21687SOL    HW168016   5.439   1.538   3.313 -0.6127 -1.3843 -0.4323
21687SOL    HW268017   5.415   1.395   3.355  0.8334 -1.1730  1.2370
21688SOL     OW68018   2.335  10.267   9.633  0.4962 -0.3084 -0.0537
21688SOL    HW168019   2.297  10.311   9.557  0.2014  2.5671  1.6010
21688SOL    HW268020   2.260  10.231   9.680  0.6298 -1.5699 -0.7520
21689SOL     OW68021   6.522   9.335  10.414 -0.3102 -0.5033 -0.0855
21689SOL    HW168022   6.594   9.275  10.430  0.2681  0.3633  0.6624
21689SOL    HW268023   6.461   9.320  10.486 -0.2548 -0.3377 -0.0026
21690SOL     OW68024   5.623   5.124   4.424  0.2006  0.0542 -0.0901
21690SOL    HW168025   5.546   5.102   4.476  1.5985 -1.2497  1.5360
21690SOL    HW268026   5.589   5.176   4.351 -2.5155 -2.2170 -0.6273
21691SOL     OW68027   3.727   4.850   7.886 -0.0983  0.1446  0.1841
21691SOL    HW168028   3.748   4.939   7.915 -0.0690  0.5121 -0.9262
21691SOL    HW268029   3.674   4.862   7.807  0.2155 -0.8189 -0.1862
21692SOL     OW68030   6.489   0.949   6.899 -0.2302 -0.3421 -0.3673
21692SOL    HW168031   6.412   0.939   6.843  0.1670 -2.8759 -0.5696
21692SOL    HW268032   6.546   0.876   6.875  0.4298 -0.9355  2.5742
21693SOL     OW68033   6.215   2.638   9.309 -0.2687 -0.4076 -0.6710
21693SOL    HW168034   6.203   2.607   9.219  0.9328 -0.1310 -0.9398
21693SOL    HW268035   6.205   2.733   9.303  2.8445 -0.0090 -1.1203
21694SOL     OW68036   4.882   3.080  10.604 -0.7798  0.0453 -0.0239
21694SOL    HW168037   4.789   3.060  10.593 -0.6998 -0.0647 -0.5059
21694SOL    HW268038   4.917   3.080  10.516 -0.7619  2.3087 -0.0756
21695SOL     OW68039   3.246   4.437   6.876 -0.0809  0.1883  0.1533
21695SOL    HW168040   3.238   4.361   6.934 -0.8636 -0.0913 -0.3130
21695SOL    HW268041   3.256   4.400   6.789 -1.4574  0.6117 -0.2095
21696SOL     OW68042  10.219   2.809   2.592  0.1568  0.4647  0.0931
21696SOL    HW168043  10.132   2.841   2.614  0.6236  0.6912  1.8123
21696SOL    HW268044  10.242   2.855   2.511 -1.1942  0.5945 -0.2437
21697SOL     OW68045   2.805   9.324   2.370  0.0727 -0.1159 -0.3653
21697SOL    HW168046   2.779   9.233   2.382  0.3213 -0.3101 -1.2967
21697SOL    HW268047   2.723   9.370   2.349 -0.1899  0.0396  0.8755
21698SOL     OW68048   9.036   9.030  10.162  0.3980 -0.0498 -1.0331
21698SOL    HW168049   9.094   9.073  10.224  1.0439  0.0568 -1.6885
21698SOL    HW268050   8.948   9.045  10.196  0.5780  2.1045 -1.4155
21699SOL     OW68051   3.629   1.990   0.195 -0.0244  0.4307  0.0157
21699SOL    HW168052   3.671   1.913   0.234  2.2869  1.8918  0.6432
21699SOL    HW268053   3.664   1.994   0.106 -0.4116  0.5441 -0.1325
21700SOL     OW68054   4.501   9.231   5.448  0.2111  0.3835  0.0990
21700SOL    HW168055   4.458   9.224   5.533  0.7736  1.3127  0.4828
21700SOL    HW268056   4.582   9.181   5.458 -0.0398 -0.0745 -0.1209
21701SOL     OW68057   2.840   9.475   0.159  0.2437  0.4222 -0.4720
21701SOL    HW168058   2.887   9.553   0.128  0.9014  0.5526  0.7878
21701SOL    HW268059   2.775   9.509   0.220  0.5059 -0.0073  0.0539
21702SOL     OW68060   0.011   0.761   8.933  0.4548  0.0246 -0.1195
21702SOL    HW168061   0.016   0.825   8.862 -1.1669 -1.8501 -2.0338
21702SOL    HW268062   0.019   0.676   8.890  0.7940 -1.1599  2.1329
21703SOL     OW68063   9.023   5.171   0.738 -0.7331  0.0796 -0.1087
21703SOL    HW168064   9.091   5.111   0.768  0.0412  1.3841  0.8792
21703SOL    HW268065   8.978   5.123   0.668 -0.3751 -1.7553  0.8436
21704SOL     OW68066   4.624   9.410   4.957  0.5551  0.4371  0.5714
21704SOL    HW168067   4.586   9.485   4.911  0.1427  0.3936  0.8424
21704SOL    HW268068   4.611   9.430   5.050 -0.1843 -0.2951  0.6359
21705SOL     OW68069   8.690   2.238   0.556  0.1026 -0.6402  0.4412
21705SOL    HW168070   8.786   2.232   0.564  0.1733  0.0333  0.1513
21705SOL    HW268071   8.663   2.283   0.636  0.1195 -0.0250  0.1015
21706SOL     OW68072   6.390   2.154   5.065  0.1746  0.4841  0.7052
21706SOL    HW168073   6.390   2.168   4.971  4.5635 -2.3290 -0.0183
21706SOL    HW268074   6.316   2.095   5.081  0.2032 -0.1569 -1.2979
21707SOL     OW68075   6.341   4.463   5.673  0.7886 -0.0194 -0.0559
21707SOL    HW168076   6.248   4.455   5.697  0.6330  0.6441 -0.4294
21707SOL    HW268077   6.340   4.512   5.590  1.5144  0.6286  0.3141
21708SOL     OW68078   0.615   6.196   9.795 -0.3049 -0.2412  0.1768
21708SOL    HW168079   0.544   6.238   9.746  0.0855  0.2189 -0.0146
21708SOL    HW268080   0.629   6.254   9.870  0.4550  0.1656 -0.2610
21709SOL     OW68081   3.915   7.459   9.579 -0.2015 -0.1209 -0.0533
21709SOL    HW168082   3.929   7.371   9.615  0.8428  0.4743  1.0588
21709SOL    HW268083   3.882   7.510   9.652 -1.0458  0.3758 -0.7595
21710SOL     OW68084   1.663   7.757  10.428  0.1993  0.3813  0.1684
21710SOL    HW168085   1.645   7.849  10.410 -0.2509  0.3624  0.5125
21710SOL    HW268086   1.579   7.721  10.456  0.2649 -0.2507 -0.4175
21711SOL     OW68087  10.499   9.829   7.986  0.2490 -0.0711 -0.4519
21711SOL    HW168088  10.559   9.758   7.964  1.6203  0.4248  1.4591
21711SOL    HW268089  10.509   9.841   8.080  0.5060  3.0342 -0.7773
21712SOL     OW68090   8.515   4.762   0.731 -0.2562  0.4335 -0.7689
21712SOL    HW168091   8.484   4.736   0.644 -0.5258  0.1491 -0.5925
21712SOL    HW268092   8.478   4.849   0.745  0.4317  0.8166 -1.2556
21713SOL     OW68093   1.315   0.630   6.809  0.6869 -0.8981 -0.2065
21713SOL    HW168094   1.409   0.648   6.798  0.6350 -0.1958  0.3859
21713SOL    HW268095   1.281   0.625   6.720  1.0264  0.3017 -0.4176
21714SOL     OW68096   9.877  10.100   4.965  0.4139  0.3104  0.2976
21714SOL    HW168097   9.892  10.095   4.870 -0.6499 -0.2274  0.1510
21714SOL    HW268098   9.880  10.194   4.984  0.4536  0.4345 -0.2938
21715SOL     OW68099   6.465   5.297  10.590 -0.5169 -0.3730 -0.7822
21715SOL    HW168100   6.560   5.310  10.583 -0.5851 -0.3202 -1.7214
21715SOL    HW268101   6.449   5.213  10.547 -0.5922 -1.7236  1.7047
21716SOL     OW68102   7.202   4.149   1.378  0.0385  0.4062 -0.7795
21716SOL    HW168103   7.267   4.205   1.421  0.3108  0.4043 -1.1804
21716SOL    HW268104   7.127   4.149   1.437  1.0089 -0.9175  0.5353
21717SOL     OW68105   7.474   0.923   6.204 -0.3078 -0.0560 -0.3291
21717SOL    HW168106   7.468   0.967   6.289 -0.3955  1.0626 -0.8848
21717SOL    HW268107   7.448   0.833   6.222 -0.6269  0.2309  0.7731
21718SOL     OW68108   8.842   1.697   6.378  0.5397  0.3012  0.2080
21718SOL    HW168109   8.837   1.607   6.346  0.0388  0.0825  0.8718
21718SOL    HW268110   8.771   1.704   6.442 -0.4092  1.6482 -0.9552
21719SOL     OW68111   2.750   2.714   8.238  0.5448 -0.0604 -0.1530
21719SOL    HW168112   2.747   2.665   8.320  0.4569  0.8713  0.4060
21719SOL    HW268113   2.839   2.699   8.206  0.0854 -1.7841 -0.7600
21720SOL     OW68114   7.923   5.604   7.201  0.2711 -0.2000 -0.1331
21720SOL    HW168115   7.998   5.545   7.205 -0.1361 -0.6877  1.0120
21720SOL    HW268116   7.934   5.653   7.120  1.2289 -1.0500 -0.5356
21721SOL     OW68117   5.947   5.871   0.649  0.1128  0.0463  0.4124
21721SOL    HW168118   5.996   5.793   0.676  1.5967  0.1477 -1.8126
21721SOL    HW268119   5.962   5.878   0.555 -1.8022  1.7939  0.1672
21722SOL     OW68120   8.984   0.398   8.112  0.0992 -0.1925  0.5351
21722SOL    HW168121   9.055   0.460   8.129 -1.2102  1.5128  0.1400
21722SOL    HW268122   8.987   0.337   8.185  1.4113  0.3735  0.9802
21723SOL     OW68123   7.945   6.194  10.522 -0.1646 -0.2488  0.1878
21723SOL    HW168124   8.009   6.256  10.557  0.6393 -0.1297 -1.4136
21723SOL    HW268125   7.996   6.121  10.489 -0.9151 -0.5686 -0.3028
21724SOL     OW68126   8.195   5.753   4.419 -0.1525  0.0674  0.3259
21724SOL    HW168127   8.255   5.784   4.487 -0.3051  1.6180 -0.2224
21724SOL    HW268128   8.146   5.682   4.462  0.8726 -0.0845  1.3051
21725SOL     OW68129   6.305   8.288   3.148 -0.1419  0.1498 -0.1810
21725SOL    HW168130   6.351   8.370   3.130  1.0270 -0.9797 -3.0582
21725SOL    HW268131   6.218   8.300   3.109 -0.5441  0.5643  0.8323
21726SOL     OW68132   5.623   0.532   4.265 -0.8581 -0.6071  0.3216
21726SOL    HW168133   5.646   0.507   4.175 -0.3924 -0.2923  0.3524
21726SOL    HW268134   5.628   0.627   4.265 -0.5221 -0.6248  0.7732
21727SOL     OW68135   1.067   6.270  10.112  0.2990 -0.5561  0.3895
21727SOL    HW168136   1.068   6.292  10.019  0.9214  1.2051  0.7840
21727SOL    HW268137   0.979   6.235  10.127 -0.3606  0.6355 -0.5432
21728SOL     OW68138   2.774   0.271   5.627 -0.1959  0.9790  0.0079
21728SOL    HW168139   2.862   0.274   5.665  0.2447 -1.5559 -0.6410
21728SOL    HW268140   2.722   0.223   5.691 -0.7552  1.1779 -0.2936
21729SOL     OW68141   7.957   2.384   3.569 -0.0414  0.8294 -0.1240
21729SOL    HW168142   8.015   2.329   3.517  1.1365  1.1494  0.7948
21729SOL    HW268143   7.993   2.379   3.658 -0.5257  2.2628  0.1780
21730SOL     OW68144   8.109   5.769   3.657 -0.9649 -0.1147 -0.2520
21730SOL    HW168145   8.080   5.831   3.724  1.2543  0.9822 -0.2352
21730SOL    HW268146   8.147   5.696   3.706 -1.3192 -0.3576 -0.3253
21731SOL     OW68147   3.021   0.257   0.047  0.3293 -0.3100 -0.5338
21731SOL    HW168148   3.077   0.209  -0.015 -0.4558 -1.6983 -0.2077
21731SOL    HW268149   3.007   0.342   0.005 -0.6968 -1.4195 -2.6236
21732SOL     OW68150   3.969   2.784   4.524 -0.1518 -0.0040  0.0587
21732SOL    HW168151   3.954   2.859   4.466 -1.0033  0.2393  0.5824
21732SOL    HW268152   3.941   2.708   4.472  0.8870  0.0023 -0.5408
21733SOL     OW68153   4.096   1.408   1.215 -0.0587  0.3720 -0.0416
21733SOL    HW168154   4.085   1.489   1.265 -0.2764  1.7004 -2.0999
21733SOL    HW268155   4.094   1.437   1.124  2.3832 -1.6394 -0.8343
21734SOL     OW68156   3.890   9.866   1.928  0.0606  0.0138  0.1346
21734SOL    HW168157   3.877   9.789   1.984 -0.8546 -0.7064 -1.0320
21734SOL    HW268158   3.817   9.924   1.950  0.0290 -0.0107  0.0936
21735SOL     OW68159   4.610   3.790   5.576  0.7778  0.4869 -0.6089
21735SOL    HW168160   4.598   3.885   5.575  2.6470  0.8230  1.1707
21735SOL    HW268161   4.533   3.756   5.621 -0.1533  1.0817 -1.7056
21736SOL     OW68162   1.874   5.884   0.995  0.0548 -0.3711  0.3831
21736SOL    HW168163   1.866   5.920   0.906 -0.0606  0.8689  0.8719
21736SOL    HW268164   1.851   5.957   1.052  1.7449 -0.6531  1.4895
21737SOL     OW68165   8.118   8.678  10.434  0.4608  0.5153 -0.3329
21737SOL    HW168166   8.156   8.715  10.514  2.3096 -1.4232 -0.2233
21737SOL    HW268167   8.163   8.723  10.363 -0.3071  1.3787 -0.2872
21738SOL     OW68168   3.713  10.329   1.204  0.7163 -0.2575  0.3513
21738SOL    HW168169   3.644  10.344   1.140  1.2223  0.1237 -0.1092
21738SOL    HW268170   3.681  10.371   1.284 -0.0626 -1.0176  0.4509
21739SOL     OW68171   8.788   2.894   2.478 -0.0242 -0.3096 -0.3793
21739SOL    HW168172   8.700   2.863   2.460 -0.5977  1.1255 -0.2248
21739SOL    HW268173   8.828   2.826   2.532 -1.3193 -0.6170  0.2101
21740SOL     OW68174   9.135   9.851   9.128  0.3295 -0.2146 -0.5167
21740SOL    HW168175   9.210   9.905   9.152 -0.5489  0.6814  0.2915
21740SOL    HW268176   9.108   9.809   9.209  0.3166 -0.9969 -0.9218
21741SOL     OW68177  10.038   8.005   6.734  0.1584 -0.9069 -0.0746
21741SOL    HW168178   9.978   8.076   6.710  1.5949  1.1637  1.9788
21741SOL    HW268179  10.014   7.983   6.824  0.8473 -1.8673 -0.1147
21742SOL     OW68180   5.609   5.298  10.565  0.7137 -0.6733 -0.1356
21742SOL    HW168181   5.522   5.260  10.551  1.6070 -2.1980 -1.9858
21742SOL    HW268182   5.617   5.305  10.660 -0.7479 -2.1695  0.1396
21743SOL     OW68183   9.634   4.547   1.794  0.1132 -0.9845 -0.5525
21743SOL    HW168184   9.616   4.474   1.734  0.1154 -2.2319  0.9274
21743SOL    HW268185   9.628   4.509   1.881 -1.6708  1.1635  0.3695
21744SOL     OW68186   8.691   6.387   7.355  0.1319 -0.8021  0.1614
21744SOL    HW168187   8.781   6.365   7.377  0.8638  0.9294 -0.9069
21744SOL    HW268188   8.678   6.476   7.389 -0.7437 -0.5452 -0.7797
21745SOL     OW68189   6.556   8.289   2.967 -0.5916 -0.0200  0.5635
21745SOL    HW168190   6.647   8.259   2.963 -0.6352 -0.0085 -1.7414
21745SOL    HW268191   6.512   8.225   3.023  0.0553 -2.3130 -1.3836
21746SOL     OW68192   5.269   4.110   7.693 -0.1094 -0.0039  0.2639
21746SOL    HW168193   5.280   4.046   7.763 -1.2922 -0.4782  0.0380
21746SOL    HW268194   5.226   4.062   7.622  0.9019  0.5127 -0.7344
21747SOL     OW68195   2.239  10.336   4.857 -0.0280  0.4985  0.2003
21747SOL    HW168196   2.266  10.258   4.906 -1.5641 -0.0345  0.2393
21747SOL    HW268197   2.221  10.402   4.923 -0.0194  0.4680  0.2330
21748SOL     OW68198   1.504   7.479   4.100  0.0684  0.0779  0.5776
21748SOL    HW168199   1.425   7.533   4.095  0.8258  1.2017  0.3382
21748SOL    HW268200   1.555   7.504   4.023  1.4071  0.6061  1.5950
21749SOL     OW68201   1.043  10.394   1.422  0.4499  0.6594  0.0987
21749SOL    HW168202   0.971  10.330   1.420  1.6059 -0.7585  1.1511
21749SOL    HW268203   1.012  10.467   1.369 -0.9115 -0.8123 -1.2384
21750SOL     OW68204   4.979   9.756   2.471  0.3981  0.3147 -0.0924
21750SOL    HW168205   4.931   9.747   2.388 -2.6499  1.5019  1.3906
21750SOL    HW268206   5.062   9.797   2.446 -0.0349 -0.1528 -2.6200
21751SOL     OW68207   7.796   0.623   4.129  0.2491 -0.1552  0.0628
21751SOL    HW168208   7.854   0.609   4.204 -0.0813  1.7753  0.7218
21751SOL    HW268209   7.755   0.707   4.145  0.2300  0.3763 -2.3380
21752SOL     OW68210   9.696   9.478   3.493 -0.6087  0.3777  0.6839
21752SOL    HW168211   9.688   9.573   3.506  0.1026  0.5529 -0.0883
21752SOL    HW268212   9.661   9.464   3.405 -1.7328 -0.2439  1.1986
21753SOL     OW68213   6.165   0.827   8.217  0.7692  0.2428 -0.0633
21753SOL    HW168214   6.174   0.913   8.259  0.2101 -0.2220  1.0451
21753SOL    HW268215   6.176   0.764   8.289 -0.0387 -0.5801 -0.6488
21754SOL     OW68216   2.825   5.503   7.655  0.0264  0.7426  0.0255
21754SOL    HW168217   2.854   5.591   7.633 -0.9772  0.8914 -0.8190
21754SOL    HW268218   2.759   5.483   7.588 -1.8826  0.4999  1.8811
21755SOL     OW68219   3.524   9.711   7.961 -0.0522  0.2492  0.5734
21755SOL    HW168220   3.588   9.685   7.896  2.7460 -1.3861  3.6664
21755SOL    HW268221   3.563   9.787   8.005 -0.6425 -0.1521  1.8616
21756SOL     OW68222   1.170   4.973   0.583 -0.1300 -0.6191  0.0368
21756SOL    HW168223   1.202   4.950   0.496 -0.7786  0.3263 -0.4615
21756SOL    HW268224   1.167   5.068   0.584 -2.1578 -0.6372  0.3293
21757SOL     OW68225   2.713   6.908   3.221  0.3532  0.4563 -0.1655
21757SOL    HW168226   2.706   6.831   3.164 -0.1255  1.5798 -1.6763
21757SOL    HW268227   2.693   6.875   3.309  0.0857 -1.1186 -0.7930
21758SOL     OW68228   5.453   8.319   3.399 -0.5880  0.2514 -0.4590
21758SOL    HW168229   5.477   8.259   3.329 -0.5537  0.9262 -1.0384
21758SOL    HW268230   5.513   8.393   3.390 -2.3993  1.6907 -1.5608
21759SOL     OW68231   8.973   6.541   6.089  0.6512  0.0683 -0.0764
21759SOL    HW168232   9.020   6.491   6.022 -0.5757 -0.6281 -0.4498
21759SOL    HW268233   9.032   6.613   6.111  1.3438 -0.0459 -1.4509
21760SOL     OW68234   9.223   1.960   6.670 -0.5527  0.0848 -0.0448
21760SOL    HW168235   9.284   2.031   6.692  0.2743 -0.4667 -0.5316
21760SOL    HW268236   9.147   1.977   6.725  0.2365  0.5063  0.9615
21761SOL     OW68237  10.576   0.618   3.757 -0.1111 -0.4585 -0.4953
21761SOL    HW168238  10.665   0.588   3.776  0.0853 -0.6122 -1.5942
21761SOL    HW268239  10.572   0.706   3.795  0.1505 -0.8695  0.5117
21762SOL     OW68240   8.600   2.418   6.916  0.5161  0.2046 -0.9497
21762SOL    HW168241   8.648   2.368   6.850  0.7238 -0.5019 -0.2844
21762SOL    HW268242   8.524   2.364   6.937  0.4798  0.3943 -0.5810
21763SOL     OW68243   6.148   6.652   0.780 -0.2740 -0.2576 -0.0393
21763SOL    HW168244   6.091   6.607   0.718 -0.5645  0.4381 -0.2820
21763SOL    HW268245   6.235   6.615   0.763 -0.7285 -1.7649  0.7580
21764SOL     OW68246   3.935   1.844   3.021  1.0576  0.2062  0.2631
21764SOL    HW168247   3.962   1.840   3.113  1.1520  1.2185  0.2842
21764SOL    HW268248   3.898   1.757   3.003 -0.1571  0.3975  1.6278
21765SOL     OW68249   8.368   4.902   2.726  0.2290  0.2214  0.2056
21765SOL    HW168250   8.306   4.872   2.659 -1.1263 -1.8421  2.2175
21765SOL    HW268251   8.400   4.821   2.767  1.3027  1.3871  1.7777
21766SOL     OW68252  10.547   5.198   2.522 -0.1014 -0.1868 -0.1696
21766SOL    HW168253  10.562   5.289   2.495 -1.0983  0.0092 -0.0801
21766SOL    HW268254  10.618   5.149   2.480 -0.4294  0.4085 -1.4713
21767SOL     OW68255   1.699   7.346   7.829  0.1749  0.1629 -0.0714
21767SOL    HW168256   1.664   7.343   7.740  2.6459 -0.1506 -1.1175
21767SOL    HW268257   1.735   7.434   7.838 -0.6641  0.4220  0.8964
21768SOL     OW68258   2.722   6.314   9.628 -0.4741  0.4173 -0.4639
21768SOL    HW168259   2.640   6.354   9.655 -0.2090  0.7763 -0.1904
21768SOL    HW268260   2.696   6.248   9.563 -1.0588 -0.0449  0.2252
21769SOL     OW68261   5.669   7.383   9.885 -0.0940 -0.1293 -0.0402
21769SOL    HW168262   5.762   7.404   9.882  0.1430 -1.2252 -1.0708
21769SOL    HW268263   5.644   7.398   9.976  0.8778  1.0110  0.0612
21770SOL     OW68264  10.651   1.332   0.455  0.0458  0.6284  0.9204
21770SOL    HW168265  10.654   1.310   0.548 -1.2856  0.6977  1.0000
21770SOL    HW268266  10.591   1.407   0.450 -1.3653 -0.4995 -0.1623
21771SOL     OW68267   1.024   9.467   9.660 -0.7892 -0.2238  0.0522
21771SOL    HW168268   0.951   9.446   9.602 -1.2577  1.0221  0.1503
21771SOL    HW268269   0.984   9.478   9.746 -0.9348  2.8279 -0.3097
21772SOL     OW68270   7.048   0.810   5.532 -0.0489  0.3357 -0.2717
21772SOL    HW168271   6.990   0.884   5.549  1.0767  1.2215 -0.1666
21772SOL    HW268272   7.065   0.815   5.437 -0.5699 -0.2533 -0.4017
21773SOL     OW68273   3.763   7.412   0.452 -0.2087  0.5907 -0.0013
21773SOL    HW168274   3.850   7.378   0.475 -0.3624  1.3679  1.8742
21773SOL    HW268275   3.769   7.506   0.468 -1.1655  0.7884 -0.6883
21774SOL     OW68276   0.892  10.041  10.363  0.1368  0.7159  0.5353
21774SOL    HW168277   0.955  10.012  10.297  0.2912 -0.2423  1.0829
21774SOL    HW268278   0.931  10.015  10.446 -1.4292 -0.8514  0.8428
21775SOL     OW68279   7.480   8.738   3.642 -0.5925 -0.0181 -0.2584
21775SOL    HW168280   7.398   8.736   3.593 -0.1366 -2.6641 -1.0431
21775SOL    HW268281   7.456   8.707   3.730 -1.1755  3.5405  0.9896
21776SOL     OW68282   7.425  10.507   9.666  0.1764  0.0753 -0.0381
21776SOL    HW168283   7.336  10.487   9.637  0.4964 -1.2680 -0.1737
21776SOL    HW268284   7.420  10.508   9.761  0.0140 -0.0203 -0.0447
21777SOL     OW68285   6.695   2.632   0.672 -0.0594  0.1211  0.3665
21777SOL    HW168286   6.686   2.565   0.605  0.9655 -0.9828  1.2852
21777SOL    HW268287   6.721   2.584   0.751  1.0572  1.6150  0.9643
21778SOL     OW68288   4.167   4.083   6.949  0.1005  0.3272  0.0632
21778SOL    HW168289   4.183   4.065   7.042 -0.2164  0.9778  0.2541
21778SOL    HW268290   4.191   4.002   6.904 -0.0408 -0.1011  0.7423
21779SOL     OW68291   1.143   8.123   1.032 -0.0095 -0.3100 -0.4314
21779SOL    HW168292   1.186   8.186   1.090  0.1019 -1.1630  0.4413
21779SOL    HW268293   1.067   8.169   0.997  0.0299  0.2765  0.2584
21780SOL     OW68294   5.340   8.421   4.257  0.1170  0.1125  0.2222
21780SOL    HW168295   5.330   8.376   4.340 -0.2230 -0.5821 -0.1816
21780SOL    HW268296   5.314   8.512   4.275  1.3903  0.3022  1.1799
21781SOL     OW68297   4.522   9.585   5.481  0.5281 -0.1005  0.2307
21781SOL    HW168298   4.458   9.621   5.542 -0.0586  0.8845 -0.9414
21781SOL    HW268299   4.578   9.530   5.536 -0.7223 -0.2229  1.4446
21782SOL     OW68300   4.255   2.738   0.776  0.5048 -0.4228  0.2974
21782SOL    HW168301   4.261   2.673   0.706  2.2619 -0.3912  0.3757
21782SOL    HW268302   4.320   2.804   0.753 -0.2210  0.5590  1.0001
21783SOL     OW68303   6.524   3.742   4.780 -0.1214 -0.1907 -0.2535
21783SOL    HW168304   6.513   3.672   4.715 -0.4208 -2.1916  1.8001
21783SOL    HW268305   6.443   3.740   4.831  1.6323 -1.6302  2.7648
21784SOL     OW68306   2.404   8.897   0.111 -0.2121 -0.3046  0.6112
21784SOL    HW168307   2.344   8.901   0.185 -0.4598 -0.6613  0.4352
21784SOL    HW268308   2.457   8.819   0.127 -0.6494 -0.7076  0.1328
21785SOL     OW68309   7.466   7.105   5.113  0.6614 -0.0085  0.1185
21785SOL    HW168310   7.513   7.187   5.099  0.8518 -0.3509 -1.3517
21785SOL    HW268311   7.386   7.131   5.159  0.1677  1.1651 -1.3447
21786SOL     OW68312   7.582   1.401   4.692  0.1818  0.2587  0.3068
21786SOL    HW168313   7.632   1.423   4.770 -1.6687  1.1439  1.3025
21786SOL    HW268314   7.512   1.344   4.723  0.6234 -1.1194 -1.0797
21787SOL     OW68315  10.597   1.181   0.114  0.2105  0.0090 -0.5342
21787SOL    HW168316  10.634   1.216   0.033 -1.0204 -0.8639 -1.5239
21787SOL    HW268317  10.609   1.250   0.178  0.5322  1.0331 -1.6616
21788SOL     OW68318   9.621   2.217   8.390  0.1666 -0.0584 -0.0385
21788SOL    HW168319   9.678   2.145   8.418 -1.3736 -1.3433 -0.0322
21788SOL    HW268320   9.681   2.286   8.362  1.7359 -1.8100 -1.2505
21789SOL     OW68321   8.257   4.837   9.717 -0.3887 -0.0774 -0.0991
21789SOL    HW168322   8.329   4.801   9.769  0.7552  1.6900 -0.3865
21789SOL    HW268323   8.234   4.919   9.761 -2.5537 -0.7614  0.2165
21790SOL     OW68324   1.490   1.485   5.706  0.0813 -0.4774 -0.4226
21790SOL    HW168325   1.528   1.573   5.708  0.3443 -0.6013  0.5733
21790SOL    HW268326   1.559   1.428   5.739  0.8498 -1.4745 -3.3890
21791SOL     OW68327   8.331   7.681   2.010  0.2395  0.3353  0.7737
21791SOL    HW168328   8.268   7.744   1.977 -1.2058 -1.5512 -0.2716
21791SOL    HW268329   8.386   7.660   1.934 -0.6690 -1.2031  0.5026
21792SOL     OW68330   3.267   5.892   4.764  0.3717 -0.6733 -0.1870
21792SOL    HW168331   3.206   5.918   4.832  1.7512  1.5698  0.3194
21792SOL    HW268332   3.254   5.956   4.694  1.4335 -0.7521 -0.4824
21793SOL     OW68333   6.175   0.577   7.590  0.0900 -0.2070  0.2636
21793SOL    HW168334   6.142   0.667   7.593  0.8765  0.0786  0.8802
21793SOL    HW268335   6.227   0.574   7.510  1.8956  0.5895  1.3408
21794SOL     OW68336   1.536   4.813   1.523 -0.0690  0.4995  0.2419
21794SOL    HW168337   1.487   4.895   1.515 -0.0466  0.4590 -0.3043
21794SOL    HW268338   1.628   4.840   1.523 -0.0571  0.4574 -0.1322
21795SOL     OW68339   9.449   7.187   8.390 -0.0224 -0.0464 -0.0321
21795SOL    HW168340   9.356   7.164   8.391  0.2900 -1.3703  0.5190
21795SOL    HW268341   9.475   7.176   8.298 -0.1070 -0.9545  0.0513
21796SOL     OW68342   3.426   9.498   1.060 -0.7731  0.7376  0.2581
21796SOL    HW168343   3.448   9.469   1.148 -0.6825  0.2085  0.0645
21796SOL    HW268344   3.331   9.506   1.060 -1.0740 -1.8801 -0.3511
21797SOL     OW68345   5.662   0.978   3.865 -0.6910 -0.1170  0.1536
21797SOL    HW168346   5.657   1.050   3.802  0.5113 -1.1826 -1.2323
21797SOL    HW268347   5.752   0.980   3.896 -1.1555  0.1236  1.5632
21798SOL     OW68348   0.461   3.250   4.534  0.0473 -0.3641  0.5764
21798SOL    HW168349   0.542   3.214   4.498 -0.1701 -1.2619  0.9505
21798SOL    HW268350   0.393   3.225   4.471 -0.3229 -1.8848  1.5285
21799SOL     OW68351   1.415   1.636   6.023  0.0428  0.6324  0.2806
21799SOL    HW168352   1.505   1.620   6.052  0.4864  1.4435 -0.5551
21799SOL    HW268353   1.385   1.551   5.991  1.3765  0.7904 -1.6015
21800SOL     OW68354   9.098   2.837   3.874 -0.1908  0.0953  0.4179
21800SOL    HW168355   9.095   2.933   3.871  0.5639  0.1483  1.1310
21800SOL    HW268356   9.025   2.813   3.931 -1.7700  0.1055 -1.4886
21801SOL     OW68357   8.960   4.020   5.482 -0.0009 -0.2679  0.5220
21801SOL    HW168358   8.878   4.068   5.489  0.1962  0.2870 -0.7086
21801SOL    HW268359   8.938   3.941   5.433 -0.2393 -1.2877  2.1885
21802SOL     OW68360   2.131   3.038   5.864 -0.0404 -0.2005  0.0950
21802SOL    HW168361   2.126   3.134   5.867  2.3754 -0.0075 -0.0717
21802SOL    HW268362   2.128   3.017   5.771 -1.2593 -0.3703  0.1579
21803SOL     OW68363   1.587   8.085   2.007  0.1326 -0.2384 -0.8391
21803SOL    HW168364   1.599   7.990   2.002  1.5011 -0.5301  3.5973
21803SOL    HW268365   1.676   8.120   2.008 -0.2956  0.8686 -0.4968
21804SOL     OW68366   2.936   7.317   4.682 -0.3092 -0.3051 -0.0274
21804SOL    HW168367   3.031   7.332   4.679 -0.3484  0.1194  0.7143
21804SOL    HW268368   2.923   7.239   4.627  0.2535  0.6383 -1.5746
21805SOL     OW68369   3.238   0.791   0.392  0.0141  0.2405  0.3306
21805SOL    HW168370   3.144   0.799   0.411 -0.4849 -0.8432 -1.4331
21805SOL    HW268371   3.261   0.703   0.423  0.2578  0.2004  0.0340
21806SOL     OW68372   7.603   5.425   1.496 -0.0833 -0.3588  0.2075
21806SOL    HW168373   7.527   5.370   1.514 -1.3303  0.3676 -2.2768
21806SOL    HW268374   7.571   5.515   1.505  0.8132 -0.0390  0.3238
21807SOL     OW68375   2.174   9.576   1.951 -0.1454 -0.0145  0.2064
21807SOL    HW168376   2.118   9.576   2.029  0.2953 -0.1424  0.5293
21807SOL    HW268377   2.152   9.494   1.906 -0.8396  0.3480 -0.1323
21808SOL     OW68378   6.911   6.923   6.363 -0.3023 -0.0430 -0.9533
21808SOL    HW168379   6.859   6.946   6.285 -2.0377 -0.0185  0.1566
21808SOL    HW268380   6.900   6.998   6.421 -0.3625 -0.7573 -0.0322
21809SOL     OW68381   6.644   2.145   1.817  0.1215  0.1503  0.3646
21809SOL    HW168382   6.723   2.184   1.778 -0.6866  0.8543 -0.6385
21809SOL    HW268383   6.588   2.125   1.742 -0.0380 -1.7885  0.9539
21810SOL     OW68384  10.645   9.933   0.124 -0.2043  0.0293 -0.4157
21810SOL    HW168385  10.593   9.854   0.137  0.9182 -0.4770  1.6076
21810SOL    HW268386  10.699   9.938   0.203  0.8080  2.0261 -1.1712
21811SOL     OW68387   0.371   2.050   9.920 -0.0751  0.4343  0.2643
21811SOL    HW168388   0.287   2.069   9.962 -0.3290  0.8004 -0.3873
21811SOL    HW268389   0.422   2.130   9.930 -0.2726  0.6567 -0.4294
21812SOL     OW68390   6.080   0.405   3.980  0.1242 -0.3365 -0.1217
21812SOL    HW168391   6.154   0.347   3.996  0.2495 -0.6161 -1.5998
21812SOL    HW268392   6.105   0.488   4.021  0.9611 -0.6279 -0.0272
21813SOL     OW68393   8.488   2.902   7.245 -0.5391  0.4836  0.4106
21813SOL    HW168394   8.459   2.906   7.154  0.3013 -1.6286  0.0082
21813SOL    HW268395   8.525   2.815   7.255  1.9818  1.6273  2.0133
21814SOL     OW68396   0.786   9.830  10.139  0.1570  0.0056  0.0662
21814SOL    HW168397   0.743   9.760  10.090  0.4537  0.0651 -0.2911
21814SOL    HW268398   0.715   9.875  10.185  0.0744 -1.1503  1.1147
21815SOL     OW68399   6.286   3.823   0.530 -0.1683 -0.0875 -0.2771
21815SOL    HW168400   6.236   3.859   0.604 -0.1435 -1.0076  0.2092
21815SOL    HW268401   6.377   3.828   0.559 -0.0886  0.3232 -0.5957
21816SOL     OW68402   4.673   8.986   5.641 -0.0454 -0.2628  0.3027
21816SOL    HW168403   4.586   9.013   5.613 -0.2965 -0.9095  0.4280
21816SOL    HW268404   4.657   8.928   5.716  0.5524  0.4888  1.0275
21817SOL     OW68405   4.497   7.093  10.186 -0.3096  0.3500 -0.3982
21817SOL    HW168406   4.506   7.010  10.138  0.1144  0.2623 -0.1630
21817SOL    HW268407   4.402   7.107  10.189 -0.5056 -0.9427  0.9579
21818SOL     OW68408   9.473   8.242   5.731  0.4426  0.3786 -0.3527
21818SOL    HW168409   9.555   8.193   5.737  0.7112  0.8058 -0.4929
21818SOL    HW268410   9.421   8.213   5.806  1.1083  0.8243  0.2906
21819SOL     OW68411   6.793   7.768   0.147  0.5801 -0.4859  0.4438
21819SOL    HW168412   6.860   7.818   0.101  0.8235 -0.1353  1.1651
21819SOL    HW268413   6.737   7.733   0.077  0.9095  0.0751 -0.1109
21820SOL     OW68414   2.687   4.849   4.603 -0.4906  0.1552  0.2276
21820SOL    HW168415   2.686   4.839   4.508 -1.7451 -0.1217  0.2558
21820SOL    HW268416   2.725   4.767   4.636 -2.4060 -0.8710  0.0490
21821SOL     OW68417   2.960   9.131   2.779  0.4219  0.2150 -0.2152
21821SOL    HW168418   2.964   9.035   2.782  2.8039  0.2793  0.2790
21821SOL    HW268419   3.039   9.157   2.733 -0.8259  1.9482 -1.4932
21822SOL     OW68420   1.535   6.924   6.072  0.4568  0.0528  0.3280
21822SOL    HW168421   1.577   6.956   6.153 -1.3240  2.1335  0.5081
21822SOL    HW268422   1.550   6.993   6.008 -1.1622  0.0507 -0.0962
21823SOL     OW68423   9.974   3.760   8.109  0.0378  0.6556  0.2105
21823SOL    HW168424  10.028   3.837   8.095 -0.9939  1.2581 -0.5960
21823SOL    HW268425   9.884   3.793   8.111 -0.2842 -0.1551  2.7057
21824SOL     OW68426  10.223   5.399   2.857 -0.1937  0.2289 -0.2561
21824SOL    HW168427  10.208   5.347   2.778  1.9737  2.7060 -2.4797
21824SOL    HW268428  10.287   5.348   2.907  0.4880 -0.1436 -1.4710
21825SOL     OW68429   8.424   9.718   4.552  0.1251  0.4072  0.4733
21825SOL    HW168430   8.367   9.716   4.629  0.9396  1.8008  1.1507
21825SOL    HW268431   8.498   9.662   4.575 -0.2157 -0.1578  0.2084
21826SOL     OW68432   1.654   1.177   2.612 -0.2759 -0.0562 -0.0424
21826SOL    HW168433   1.572   1.167   2.562 -0.8554  0.9287  0.6840
21826SOL    HW268434   1.696   1.091   2.605 -1.9630 -0.9937  0.6086
21827SOL     OW68435   3.353  10.143   7.638 -0.2130  0.1714 -0.0464
21827SOL    HW168436   3.322  10.075   7.697  0.0696  0.2007  0.1352
21827SOL    HW268437   3.298  10.219   7.658 -0.0330  0.2187  0.2669
21828SOL     OW68438   4.702   9.036   5.997 -0.3837 -0.0678  0.6576
21828SOL    HW168439   4.661   8.958   5.960  1.7765 -0.3006 -1.4468
21828SOL    HW268440   4.630   9.099   6.006 -1.4150 -0.7061 -2.1299
21829SOL     OW68441   6.229   1.711   2.029 -0.3453  0.2814  0.1283
21829SOL    HW168442   6.261   1.736   1.943  0.3452  1.7530  0.7806
21829SOL    HW268443   6.303   1.668   2.072 -0.4648  0.1924  0.2509
21830SOL     OW68444   8.958   0.758   1.177  0.4843 -0.0680 -0.1646
21830SOL    HW168445   8.921   0.670   1.170 -0.9964  0.5788 -0.7235
21830SOL    HW268446   8.934   0.802   1.096  0.0399  1.2720  0.6509
21831SOL     OW68447   8.501   1.663   7.361  0.5822  0.3851  0.4738
21831SOL    HW168448   8.587   1.706   7.365  0.2339  0.9661  2.1581
21831SOL    HW268449   8.471   1.679   7.271  1.8043  0.9972  0.1517
21832SOL     OW68450   2.523   3.923   3.840 -0.2676 -0.0479 -0.1181
21832SOL    HW168451   2.596   3.967   3.796 -0.1665 -0.4300 -0.3403
21832SOL    HW268452   2.564   3.869   3.907 -0.2181 -1.2936 -1.1062
21833SOL     OW68453   7.431   7.758   6.616  1.5252 -0.6354  0.3931
21833SOL    HW168454   7.425   7.852   6.634 -0.7754 -0.9098  1.3758
21833SOL    HW268455   7.461   7.753   6.526  1.1040  1.0801  0.1192
21834SOL     OW68456  10.086   6.957   3.827  0.2156 -0.4082 -0.6036
21834SOL    HW168457  10.123   7.022   3.887 -0.9352 -0.4609  0.1972
21834SOL    HW268458  10.101   6.994   3.740 -0.2936  0.8840 -0.1678
21835SOL     OW68459   0.911   7.383   1.409 -0.0447  0.3122 -0.0251
21835SOL    HW168460   0.976   7.420   1.349 -0.1975 -1.4600 -1.3608
21835SOL    HW268461   0.832   7.434   1.393  0.1983  0.5124 -0.6168
21836SOL     OW68462   1.295   0.742   6.337 -0.1244  0.3709  0.4495
21836SOL    HW168463   1.240   0.681   6.287 -1.9853  0.9035  1.7275
21836SOL    HW268464   1.379   0.741   6.292 -1.5042  0.4011 -2.3328
21837SOL     OW68465   4.002   8.438   0.543 -0.5122  0.1921 -0.1310
21837SOL    HW168466   3.991   8.358   0.594 -1.0681  0.4941  0.2368
21837SOL    HW268467   3.974   8.415   0.454  0.6524 -0.3931 -0.3706
21838SOL     OW68468  10.235   1.098   4.537 -0.3827 -0.4375  0.1570
21838SOL    HW168469  10.238   1.007   4.567 -1.5896 -0.8880 -1.0050
21838SOL    HW268470  10.235   1.149   4.618 -0.8100 -1.5174  0.8677
21839SOL     OW68471   8.356   9.605   4.886 -0.3712 -0.0546  0.5103
21839SOL    HW168472   8.403   9.669   4.939 -0.1681  0.7967 -0.6582
21839SOL    HW268473   8.279   9.652   4.854 -0.2327 -0.3814 -0.3393
21840SOL     OW68474   3.143   9.034   9.874  0.1968 -0.7117 -0.0345
21840SOL    HW168475   3.111   9.090   9.945  1.1053 -0.5544  0.2747
21840SOL    HW268476   3.086   8.958   9.875 -0.4351 -0.2482  0.1944
21841SOL     OW68477   2.881   9.275  10.651  0.0771 -0.3621  0.3977
21841SOL    HW168478   2.809   9.289  10.589  0.3427  0.7677  0.3188
21841SOL    HW268479   2.863   9.336  10.722  2.4363  2.1328 -0.9489
21842SOL     OW68480   8.763  10.358  10.200 -0.3297 -0.0580  0.6793
21842SOL    HW168481   8.819  10.280  10.204  0.2793  0.3472  0.1831
21842SOL    HW268482   8.686  10.334  10.252 -0.3784 -1.1639  0.1272
21843SOL     OW68483   2.330   5.446   9.669 -0.3402  0.4117  0.4601
21843SOL    HW168484   2.335   5.517   9.734 -0.7950  1.5734 -0.7374
21843SOL    HW268485   2.238   5.422   9.669 -0.6825  1.5851 -0.9243
21844SOL     OW68486   4.825   1.538   5.004  0.3928 -0.5471  0.0075
21844SOL    HW168487   4.779   1.468   4.957 -1.3807  0.6297 -0.1112
21844SOL    HW268488   4.902   1.556   4.950 -0.5189 -0.6412 -1.4002
21845SOL     OW68489   8.066   7.391   3.195  0.2263  0.5430 -0.4946
21845SOL    HW168490   8.060   7.441   3.113  1.1764  2.8962  0.7863
21845SOL    HW268491   8.148   7.419   3.235  0.8517 -2.1654  0.3211
21846SOL     OW68492   8.044   6.819   9.821  0.3511  0.2689 -0.6366
21846SOL    HW168493   8.083   6.850   9.740  3.4609 -0.8996  0.2526
21846SOL    HW268494   8.024   6.727   9.803  0.3419  0.2116 -0.3302
21847SOL     OW68495   7.895   9.693   3.658  0.4639  0.1556 -0.0959
21847SOL    HW168496   7.838   9.619   3.638  1.4370 -0.7896  0.4899
21847SOL    HW268497   7.968   9.684   3.596  0.5686  0.6546 -0.0482
21848SOL     OW68498   7.080   8.398   2.309  0.3336  0.5778 -0.2684
21848SOL    HW168499   7.111   8.403   2.400 -3.9479  1.1344  1.4498
21848SOL    HW268500   7.067   8.489   2.282  1.5808  0.4141 -1.4940
21849SOL     OW68501   4.122   5.366   0.915  0.5942  0.5718 -0.4156
21849SOL    HW168502   4.158   5.413   0.839 -0.6030  2.0238 -0.1109
21849SOL    HW268503   4.138   5.425   0.989 -2.1335  1.1878 -0.2284
21850SOL     OW68504   8.695   5.053   4.230 -0.4415 -0.1142  0.1226
21850SOL    HW168505   8.692   5.116   4.158  1.3355  0.6118  0.6230
21850SOL    HW268506   8.658   5.100   4.305 -0.5419 -0.2144  0.1370
21851SOL     OW68507   7.674   2.397   3.594 -0.0657  0.1655  0.0762
21851SOL    HW168508   7.669   2.398   3.689  0.4757 -0.3499  0.1144
21851SOL    HW268509   7.768   2.392   3.575 -0.2448 -2.8834 -0.4353
21852SOL     OW68510   7.924   9.211   5.530 -0.2928 -0.2264 -0.3167
21852SOL    HW168511   7.994   9.202   5.594  0.7949 -0.6748 -1.5363
21852SOL    HW268512   7.936   9.299   5.494 -0.2862 -0.3420 -0.6006
21853SOL     OW68513   3.677   6.265   4.539  0.1830  0.3445 -0.2312
21853SOL    HW168514   3.610   6.307   4.593  2.2329  1.0268  1.9266
21853SOL    HW268515   3.724   6.338   4.497  0.4326 -0.0652 -0.6754
21854SOL     OW68516   9.178   8.495   1.148 -0.0682 -0.1610  0.0762
21854SOL    HW168517   9.160   8.496   1.242 -0.1786  0.1583  0.0522
21854SOL    HW268518   9.203   8.585   1.127  1.1429 -0.4905  0.0323
21855SOL     OW68519   6.579   5.552   7.969 -0.5987  0.7782 -0.0258
21855SOL    HW168520   6.581   5.532   8.063 -0.6928  0.4583 -0.0899
21855SOL    HW268521   6.630   5.482   7.929  0.2895  1.4662 -0.1212
21856SOL     OW68522   9.190   7.162   0.003  0.0410  0.1125  0.3457
21856SOL    HW168523   9.162   7.181  -0.086  0.4246  1.3346  0.4650
21856SOL    HW268524   9.193   7.248   0.046  0.0067 -0.4364  1.4932
21857SOL     OW68525   1.862   4.772   5.409 -0.0551 -0.2400  0.3384
21857SOL    HW168526   1.924   4.755   5.339 -0.9356  2.0478 -1.1084
21857SOL    HW268527   1.786   4.718   5.386  0.5372 -1.3558  0.9137
21858SOL     OW68528   5.511   5.771  10.338 -0.1208 -0.0251  0.3451
21858SOL    HW168529   5.565   5.749  10.414 -2.6464  0.6709  2.4640
21858SOL    HW268530   5.539   5.860  10.314  1.4012 -0.6312 -0.2906
21859SOL     OW68531   7.338   0.222   8.220 -0.5806 -0.0328  0.5626
21859SOL    HW168532   7.259   0.251   8.175 -0.5129 -0.9489 -0.1974
21859SOL    HW268533   7.332   0.126   8.219  1.5997 -0.2603 -1.6243
21860SOL     OW68534  10.580   6.003   6.219 -0.0806 -0.1957  0.1495
21860SOL    HW168535  10.571   5.943   6.144 -2.4754 -1.0730  1.0309
21860SOL    HW268536  10.617   5.948   6.288 -0.5567 -0.1854  0.4185
21861SOL     OW68537   4.181   4.129   0.072 -0.5006 -0.0836 -0.1243
21861SOL    HW168538   4.268   4.132   0.033  0.4679  0.5509  1.9545
21861SOL    HW268539   4.123   4.104  -0.000  1.7592 -3.5592 -0.9715
21862SOL     OW68540   7.993   0.031  10.344  0.5472  0.8138  0.1364
21862SOL    HW168541   7.924   0.066  10.401  1.1575  2.1518  0.0948
21862SOL    HW268542   7.989   0.085  10.266  1.9943  1.3000  0.3597
21863SOL     OW68543   2.306   1.271   1.960  0.4401 -0.4112 -0.1208
21863SOL    HW168544   2.355   1.189   1.960  0.2954 -0.5428  1.6008
21863SOL    HW268545   2.365   1.334   2.002 -0.1262 -0.1034  0.2353
21864SOL     OW68546   8.598   7.834   3.273 -0.1107 -0.1869 -0.8624
21864SOL    HW168547   8.507   7.829   3.301 -0.0057  2.7511  0.3753
21864SOL    HW268548   8.647   7.793   3.344 -0.3774  0.0101 -0.5574
21865SOL     OW68549   6.233   1.264   0.105 -0.3635 -0.1967  0.2563
21865SOL    HW168550   6.175   1.337   0.083  0.0415  0.3210  0.8543
21865SOL    HW268551   6.187   1.215   0.172 -0.3776 -0.1445  0.2845
21866SOL     OW68552   8.921   7.576   0.928  0.3578 -0.3289  0.1854
21866SOL    HW168553   9.012   7.551   0.946  0.1500 -1.9149 -0.8021
21866SOL    HW268554   8.924   7.618   0.842  0.4179  1.5071  1.0308
21867SOL     OW68555   6.966   6.016   9.754 -0.5669  0.1207  0.3266
21867SOL    HW168556   7.052   6.044   9.724 -1.6582  2.6678 -0.7998
21867SOL    HW268557   6.972   5.921   9.763  2.4196  0.2606  0.6543
21868SOL     OW68558   5.107   4.252   3.058  0.0512  0.0404 -0.1519
21868SOL    HW168559   5.137   4.342   3.044  1.4868 -0.1342  1.5355
21868SOL    HW268560   5.141   4.204   2.982  3.5817  0.0271  1.2444
21869SOL     OW68561  10.281   5.229   1.299  0.2093 -0.2273 -0.8131
21869SOL    HW168562  10.271   5.134   1.308  0.6577 -0.2044  0.1134
21869SOL    HW268563  10.362   5.240   1.250 -0.5201 -0.3292 -2.0642
21870SOL     OW68564   8.257   4.055   6.144  0.1764 -0.0145 -1.2444
21870SOL    HW168565   8.223   4.138   6.178  2.3798  1.3260 -2.1108
21870SOL    HW268566   8.288   4.009   6.222 -0.9602 -0.0129 -0.7668
21871SOL     OW68567  10.204   8.653  10.358 -0.0122  0.0371  0.6215
21871SOL    HW168568  10.178   8.566  10.389  0.5188 -1.0281 -1.6524
21871SOL    HW268569  10.268   8.683  10.422  0.3247 -1.5892  1.1125
21872SOL     OW68570   0.889   7.404   4.002 -0.4259  0.4477 -0.3066
21872SOL    HW168571   0.965   7.461   3.989  0.7048 -0.1015  2.9981
21872SOL    HW268572   0.816   7.465   4.014  0.4996  1.2604  1.6864
21873SOL     OW68573   0.753  10.178   5.346  0.1880 -0.4869  0.3870
21873SOL    HW168574   0.689  10.249   5.352 -1.3766 -1.5822 -1.7965
21873SOL    HW268575   0.833  10.214   5.383 -0.8794  2.0006  0.4458
21874SOL     OW68576   2.462   5.983   8.162 -0.5931  0.3721 -0.0680
21874SOL    HW168577   2.427   5.999   8.074  1.2488  2.6965 -0.4763
21874SOL    HW268578   2.421   6.050   8.217 -1.0375 -0.4926  0.6873
21875SOL     OW68579   5.154   9.982   2.994 -0.0697  0.2790  0.1304
21875SOL    HW168580   5.059   9.993   2.995 -0.1137 -0.0572 -0.1202
21875SOL    HW268581   5.167   9.887   2.996  0.2431  0.2846 -0.9893
21876SOL     OW68582   4.435   1.767   3.229 -0.1490 -0.0945 -0.8645
21876SOL    HW168583   4.427   1.822   3.151  0.8039  0.8362 -0.3326
21876SOL    HW268584   4.464   1.827   3.298  1.8298 -1.3869 -0.4823
21877SOL     OW68585   7.726   4.591   5.829  0.0103 -0.0553 -0.3136
21877SOL    HW168586   7.747   4.609   5.920  2.5658  0.0058 -0.8438
21877SOL    HW268587   7.643   4.636   5.814 -0.8538 -0.6977  2.1356
21878SOL     OW68588   8.942   0.828   1.680 -0.1914  0.4917  0.0160
21878SOL    HW168589   9.008   0.767   1.648  0.2851  0.5649  0.8179
21878SOL    HW268590   8.926   0.887   1.606  1.8152  1.4418  0.2502
21879SOL     OW68591   0.075  10.005   1.756  0.4506 -0.2066 -0.4115
21879SOL    HW168592   0.010   9.937   1.735 -0.4075  0.3944  0.2033
21879SOL    HW268593   0.059  10.074   1.692  1.6130 -0.7471 -1.3106
21880SOL     OW68594   9.578   9.372   1.611 -0.6909  0.2457 -0.1951
21880SOL    HW168595   9.495   9.344   1.572 -0.1585 -0.1202 -1.1141
21880SOL    HW268596   9.624   9.291   1.633  0.0770  0.3854 -1.1665
21881SOL     OW68597   2.909   6.535   0.052 -0.0932 -0.0145 -0.2972
21881SOL    HW168598   2.906   6.566   0.143 -0.6856  0.9493 -0.6309
21881SOL    HW268599   2.913   6.440   0.059  1.6235  0.0866  0.7690
21882SOL     OW68600   8.715   8.497   3.843 -0.1753  0.2061  0.0234
21882SOL    HW168601   8.653   8.435   3.806 -0.5993  0.7397 -0.1638
21882SOL    HW268602   8.799   8.474   3.802 -0.4860  0.2739 -0.6631
21883SOL     OW68603   3.105  10.231   7.815  0.0953  0.3649  0.1731
21883SOL    HW168604   3.071  10.320   7.807  0.9152  0.7197  0.5404
21883SOL    HW268605   3.029  10.178   7.835 -0.5222  0.8664 -0.7572
21884SOL     OW68606   6.405   3.951   8.028  0.1576 -0.2346  0.4082
21884SOL    HW168607   6.472   4.020   8.021 -0.2002  0.1491  0.7416
21884SOL    HW268608   6.429   3.888   7.960 -0.4142  0.9844 -0.9682
21885SOL     OW68609   0.298   6.915   2.151 -0.2940 -0.1350  0.3381
21885SOL    HW168610   0.383   6.953   2.171  0.9767 -1.9189 -1.4065
21885SOL    HW268611   0.252   6.983   2.102  0.5619  0.4230  0.2966
21886SOL     OW68612  10.010   2.053   4.695 -0.3644  0.0612 -0.4354
21886SOL    HW168613   9.915   2.041   4.700 -0.1463 -1.5762  0.8282
21886SOL    HW268614  10.026   2.083   4.606 -2.1023  0.8290 -0.5296
21887SOL     OW68615   6.784   6.494   2.007  0.1647 -0.4741  0.4793
21887SOL    HW168616   6.865   6.544   2.018 -0.5089  0.6200  0.5719
21887SOL    HW268617   6.757   6.513   1.917  0.5111 -1.6196  0.1187
21888SOL     OW68618   0.367   7.943   1.958 -0.0122  0.6158 -0.0339
21888SOL    HW168619   0.357   7.903   1.871  2.5065 -1.0730  0.3155
21888SOL    HW268620   0.360   7.870   2.019  0.0481  1.4802  1.0427
21889SOL     OW68621   8.864   7.866   5.131  0.2039  0.1916  0.6330
21889SOL    HW168622   8.917   7.937   5.094  1.3553 -0.1345  1.5823
21889SOL    HW268623   8.906   7.786   5.100 -1.1768 -0.1156 -0.5509
21890SOL     OW68624   0.405   9.888   9.467 -0.0659  0.1037 -0.3501
21890SOL    HW168625   0.322   9.888   9.515 -0.1912 -0.9233 -0.5510
21890SOL    HW268626   0.412   9.800   9.429  0.5994  0.5136 -1.2352
21891SOL     OW68627   9.304   2.759   5.462 -0.4768 -0.5690 -0.3993
21891SOL    HW168628   9.270   2.848   5.456  2.0089  0.3904 -1.2749
21891SOL    HW268629   9.254   2.711   5.395  1.5711  1.4555 -3.6721
21892SOL     OW68630   4.822   0.696   3.340  0.4546  0.4440  0.0274
21892SOL    HW168631   4.790   0.727   3.255 -0.1424 -0.0448  0.0695
21892SOL    HW268632   4.884   0.764   3.368  1.0601  0.3587 -1.0304
21893SOL     OW68633   5.059   0.810   7.581 -0.2137 -0.3032 -0.3520
21893SOL    HW168634   5.005   0.814   7.502 -0.6563  0.8027 -0.0007
21893SOL    HW268635   5.011   0.751   7.640 -2.0242  2.0181  0.6504
21894SOL     OW68636   3.824   8.939   7.572  0.4326 -0.3490 -0.0362
21894SOL    HW168637   3.739   8.908   7.602  0.4071 -0.3925 -0.1534
21894SOL    HW268638   3.806   9.026   7.536  0.7241  0.4339  1.5669
21895SOL     OW68639  10.081   9.750   3.019 -0.1962 -0.0210 -0.0714
21895SOL    HW168640  10.140   9.688   2.977  0.2251  0.7358 -0.6210
21895SOL    HW268641  10.024   9.696   3.074  0.0740 -0.9004 -0.6391
21896SOL     OW68642   8.897  10.682  10.118 -0.3781  0.5337  0.0129
21896SOL    HW168643   8.892  10.691  10.023  0.8464  1.2573 -0.0009
21896SOL    HW268644   8.818  10.633  10.141 -1.0227  0.9029 -1.2998
21897SOL     OW68645   3.302   6.515   8.746  0.1123  0.2304  0.7007
21897SOL    HW168646   3.346   6.448   8.799  1.8047  1.9111  1.5448
21897SOL    HW268647   3.281   6.585   8.808 -1.2393  0.6850 -0.2223
21898SOL     OW68648   8.192   0.062   8.209  0.3162 -0.0442  0.7291
21898SOL    HW168649   8.159   0.128   8.270  1.5841  1.3865 -0.0933
21898SOL    HW268650   8.286   0.062   8.221  0.6443  0.5067 -1.4229
21899SOL     OW68651   9.146   7.576   3.510 -0.1113  0.0390 -0.1358
21899SOL    HW168652   9.147   7.511   3.440 -0.9746 -0.6969  0.5110
21899SOL    HW268653   9.057   7.612   3.508  0.0237  0.3934  0.2342
21900SOL     OW68654   3.977   9.688   2.699 -0.1556 -0.6804 -0.4336
21900SOL    HW168655   3.906   9.680   2.763 -0.7912 -0.9470 -1.1705
21900SOL    HW268656   4.042   9.744   2.743 -1.2879  0.4534 -0.1555
21901SOL     OW68657   2.341   4.633   8.723  1.0985 -0.0703 -0.2017
21901SOL    HW168658   2.343   4.567   8.654  1.2929 -1.2746  0.9031
21901SOL    HW268659   2.400   4.598   8.791  0.7305  0.9433  0.6685
21902SOL     OW68660   5.750   3.156   6.795 -0.2271  0.2674  0.0724
21902SOL    HW168661   5.700   3.198   6.725 -0.7038  1.0777  0.8781
21902SOL    HW268662   5.696   3.081   6.821  0.5210 -0.7659 -1.2161
21903SOL     OW68663   0.728   2.282   7.500  0.2685 -0.1047  0.6992
21903SOL    HW168664   0.786   2.226   7.449  0.6514 -0.7254  1.7647
21903SOL    HW268665   0.694   2.346   7.438 -0.4789 -1.7283 -0.6651
21904SOL     OW68666   5.009   3.727   4.455 -0.1213  0.2456  0.1483
21904SOL    HW168667   4.921   3.751   4.482 -1.1035  0.3026 -2.7514
21904SOL    HW268668   5.059   3.808   4.464 -0.4610  0.3486  1.3081
21905SOL     OW68669   3.439   6.603   6.950 -0.7512  0.6941  0.1781
21905SOL    HW168670   3.435   6.550   7.029 -1.2354  0.5329  0.0494
21905SOL    HW268671   3.529   6.637   6.948 -0.6815  0.5477  0.6932
21906SOL     OW68672   8.546   9.354   0.644 -0.9651  0.1884  0.2636
21906SOL    HW168673   8.585   9.426   0.693 -0.8452  0.0311  0.3982
21906SOL    HW268674   8.582   9.275   0.683 -0.1861  0.0784 -0.6543
21907SOL     OW68675   2.504   9.883   3.594  0.0657  0.0408  0.0707
21907SOL    HW168676   2.470   9.860   3.681  0.1202 -0.7018 -0.1010
21907SOL    HW268677   2.544   9.803   3.561  0.0207  0.3055 -0.6557
21908SOL     OW68678   9.849   1.696   8.265  0.0888 -0.7595  0.8285
21908SOL    HW168679   9.893   1.704   8.349 -1.5416  1.8786  1.5366
21908SOL    HW268680   9.907   1.641   8.213  2.4051 -0.3687  2.8307
21909SOL     OW68681   1.873   3.937  10.631 -0.4977 -0.3387 -0.4781
21909SOL    HW168682   1.919   3.877  10.690 -0.1676 -1.3795 -1.7262
21909SOL    HW268683   1.941   3.994  10.597 -0.0077 -1.9765 -2.4409
21910SOL     OW68684   5.063   5.821  10.401 -0.3864  0.0834  0.2271
21910SOL    HW168685   5.085   5.843  10.311 -2.6200 -1.0249 -0.6763
21910SOL    HW268686   5.037   5.905  10.441 -0.0514  0.4784 -0.3758
21911SOL     OW68687   1.848   6.461   9.276  0.3287 -0.3296 -0.0243
21911SOL    HW168688   1.840   6.512   9.357  0.3107 -0.0147 -0.2222
21911SOL    HW268689   1.943   6.451   9.264  0.3515  0.1675 -0.2980
21912SOL     OW68690   7.870   8.421   8.913 -0.0336  0.0500  1.1650
21912SOL    HW168691   7.881   8.510   8.946  0.7489  0.1832  0.5653
21912SOL    HW268692   7.780   8.419   8.879  0.9715  1.7005 -1.9601
21913SOL     OW68693   2.450   3.148   8.342 -0.0415  0.1950 -0.1441
21913SOL    HW168694   2.399   3.225   8.366  0.0172 -0.2961  1.6439
21913SOL    HW268695   2.512   3.136   8.414  1.3085 -0.3717 -1.3443
21914SOL     OW68696   3.108   4.211   5.451  0.2425  0.1910  0.5166
21914SOL    HW168697   3.192   4.232   5.412  0.2457  0.0693  0.4570
21914SOL    HW268698   3.094   4.279   5.517  0.4289  0.1571  0.5904
21915SOL     OW68699  10.032   9.090   6.689 -0.1290 -0.5357  0.0464
21915SOL    HW168700  10.106   9.133   6.732 -0.1269 -0.7092  0.2161
21915SOL    HW268701   9.956   9.143   6.713 -0.0724 -0.4075 -0.0564
21916SOL     OW68702   6.682   1.754   1.841 -0.0229 -0.7593 -0.4432
21916SOL    HW168703   6.590   1.780   1.851 -0.0505  0.2123 -2.5388
21916SOL    HW268704   6.726   1.834   1.812  1.1002 -1.6582 -1.3262
21917SOL     OW68705   4.892   9.376   8.014 -0.3417 -0.2135 -0.4941
21917SOL    HW168706   4.825   9.444   8.020  0.1032  0.4698 -2.5089
21917SOL    HW268707   4.910   9.353   8.105 -0.3736  2.5361  0.3217
21918SOL     OW68708   6.956  10.620   3.118 -0.4709 -0.3599  0.8229
21918SOL    HW168709   6.956  10.691   3.181  0.2608  0.2678  0.1505
21918SOL    HW268710   7.020  10.557   3.152  1.7267  1.0639 -0.3855
21919SOL     OW68711   2.911   6.094   7.178 -0.3406 -0.9038 -0.2916
21919SOL    HW168712   2.989   6.132   7.218 -0.3096  0.2188 -1.3348
21919SOL    HW268713   2.848   6.167   7.175 -0.6882 -1.2241 -1.3254
21920SOL     OW68714  10.061   3.636   2.717  0.0197  0.0758  0.5059
21920SOL    HW168715  10.009   3.699   2.767  0.1302 -1.3677  2.5913
21920SOL    HW268716  10.003   3.561   2.705  0.4227 -0.0979 -0.4362
21921SOL     OW68717   5.534   9.095   4.194  0.1322  0.0563  0.7394
21921SOL    HW168718   5.469   9.067   4.130  1.3909 -0.1894 -0.4922
21921SOL    HW268719   5.517   9.041   4.271 -2.0563  1.0641  1.0348
21922SOL     OW68720   1.350   2.879   5.864 -1.0393  0.0522 -0.0316
21922SOL    HW168721   1.267   2.832   5.859 -1.3318  0.5370  0.2378
21922SOL    HW268722   1.329   2.961   5.910 -0.3465  0.0231  0.3505
21923SOL     OW68723   2.125   3.546   2.659 -0.4337  0.0948  0.2319
21923SOL    HW168724   2.145   3.617   2.719  1.5816 -0.1074 -0.1396
21923SOL    HW268725   2.031   3.552   2.645 -1.0430  0.1120  3.4421
21924SOL     OW68726   3.492   6.485   0.516 -1.1140  0.2955 -0.7872
21924SOL    HW168727   3.475   6.495   0.423  1.1774  0.1110 -1.2929
21924SOL    HW268728   3.498   6.574   0.550  2.0719  0.5791 -1.7383
21925SOL     OW68729  10.001   2.207   9.699  0.5644  0.3584  0.0274
21925SOL    HW168730  10.076   2.208   9.639  0.9063  3.0727  0.3777
21925SOL    HW268731  10.029   2.152   9.772  1.4744 -0.1847 -0.7123
21926SOL     OW68732   4.601   7.939   3.339 -0.3424  0.0801 -0.1789
21926SOL    HW168733   4.631   7.924   3.429 -1.5531 -0.8565  0.0952
21926SOL    HW268734   4.606   8.034   3.328  1.6694  0.0513  0.1840
21927SOL     OW68735   8.044   7.478  10.081  0.1843 -0.0481 -0.1438
21927SOL    HW168736   8.042   7.542  10.010  0.5378  1.7039  1.3207
21927SOL    HW268737   8.002   7.400  10.046  0.1847  0.8140 -2.1822
21928SOL     OW68738   8.349   3.416   1.351  0.0494  0.3524 -0.3041
21928SOL    HW168739   8.412   3.344   1.343 -0.1768  0.0027  0.8043
21928SOL    HW268740   8.345   3.433   1.446  1.3135  2.8980 -0.5913
21929SOL     OW68741   9.564   2.678   5.487 -0.4205  0.1026  0.0271
21929SOL    HW168742   9.473   2.706   5.495 -0.6365 -0.5164 -0.1777
21929SOL    HW268743   9.564   2.618   5.413  0.0619 -0.2709  0.3256
21930SOL     OW68744   4.239   0.582   4.535  0.0414 -0.2817 -0.0942
21930SOL    HW168745   4.167   0.589   4.472  0.6428  1.6021 -0.6297
21930SOL    HW268746   4.316   0.565   4.480  0.1451 -1.6101  0.4194
21931SOL     OW68747   1.849   1.347   3.800  0.0145 -0.0334  0.0568
21931SOL    HW168748   1.911   1.275   3.788  0.6759  0.7397 -1.5124
21931SOL    HW268749   1.771   1.320   3.753 -1.4095 -1.5373  3.0293
21932SOL     OW68750   4.825  10.615   4.042 -0.5810  0.2990 -0.1321
21932SOL    HW168751   4.789  10.621   3.954 -1.1515 -0.7472  0.0108
21932SOL    HW268752   4.749  10.600   4.098 -0.2764  1.3869  0.6102
21933SOL     OW68753  10.457   6.881   5.030 -0.1342 -0.2786  0.0982
21933SOL    HW168754  10.503   6.825   5.093 -1.3435 -2.1820 -0.6123
21933SOL    HW268755  10.378   6.832   5.008 -0.6811  1.2063 -1.4754
21934SOL     OW68756   6.632   0.813   6.155 -0.0246  0.6152 -0.1838
21934SOL    HW168757   6.671   0.800   6.068 -1.3055 -1.4828 -0.5043
21934SOL    HW268758   6.597   0.728   6.179 -0.4241  1.3449  2.0760
21935SOL     OW68759   8.899   3.556   1.729 -0.4460  0.2709  0.1981
21935SOL    HW168760   8.807   3.540   1.708 -0.1052  0.4972 -1.5658
21935SOL    HW268761   8.940   3.580   1.646  1.8971 -2.8444  0.2633
21936SOL     OW68762   4.266   7.516  10.250  0.3979 -0.3875  0.7603
21936SOL    HW168763   4.193   7.465  10.215 -0.1945  1.1969 -0.4186
21936SOL    HW268764   4.343   7.462  10.232 -0.2519 -1.0775 -0.0623
21937SOL     OW68765   7.045   9.374   5.816 -0.3301 -0.1397 -0.1162
21937SOL    HW168766   7.127   9.416   5.793 -0.5283  0.0121 -0.5590
21937SOL    HW268767   7.017   9.417   5.897 -1.1778  1.5295 -1.2232
21938SOL     OW68768   8.139   6.808   2.102 -0.1266 -0.1687  0.0455
21938SOL    HW168769   8.197   6.835   2.031  0.8717 -0.0076  0.8999
21938SOL    HW268770   8.151   6.874   2.170 -0.5138 -0.7088  0.6580
21939SOL     OW68771   3.491   9.406   0.550 -0.0951  0.7491 -0.0285
21939SOL    HW168772   3.477   9.417   0.644 -1.9048 -3.9423  0.5347
21939SOL    HW268773   3.402   9.408   0.513  0.5479  1.9471 -1.5700
21940SOL     OW68774   3.147   5.092   1.635 -0.8254  0.2506 -0.0477
21940SOL    HW168775   3.234   5.076   1.673 -0.6225 -2.2234 -1.3131
21940SOL    HW268776   3.102   5.146   1.700  0.0653 -2.2993  2.9647
21941SOL     OW68777   2.490   0.015   9.874 -0.3632 -0.3633  0.0847
21941SOL    HW168778   2.464  -0.077   9.882 -0.4150 -0.5113 -1.5234
21941SOL    HW268779   2.585   0.014   9.887 -0.2241 -0.7923 -0.9046
21942SOL     OW68780   3.687   6.617   0.989  0.2535 -0.4622  0.2417
21942SOL    HW168781   3.619   6.681   1.011 -0.2314 -1.0330  0.4261
21942SOL    HW268782   3.737   6.606   1.069 -0.6531 -1.5000  0.6848
21943SOL     OW68783   8.091   9.063   7.917 -0.1642 -0.2067  0.2241
21943SOL    HW168784   8.052   9.070   7.830 -1.0738  1.5954  0.7437
21943SOL    HW268785   8.108   8.969   7.927  0.4737 -0.4151 -2.0911
21944SOL     OW68786   2.182   7.533   5.407 -0.0420  0.0043  0.0267
21944SOL    HW168787   2.271   7.564   5.391  0.7172 -0.8545  2.1776
21944SOL    HW268788   2.190   7.478   5.485 -2.4177 -0.3769  0.0653
21945SOL     OW68789   9.793   0.502   8.381  0.7264 -0.0057  0.1657
21945SOL    HW168790   9.829   0.578   8.334  2.5537 -1.3697 -0.7776
21945SOL    HW268791   9.868   0.465   8.427  0.3666 -2.3736 -1.0147
21946SOL     OW68792   8.099   9.843   0.887 -0.1471 -0.4231 -0.6097
21946SOL    HW168793   8.143   9.927   0.872  0.5673 -0.7580 -0.4458
21946SOL    HW268794   8.075   9.846   0.980 -3.4073  1.1063 -1.3655
21947SOL     OW68795   3.601   3.577   9.085  0.5248  0.2487 -0.0035
21947SOL    HW168796   3.528   3.585   9.147 -0.2103  2.0321 -1.0172
21947SOL    HW268797   3.676   3.616   9.131  0.6710 -0.8525  0.7321
21948SOL     OW68798   9.329   4.114   9.561 -0.0714 -0.0438 -0.0047
21948SOL    HW168799   9.237   4.089   9.552 -0.3205  0.6272  0.5889
21948SOL    HW268800   9.363   4.058   9.630 -0.0563 -0.2247 -0.1578
21949SOL     OW68801   5.626   7.753   4.600 -0.2317  0.5164 -0.0860
21949SOL    HW168802   5.575   7.746   4.681 -0.1166 -1.2306 -0.1336
21949SOL    HW268803   5.709   7.792   4.627  0.5854 -1.8490  1.0368
21950SOL     OW68804   9.890   4.164   8.149 -0.5895 -0.1575 -0.0320
21950SOL    HW168805   9.799   4.133   8.150 -0.8296  0.4842 -0.9235
21950SOL    HW268806   9.885   4.253   8.186 -0.4073  0.0850 -0.5889
21951SOL     OW68807   9.098   9.774   5.904  0.5721  0.7319 -0.1370
21951SOL    HW168808   9.072   9.778   5.812  1.2940 -1.1986 -0.4670
21951SOL    HW268809   9.036   9.832   5.949 -1.2621 -0.0487 -1.5198
21952SOL     OW68810   9.101   9.368   8.436 -0.0463 -0.0517 -0.2932
21952SOL    HW168811   9.166   9.385   8.369 -0.7416 -0.1273 -0.9998
21952SOL    HW268812   9.069   9.455   8.462  1.1728  0.0751  0.9391
21953SOL     OW68813   7.551   4.136   8.858  0.3146 -0.0070  1.0191
21953SOL    HW168814   7.542   4.073   8.786  1.0779  1.5911 -0.5583
21953SOL    HW268815   7.520   4.089   8.935  1.8316 -2.6975  0.1378
21954SOL     OW68816   9.318   2.109   4.630  0.2561  0.1984 -0.1056
21954SOL    HW168817   9.369   2.182   4.664 -0.3837  1.3011 -1.4133
21954SOL    HW268818   9.340   2.104   4.537 -2.6316  1.3683 -0.9811
21955SOL     OW68819   8.148   4.445   0.160  0.3493 -0.1263  0.1486
21955SOL    HW168820   8.204   4.386   0.210 -0.1801 -1.0303 -0.2884
21955SOL    HW268821   8.064   4.399   0.155  0.0151  0.5380 -0.4502
21956SOL     OW68822   5.938  10.507   7.256  0.4560  0.0960  0.0368
21956SOL    HW168823   6.020  10.555   7.268  0.0656  0.7927 -0.0265
21956SOL    HW268824   5.938  10.482   7.163  1.0903 -0.8426  0.2812
21957SOL     OW68825   7.414   0.851   7.975  0.1562  0.0365 -0.4584
21957SOL    HW168826   7.321   0.835   7.987 -0.1286  0.1678 -2.2722
21957SOL    HW268827   7.441   0.787   7.909  0.9887  1.0249 -1.1087
21958SOL     OW68828   7.798   4.481   3.696  0.3170  0.1162  0.0754
21958SOL    HW168829   7.773   4.391   3.717 -0.0977  0.0797 -0.5489
21958SOL    HW268830   7.828   4.477   3.606  0.1972  0.6202  0.0128
21959SOL     OW68831   1.456   9.275   7.670  0.1974 -0.6022 -0.1426
21959SOL    HW168832   1.530   9.215   7.683 -1.3384 -2.5891 -0.0863
21959SOL    HW268833   1.485   9.333   7.600  0.9401 -2.9720 -1.9679
21960SOL     OW68834   5.716   5.595   7.129  0.5311 -0.3783 -0.1127
21960SOL    HW168835   5.809   5.579   7.144  0.9816  1.6328 -0.4359
21960SOL    HW268836   5.693   5.539   7.055  1.4544 -0.9282 -0.0054
21961SOL     OW68837  10.526   5.200   6.943 -0.2396 -0.0814  0.0826
21961SOL    HW168838  10.461   5.269   6.929 -0.8325 -1.0860 -2.6101
21961SOL    HW268839  10.474   5.122   6.960  0.4053 -0.2107  1.6407
21962SOL     OW68840   9.693   7.440   1.175 -0.1631 -0.4926 -0.1725
21962SOL    HW168841   9.635   7.394   1.236 -0.6864 -1.0242 -1.0549
21962SOL    HW268842   9.761   7.376   1.153  0.6837  0.0745  0.7291
21963SOL     OW68843   1.515   1.339   0.496  0.0855 -0.1278 -0.0694
21963SOL    HW168844   1.604   1.308   0.475  0.5643  0.1657  1.3935
21963SOL    HW268845   1.476   1.266   0.545 -0.5756 -0.3346 -0.8750
21964SOL     OW68846   5.720   7.931   1.561 -0.0125  0.7249  0.7869
21964SOL    HW168847   5.703   8.006   1.618  1.4951  1.0222  0.8881
21964SOL    HW268848   5.812   7.939   1.538 -0.4547  0.3230 -1.2998
21965SOL     OW68849   4.461   2.710   8.006  0.0384  0.4637  0.1262
21965SOL    HW168850   4.525   2.641   8.025 -0.6396 -0.5379 -1.0831
21965SOL    HW268851   4.424   2.732   8.091  3.3901  2.5687  1.2077
21966SOL     OW68852   9.524   5.608  10.187 -0.1486  0.1290 -0.0394
21966SOL    HW168853   9.592   5.668  10.157  1.8272 -1.0295  1.8099
21966SOL    HW268854   9.494   5.563  10.108  2.6101 -0.6205 -0.7724
21967SOL     OW68855   9.400   5.249   5.716 -0.1687  0.0533  0.0462
21967SOL    HW168856   9.340   5.226   5.787  0.6956  0.5018  0.9467
21967SOL    HW268857   9.392   5.344   5.708 -0.8169 -0.0766 -0.9828
21968SOL     OW68858   9.034   9.768   3.600 -0.5143  0.5050 -0.2263
21968SOL    HW168859   9.067   9.772   3.511 -0.8474 -0.7371 -0.4237
21968SOL    HW268860   9.094   9.709   3.645  0.1077  1.7177  0.5968
21969SOL     OW68861   8.648   7.967   7.937  0.3549 -0.2017  0.1754
21969SOL    HW168862   8.717   7.973   7.871 -2.4847 -0.6395 -3.1541
21969SOL    HW268863   8.651   7.877   7.968  0.9515 -0.3628 -0.3400
21970SOL     OW68864   8.197   1.933   6.574  0.3168  0.2614 -0.5588
21970SOL    HW168865   8.218   1.992   6.647  2.5338 -1.3404  0.2089
21970SOL    HW268866   8.178   1.849   6.616  1.0563 -0.5412 -1.7812
21971SOL     OW68867   0.149   6.937   4.212  0.1271 -0.0052 -0.1382
21971SOL    HW168868   0.091   7.013   4.207  1.5368  1.1248 -0.2088
21971SOL    HW268869   0.106   6.870   4.159 -0.4856  1.2282 -1.2732
21972SOL     OW68870   5.758   7.771   5.683 -0.6529 -0.3801 -0.2964
21972SOL    HW168871   5.796   7.689   5.653 -2.1189 -1.2746  0.1546
21972SOL    HW268872   5.663   7.757   5.675 -0.9374  1.1420  0.1132
21973SOL     OW68873   3.945   0.447   7.713 -0.2217  0.4939 -0.6990
21973SOL    HW168874   3.893   0.397   7.651  0.0659  0.5025 -0.9520
21973SOL    HW268875   4.003   0.500   7.658 -0.0757  0.6200 -0.4257
21974SOL     OW68876   0.444   2.090   0.001 -1.0384 -0.4995  0.1443
21974SOL    HW168877   0.498   2.125  -0.070  0.0231  0.8671  1.5550
21974SOL    HW268878   0.355   2.119  -0.019 -0.4634  1.5497  0.3102
21975SOL     OW68879   6.789  10.393   3.575  0.3341 -0.6271  0.1966
21975SOL    HW168880   6.694  10.377   3.570  0.2427  0.0860 -0.6937
21975SOL    HW268881   6.799  10.484   3.547  1.4567 -1.3069 -1.7853
21976SOL     OW68882   6.076   2.726  10.056 -0.2065 -0.1793  0.3455
21976SOL    HW168883   6.069   2.726   9.961 -1.0530  0.5312  0.3919
21976SOL    HW268884   6.048   2.814  10.082  2.1549  0.4274  1.1168
21977SOL     OW68885   0.219  10.461   0.826  0.2429  0.2746  0.7264
21977SOL    HW168886   0.244  10.370   0.842 -0.0417 -0.1825 -1.0929
21977SOL    HW268887   0.144  10.477   0.883  0.2497 -0.6720  1.0041
21978SOL     OW68888   6.616   8.901   2.771 -0.3932  0.3907 -0.0523
21978SOL    HW168889   6.665   8.831   2.728  0.1928 -0.1217  1.4076
21978SOL    HW268890   6.679   8.945   2.827 -1.4544  0.0008  1.5334
21979SOL     OW68891   6.180   8.110   8.916 -0.0369  0.4559 -0.0277
21979SOL    HW168892   6.130   8.069   8.846  1.2080 -1.0636 -0.0819
21979SOL    HW268893   6.147   8.200   8.919 -2.6200 -0.4085 -0.1271
21980SOL     OW68894   7.206   2.495   3.137 -0.4195  0.7636 -0.0088
21980SOL    HW168895   7.230   2.516   3.227 -0.0413  1.1463 -0.1953
21980SOL    HW268896   7.134   2.555   3.116  0.9913  2.2928 -0.7107
21981SOL     OW68897   6.038   0.325   7.646 -0.2262 -0.5970  1.0700
21981SOL    HW168898   6.070   0.415   7.645 -0.6133 -0.4583  0.9797
21981SOL    HW268899   5.942   0.333   7.646 -0.2646 -1.0120  0.7066
21982SOL     OW68900   8.567   7.041   3.993  0.5876  0.2215  0.0921
21982SOL    HW168901   8.575   7.094   4.072  0.6153 -0.8877  0.8440
21982SOL    HW268902   8.638   7.072   3.936  1.0062  0.5474  0.7857
21983SOL     OW68903  10.301   1.237   3.109  0.0890  0.4075  0.0012
21983SOL    HW168904  10.234   1.226   3.178  1.0762  0.8174  1.0519
21983SOL    HW268905  10.288   1.326   3.077  1.4686  1.2857  1.7178
21984SOL     OW68906   5.239  10.577   3.784 -0.1471  0.8280 -0.4359
21984SOL    HW168907   5.209  10.558   3.872 -0.0289  0.5034 -0.4663
21984SOL    HW268908   5.277  10.495   3.753 -0.4902  0.8409 -0.9114
21985SOL     OW68909   2.993   0.869   7.962 -0.3017 -0.1598 -0.1056
21985SOL    HW168910   3.043   0.904   7.888 -0.8991  0.8318 -0.0536
21985SOL    HW268911   2.945   0.945   7.997 -0.3974 -0.7117  0.9999
21986SOL     OW68912   8.606   9.403   5.322 -0.1801  0.0935 -0.1902
21986SOL    HW168913   8.695   9.372   5.309  1.0111  3.0212  0.0969
21986SOL    HW268914   8.571   9.350   5.393  1.6246 -0.5886  0.2251
21987SOL     OW68915   4.445   8.057   4.643  0.5982  0.0834  0.0251
21987SOL    HW168916   4.369   8.056   4.701 -0.7691  1.5025 -1.6077
21987SOL    HW268917   4.479   8.146   4.650  0.0268  0.4799 -1.7295
21988SOL     OW68918   8.957  10.393   4.467 -0.4600  0.0833 -0.2976
21988SOL    HW168919   8.881  10.438   4.430 -0.9619  0.1951  0.8327
21988SOL    HW268920   9.029  10.456   4.458 -0.9794  0.8162  0.5486
21989SOL     OW68921   6.056   2.793   1.426 -0.1052 -0.6116 -0.1377
21989SOL    HW168922   6.055   2.877   1.472  0.9824 -1.1956  0.9978
21989SOL    HW268923   6.029   2.815   1.336  0.9889  1.1051 -0.1000
21990SOL     OW68924   6.880   7.990   0.007 -0.4050  0.8527 -0.0591
21990SOL    HW168925   6.873   7.949  -0.080 -1.1558 -1.5146  1.0150
21990SOL    HW268926   6.790   8.017   0.027 -0.9588 -1.6364  1.2463
21991SOL     OW68927   7.842   2.713   3.883  0.1975  0.5461  0.0025
21991SOL    HW168928   7.748   2.706   3.868  0.0716  0.3243  0.8575
21991SOL    HW268929   7.858   2.658   3.960  1.1155  0.1304 -0.4735
21992SOL     OW68930   9.013   0.687   0.850  0.6789 -0.1835 -0.2436
21992SOL    HW168931   8.937   0.629   0.853  1.3079 -0.9945  2.3310
21992SOL    HW268932   8.983   0.768   0.892  1.1889 -0.5086  0.7877
21993SOL     OW68933   3.802   9.256   4.442  0.3156  0.4788  0.4732
21993SOL    HW168934   3.879   9.200   4.451  1.0094  0.7704 -2.5329
21993SOL    HW268935   3.736   9.217   4.499  2.0274 -0.9796  1.5480
21994SOL     OW68936   0.571   6.739  10.637  0.1378  0.1970 -0.0194
21994SOL    HW168937   0.563   6.731  10.542 -1.5045  1.6078 -0.0616
21994SOL    HW268938   0.589   6.832  10.652 -0.9732  0.2748  1.0613
21995SOL     OW68939   4.779   1.070   1.831 -0.3355 -0.1292 -0.0097
21995SOL    HW168940   4.702   1.095   1.883 -1.4747 -2.3636 -0.4825
21995SOL    HW268941   4.763   1.109   1.745  0.1827  1.2394  0.4855
21996SOL     OW68942   4.186   4.844   3.521  0.5301 -0.0778 -0.2575
21996SOL    HW168943   4.176   4.823   3.614  0.6236 -2.6122 -0.7614
21996SOL    HW268944   4.281   4.844   3.506  0.4838 -1.2323 -0.6431
21997SOL     OW68945   1.719  10.366   9.274 -0.6764 -0.2230  0.0993
21997SOL    HW168946   1.692  10.424   9.203 -0.0523 -0.4774 -0.3608
21997SOL    HW268947   1.783  10.418   9.324  0.0991 -0.5990 -0.4808
21998SOL     OW68948   4.185   3.294   5.933 -0.3224  0.5311  0.3374
21998SOL    HW168949   4.209   3.292   5.841 -0.0863 -1.8190  0.4001
21998SOL    HW268950   4.193   3.203   5.963 -0.4048  1.2122  2.6756
21999SOL     OW68951   4.701  10.399   5.606  0.1469 -0.2083  0.6723
21999SOL    HW168952   4.710  10.471   5.668 -0.6252  1.7236 -1.3205
21999SOL    HW268953   4.607  10.391   5.591  0.2780 -1.0547  0.2201
22000SOL     OW68954   6.407   9.374   9.291  0.2079 -0.4423 -0.3390
22000SOL    HW168955   6.501   9.370   9.272  0.4994  1.1228  0.5878
22000SOL    HW268956   6.389   9.467   9.304 -0.9972 -0.8942  1.7170
22001SOL     OW68957   1.517   5.137   5.867  0.4111 -0.1784 -0.5477
22001SOL    HW168958   1.545   5.183   5.945 -0.9537 -1.2969  0.6545
22001SOL    HW268959   1.479   5.205   5.811 -0.8811  0.3026  0.8575
22002SOL     OW68960   9.880   0.527   0.342 -0.3538  0.8808  0.4382
22002SOL    HW168961   9.825   0.458   0.380 -1.0294  0.9935 -0.3175
22002SOL    HW268962   9.908   0.579   0.418 -0.9063  0.5471  0.8790
22003SOL     OW68963   6.207   0.956   9.393 -0.2807  0.0539 -0.4248
22003SOL    HW168964   6.280   0.938   9.334  0.3729 -1.7929  0.8332
22003SOL    HW268965   6.154   0.876   9.391 -1.2595  0.6680  0.0595
22004SOL     OW68966   5.985   2.812   6.573 -0.0245 -0.3658  0.3190
22004SOL    HW168967   6.075   2.823   6.603 -0.0384 -0.3570  0.3559
22004SOL    HW268968   5.936   2.784   6.650 -0.3393  1.0047  0.6402
22005SOL     OW68969   8.844  10.581   1.970  0.2923  0.5731 -0.1320
22005SOL    HW168970   8.916  10.642   1.984 -0.1067  1.1040 -0.3380
22005SOL    HW268971   8.767  10.627   2.004 -0.2898  0.8811 -1.7658
22006SOL     OW68972   0.486   1.166   1.169  0.6647  0.0655 -0.0460
22006SOL    HW168973   0.402   1.132   1.197  0.9586 -0.7608 -0.1478
22006SOL    HW268974   0.549   1.127   1.230  0.9525  0.9499  0.2551
22007SOL     OW68975   0.274   1.554   7.202 -0.4961  0.5038  0.3060
22007SOL    HW168976   0.316   1.624   7.252  3.5754 -2.3734  1.4306
22007SOL    HW268977   0.273   1.587   7.112  2.5422  1.5715  0.5535
22008SOL     OW68978   6.278   1.408   0.606  0.0101 -0.0552  0.0899
22008SOL    HW168979   6.197   1.401   0.657 -1.1099 -2.0245 -1.7602
22008SOL    HW268980   6.254   1.464   0.531  0.5830 -0.0450 -0.0907
22009SOL     OW68981   9.287  10.363   4.853 -0.4441  0.3095  0.3823
22009SOL    HW168982   9.336  10.294   4.897 -0.1476  0.3723  0.1477
22009SOL    HW268983   9.246  10.320   4.778  1.1023  0.7206 -0.7476
22010SOL     OW68984   0.884  10.387   1.027  0.6065 -0.2509 -0.3802
22010SOL    HW168985   0.907  10.294   1.037  0.2776 -0.3716 -0.7207
22010SOL    HW268986   0.939  10.418   0.956  0.8910 -0.1177 -0.1071
22011SOL     OW68987   6.637   5.980   8.478 -1.0110 -0.3633 -0.4148
22011SOL    HW168988   6.694   5.971   8.555 -2.4634  0.9090  0.8716
22011SOL    HW268989   6.623   6.074   8.470 -1.2228 -0.5068 -2.0329
22012SOL     OW68990   5.489   3.470   1.705  0.1828  0.0321 -0.2125
22012SOL    HW168991   5.475   3.418   1.625  2.5026 -0.8617 -0.1017
22012SOL    HW268992   5.407   3.518   1.716 -0.5557 -0.5184 -2.6092
22013SOL     OW68993   3.129   8.226   6.070  0.0846  0.1769  0.1738
22013SOL    HW168994   3.127   8.229   5.975  1.4296  0.0910  0.1143
22013SOL    HW268995   3.143   8.133   6.090  2.4609  0.4852  0.3108
22014SOL     OW68996   8.689   5.940   2.617  0.2285 -0.1837  0.5859
22014SOL    HW168997   8.656   5.874   2.678  0.5176  0.9350  2.0002
22014SOL    HW268998   8.611   5.969   2.569 -0.0823 -0.7295  0.7451
22015SOL     OW68999   5.659   9.146   3.615  0.5087  0.1490 -0.0135
22015SOL    HW169000   5.583   9.179   3.568  1.5870  2.1802 -0.4668
22015SOL    HW269001   5.727   9.137   3.549  1.2902  0.5041  0.7155
22016SOL     OW69002   2.443   2.045   3.023  0.0975 -0.1075 -0.2286
22016SOL    HW169003   2.382   2.074   2.955  1.2598  0.9073 -0.8720
22016SOL    HW269004   2.450   2.120   3.082  0.9536 -0.1056 -0.3319
22017SOL     OW69005   6.732   0.736   0.870 -0.0321  0.1289  0.6513
22017SOL    HW169006   6.743   0.730   0.965  1.7975  0.2277  0.4926
22017SOL    HW269007   6.807   0.689   0.835 -1.8841 -1.8956 -0.8107
22018SOL     OW69008   7.893   8.816   0.356  0.2425  0.1162 -0.2004
22018SOL    HW169009   7.978   8.841   0.391  0.9439 -1.1075 -0.9748
22018SOL    HW269010   7.880   8.726   0.384 -0.5442  0.1044 -0.5629
22019SOL     OW69011   7.892   4.854   4.234  0.1945 -0.0499 -0.9430
22019SOL    HW169012   7.920   4.939   4.268 -1.5354  0.4302 -0.5788
22019SOL    HW269013   7.884   4.799   4.312 -0.9612  0.1898 -0.8641
22020SOL     OW69014   4.329   9.971   1.763 -0.2818  0.2658 -0.2256
22020SOL    HW169015   4.397  10.038   1.751  0.0236 -0.0012 -0.0078
22020SOL    HW269016   4.251  10.009   1.724 -0.4839  1.3725  1.1774
22021SOL     OW69017   4.384   0.617   5.771  0.7019  0.6041 -0.0031
22021SOL    HW169018   4.345   0.619   5.683  0.2583  1.8710  0.2061
22021SOL    HW269019   4.478   0.625   5.755  1.0140 -2.4883 -0.5112
22022SOL     OW69020   1.018   9.678   3.127  0.9951  0.0238 -0.4690
22022SOL    HW169021   0.989   9.604   3.180  1.4777  0.1833  0.0314
22022SOL    HW269022   1.058   9.638   3.050  0.7895 -0.2217 -0.4496
22023SOL     OW69023   1.169   2.413   5.903  0.3812 -0.0392 -0.1429
22023SOL    HW169024   1.105   2.377   5.842  0.8632  0.1055 -0.7461
22023SOL    HW269025   1.243   2.438   5.848 -0.1023  2.2881  0.1533
22024SOL     OW69026   1.362   1.386   7.086 -0.4541  0.9627 -0.6097
22024SOL    HW169027   1.424   1.384   7.159 -1.4306 -1.7750  0.2451
22024SOL    HW269028   1.403   1.445   7.022  1.2246  2.1246  1.4095
22025SOL     OW69029   4.150   7.188   0.214 -0.2833 -0.3820 -0.1946
22025SOL    HW169030   4.225   7.133   0.239 -0.6626 -1.9277 -2.2463
22025SOL    HW269031   4.123   7.229   0.296  1.1250 -1.8851  1.0995
22026SOL     OW69032   8.220   6.029   1.358 -0.2200 -0.3852 -0.3133
22026SOL    HW169033   8.187   6.080   1.432  0.9005  0.2374 -0.2157
22026SOL    HW269034   8.144   5.980   1.326 -0.6697 -0.8579  1.3963
22027SOL     OW69035   8.846   8.105   1.063 -0.2413  0.1113  0.0671
22027SOL    HW169036   8.885   8.170   1.121  2.5124 -0.8245 -0.5871
22027SOL    HW269037   8.766   8.077   1.108  1.3001  0.0529  3.0253
22028SOL     OW69038   4.675   6.197   3.930  0.0219 -0.0671  0.3908
22028SOL    HW169039   4.741   6.262   3.952  0.3181 -0.1883 -0.1258
22028SOL    HW269040   4.723   6.130   3.881 -0.9289  1.0870 -2.3083
22029SOL     OW69041   5.162   3.964   4.430 -0.1999  0.0188 -0.5208
22029SOL    HW169042   5.090   4.002   4.480  0.3806 -1.4645  1.5995
22029SOL    HW269043   5.231   4.030   4.434  0.1309 -0.3831  1.4509
22030SOL     OW69044   5.760   2.473   7.357 -0.3178  0.0536 -0.0811
22030SOL    HW169045   5.749   2.554   7.306  0.4718  0.7658  0.8472
22030SOL    HW269046   5.673   2.455   7.393 -1.1383 -0.9732 -2.3576
22031SOL     OW69047   1.792   1.311   4.675  0.4013 -0.4151 -0.1794
22031SOL    HW169048   1.845   1.296   4.754 -0.7352  0.6300  0.8315
22031SOL    HW269049   1.843   1.374   4.624 -0.0247  0.9580  1.0134
22032SOL     OW69050  10.448   2.363   1.226 -0.4814 -0.3090  0.2006
22032SOL    HW169051  10.478   2.453   1.214 -1.3281  0.1043  1.0491
22032SOL    HW269052  10.378   2.352   1.163 -1.0730 -0.0251  0.8006
22033SOL     OW69053   7.377   5.550   5.332  0.3561  0.0335 -0.3945
22033SOL    HW169054   7.335   5.516   5.411 -0.8041  3.6918  0.7775
22033SOL    HW269055   7.430   5.623   5.363  2.3826 -0.3366 -2.6996
22034SOL     OW69056   7.944   0.443   0.771  0.1858 -0.6728 -0.5214
22034SOL    HW169057   7.934   0.515   0.833  3.0674 -0.4314 -0.2265
22034SOL    HW269058   7.871   0.384   0.791  0.8007 -0.4627  2.9267
22035SOL     OW69059   2.099   3.145   6.238 -0.7551 -0.4881 -0.2098
22035SOL    HW169060   2.138   3.191   6.163 -0.3740 -0.3021  0.0953
22035SOL    HW269061   2.131   3.056   6.231  1.2613  0.0667  1.0415
22036SOL     OW69062   0.683  10.077   7.441  0.3820  0.0367  0.1908
22036SOL    HW169063   0.686  10.021   7.519 -0.2849 -0.0236  0.1715
22036SOL    HW269064   0.743  10.149   7.462 -0.6039  0.5934  1.2211
22037SOL     OW69065   7.326   5.876   9.830 -0.2555 -0.1668 -0.1501
22037SOL    HW169066   7.329   5.858   9.924  0.1902  0.4491 -0.0400
22037SOL    HW269067   7.409   5.842   9.797 -0.4736 -0.5133 -0.3514
22038SOL     OW69068   7.556   9.655   3.818  0.5871  0.3064 -0.1124
22038SOL    HW169069   7.623   9.607   3.867  0.3791  0.9118  0.7996
22038SOL    HW269070   7.542   9.603   3.738  2.3828  0.3397 -0.4924
22039SOL     OW69071   9.474   3.172   8.196  0.3065  0.0718 -0.1772
22039SOL    HW169072   9.514   3.256   8.177 -0.0913  0.3484  0.2092
22039SOL    HW269073   9.545   3.108   8.184  1.0532  0.6187  1.1972
22040SOL     OW69074   8.700   1.926   1.380 -0.1654  0.5442 -0.0028
22040SOL    HW169075   8.689   1.870   1.303 -0.2213 -0.7078  0.8842
22040SOL    HW269076   8.628   1.900   1.439 -0.2425  1.6132  0.4064
22041SOL     OW69077  10.317   7.274   1.184 -0.2427  0.0602  0.6124
22041SOL    HW169078  10.331   7.180   1.189 -0.6980 -0.1448 -1.0553
22041SOL    HW269079  10.404   7.311   1.170 -0.2043 -0.2466  0.0126
22042SOL     OW69080   8.198   6.634   6.101  0.6120 -0.6510 -0.1245
22042SOL    HW169081   8.105   6.655   6.092  0.6356 -0.5729 -0.1815
22042SOL    HW269082   8.234   6.647   6.013  0.8589  0.1751  0.0966
22043SOL     OW69083   9.924   5.210   9.742  0.1509 -0.5322 -0.1685
22043SOL    HW169084   9.913   5.232   9.834  0.7187 -1.1296  0.0472
22043SOL    HW269085   9.923   5.114   9.739  1.5661 -0.5528 -0.5865
22044SOL     OW69086   7.446   8.151   8.511 -0.5208  0.2299 -0.4584
22044SOL    HW169087   7.351   8.138   8.509 -0.4804 -0.4207  0.5502
22044SOL    HW269088   7.471   8.166   8.420 -1.1459 -3.1824 -1.3374
22045SOL     OW69089   8.323   6.304   2.453  0.1361  0.2406 -0.3316
22045SOL    HW169090   8.293   6.296   2.544 -1.4578  1.3333 -0.7142
22045SOL    HW269091   8.377   6.382   2.452 -1.1084  1.1348 -0.5828
22046SOL     OW69092   7.409   8.994   9.738 -0.4418 -0.1878  0.0550
22046SOL    HW169093   7.445   8.946   9.663  0.2804 -1.4871  1.1942
22046SOL    HW269094   7.326   8.951   9.757 -0.5503  0.0372  0.0883
22047SOL     OW69095   7.571   4.738   2.981  0.4214 -0.5361 -0.5338
22047SOL    HW169096   7.555   4.680   2.906 -0.0124  0.6540 -1.3849
22047SOL    HW269097   7.655   4.780   2.961  0.5990 -0.6575 -0.0491
22048SOL     OW69098   7.942   4.047   0.308  0.3394 -0.2512 -0.1372
22048SOL    HW169099   8.021   4.020   0.261  0.7047  1.2842 -0.4940
22048SOL    HW269100   7.911   3.968   0.351  2.6520 -0.7115  0.8421
22049SOL     OW69101   7.262   1.154   8.020  0.1432 -0.2396 -0.7438
22049SOL    HW169102   7.277   1.080   8.077 -1.3344  0.3447  0.4808
22049SOL    HW269103   7.283   1.231   8.073  1.8358  0.2645 -2.0427
22050SOL     OW69104  10.531   5.251   3.329 -0.4895  0.0963  0.2269
22050SOL    HW169105  10.443   5.260   3.292 -0.8881  2.8131  1.5930
22050SOL    HW269106  10.520   5.267   3.422  1.4446  0.5386  0.4239
22051SOL     OW69107   3.445   5.032   5.806 -0.2754 -0.8209  0.0514
22051SOL    HW169108   3.478   5.002   5.890 -2.7193  0.3389  1.5459
22051SOL    HW269109   3.408   4.954   5.765  1.0208 -1.4119 -0.0400
22052SOL     OW69110   5.473   7.105  10.441 -0.1776 -0.6241  0.2438
22052SOL    HW169111   5.475   7.047  10.517 -0.2323 -0.9367  0.0108
22052SOL    HW269112   5.407   7.171  10.462 -0.6688 -1.0937  0.1933
22053SOL     OW69113   0.942   6.679   5.717  0.2984 -0.0992 -0.1763
22053SOL    HW169114   0.954   6.591   5.683  0.8025 -0.4451  0.8462
22053SOL    HW269115   0.885   6.668   5.793  0.9143  0.3535  0.3670
22054SOL     OW69116   1.778   7.893   8.957  0.1610 -0.4816 -0.0861
22054SOL    HW169117   1.803   7.812   9.001  1.6095  0.5434  1.0619
22054SOL    HW269118   1.855   7.949   8.962 -1.4350  1.8027  1.0999
22055SOL     OW69119   2.080   1.548   3.361  0.0409 -0.2440  0.7363
22055SOL    HW169120   2.054   1.504   3.281  0.4318  2.0141 -0.7073
22055SOL    HW269121   2.163   1.507   3.385  2.2959  1.8801 -2.5894
22056SOL     OW69122   1.471   5.331   7.292  0.4260  0.0925 -0.4058
22056SOL    HW169123   1.471   5.394   7.220 -0.6931  0.2054 -0.3236
22056SOL    HW269124   1.385   5.340   7.333  0.3461 -1.2662 -0.2026
22057SOL     OW69125   6.430   3.854   0.012 -0.4534 -0.0123  0.5046
22057SOL    HW169126   6.392   3.841   0.099 -0.5422  0.7604  0.5858
22057SOL    HW269127   6.471   3.940   0.016  1.7689 -0.9993  0.5824
22058SOL     OW69128   0.219   7.039   4.870 -1.1395 -0.3343 -0.0744
22058SOL    HW169129   0.147   7.088   4.831  0.3410  0.6993 -1.6548
22058SOL    HW269130   0.283   7.106   4.896  0.5951 -1.3193 -1.5663
22059SOL     OW69131   8.060  10.112   6.092 -0.3632  0.2202  0.5575
22059SOL    HW169132   8.038  10.041   6.032  1.6712 -0.1430  0.1684
22059SOL    HW269133   8.011  10.188   6.059 -1.7328 -0.7027  0.3583
22060SOL     OW69134   4.616   6.300   7.031 -0.1166 -0.5934  0.3347
22060SOL    HW169135   4.594   6.272   6.942  0.2904  0.8428 -0.2493
22060SOL    HW269136   4.573   6.235   7.087  0.2238 -1.9622 -0.9006
22061SOL     OW69137  10.619   7.346   6.796  0.4033  0.3804 -0.4013
22061SOL    HW169138  10.533   7.380   6.770  0.3832  0.5565 -0.1089
22061SOL    HW269139  10.662   7.324   6.713 -0.5703 -1.3443 -0.4913
22062SOL     OW69140   1.163   3.284   2.600  0.3764 -0.7087 -0.0774
22062SOL    HW169141   1.198   3.215   2.656  0.1441 -0.9942 -0.2815
22062SOL    HW269142   1.230   3.352   2.601  0.5404 -0.8738  0.2440
22063SOL     OW69143   8.127   3.271   8.329  0.1126 -1.1187 -0.5060
22063SOL    HW169144   8.052   3.258   8.272  0.1307 -0.7767 -0.6063
22063SOL    HW269145   8.091   3.305   8.411  0.1770 -0.7478 -0.6288
22064SOL     OW69146   8.054   5.363   7.256  0.6852  0.3804 -0.6081
22064SOL    HW169147   8.131   5.364   7.200  1.5031 -1.0600  0.4089
22064SOL    HW269148   8.090   5.355   7.345 -0.5894  1.6139  0.0479
22065SOL     OW69149   8.571   2.277   8.587 -0.1447  0.3488  0.1194
22065SOL    HW169150   8.547   2.341   8.654 -2.8713  1.3399 -1.6127
22065SOL    HW269151   8.563   2.192   8.630  2.7537  1.0112  2.2402
22066SOL     OW69152  10.157   2.139   5.035 -0.2937  0.0341 -0.4092
22066SOL    HW169153  10.088   2.115   4.974 -1.3295  1.1001  0.2945
22066SOL    HW269154  10.236   2.145   4.981 -0.9047 -0.4169 -1.3717
22067SOL     OW69155   4.144   9.619   0.946 -0.4760 -0.1132 -0.4823
22067SOL    HW169156   4.105   9.614   0.859 -1.8237  0.5629  0.0752
22067SOL    HW269157   4.100   9.550   0.996  0.8332 -1.0155 -0.5155
22068SOL     OW69158   3.422   2.074   5.471 -0.3066  0.5779 -0.2849
22068SOL    HW169159   3.381   2.031   5.546  0.1630  0.6215  0.0068
22068SOL    HW269160   3.356   2.136   5.439 -1.3986 -1.0629 -1.3669
22069SOL     OW69161   4.158   1.905   1.232  0.2637  0.2020  0.3046
22069SOL    HW169162   4.243   1.922   1.191 -1.0114  1.4574 -2.0268
22069SOL    HW269163   4.116   1.990   1.237 -0.7928 -0.3582  1.6663
22070SOL     OW69164   3.501   1.335  10.533 -0.5233  0.9079 -0.7788
22070SOL    HW169165   3.569   1.307  10.471 -1.0815  2.0782 -1.9539
22070SOL    HW269166   3.547   1.395  10.592  0.0974 -0.4924  0.2174
22071SOL     OW69167   0.286   0.120   4.487  0.2156  0.7306  0.3468
22071SOL    HW169168   0.201   0.077   4.475 -0.5391  1.7530  1.7532
22071SOL    HW269169   0.267   0.195   4.543  1.9432  1.3920  0.0980
22072SOL     OW69170   5.364  10.419   1.854  0.1560  0.1325  0.0570
22072SOL    HW169171   5.418  10.372   1.790 -0.1680 -0.2036  0.0293
22072SOL    HW269172   5.279  10.427   1.811  0.1432  0.5482  0.1537
22073SOL     OW69173   9.320   5.094   6.722 -0.2978  0.4590 -0.4434
22073SOL    HW169174   9.344   5.008   6.686 -1.3793 -0.0164 -0.0918
22073SOL    HW269175   9.271   5.136   6.652 -1.6036 -0.0941  0.0940
22074SOL     OW69176   8.137   6.059   5.604 -0.3623 -0.2291 -0.0147
22074SOL    HW169177   8.220   6.051   5.558  0.4467  0.7964  1.1833
22074SOL    HW269178   8.138   6.147   5.640 -1.0373 -0.8880  1.7340
22075SOL     OW69179   8.636   7.864   7.254 -0.3703 -0.6434  0.7429
22075SOL    HW169180   8.587   7.785   7.232 -2.1263 -0.1796  2.6110
22075SOL    HW269181   8.651   7.857   7.349 -0.7186  1.2941  0.9806
22076SOL     OW69182   7.986   5.522   1.415 -0.5614  0.4059 -0.5823
22076SOL    HW169183   7.950   5.497   1.330  1.2232 -1.5196 -0.8280
22076SOL    HW269184   8.073   5.557   1.396 -0.2111  0.1211  0.4341
22077SOL     OW69185   6.444   7.538   7.755 -0.0911 -0.0208  0.6201
22077SOL    HW169186   6.473   7.537   7.663 -0.1577  0.6985  0.5830
22077SOL    HW269187   6.517   7.578   7.803  0.4560 -1.5092  1.0823
22078SOL     OW69188   3.323  10.417   7.686  0.0796  1.1747 -0.4011
22078SOL    HW169189   3.336  10.452   7.774  0.2768 -1.0647  0.5367
22078SOL    HW269190   3.228  10.414   7.675 -0.0701 -1.0060  0.8869
22079SOL     OW69191   3.201   1.654   5.613  0.7377  0.1624  0.3458
22079SOL    HW169192   3.233   1.711   5.543  2.3846 -0.5523  0.4792
22079SOL    HW269193   3.216   1.703   5.693  0.8200  0.1260  0.3530
22080SOL     OW69194   6.374   5.847   5.269 -0.1913 -0.3044 -0.6058
22080SOL    HW169195   6.294   5.899   5.259 -0.4615  0.2182  2.9951
22080SOL    HW269196   6.351   5.762   5.231 -1.9467  0.2690 -0.9498
22081SOL     OW69197   3.281   4.541   5.421 -0.2807  0.1679 -0.3522
22081SOL    HW169198   3.319   4.626   5.441  0.2524 -0.3489  0.9822
22081SOL    HW269199   3.357   4.481   5.420 -0.6745 -0.3321 -0.9868
22082SOL     OW69200  10.294   7.749   7.644  0.6586  0.3377 -0.5380
22082SOL    HW169201  10.390   7.750   7.640  0.7103  1.6055  0.4362
22082SOL    HW269202  10.269   7.673   7.591  2.1677  0.3559 -1.3311
22083SOL     OW69203   3.592   3.549   4.801  0.2062  0.1556  0.0775
22083SOL    HW169204   3.548   3.545   4.716  1.1219  1.6175 -0.5155
22083SOL    HW269205   3.660   3.482   4.797 -0.0298 -0.0715 -0.1723
22084SOL     OW69206   0.450   2.898   3.874  0.5730  0.1245 -0.1801
22084SOL    HW169207   0.383   2.861   3.816  0.9436  1.7248 -1.7034
22084SOL    HW269208   0.529   2.902   3.821  1.2535  0.5328  0.8273
22085SOL     OW69209   8.905   6.063   9.433 -0.0684 -0.0970  0.2845
22085SOL    HW169210   8.962   6.081   9.359 -0.2267  0.4381  0.2832
22085SOL    HW269211   8.931   6.128   9.499  0.6383 -1.0869  1.0227
22086SOL     OW69212  10.101   1.543  10.462 -0.0385  0.4672  0.0197
22086SOL    HW169213  10.073   1.619  10.513 -2.7606 -0.1563 -0.3967
22086SOL    HW269214  10.120   1.476  10.528 -0.5450  0.6139  0.3276
22087SOL     OW69215   6.128   0.712   2.176  0.2375 -0.0860 -0.2765
22087SOL    HW169216   6.214   0.751   2.190  0.7829 -1.8104  1.9220
22087SOL    HW269217   6.072   0.751   2.243  0.0301 -0.8839  0.0336
22088SOL     OW69218   7.081   8.714   1.256  0.0362  0.3275 -0.0488
22088SOL    HW169219   7.124   8.710   1.170 -0.2956 -0.3130 -0.1856
22088SOL    HW269220   7.114   8.637   1.302  0.7521  1.0417  0.6605
22089SOL     OW69221   6.872   7.129   6.143  0.6251  0.3081  0.2206
22089SOL    HW169222   6.946   7.172   6.099  1.0035  1.1941  1.6607
22089SOL    HW269223   6.831   7.198   6.195  0.6832 -0.8419  1.8764
22090SOL     OW69224   3.772   7.217   9.656 -0.0957  0.2133 -0.6466
22090SOL    HW169225   3.688   7.212   9.702 -0.1247 -0.8727 -0.7729
22090SOL    HW269226   3.825   7.148   9.697  0.3653  0.1869 -1.2714
22091SOL     OW69227   6.518   1.587   6.758  0.1787  0.4219 -0.2506
22091SOL    HW169228   6.451   1.610   6.823  0.2984  0.1144 -0.0162
22091SOL    HW269229   6.515   1.492   6.753  1.4237  0.3052  0.6676
22092SOL     OW69230   7.949   9.711   8.979 -0.3945 -0.1845 -0.0007
22092SOL    HW169231   7.954   9.618   8.955  0.1260 -0.1572 -0.0146
22092SOL    HW269232   7.963   9.757   8.897  1.2995 -0.0901  0.2997
22093SOL     OW69233   9.304   5.389   1.038 -0.5575 -0.4951  0.4027
22093SOL    HW169234   9.285   5.392   0.945  0.6715  1.2922  0.1509
22093SOL    HW269235   9.387   5.343   1.045  1.5769  2.9511  0.0689
22094SOL     OW69236   0.519   0.486   5.375  0.0835 -0.3462 -0.3143
22094SOL    HW169237   0.566   0.539   5.311 -1.9095  1.8082 -0.1364
22094SOL    HW269238   0.552   0.516   5.460 -1.1201  0.7527 -0.2093
22095SOL     OW69239   4.349  10.681   3.206 -0.0485 -0.2170 -0.1617
22095SOL    HW169240   4.362  10.594   3.168  0.6077  0.2094 -0.9654
22095SOL    HW269241   4.277  10.719   3.155  1.4448  0.7135 -1.7198
22096SOL     OW69242   3.899  10.304   0.465 -0.0611 -0.5675 -0.0499
22096SOL    HW169243   3.858  10.384   0.433  0.6631 -0.5083 -0.8698
22096SOL    HW269244   3.922  10.255   0.386  0.1441 -1.2538  0.4227
22097SOL     OW69245   1.346   5.028   1.530  0.0736  0.3343 -0.3081
22097SOL    HW169246   1.288   5.065   1.597  0.4193  4.2993 -1.9178
22097SOL    HW269247   1.286   4.993   1.464 -0.3699  0.0325  0.2486
22098SOL     OW69248  10.138   0.839   3.999 -0.2928 -0.1370  0.1014
22098SOL    HW169249  10.218   0.879   4.035 -2.4863  1.7022  3.5031
22098SOL    HW269250  10.073   0.850   4.069 -2.6714 -4.7483 -1.0143
22099SOL     OW69251  10.193   7.176   3.937 -0.3355 -0.4828  0.0762
22099SOL    HW169252  10.167   7.152   4.026 -2.8507 -0.5747 -0.5889
22099SOL    HW269253  10.148   7.260   3.921  0.0420 -0.4882 -1.0979
22100SOL     OW69254   6.887   9.126   0.067 -0.4490  0.4225 -0.0940
22100SOL    HW169255   6.912   9.200   0.013 -0.4474  0.7814  0.3966
22100SOL    HW269256   6.937   9.052   0.032 -1.7829  0.2507 -1.7391
22101SOL     OW69257   2.527   5.204   9.713  0.4625 -0.2640  0.2709
22101SOL    HW169258   2.472   5.281   9.698 -3.3932 -2.6916  0.4223
22101SOL    HW269259   2.587   5.230   9.783 -0.2198  2.7414 -0.1307
22102SOL     OW69260   7.977   6.339   0.908 -0.1129 -0.0116  0.3480
22102SOL    HW169261   7.992   6.430   0.931  1.6604  0.0260 -0.7217
22102SOL    HW269262   7.989   6.291   0.990 -3.2972  0.8127  1.4410
22103SOL     OW69263   6.970   1.866   3.231 -0.3594 -0.6429 -0.6780
22103SOL    HW169264   6.945   1.774   3.226  0.6960 -0.9300 -0.8290
22103SOL    HW269265   7.047   1.873   3.175  0.4103  0.0355  0.4227
22104SOL     OW69266   5.486   0.726   1.389 -0.4597  0.3106  0.2587
22104SOL    HW169267   5.554   0.793   1.392 -0.4167  0.2341  1.1315
22104SOL    HW269268   5.505   0.677   1.309 -0.2770  1.1084 -0.1967
22105SOL     OW69269   4.851   1.751   5.162 -0.2997  0.0573  0.3580
22105SOL    HW169270   4.843   1.665   5.121 -1.7786 -0.1923  1.0826
22105SOL    HW269271   4.850   1.733   5.256  1.9718  0.6935  0.5496
22106SOL     OW69272   1.599   1.812   3.976 -0.0748 -0.5695  0.1531
22106SOL    HW169273   1.598   1.857   4.061 -1.5323  0.8570 -0.5540
22106SOL    HW269274   1.506   1.809   3.951  0.4164 -0.0349 -1.8393
22107SOL     OW69275   8.550   4.239   1.511  0.0659  0.2835 -0.2260
22107SOL    HW169276   8.519   4.259   1.423  0.5725  1.2536 -0.1940
22107SOL    HW269277   8.504   4.158   1.534 -0.6863  0.4498 -1.0586
22108SOL     OW69278   0.656   4.338   8.406  0.5925  0.2436 -0.1162
22108SOL    HW169279   0.688   4.427   8.388  0.3380  0.7193  1.6491
22108SOL    HW269280   0.598   4.318   8.332 -0.4997  2.1394  0.1619
22109SOL     OW69281   0.098   0.503   9.453  0.2931  0.1872 -0.1190
22109SOL    HW169282   0.097   0.584   9.504  1.4715 -0.2171  0.5748
22109SOL    HW269283   0.017   0.506   9.402 -1.3136  0.2441  2.3068
22110SOL     OW69284   6.903   9.448   3.407  0.0907 -0.0270 -0.3898
22110SOL    HW169285   6.864   9.536   3.404 -0.4990 -0.2666  0.0433
22110SOL    HW269286   6.909   9.421   3.316  0.1045  0.3927 -0.5174
22111SOL     OW69287   6.669   5.514   5.268  0.0595  0.1705 -0.2480
22111SOL    HW169288   6.575   5.509   5.254 -0.2962  0.8725  1.5965
22111SOL    HW269289   6.696   5.592   5.219 -0.9721  2.0617  2.0203
22112SOL     OW69290   8.039   5.871   5.176  0.1965  0.1471 -0.1714
22112SOL    HW169291   8.038   5.912   5.263  1.3260 -1.2284  0.5405
22112SOL    HW269292   7.947   5.859   5.154 -0.1098  0.3686  0.9179
22113SOL     OW69293   8.487   5.896   5.697  0.3842 -0.0627  0.4683
22113SOL    HW169294   8.581   5.880   5.695  0.3225 -0.8628  2.1341
22113SOL    HW269295   8.477   5.986   5.665  1.6324 -0.2347 -0.4516
22114SOL     OW69296   4.452   6.308   5.703  0.6089 -0.2227 -0.0581
22114SOL    HW169297   4.531   6.279   5.658  0.4717 -0.1465 -0.3509
22114SOL    HW269298   4.436   6.396   5.668  0.6971 -0.0233  0.3952
22115SOL     OW69299   3.927   5.663   7.422  0.6786 -0.2960  0.2473
22115SOL    HW169300   4.012   5.703   7.438  1.2219 -1.2439 -0.1917
22115SOL    HW269301   3.885   5.661   7.508  0.7792  0.8543  0.3394
22116SOL     OW69302   8.298   4.765   3.866  0.2785  0.4187  0.0460
22116SOL    HW169303   8.291   4.828   3.794  0.1490  1.2523  0.7668
22116SOL    HW269304   8.219   4.712   3.859  0.1455  0.6544 -0.2760
22117SOL     OW69305   1.246   8.424   0.608 -0.0795  0.2297  0.2199
22117SOL    HW169306   1.180   8.434   0.676 -1.8432 -2.1305 -1.0129
22117SOL    HW269307   1.306   8.358   0.642 -0.9174 -0.8927 -0.4049
22118SOL     OW69308   4.326   9.649   4.282 -0.1983 -0.2896 -0.4495
22118SOL    HW169309   4.259   9.631   4.216  0.9031 -1.9053 -1.1936
22118SOL    HW269310   4.319   9.743   4.298 -2.1292 -0.2940 -1.0504
22119SOL     OW69311   3.903   8.818   6.683  0.1047  0.0221  0.0803
22119SOL    HW169312   3.950   8.811   6.600 -0.3370 -0.7290 -0.1155
22119SOL    HW269313   3.856   8.902   6.676  2.0747  1.2314  0.6558
22120SOL     OW69314   8.349   8.424   4.966 -0.5372 -0.0753  0.4119
22120SOL    HW169315   8.404   8.369   5.022 -1.1167 -2.1655 -0.9542
22120SOL    HW269316   8.293   8.472   5.027  0.7398 -0.1314  1.7021
22121SOL     OW69317   4.458  10.309   2.735  0.3529 -0.0118  0.0861
22121SOL    HW169318   4.502  10.324   2.652 -2.3735  2.7145 -1.0463
22121SOL    HW269319   4.487  10.382   2.791 -0.6047  0.2520  0.2504
22122SOL     OW69320   4.563   7.094   0.096 -0.1825  0.5216  0.9653
22122SOL    HW169321   4.627   7.087   0.025 -1.6823 -1.1599 -0.2829
22122SOL    HW269322   4.538   7.186   0.097 -0.1167  0.5802 -0.6859
22123SOL     OW69323   8.274   9.520   2.468 -0.5741 -0.5101 -0.8449
22123SOL    HW169324   8.353   9.564   2.437 -0.1611 -0.6661 -0.0314
22123SOL    HW269325   8.240   9.577   2.536  1.4871 -2.6272  2.2204
22124SOL     OW69326   4.802   8.284   2.629 -0.0892 -0.6205 -0.2886
22124SOL    HW169327   4.805   8.349   2.698  0.6160 -0.4905 -0.4410
22124SOL    HW269328   4.796   8.200   2.674  2.0596 -0.6722  0.0006
22125SOL     OW69329   1.804   9.841   6.772 -0.4440  0.4285  0.5309
22125SOL    HW169330   1.786   9.862   6.864  0.8641  0.4407  0.8013
22125SOL    HW269331   1.858   9.762   6.776 -0.2333  0.5322 -0.2256
22126SOL     OW69332   0.303   3.551   9.938  0.3439  0.0610  0.3490
22126SOL    HW169333   0.248   3.495   9.993 -1.2692  0.6737 -0.5823
22126SOL    HW269334   0.248   3.571   9.862  1.2181  2.1428  0.2133
22127SOL     OW69335   6.979  10.531   0.923  0.3671 -0.4923  0.3506
22127SOL    HW169336   6.929  10.452   0.904 -0.8175  0.4651 -0.7248
22127SOL    HW269337   6.925  10.603   0.889  1.6183  0.7471  0.8516
22128SOL     OW69338   4.096   9.748   7.082  0.2182  0.2505  0.3328
22128SOL    HW169339   4.056   9.676   7.031  0.4923  0.3034  0.0400
22128SOL    HW269340   4.125   9.706   7.163  1.0570 -0.1353 -0.1512
22129SOL     OW69341   1.348   2.474   7.771  0.4955 -0.5859 -0.1246
22129SOL    HW169342   1.321   2.563   7.795  0.0598  0.1247 -2.9143
22129SOL    HW269343   1.286   2.418   7.817 -0.6483  0.6599 -0.0727
22130SOL     OW69344   4.671   2.170   1.110 -0.8583  0.1499  0.3043
22130SOL    HW169345   4.665   2.265   1.122  2.5659  0.4038  0.9647
22130SOL    HW269346   4.670   2.158   1.015  1.7463  1.2832  0.0336
22131SOL     OW69347   8.993   8.530   4.736  0.5845 -0.5691 -0.0515
22131SOL    HW169348   8.933   8.529   4.661 -1.5631 -0.7099  1.5663
22131SOL    HW269349   9.043   8.449   4.728 -0.4874 -1.1965 -0.6884
22132SOL     OW69350   5.426   9.825   4.891 -0.4162  0.0100 -0.6659
22132SOL    HW169351   5.359   9.758   4.876 -0.8590  0.3944 -0.4451
22132SOL    HW269352   5.401   9.897   4.833  0.2698 -0.1562 -1.1833
22133SOL     OW69353  10.693   8.487   7.649 -0.1678  0.1210 -0.5707
22133SOL    HW169354  10.778   8.523   7.621 -0.2722 -0.8254 -2.2610
22133SOL    HW269355  10.711   8.448   7.734  0.8192  0.8887 -0.3996
22134SOL     OW69356   5.044   0.448  10.527 -0.3834 -0.2940  0.5444
22134SOL    HW169357   5.008   0.398  10.454  0.0565 -0.5418  0.4948
22134SOL    HW269358   4.968   0.493  10.565 -0.6723 -0.4641  0.1717
22135SOL     OW69359   7.730   1.033   7.087 -0.4857  0.7290  0.2674
22135SOL    HW169360   7.645   1.057   7.125 -1.2255  0.5560 -1.1868
22135SOL    HW269361   7.771   1.117   7.066 -0.3951  0.8081  0.7401
22136SOL     OW69362   8.170  10.432   6.835 -1.3321  0.1240 -0.0537
22136SOL    HW169363   8.225  10.432   6.914 -0.7414 -0.3564 -0.4541
22136SOL    HW269364   8.230  10.457   6.764 -1.2958 -1.6501 -0.7006
22137SOL     OW69365   5.537   8.086   7.626 -0.6940 -0.2225  0.5801
22137SOL    HW169366   5.514   8.178   7.614  0.4428 -0.0294 -0.3233
22137SOL    HW269367   5.453   8.042   7.642 -1.6372  0.5524 -1.7841
22138SOL     OW69368   2.183   4.891   9.229  0.5520 -0.0873 -0.5446
22138SOL    HW169369   2.240   4.816   9.216 -1.7108 -1.9111 -0.5866
22138SOL    HW269370   2.202   4.921   9.318  0.7461 -1.4033 -0.1221
22139SOL     OW69371   7.163   3.148   5.845  0.4657 -0.0535 -0.1213
22139SOL    HW169372   7.103   3.207   5.891 -0.6286 -0.6190 -0.7918
22139SOL    HW269373   7.231   3.206   5.810 -0.9445  0.9432 -1.3336
22140SOL     OW69374   5.695   8.831   6.220 -0.0677 -0.1456  0.0366
22140SOL    HW169375   5.659   8.744   6.204 -2.2731  0.8407 -0.7931
22140SOL    HW269376   5.760   8.843   6.151 -1.2133 -0.3853 -1.1309
22141SOL     OW69377   3.613   9.111   4.585  0.6088 -0.9698 -0.5846
22141SOL    HW169378   3.656   9.101   4.670  0.4256 -0.2104 -0.3956
22141SOL    HW269379   3.520   9.093   4.603  0.0006  2.2322  0.0803
22142SOL     OW69380   9.449   9.078   8.008 -0.0604 -0.1024  1.0731
22142SOL    HW169381   9.465   9.001   8.063 -0.5772  0.1939  1.6536
22142SOL    HW269382   9.536   9.118   7.997  0.3545 -1.2356  0.0368
22143SOL     OW69383   0.106   0.095   1.567  0.3737  0.2536  0.4779
22143SOL    HW169384   0.197   0.072   1.545 -0.1695 -0.3307 -1.3258
22143SOL    HW269385   0.111   0.127   1.657  2.4601  0.7943  0.2307
22144SOL     OW69386   6.604   1.774   1.288  0.2110 -0.0262  0.3330
22144SOL    HW169387   6.667   1.845   1.301  0.7857 -0.2620 -0.9640
22144SOL    HW269388   6.565   1.792   1.203 -0.7877 -0.4148  0.6932
22145SOL     OW69389   8.484   5.808   8.240  0.0539  0.2171 -0.4251
22145SOL    HW169390   8.522   5.893   8.265 -0.8584  0.4941  0.0916
22145SOL    HW269391   8.408   5.831   8.188  0.2122 -0.3157 -0.8953
22146SOL     OW69392   7.242   7.216   0.265  0.5739  0.0100 -0.3296
22146SOL    HW169393   7.166   7.251   0.219 -0.0801 -2.4105 -1.2795
22146SOL    HW269394   7.211   7.133   0.303  2.0682  0.2013  1.5043
22147SOL     OW69395   1.076  10.278   5.686 -0.4059 -0.2073  0.5247
22147SOL    HW169396   1.052  10.268   5.778  0.3654 -0.2847  0.7215
22147SOL    HW269397   1.018  10.217   5.640 -1.1918  0.2547  0.8897
22148SOL     OW69398   8.619   4.212   9.290  0.2685 -0.7091  0.0702
22148SOL    HW169399   8.658   4.272   9.226  1.9231 -1.4032  0.3906
22148SOL    HW269400   8.595   4.269   9.363 -0.3008 -0.1268 -0.5429
22149SOL     OW69401   5.688   6.035   2.843 -0.1991 -0.5224  0.6126
22149SOL    HW169402   5.634   6.096   2.892 -0.8556 -1.3420  0.9334
22149SOL    HW269403   5.778   6.057   2.867 -0.4974 -0.7729  2.0283
22150SOL     OW69404   0.074   7.604   0.707 -0.1471 -0.1275 -0.4469
22150SOL    HW169405  -0.018   7.610   0.734 -0.1693  1.6778 -0.8367
22150SOL    HW269406   0.096   7.692   0.675  2.0918 -0.1852  0.7757
22151SOL     OW69407   6.553   4.455   3.913 -0.4050  0.0201 -0.0775
22151SOL    HW169408   6.568   4.379   3.856  1.4043 -0.2542  0.7002
22151SOL    HW269409   6.515   4.418   3.993 -0.3515  0.0531 -0.0372
22152SOL     OW69410   6.609   4.915   4.889 -0.4786  0.1230  0.6746
22152SOL    HW169411   6.515   4.894   4.890 -0.6625  0.4550 -1.9389
22152SOL    HW269412   6.614   4.999   4.844  1.2097 -1.3532 -2.1972
22153SOL     OW69413   6.379   6.209   1.490 -0.0712 -0.3560  0.5585
22153SOL    HW169414   6.443   6.148   1.525 -2.1731 -2.6166  0.7913
22153SOL    HW269415   6.314   6.219   1.560 -0.4851  1.0661  0.0089
22154SOL     OW69416   9.165   5.120  10.044  0.4384  0.1430  0.0114
22154SOL    HW169417   9.234   5.131  10.109 -0.5521 -2.6702  1.7264
22154SOL    HW269418   9.085   5.145  10.090 -0.1182 -0.4275 -0.6231
22155SOL     OW69419   7.369   6.349   5.081 -0.0678 -0.0871 -0.1755
22155SOL    HW169420   7.310   6.423   5.067 -0.1486 -0.2117 -0.5081
22155SOL    HW269421   7.444   6.386   5.128 -1.5330 -0.4015  2.5633
22156SOL     OW69422   5.435   0.182   8.212  0.0744 -0.1968  0.1441
22156SOL    HW169423   5.377   0.136   8.273  0.1055  0.2812  0.5435
22156SOL    HW269424   5.500   0.225   8.268  0.5300 -0.3408 -0.2737
22157SOL     OW69425   3.795   0.892   8.961 -0.2439  0.2616 -0.0422
22157SOL    HW169426   3.708   0.921   8.984  0.3879  1.3326  1.0908
22157SOL    HW269427   3.827   0.956   8.897 -0.8089 -0.9459 -1.5869
22158SOL     OW69428  10.625   4.766   6.738 -0.1884 -0.1423  0.0523
22158SOL    HW169429  10.687   4.827   6.778 -0.5063  0.6484 -0.6291
22158SOL    HW269430  10.567   4.740   6.810  0.5768 -0.4340  0.5652
22159SOL     OW69431   7.924   4.405  10.503  0.5607  0.2102 -0.0063
22159SOL    HW169432   7.872   4.472  10.548 -1.1932 -0.9042 -0.2894
22159SOL    HW269433   7.884   4.322  10.529  0.7102 -0.5778 -2.1024
22160SOL     OW69434   5.636   5.202   1.953  0.7599  0.0456  0.5704
22160SOL    HW169435   5.607   5.222   1.864  0.1575 -0.9803  0.5206
22160SOL    HW269436   5.704   5.267   1.971  1.7403 -0.4453 -1.0839
22161SOL     OW69437   4.720   8.778   1.961 -0.0949 -0.5504  0.2095
22161SOL    HW169438   4.722   8.826   2.044 -1.0669 -1.5034  0.8241
22161SOL    HW269439   4.783   8.707   1.973  0.0256 -0.4807 -0.0094
22162SOL     OW69440   0.873   4.855   0.218 -0.0105  0.3495  0.2869
22162SOL    HW169441   0.886   4.828   0.128 -0.2936 -0.2454  0.4201
22162SOL    HW269442   0.957   4.837   0.261 -0.2848 -0.5800  0.4379
22163SOL     OW69443   0.843   5.078   3.108 -0.2518  0.0518  0.1783
22163SOL    HW169444   0.764   5.128   3.127 -0.7253 -0.3380 -0.6822
22163SOL    HW269445   0.899   5.091   3.184 -1.5110 -0.3914  1.2229
22164SOL     OW69446  10.083   7.524   1.690 -0.3006  0.1139  0.0693
22164SOL    HW169447  10.014   7.578   1.650 -0.3697  0.8320  1.1202
22164SOL    HW269448  10.036   7.458   1.740 -0.6170  3.5801  5.1219
22165SOL     OW69449  10.172   5.464   5.260 -0.4767 -0.3106  0.0979
22165SOL    HW169450  10.125   5.382   5.275 -1.3104  0.4606  1.9841
22165SOL    HW269451  10.228   5.474   5.337  0.6657  0.2155 -0.7796
22166SOL     OW69452   8.920   7.655   7.538  0.6701  0.3863 -0.0592
22166SOL    HW169453   8.976   7.644   7.615  1.4349 -1.2554 -0.7926
22166SOL    HW269454   8.977   7.694   7.472  0.9455 -1.1021 -0.7445
22167SOL     OW69455   6.364   7.515   0.511  0.6620  0.0305  0.0268
22167SOL    HW169456   6.392   7.606   0.516  1.0797 -0.0833 -0.1329
22167SOL    HW269457   6.376   7.491   0.419 -2.3176  0.6943 -0.6093
22168SOL     OW69458   4.017   7.002   9.943  0.3202  0.1476 -0.3039
22168SOL    HW169459   4.057   7.045  10.019  0.5491 -0.4613 -0.0703
22168SOL    HW269460   4.010   7.071   9.877  1.5113  0.3260 -0.2581
22169SOL     OW69461   7.896   6.951   4.374 -0.6791 -0.2592 -0.8476
22169SOL    HW169462   7.898   6.856   4.388  0.0121 -0.0593  0.4787
22169SOL    HW269463   7.880   6.988   4.461  1.9463  0.9554 -0.7950
22170SOL     OW69464   9.876   9.326   4.519 -0.6153 -0.3571  0.1383
22170SOL    HW169465   9.833   9.411   4.507  0.6814  0.9833  3.6595
22170SOL    HW269466   9.962   9.337   4.479 -0.6826 -0.2560  0.0207
22171SOL     OW69467   7.410   3.505  10.365 -0.0242 -0.1961 -0.5568
22171SOL    HW169468   7.371   3.497  10.452  1.3437 -1.4061 -0.0090
22171SOL    HW269469   7.343   3.470  10.305 -0.1487 -1.4354  0.2587
22172SOL     OW69470   3.995   8.618   3.054  0.6073 -0.0308  0.0380
22172SOL    HW169471   4.032   8.530   3.059 -0.0279 -0.2996  0.0981
22172SOL    HW269472   4.067   8.676   3.076  0.6896 -0.6167  1.3955
22173SOL     OW69473   1.415   3.964   8.392  0.3556 -0.0176 -0.0263
22173SOL    HW169474   1.476   4.017   8.341  1.0883 -1.1604 -0.3773
22173SOL    HW269475   1.468   3.925   8.461 -0.2271 -0.0679  0.4051
22174SOL     OW69476  10.318   8.443   2.347  0.2926  0.6891 -0.9571
22174SOL    HW169477  10.266   8.373   2.386 -0.5769  1.2769 -1.0562
22174SOL    HW269478  10.368   8.480   2.420  1.0935 -0.2942 -0.9708
22175SOL     OW69479   6.858   5.798   2.027  0.1396 -0.4271 -0.3534
22175SOL    HW169480   6.953   5.804   2.038  0.3563  0.7580 -2.3521
22175SOL    HW269481   6.843   5.707   2.000  0.6705 -0.6663  0.1371
22176SOL     OW69482  10.481   6.389   0.396  0.7162 -0.0204 -0.2038
22176SOL    HW169483  10.465   6.387   0.491 -0.2979 -1.4265 -0.3757
22176SOL    HW269484  10.545   6.460   0.384  0.0312  0.9212  1.3937
22177SOL     OW69485   3.994   8.472  10.433 -0.2296  0.2689 -0.1020
22177SOL    HW169486   3.955   8.552  10.396  1.0842  0.6574 -0.6921
22177SOL    HW269487   4.026   8.499  10.519  0.0649  0.3473 -0.2331
22178SOL     OW69488   0.586   5.314   1.860 -0.1891 -0.2098 -0.1868
22178SOL    HW169489   0.647   5.385   1.840  0.5993 -0.5849  0.7851
22178SOL    HW269490   0.617   5.241   1.806 -0.3673 -0.1223 -0.4092
22179SOL     OW69491   0.953   2.045   2.521  0.2412  0.3964  0.2653
22179SOL    HW169492   0.974   1.956   2.490 -1.1041  0.1934 -0.1107
22179SOL    HW269493   1.018   2.101   2.478 -0.5260 -0.0863 -1.6368
22180SOL     OW69494   3.211   0.452  10.560  0.5825 -0.1115 -0.0456
22180SOL    HW169495   3.277   0.396  10.520 -0.4503 -0.8356 -0.7773
22180SOL    HW269496   3.217   0.535  10.511  1.7263  0.2670  0.6738
22181SOL     OW69497   6.994   7.605   8.176  0.1205  0.4118  0.2701
22181SOL    HW169498   6.961   7.537   8.235  0.2561  2.0423  2.3506
22181SOL    HW269499   6.961   7.687   8.213  0.2985  1.5502 -1.9107
22182SOL     OW69500   0.286   5.465   3.322  0.2981 -0.0397  0.6715
22182SOL    HW169501   0.351   5.397   3.305  0.1715 -1.0467  3.5814
22182SOL    HW269502   0.202   5.419   3.320  0.0466  0.4007  0.9122
22183SOL     OW69503   6.016   5.583   9.893  0.2364 -0.9015  0.0840
22183SOL    HW169504   6.021   5.524   9.969 -0.3808 -2.6837 -1.1986
22183SOL    HW269505   6.100   5.572   9.849 -0.8600 -3.0090 -1.6473
22184SOL     OW69506   7.482   3.265   1.608 -0.0112  0.2574 -0.1324
22184SOL    HW169507   7.421   3.334   1.582 -0.9373 -0.7837 -0.8459
22184SOL    HW269508   7.510   3.225   1.526  2.1598  1.0937  0.1322
22185SOL     OW69509   4.989   5.748   3.389 -0.4357 -0.0283  0.4036
22185SOL    HW169510   5.023   5.663   3.363 -0.5322 -0.2161  0.8826
22185SOL    HW269511   4.914   5.763   3.332 -1.2997 -0.9194  1.2669
22186SOL     OW69512   6.788   8.612   2.935 -0.7308  0.4017 -0.0409
22186SOL    HW169513   6.760   8.615   2.843 -3.0235  0.1424  0.6011
22186SOL    HW269514   6.707   8.617   2.985 -0.0517 -3.9189  1.9437
22187SOL     OW69515   0.535   5.625   9.279  0.0098  0.1807 -0.4547
22187SOL    HW169516   0.512   5.590   9.365 -0.7557  0.1353 -0.6682
22187SOL    HW269517   0.528   5.550   9.220  0.4261  0.2363 -0.5749
22188SOL     OW69518   1.254   0.414   2.062 -0.1256 -0.4527  1.2064
22188SOL    HW169519   1.319   0.362   2.013 -1.6416 -0.0815 -1.3582
22188SOL    HW269520   1.275   0.505   2.041 -2.7867 -0.3270 -1.8114
22189SOL     OW69521   4.551   3.353   9.706  0.1363 -0.2162  0.0614
22189SOL    HW169522   4.637   3.310   9.701 -0.4417 -2.0338  3.1479
22189SOL    HW269523   4.519   3.354   9.616  1.8039 -2.9657 -0.6687
22190SOL     OW69524   1.403   9.735   5.475  0.3038  0.3064  1.1471
22190SOL    HW169525   1.467   9.796   5.438 -1.6571  2.1472  0.6089
22190SOL    HW269526   1.381   9.676   5.403 -0.4921  1.3236  0.5297
22191SOL     OW69527   1.129   5.742   0.176  0.2512 -0.4700 -0.0490
22191SOL    HW169528   1.122   5.648   0.157  0.8650 -0.1910 -1.8127
22191SOL    HW269529   1.221   5.756   0.197  0.7010  0.0843 -2.1390
22192SOL     OW69530   0.692   6.748   3.151  0.6261  0.0115 -0.0725
22192SOL    HW169531   0.766   6.805   3.128 -0.0857  0.8864 -0.2705
22192SOL    HW269532   0.640   6.800   3.212  0.0813 -0.5226 -0.0726
22193SOL     OW69533   1.484   8.911   6.857 -0.5843  0.2481  0.6387
22193SOL    HW169534   1.575   8.888   6.874 -0.1239  1.2096 -0.3975
22193SOL    HW269535   1.464   8.977   6.923 -0.0924  0.9996  0.0562
22194SOL     OW69536   5.185   9.705   4.858 -0.0358  0.9962  0.0382
22194SOL    HW169537   5.162   9.696   4.765 -0.0645 -1.7144  0.2305
22194SOL    HW269538   5.102   9.727   4.901 -0.3704  0.5764 -0.3809
22195SOL     OW69539   1.686   7.600   8.005 -0.0864 -0.0788 -0.2955
22195SOL    HW169540   1.745   7.590   8.080  1.1230  3.0272 -0.6864
22195SOL    HW269541   1.599   7.592   8.042  0.5072 -0.8943  1.0036
22196SOL     OW69542   5.681   8.011   2.609  0.3477 -0.0227  0.3866
22196SOL    HW169543   5.700   8.008   2.516 -1.2440 -1.0286  0.0572
22196SOL    HW269544   5.621   8.085   2.620 -0.9219 -0.9908  0.2738
22197SOL     OW69545   4.091   0.003   2.143 -0.1107  0.5224 -0.3034
22197SOL    HW169546   4.158   0.071   2.137 -0.8226  1.3696  0.8158
22197SOL    HW269547   4.059  -0.008   2.053 -0.3982  2.1242 -0.4248
22198SOL     OW69548   1.774   2.007   5.363  0.2190  0.1415  0.6748
22198SOL    HW169549   1.701   1.956   5.327  0.1446  1.0909 -0.5687
22198SOL    HW269550   1.803   2.062   5.291  1.3498  0.7068  1.5272
22199SOL     OW69551   4.584   7.236   8.894 -0.6317  0.6269 -0.2253
22199SOL    HW169552   4.502   7.226   8.845  0.0911  0.5201 -1.4727
22199SOL    HW269553   4.601   7.149   8.931  0.3887 -0.1994 -2.4413
22200SOL     OW69554   8.963   5.649   2.871 -0.2676  0.5491  0.1476
22200SOL    HW169555   8.967   5.742   2.892 -0.6600  1.0178 -1.6874
22200SOL    HW269556   8.995   5.643   2.781  3.2775 -1.5500  1.3251
22201SOL     OW69557   4.378   1.839   5.991 -0.2276 -0.1545  0.3208
22201SOL    HW169558   4.443   1.879   6.048  0.4140  0.0214 -0.5087
22201SOL    HW269559   4.354   1.908   5.929 -0.1374 -0.6403 -0.2668
22202SOL     OW69560   0.592   5.002   7.766 -0.2776 -0.0280  0.1022
22202SOL    HW169561   0.567   4.921   7.809  0.6105 -1.0365 -1.1845
22202SOL    HW269562   0.521   5.020   7.705 -1.1852  1.0078  1.3965
22203SOL     OW69563   0.133   9.187   9.373 -0.2480  0.4265  0.3318
22203SOL    HW169564   0.178   9.112   9.334  1.1305  1.4131 -0.0507
22203SOL    HW269565   0.135   9.255   9.305 -0.5252  1.1641  1.0376
22204SOL     OW69566   7.719   1.273   2.149 -0.7530 -0.6822 -0.0591
22204SOL    HW169567   7.782   1.287   2.078  0.4877 -0.1159  1.1284
22204SOL    HW269568   7.754   1.198   2.198 -0.8213 -0.1566  0.8052
22205SOL     OW69569   3.433   1.490   7.296 -0.0184 -0.0026  0.0709
22205SOL    HW169570   3.452   1.463   7.206 -0.9192 -1.3392  0.2418
22205SOL    HW269571   3.365   1.429   7.325 -1.4224  1.8569  0.8806
22206SOL     OW69572   2.524   1.313   4.542  0.0110 -0.3721 -0.0904
22206SOL    HW169573   2.431   1.293   4.534 -0.2197  0.6522 -0.1302
22206SOL    HW269574   2.561   1.287   4.458  0.0652 -2.2217  0.4580
22207SOL     OW69575   1.258   2.658   2.048 -0.3685 -0.6984 -0.1271
22207SOL    HW169576   1.297   2.586   2.096  0.5080  0.0355  0.3011
22207SOL    HW269577   1.165   2.639   2.046 -0.0488 -2.3604 -0.9282
22208SOL     OW69578   7.448   8.933   4.217  0.2256 -0.2859  0.1469
22208SOL    HW169579   7.517   8.930   4.151  0.2803  0.9127  0.1201
22208SOL    HW269580   7.446   8.845   4.255  0.8384 -0.7137 -0.7855
22209SOL     OW69581   8.122  10.258   5.387 -0.2338  0.4147 -0.2805
22209SOL    HW169582   8.193  10.305   5.344 -0.0645 -0.8361 -1.4564
22209SOL    HW269583   8.114  10.298   5.473  1.9842  0.5110 -0.0812
22210SOL     OW69584   1.955   6.855   3.182 -0.4421 -0.0063  0.0559
22210SOL    HW169585   2.036   6.803   3.184 -0.3498  0.1169 -0.4805
22210SOL    HW269586   1.947   6.889   3.271  0.1631  0.0767  0.0841
22211SOL     OW69587   8.571   8.972   5.869 -0.1314  0.2626 -0.1591
22211SOL    HW169588   8.659   8.945   5.896  0.1835  0.1756 -1.2561
22211SOL    HW269589   8.576   8.982   5.774 -0.9008  1.7469 -0.0746
22212SOL     OW69590   5.275   9.624   9.605 -0.5488  0.8223  0.1760
22212SOL    HW169591   5.248   9.533   9.602  0.8803  0.3597  0.5212
22212SOL    HW269592   5.226   9.666   9.534 -0.7247 -0.3566 -0.4261
22213SOL     OW69593   2.570   5.279   1.603 -0.3713 -0.3475  0.3356
22213SOL    HW169594   2.649   5.299   1.653  0.4638 -0.7149 -0.8015
22213SOL    HW269595   2.531   5.365   1.584 -0.3670 -0.1765  1.0587
22214SOL     OW69596   7.913   6.213   2.329  0.2205 -0.0263  0.1273
22214SOL    HW169597   7.959   6.207   2.413 -0.3730  0.8482  0.5373
22214SOL    HW269598   7.905   6.307   2.314  1.1396 -0.1693 -1.3851
22215SOL     OW69599   2.422   8.000   8.664  0.1570  0.3656 -0.2501
22215SOL    HW169600   2.388   7.915   8.637  1.9230  0.1022 -1.8051
22215SOL    HW269601   2.430   7.994   8.760 -2.2539 -0.2025 -0.0272
22216SOL     OW69602   1.231   8.155  10.003  0.5675 -0.1733 -0.7052
22216SOL    HW169603   1.297   8.094  10.036  1.0584  0.5418 -0.3274
22216SOL    HW269604   1.245   8.235  10.054  0.4747  0.5220 -1.7419
22217SOL     OW69605   4.908   6.236   5.668  0.2442  0.4844 -0.2703
22217SOL    HW169606   4.841   6.295   5.634  1.2026  1.3523 -0.7409
22217SOL    HW269607   4.943   6.281   5.745 -1.0246 -0.8762  1.1808
22218SOL     OW69608  10.406   1.800   8.897 -0.9426 -0.1586 -0.1631
22218SOL    HW169609  10.412   1.857   8.973 -1.0131 -0.8804  0.3873
22218SOL    HW269610  10.405   1.860   8.822  0.3458  0.5033  0.3283
22219SOL     OW69611   8.778   2.691   3.855 -0.6248  0.0790 -0.5096
22219SOL    HW169612   8.794   2.767   3.911  0.2851  0.7877 -1.6604
22219SOL    HW269613   8.744   2.730   3.774  0.5488 -0.6631 -1.3841
22220SOL     OW69614   5.099   6.218   4.443 -0.1546  0.1810 -0.1363
22220SOL    HW169615   5.182   6.255   4.473  0.4579  0.4625 -2.0288
22220SOL    HW269616   5.103   6.126   4.468  0.2331  0.4229  0.7355
22221SOL     OW69617   3.155   3.913   8.875 -0.2747  0.1891  0.5600
22221SOL    HW169618   3.225   3.956   8.827 -0.1592 -1.0476 -0.4492
22221SOL    HW269619   3.111   3.859   8.809 -1.6143  0.2501  1.3613
22222SOL     OW69620   9.600   1.404   1.987  0.1025 -0.2032 -0.0454
22222SOL    HW169621   9.509   1.411   1.956  0.5649  0.0443 -1.4201
22222SOL    HW269622   9.595   1.343   2.060 -1.1175 -0.5552 -0.3877
22223SOL     OW69623   1.321   4.225   2.797  0.3036  0.2958 -0.0414
22223SOL    HW169624   1.301   4.155   2.859  1.6925  1.7208  2.1654
22223SOL    HW269625   1.235   4.256   2.768 -0.3510 -1.3199  0.0648
22224SOL     OW69626   6.197  10.086   9.305 -0.3510 -0.0689  0.0196
22224SOL    HW169627   6.103  10.071   9.301 -0.2402 -0.5551 -2.3978
22224SOL    HW269628   6.211  10.167   9.256  0.3308  1.2446  2.2297
22225SOL     OW69629  10.546   5.804   9.276 -0.0517 -0.0473 -0.3257
22225SOL    HW169630  10.583   5.887   9.246  1.0376 -0.8422 -1.2078
22225SOL    HW269631  10.567   5.741   9.208 -3.5334 -0.4906 -1.2127
22226SOL     OW69632   9.841   1.676   1.432 -0.0569  0.3355  0.2215
22226SOL    HW169633   9.807   1.748   1.486  1.6178 -0.7335  2.9463
22226SOL    HW269634   9.784   1.674   1.356 -1.4219  3.2214  1.0234
22227SOL     OW69635   0.200   0.490   0.262 -0.0265  0.5578  0.2208
22227SOL    HW169636   0.210   0.468   0.169  0.8522  1.0586  0.1873
22227SOL    HW269637   0.114   0.533   0.267 -0.3755 -0.0678 -0.2379
22228SOL     OW69638   3.065  10.398   6.157 -0.7560  0.3635 -0.0317
22228SOL    HW169639   3.037  10.364   6.072 -1.2662  2.1752 -0.6335
22228SOL    HW269640   3.135  10.339   6.185 -2.1448 -1.6265 -0.5965
22229SOL     OW69641   3.926   9.541   3.125  0.3768  0.5805 -0.1417
22229SOL    HW169642   4.007   9.565   3.081  0.6153  1.2250  0.6275
22229SOL    HW269643   3.907   9.615   3.183  0.0135 -0.1921  0.7548
22230SOL     OW69644   3.721   3.067   4.878  0.4913 -0.5805 -0.4737
22230SOL    HW169645   3.685   2.980   4.889  1.8984 -1.3515 -1.5944
22230SOL    HW269646   3.655   3.115   4.827  0.5039 -1.5796 -1.4613
22231SOL     OW69647   9.064   8.629   7.323 -0.2648  0.0865 -0.0248
22231SOL    HW169648   8.971   8.643   7.343  0.0251  0.9999  0.7698
22231SOL    HW269649   9.101   8.596   7.404 -0.0916 -1.3943 -0.6734
22232SOL     OW69650   6.952   9.644   7.990  0.4928  0.0623 -0.1692
22232SOL    HW169651   6.872   9.684   8.023  1.7764  2.4040  0.3250
22232SOL    HW269652   6.995   9.609   8.068  0.7146  0.2616 -0.2010
22233SOL     OW69653   1.500   7.607   7.692 -0.1914 -0.3496 -0.1230
22233SOL    HW169654   1.494   7.668   7.618 -0.2045  0.6368  0.6747
22233SOL    HW269655   1.408   7.589   7.714 -0.2360  1.1624  1.0847
22234SOL     OW69656   1.130   7.547   8.141  0.2229  0.0002 -0.4491
22234SOL    HW169657   1.055   7.594   8.103  1.3114  1.3462 -1.0146
22234SOL    HW269658   1.122   7.561   8.235 -0.0694  0.4132 -0.5325
22235SOL     OW69659   2.974   7.206   9.399 -0.3116 -0.2642 -0.5396
22235SOL    HW169660   2.957   7.287   9.351  0.4640  0.2509  0.0265
22235SOL    HW269661   3.025   7.152   9.340  0.1537  0.1347 -0.5043
22236SOL     OW69662   7.121   7.232   3.401 -0.5950 -0.3344 -0.0057
22236SOL    HW169663   7.163   7.209   3.318  0.3334 -1.8041  0.8273
22236SOL    HW269664   7.036   7.188   3.398 -0.5803 -0.3528 -0.1854
22237SOL     OW69665   2.901   3.042   1.041 -0.4265  0.0544  0.1066
22237SOL    HW169666   2.878   3.028   1.133 -1.2429 -0.9794 -0.2374
22237SOL    HW269667   2.946   2.961   1.016 -2.0529 -0.5774 -0.9531
22238SOL     OW69668  10.656   7.129   3.966 -0.2771 -0.0668  0.5204
22238SOL    HW169669  10.722   7.059   3.964  0.8121  0.8844  1.6037
22238SOL    HW269670  10.572   7.083   3.973  0.4524 -1.2720  1.7534
22239SOL     OW69671   9.135   4.961   8.459  0.4993 -0.0710 -0.2870
22239SOL    HW169672   9.210   5.006   8.498 -0.5813  0.7054  1.0056
22239SOL    HW269673   9.085   4.929   8.535 -1.4769  1.1243 -1.0024
22240SOL     OW69674   7.553  10.598   6.360  0.0624 -0.5503 -0.6968
22240SOL    HW169675   7.491  10.527   6.347  0.7253 -1.1008 -0.9537
22240SOL    HW269676   7.626  10.577   6.301  0.7012 -0.1869 -0.0512
22241SOL     OW69677   0.059   9.639   0.394 -0.4355  0.1607  0.1653
22241SOL    HW169678   0.081   9.585   0.470  0.2956  1.3748  0.8544
22241SOL    HW269679   0.055   9.578   0.321  3.5626 -0.5288  0.2885
22242SOL     OW69680   8.235   9.888   8.591  0.2480 -0.4350  0.1679
22242SOL    HW169681   8.170   9.822   8.612 -0.4567 -0.1350 -1.0038
22242SOL    HW269682   8.316   9.856   8.633  0.3018 -2.8078 -1.5722
22243SOL     OW69683   3.712   2.528   1.664  0.2367  0.5189  0.6963
22243SOL    HW169684   3.654   2.472   1.716 -0.5554  0.3636 -0.3200
22243SOL    HW269685   3.770   2.569   1.728  1.6632 -2.3298  1.4260
22244SOL     OW69686   3.232   4.594   8.955  0.2277 -0.1557  0.0315
22244SOL    HW169687   3.315   4.616   8.998 -0.8806  2.5298  1.0354
22244SOL    HW269688   3.182   4.550   9.024 -0.2270  0.9289  0.4258
22245SOL     OW69689   1.472   8.447   0.091 -0.3939 -0.5490  0.2322
22245SOL    HW169690   1.402   8.506   0.118 -1.4780 -1.4936 -0.4212
22245SOL    HW269691   1.458   8.368   0.143 -0.2064 -0.9780 -0.3526
22246SOL     OW69692   6.395   5.912   9.242  0.9609  0.5176  0.5125
22246SOL    HW169693   6.340   5.989   9.227  1.9851  0.8816 -1.8183
22246SOL    HW269694   6.438   5.897   9.158  2.5623 -1.2130  1.5724
22247SOL     OW69695  10.324   4.734   9.887  0.3239 -0.3534  0.9695
22247SOL    HW169696  10.276   4.778   9.817  1.3197 -0.6482  0.0769
22247SOL    HW269697  10.398   4.792   9.905 -0.6455  0.4030  2.7584
22248SOL     OW69698   8.604   7.629  10.684  0.3059 -0.3920 -0.3210
22248SOL    HW169699   8.584   7.709  10.733  1.5752  0.1790 -0.6725
22248SOL    HW269700   8.631   7.566  10.751 -1.5866 -0.8625  0.0510
22249SOL     OW69701   9.481   3.631   9.710 -0.1710 -0.5657 -0.2646
22249SOL    HW169702   9.558   3.687   9.702 -1.2200  1.1968  1.1723
22249SOL    HW269703   9.513   3.550   9.750  1.2986 -0.8808 -1.9585
22250SOL     OW69704   5.224   0.659   7.835 -0.7372  0.1790  0.3748
22250SOL    HW169705   5.257   0.577   7.799  1.9480 -0.0818  3.0060
22250SOL    HW269706   5.251   0.726   7.772  0.0263 -0.6294 -0.1842
22251SOL     OW69707  10.256   0.838   9.107 -0.2384  0.2568  0.0976
22251SOL    HW169708  10.325   0.793   9.057 -0.7173 -1.0819  0.5875
22251SOL    HW269709  10.299   0.915   9.143 -0.1278  1.9425 -3.2493
22252SOL     OW69710   7.837   6.466   2.373  0.1646 -0.0388  0.4402
22252SOL    HW169711   7.840   6.497   2.463 -0.3569 -1.2179  0.8922
22252SOL    HW269712   7.743   6.464   2.352  0.0993 -1.8763  0.6811
22253SOL     OW69713   5.084  10.534   7.596 -0.1137 -0.4293  0.3702
22253SOL    HW169714   5.143  10.601   7.631 -0.3730 -0.8788  1.7284
22253SOL    HW269715   5.142  10.470   7.557  0.1500  0.4351 -0.7126
22254SOL     OW69716   7.102   6.764  10.127 -0.3341 -0.3198 -0.0430
22254SOL    HW169717   7.174   6.761  10.065  1.0961 -2.8068  1.5389
22254SOL    HW269718   7.046   6.690  10.104  0.4307 -1.5343  1.7351
22255SOL     OW69719   2.083   7.312   7.190  0.1792 -0.4251  0.4646
22255SOL    HW169720   2.000   7.265   7.195  0.2135 -0.5053  0.2604
22255SOL    HW269721   2.139   7.258   7.134  0.4637 -0.5173  0.8309
22256SOL     OW69722   6.252   2.451   9.837  0.4379  0.2443 -0.0189
22256SOL    HW169723   6.305   2.400   9.898  1.4709  1.3258  0.0166
22256SOL    HW269724   6.309   2.522   9.808 -1.0703  1.6720  0.2950
22257SOL     OW69725   6.841  10.227   0.239 -0.1143  0.1268  0.3079
22257SOL    HW169726   6.857  10.306   0.290  3.0772 -0.7959  0.9535
22257SOL    HW269727   6.773  10.181   0.287 -0.7084  1.5991  0.9392
22258SOL     OW69728   0.920   0.233   4.652  0.1957 -0.1286 -0.2648
22258SOL    HW169729   0.917   0.199   4.742 -2.4705 -1.2599 -0.6807
22258SOL    HW269730   0.938   0.327   4.663  1.8454 -0.5654  1.2896
22259SOL     OW69731   0.685   3.122   4.433  0.0167  0.5456  0.2107
22259SOL    HW169732   0.774   3.132   4.467  0.1598 -1.7039  0.6503
22259SOL    HW269733   0.698   3.092   4.343 -0.1425 -2.7068  1.1449
22260SOL     OW69734   8.152   9.964   8.877  0.3230 -0.1901 -0.4813
22260SOL    HW169735   8.235   9.920   8.859  0.2143 -1.2831  1.4568
22260SOL    HW269736   8.175  10.037   8.936 -0.0847 -0.5358  0.1158
22261SOL     OW69737   3.282   6.023   2.859 -0.4535 -0.7522  0.4613
22261SOL    HW169738   3.283   6.031   2.955 -0.3229  0.5708  0.3753
22261SOL    HW269739   3.199   5.981   2.839 -1.7870  1.4297  1.0476
22262SOL     OW69740   7.658   3.721   6.512  0.6411 -0.3551 -0.4868
22262SOL    HW169741   7.578   3.699   6.560  0.8896  0.3816  0.2870
22262SOL    HW269742   7.637   3.701   6.421  0.2342 -1.9985 -0.0662
22263SOL     OW69743   8.254   4.573   2.483 -0.0833 -0.6478  0.3638
22263SOL    HW169744   8.265   4.584   2.389  0.5958 -0.7126  0.4241
22263SOL    HW269745   8.205   4.650   2.511  3.1998  1.6016  0.5608
22264SOL     OW69746   8.032   0.291   9.083 -0.4971 -0.8606 -0.2997
22264SOL    HW169747   8.051   0.382   9.106 -1.4719 -0.0407 -2.4828
22264SOL    HW269748   8.095   0.269   9.015  0.0873 -2.0410  0.5812
22265SOL     OW69749   1.567   2.598   0.794 -0.1433  0.4696  0.2013
22265SOL    HW169750   1.500   2.657   0.829  0.4206  1.8429 -0.9325
22265SOL    HW269751   1.539   2.579   0.705  0.0517 -0.4105  0.3226
22266SOL     OW69752   9.864   4.401   8.288  0.1610 -0.3654  0.6260
22266SOL    HW169753   9.899   4.383   8.375  0.9730  0.9127  0.5921
22266SOL    HW269754   9.788   4.456   8.303 -0.0015 -0.5681  0.5477
22267SOL     OW69755   0.845   4.274   9.601 -0.4187  0.3985 -0.0407
22267SOL    HW169756   0.749   4.268   9.601 -0.3901 -1.6177  1.9172
22267SOL    HW269757   0.873   4.201   9.657  2.2279  1.6009  0.3350
22268SOL     OW69758   9.806   0.767   1.761 -0.3655  0.1895  0.3686
22268SOL    HW169759   9.760   0.686   1.741 -0.9058  0.4885  0.3984
22268SOL    HW269760   9.887   0.762   1.710 -1.0753  0.3029 -0.8091
22269SOL     OW69761   9.531   3.097   9.756  0.2803  0.0937  0.2432
22269SOL    HW169762   9.507   3.157   9.686 -1.1649  1.6543  1.9984
22269SOL    HW269763   9.527   3.010   9.715 -2.8391  0.7278 -1.0669
22270SOL     OW69764   0.631   3.623  10.513  0.0785 -0.1760 -0.0230
22270SOL    HW169765   0.570   3.694  10.535  0.3610  0.3204 -0.8061
22270SOL    HW269766   0.578   3.543  10.522 -0.2970  0.1399  0.6716
22271SOL     OW69767   4.413   9.641   7.134 -0.6079  0.7667 -0.1234
22271SOL    HW169768   4.320   9.662   7.134 -0.3697  1.8677 -0.3000
22271SOL    HW269769   4.457   9.725   7.136  0.3960  0.2485  0.6530
22272SOL     OW69770   1.966   5.910   2.779  0.3173 -0.0518 -0.0660
22272SOL    HW169771   2.026   5.868   2.841  0.7460  1.1402  0.3753
22272SOL    HW269772   2.023   5.939   2.707  0.2541  0.8474  0.2272
22273SOL     OW69773  10.161   2.365   9.113  0.0133  0.8989  0.2738
22273SOL    HW169774  10.205   2.449   9.128  1.3149 -0.0974  2.5188
22273SOL    HW269775  10.145   2.330   9.201  1.8976 -2.3889 -0.5202
22274SOL     OW69776   5.200   4.296   3.930 -0.0779  0.0464 -0.1879
22274SOL    HW169777   5.122   4.347   3.953 -0.2446 -0.4264  0.3186
22274SOL    HW269778   5.218   4.320   3.839 -0.3963  0.6935 -0.0861
22275SOL     OW69779   2.555  10.056   1.189  0.0181  0.6008 -0.7427
22275SOL    HW169780   2.591  10.038   1.102 -0.3327 -0.0161 -0.7709
22275SOL    HW269781   2.541  10.150   1.191  2.1920  0.9657 -0.5063
22276SOL     OW69782   5.919   4.232   7.238  0.6085 -0.4881 -0.1872
22276SOL    HW169783   5.980   4.297   7.202  0.2810  0.4793  0.9511
22276SOL    HW269784   5.857   4.284   7.289  1.0942 -1.8212  1.8409
22277SOL     OW69785   3.427   2.168   0.179 -0.3871  0.1354  0.2190
22277SOL    HW169786   3.340   2.151   0.213 -0.7613  1.0275 -0.2669
22277SOL    HW269787   3.477   2.088   0.200 -1.3468 -0.4433  0.3603
22278SOL     OW69788   8.405   3.635   9.023 -0.2023  0.1167 -0.5886
22278SOL    HW169789   8.371   3.704   9.080 -1.6052  0.3483 -1.6297
22278SOL    HW269790   8.391   3.668   8.934 -0.0749 -1.1275 -1.0958
22279SOL     OW69791   3.314   1.497   4.336  0.2641 -0.3256  0.3275
22279SOL    HW169792   3.380   1.469   4.272  0.3409 -0.8246  0.6190
22279SOL    HW269793   3.269   1.416   4.361 -0.4063 -0.0043  0.1984
22280SOL     OW69794   8.764   7.697   2.273 -0.2862 -0.2916 -0.0754
22280SOL    HW169795   8.800   7.610   2.290  0.7607  0.1872  0.2585
22280SOL    HW269796   8.669   7.683   2.269 -0.1173 -1.5007 -0.4047
22281SOL     OW69797   6.032   4.976   3.358 -0.2768 -0.4314 -0.0657
22281SOL    HW169798   5.976   4.900   3.375  0.8660 -1.2876  0.0199
22281SOL    HW269799   6.119   4.947   3.385  0.6660 -0.0129 -2.4820
22282SOL     OW69800   0.002   6.874   8.945 -0.6464  0.3486  0.7923
22282SOL    HW169801   0.011   6.967   8.965 -2.2348  0.6226  0.3919
22282SOL    HW269802  -0.025   6.871   8.853  1.0023 -0.6153  0.2865
22283SOL     OW69803   3.791   1.973   4.621  0.4558 -0.1953  0.0616
22283SOL    HW169804   3.870   1.923   4.642 -0.0672  0.5970  5.0872
22283SOL    HW269805   3.823   2.062   4.602  0.8738 -0.2514  0.4835
22284SOL     OW69806   0.379   7.534   4.476 -0.2438 -0.5485 -0.6233
22284SOL    HW169807   0.454   7.533   4.417 -0.4777 -3.1932 -1.0224
22284SOL    HW269808   0.313   7.588   4.432  0.6279 -0.0812 -1.3673
22285SOL     OW69809   5.708   9.624   6.148  0.1635 -0.0896 -0.1630
22285SOL    HW169810   5.800   9.604   6.167  0.4146  0.1998 -1.0322
22285SOL    HW269811   5.675   9.545   6.104  0.1909  0.0601 -0.4582
22286SOL     OW69812   2.916   6.703   2.885  0.5445 -0.4968 -0.4877
22286SOL    HW169813   2.878   6.618   2.906  2.0348 -1.6193 -2.1449
22286SOL    HW269814   3.011   6.690   2.889  0.8388  1.4980  0.7071
22287SOL     OW69815   1.948   5.166   7.293 -0.8466  0.0950 -0.3714
22287SOL    HW169816   1.880   5.109   7.257 -1.9205  1.3067 -0.3322
22287SOL    HW269817   1.900   5.237   7.335  0.3793 -0.3733  2.0184
22288SOL     OW69818   2.896   0.105   3.145  0.2559  0.1449 -0.6884
22288SOL    HW169819   2.804   0.119   3.123 -0.0055 -1.2860 -0.6399
22288SOL    HW269820   2.929   0.192   3.167 -1.1340  0.6601 -0.5044
22289SOL     OW69821   4.160   9.529   1.223 -0.2648 -0.0987  0.5199
22289SOL    HW169822   4.254   9.511   1.225  0.1239  1.7022  0.2249
22289SOL    HW269823   4.149   9.606   1.279 -1.3870  0.3950 -0.3461
22290SOL     OW69824   0.883   7.879   4.448 -0.2077 -0.2424  0.0812
22290SOL    HW169825   0.912   7.827   4.523  1.8836 -0.8675 -1.0877
22290SOL    HW269826   0.962   7.924   4.417 -1.0857  0.3004 -1.5289
22291SOL     OW69827   7.019   4.728   4.630 -0.2187  0.0558 -0.6265
22291SOL    HW169828   6.972   4.721   4.546  0.7399 -0.5510 -1.1254
22291SOL    HW269829   6.951   4.713   4.696 -0.8381 -0.2589 -1.3156
22292SOL     OW69830   3.566   7.292   4.682  0.3875  0.3286  0.0564
22292SOL    HW169831   3.544   7.285   4.775 -2.4096  2.1941 -0.3643
22292SOL    HW269832   3.593   7.382   4.670 -0.7331  0.5317 -1.1674
22293SOL     OW69833   9.880   7.142   3.088 -0.0670 -0.3404 -0.1750
22293SOL    HW169834   9.835   7.058   3.083 -0.2441 -0.3434  1.3013
22293SOL    HW269835   9.810   7.206   3.100  0.2071 -0.1998  0.7294
22294SOL     OW69836   0.604   1.913   1.430  0.1472 -0.2933 -0.1347
22294SOL    HW169837   0.565   1.831   1.459  1.2750 -0.2747  1.6460
22294SOL    HW269838   0.532   1.976   1.432 -0.2575 -0.7584  0.7722
22295SOL     OW69839   1.928   8.456   8.439 -0.2526  0.4631 -0.2137
22295SOL    HW169840   1.901   8.488   8.525 -1.6989  0.8815 -0.8011
22295SOL    HW269841   1.872   8.380   8.423  0.8164 -0.3415 -0.3139
22296SOL     OW69842   8.335   3.057   5.702 -0.3737  0.1815  0.3831
22296SOL    HW169843   8.267   3.110   5.661  0.4658  1.4447  0.5585
22296SOL    HW269844   8.292   3.013   5.775 -1.4822 -0.7472 -0.7876
22297SOL     OW69845   0.610  10.314   6.371  0.2498 -0.2727 -0.3608
22297SOL    HW169846   0.613  10.302   6.276  0.4453 -0.9165 -0.2785
22297SOL    HW269847   0.519  10.338   6.390  0.3112  0.2999 -0.7546
22298SOL     OW69848   2.641   9.083   1.053 -0.1061 -0.0567 -0.1250
22298SOL    HW169849   2.616   9.018   0.987  1.0020  0.9099 -1.5722
22298SOL    HW269850   2.645   9.165   1.004 -1.7596  1.2025  1.7011
22299SOL     OW69851   7.369   9.719   3.362 -0.5503  0.5753 -0.2224
22299SOL    HW169852   7.277   9.697   3.346 -0.6831  0.0874  1.0891
22299SOL    HW269853   7.418   9.652   3.314 -0.9465 -1.7239  2.3338
22300SOL     OW69854   5.737   0.589  10.603 -0.1625 -0.3883 -0.1714
22300SOL    HW169855   5.751   0.509  10.551  1.6518 -0.7310  0.7586
22300SOL    HW269856   5.750   0.561  10.694 -0.1239  0.8467  0.2196
22301SOL     OW69857   8.162  10.129   2.612  0.4522  0.0751  0.1430
22301SOL    HW169858   8.123  10.170   2.535  1.5236  1.2787  0.2130
22301SOL    HW269859   8.246  10.094   2.581  0.1325 -0.9616  0.3879
22302SOL     OW69860   9.081   9.290   6.615  0.1700  0.0103 -0.2512
22302SOL    HW169861   9.153   9.243   6.573 -0.0306 -0.2644 -0.2872
22302SOL    HW269862   9.011   9.226   6.621 -0.7661  0.8186 -1.9892
22303SOL     OW69863   3.182   3.828   7.548  0.0204 -0.1163  0.1762
22303SOL    HW169864   3.183   3.832   7.453 -1.4813  0.7320  0.1709
22303SOL    HW269865   3.204   3.737   7.568 -2.2073 -1.0033 -1.0907
22304SOL     OW69866   0.971   7.093   9.609  0.8780 -0.6447 -0.8560
22304SOL    HW169867   0.970   7.016   9.666  0.9306  0.1951  0.3115
22304SOL    HW269868   0.891   7.085   9.556 -0.6913 -0.0621  1.2818
22305SOL     OW69869   1.510   0.119   8.895  0.4239  0.3962 -0.0227
22305SOL    HW169870   1.438   0.165   8.853 -0.8666 -1.1417  0.3881
22305SOL    HW269871   1.562   0.083   8.823 -0.8569 -0.8655 -0.3569
22306SOL     OW69872   3.049   0.449   8.593 -0.2404 -0.3185 -0.3562
22306SOL    HW169873   3.000   0.370   8.570 -1.0708  0.6469 -2.0497
22306SOL    HW269874   3.140   0.420   8.594 -0.5011 -1.2605 -1.2395
22307SOL     OW69875   6.994   4.494   5.902 -0.9548 -0.2229 -0.3314
22307SOL    HW169876   6.967   4.530   5.986  0.0699 -0.6161  0.1915
22307SOL    HW269877   7.037   4.566   5.857 -0.2993 -0.3573  0.0613
22308SOL     OW69878  10.630   6.981   3.592 -0.0895  0.6305  0.3915
22308SOL    HW169879  10.720   6.982   3.625  0.0291  0.5571  0.0696
22308SOL    HW269880  10.580   6.934   3.659  0.2091  0.2070  0.3184
22309SOL     OW69881  10.434   7.581   5.461 -0.9019  0.0657 -0.4541
22309SOL    HW169882  10.470   7.628   5.537  0.9408 -1.0441 -0.5831
22309SOL    HW269883  10.467   7.630   5.385 -0.5554 -0.3158 -0.5554
22310SOL     OW69884   3.210   4.330   4.133 -0.1493  0.1961  0.0691
22310SOL    HW169885   3.178   4.401   4.188 -1.0144  0.0804 -0.2777
22310SOL    HW269886   3.291   4.365   4.094 -1.4460  1.6944 -1.4727
22311SOL     OW69887   4.491   8.796   2.949  0.1760 -0.1994  0.0537
22311SOL    HW169888   4.439   8.855   3.003  1.9768  2.3319 -0.7743
22311SOL    HW269889   4.515   8.724   3.007 -0.6498  0.7655  1.6545
22312SOL     OW69890  10.455   9.735   3.079 -0.1142  0.1492 -0.2586
22312SOL    HW169891  10.489   9.824   3.069  1.0910 -0.2154  0.4104
22312SOL    HW269892  10.391   9.742   3.150 -0.1133  0.5142 -0.2942
22313SOL     OW69893   2.159   6.654   0.898 -0.0913  0.1594  0.4178
22313SOL    HW169894   2.075   6.617   0.870 -0.3695  1.5245 -0.6512
22313SOL    HW269895   2.163   6.635   0.992  0.0713 -3.0199 -0.1357
22314SOL     OW69896   8.780   7.332   1.328  0.6418 -0.0560 -0.3416
22314SOL    HW169897   8.695   7.290   1.340  0.6250 -0.0299 -0.3708
22314SOL    HW269898   8.795   7.330   1.234  1.8112 -2.3569 -0.2036
22315SOL     OW69899   9.091   8.094   1.242 -0.1739  0.6252  0.3224
22315SOL    HW169900   9.024   8.161   1.256  0.3512  0.8772  1.7556
22315SOL    HW269901   9.142   8.126   1.167 -1.4626  0.5577 -0.6219
22316SOL     OW69902   7.357   2.373   1.459  0.0783 -0.0253  0.0487
22316SOL    HW169903   7.282   2.337   1.413  1.9295  0.1566 -3.4526
22316SOL    HW269904   7.387   2.302   1.516  0.7232 -2.3965 -2.9931
22317SOL     OW69905   4.286   2.810   6.052  0.1381 -0.5067  0.0489
22317SOL    HW169906   4.376   2.793   6.080  0.4167 -0.8785 -0.9926
22317SOL    HW269907   4.273   2.751   5.977 -0.9526 -0.4117  0.1447
22318SOL     OW69908   8.804   3.848   8.623 -0.0406  0.0241  0.1970
22318SOL    HW169909   8.879   3.897   8.656 -0.3882  0.1708  0.7958
22318SOL    HW269910   8.731   3.910   8.630 -0.5175 -0.6163  1.1281
22319SOL     OW69911   6.002   5.473  10.163  0.1257 -0.3440  0.6504
22319SOL    HW169912   6.030   5.436  10.248 -0.6972 -1.0450  0.6314
22319SOL    HW269913   5.928   5.529  10.185 -0.3015 -0.7922  0.3544
22320SOL     OW69914   7.038   6.983   8.311  0.1692  0.2864 -0.3023
22320SOL    HW169915   7.037   7.014   8.401  0.5515  1.7587 -0.7842
22320SOL    HW269916   7.130   6.962   8.294  0.1140  0.1152 -0.3935
22321SOL     OW69917   7.890   8.036   8.102 -0.3132  0.1355 -0.3509
22321SOL    HW169918   7.892   8.004   8.193 -0.1865 -1.4849 -0.8934
22321SOL    HW269919   7.852   8.123   8.109  0.1450  0.2462  1.3186
22322SOL     OW69920   8.140   5.492   2.717  0.3956  0.2424  0.3947
22322SOL    HW169921   8.074   5.465   2.653 -0.0878  0.1664  0.9156
22322SOL    HW269922   8.223   5.461   2.680 -0.0724 -1.4997  0.6928
22323SOL     OW69923   7.803   6.647   1.305  0.2940 -0.2897  0.3248
22323SOL    HW169924   7.827   6.569   1.354  1.4486 -0.6328 -0.7326
22323SOL    HW269925   7.713   6.665   1.331 -0.1489 -2.2246  0.2666
22324SOL     OW69926  10.243   3.814   1.255  0.1969  0.2073  0.0227
22324SOL    HW169927  10.244   3.808   1.351  4.4706 -0.8574  0.1177
22324SOL    HW269928  10.238   3.908   1.237 -0.5018  0.4295  1.2497
22325SOL     OW69929   0.751   0.513   7.151 -0.4929 -0.2696 -0.2397
22325SOL    HW169930   0.776   0.542   7.064  0.3898 -0.3864 -0.0376
22325SOL    HW269931   0.682   0.573   7.178 -0.0825  0.3837 -0.6221
22326SOL     OW69932   0.612   7.036   4.265  0.0602  0.5326  0.6857
22326SOL    HW169933   0.697   7.004   4.236 -0.3061 -0.7057  0.9457
22326SOL    HW269934   0.549   6.995   4.206 -0.3052  2.4948 -0.3922
22327SOL     OW69935   1.980   0.995   9.429  0.3925  0.0052  0.5376
22327SOL    HW169936   1.907   0.994   9.491 -0.1136 -0.0725 -0.0517
22327SOL    HW269937   2.017   1.083   9.436 -0.5701  0.4764 -0.0903
22328SOL     OW69938   2.846   2.838   6.100  0.7507  0.2150 -0.0630
22328SOL    HW169939   2.799   2.872   6.176  0.1030  0.4713 -0.5728
22328SOL    HW269940   2.881   2.754   6.130 -0.5526 -0.2809  0.1503
22329SOL     OW69941   3.351   3.968   8.239 -0.2679  0.0831  0.6769
22329SOL    HW169942   3.421   3.999   8.182 -2.7139  3.3354 -0.9203
22329SOL    HW269943   3.292   4.044   8.247 -3.8251 -2.5076  1.5080
22330SOL     OW69944   8.385   7.695   9.539 -0.2464  0.7067  0.2196
22330SOL    HW169945   8.424   7.690   9.626  0.0640 -1.3263  0.0180
22330SOL    HW269946   8.291   7.690   9.554 -0.1480 -1.8736  0.4037
22331SOL     OW69947   5.174   6.305   4.174 -0.4096  0.2167  0.1572
22331SOL    HW169948   5.267   6.285   4.184  0.2159  1.9217 -1.6084
22331SOL    HW269949   5.136   6.284   4.260  1.4049 -1.3378  0.6638
22332SOL     OW69950  10.395   2.150   9.927 -0.0523 -0.2570  0.0912
22332SOL    HW169951  10.308   2.189   9.938  0.2046  0.8907 -1.5349
22332SOL    HW269952  10.382   2.080   9.864  0.0949 -0.5698  0.4025
22333SOL     OW69953   3.230  10.479   4.756 -0.0444  0.1461  0.1703
22333SOL    HW169954   3.280  10.483   4.837  1.2470  1.9188 -0.6378
22333SOL    HW269955   3.281  10.531   4.694 -1.4328 -0.4288 -1.5402
22334SOL     OW69956   0.412   8.950   9.998 -0.3528  0.1437 -0.2658
22334SOL    HW169957   0.371   9.037  10.002 -0.5060  0.0766 -0.3760
22334SOL    HW269958   0.340   8.889  10.012 -0.2879  0.0245 -0.4499
22335SOL     OW69959  10.126   5.771   9.404 -0.6605 -0.0249  0.1620
22335SOL    HW169960  10.162   5.733   9.323  1.4832  0.0541  1.0102
22335SOL    HW269961  10.040   5.729   9.414 -0.7774 -0.3767 -1.8948
22336SOL     OW69962   6.032   9.058   2.050 -0.4754 -0.0074  0.5291
22336SOL    HW169963   5.966   9.096   2.107 -1.5846 -0.4541 -0.4068
22336SOL    HW269964   6.024   9.106   1.968 -0.1199 -0.5228  0.1820
22337SOL     OW69965   3.131   7.967   9.711  0.1653  0.0001  0.2394
22337SOL    HW169966   3.226   7.961   9.700  0.5471 -0.8527  3.2523
22337SOL    HW269967   3.118   7.997   9.801 -2.4463  1.2176 -0.4391
22338SOL     OW69968   8.615   3.997   7.358  0.1407 -0.5670  0.3125
22338SOL    HW169969   8.584   4.056   7.289 -0.5090 -0.7738  0.4192
22338SOL    HW269970   8.692   3.954   7.321 -0.1143 -0.5628 -0.2260
22339SOL     OW69971   5.407   5.933   9.540  0.5424  0.0491  0.3690
22339SOL    HW169972   5.378   5.997   9.606  1.6741 -0.0957  1.0468
22339SOL    HW269973   5.392   5.976   9.456 -3.9913 -0.9703  0.4046
22340SOL     OW69974   7.661   1.985  10.107  0.2885 -0.1964  0.1942
22340SOL    HW169975   7.641   1.900  10.069 -1.6689 -0.2992  1.3489
22340SOL    HW269976   7.723   2.025  10.045  0.0505 -1.8105 -1.1474
22341SOL     OW69977   3.159   8.884   2.448  0.2461 -0.0897 -0.0915
22341SOL    HW169978   3.249   8.896   2.479  0.9372 -0.3846 -1.8769
22341SOL    HW269979   3.123   8.972   2.444  0.0382 -0.0473  1.6862
22342SOL     OW69980   1.207   9.009   9.103  0.2670  0.1318  0.2523
22342SOL    HW169981   1.268   9.080   9.082  0.1527  0.4482  0.9667
22342SOL    HW269982   1.263   8.939   9.136  0.5476 -0.6995 -1.8251
22343SOL     OW69983   0.002   7.767   8.780  0.2562  0.1555 -0.2217
22343SOL    HW169984   0.015   7.674   8.763  1.0444 -0.6128  3.6026
22343SOL    HW269985  -0.090   7.774   8.807  0.6850  0.0402  1.3863
22344SOL     OW69986   0.244   1.615   3.915  0.3684 -0.5439 -0.2431
22344SOL    HW169987   0.320   1.577   3.960 -2.3647 -2.9182  2.7965
22344SOL    HW269988   0.253   1.585   3.824  2.3150 -2.0024  0.3568
22345SOL     OW69989   0.118   9.704   9.547 -0.0187  0.0987 -0.1006
22345SOL    HW169990   0.099   9.765   9.618 -0.8199  0.4085 -0.5744
22345SOL    HW269991   0.089   9.619   9.580 -0.1246  0.1951  0.0547
22346SOL     OW69992  10.319   8.149   6.151  0.1020  0.4110 -0.2672
22346SOL    HW169993  10.405   8.121   6.180 -0.2572  0.2842  0.7276
22346SOL    HW269994  10.334   8.233   6.107  1.0714 -0.8548 -2.5020
22347SOL     OW69995   7.920   2.522   2.004 -0.2044 -0.0205 -0.6069
22347SOL    HW169996   7.957   2.559   1.924  1.1437 -1.8478 -0.8757
22347SOL    HW269997   7.988   2.464   2.038 -1.6213 -1.0372  0.6201
22348SOL     OW69998   0.960   5.918   1.452 -0.1453  0.0033  0.1053
22348SOL    HW169999   0.906   5.851   1.494  0.7262 -0.7142  0.1208
22348SOL    HW270000   1.000   5.873   1.377  0.7940  0.3770  0.3705
22349SOL     OW70001   5.808   7.395  10.533  0.3692 -0.2180 -0.0599
22349SOL    HW170002   5.732   7.337  10.540  1.3550 -1.7459 -1.3909
22349SOL    HW270003   5.835   7.411  10.624 -0.8277 -0.5982  0.3793
22350SOL     OW70004   3.682   6.620   8.642 -0.3964 -0.6633  0.3860
22350SOL    HW170005   3.607   6.575   8.602 -0.4205 -0.4487  0.1910
22350SOL    HW270006   3.686   6.584   8.731 -0.3338 -1.1484  0.1895
22351SOL     OW70007   4.291   0.182  10.510 -0.7288 -0.1097  0.8028
22351SOL    HW170008   4.214   0.176  10.566 -0.7786 -0.1914  0.7254
22351SOL    HW270009   4.294   0.099  10.464 -0.1025 -0.4600  1.4480
22352SOL     OW70010   3.831   6.071   6.133 -0.3022  0.0359 -0.7651
22352SOL    HW170011   3.817   6.059   6.039 -1.8306 -1.0906 -0.4256
22352SOL    HW270012   3.823   5.984   6.171 -1.5744  0.7107  0.6340
22353SOL     OW70013   1.876   6.594   6.131  0.3545 -0.2426 -0.1883
22353SOL    HW170014   1.795   6.630   6.096  1.1190 -0.2025 -2.0645
22353SOL    HW270015   1.883   6.507   6.090  1.1682 -0.3019  0.0611
22354SOL     OW70016   8.013   7.025   2.650 -0.1089 -0.1755 -0.0262
22354SOL    HW170017   7.952   7.005   2.721  0.0770 -1.3138 -0.1740
22354SOL    HW270018   8.062   6.944   2.636 -1.6221 -0.7059 -2.9333
22355SOL     OW70019   8.321   5.076   7.584  0.3904 -0.5404 -0.5379
22355SOL    HW170020   8.401   5.129   7.588 -0.1860  0.2700  0.9571
22355SOL    HW270021   8.336   5.004   7.644 -0.1974 -0.0901  0.1615
22356SOL     OW70022   3.364   3.160   2.987 -0.7644 -0.1614  0.0335
22356SOL    HW170023   3.430   3.091   2.982 -0.1075  0.3419  1.1861
22356SOL    HW270024   3.295   3.132   2.927 -0.9308 -2.2850  1.1213
22357SOL     OW70025   2.512   1.599   2.253 -0.4201  0.2347  0.2903
22357SOL    HW170026   2.451   1.661   2.212 -1.0650 -1.0906 -0.8585
22357SOL    HW270027   2.455   1.540   2.303 -0.1330 -1.1349 -0.9485
22358SOL     OW70028   4.697   1.949   1.993 -0.3459  0.1430 -0.4395
22358SOL    HW170029   4.606   1.962   2.021 -0.5037  0.5524 -1.1158
22358SOL    HW270030   4.742   1.917   2.071 -1.2782 -0.9964 -0.3328
22359SOL     OW70031   5.448   8.345   7.533 -0.0795 -0.1534 -0.4049
22359SOL    HW170032   5.433   8.312   7.445  0.0168 -0.0468 -0.4610
22359SOL    HW270033   5.425   8.437   7.529  1.3587  0.2230 -0.7028
22360SOL     OW70034   0.025   1.449   7.930 -0.6610 -0.5798  0.6200
22360SOL    HW170035  -0.048   1.451   7.992 -0.8768 -1.0345  0.3944
22360SOL    HW270036   0.028   1.358   7.900  0.7131 -0.8398  1.4564
22361SOL     OW70037   1.588   9.391   8.180  0.3888 -0.3436 -0.2749
22361SOL    HW170038   1.525   9.321   8.192  0.3485 -0.0874  1.1703
22361SOL    HW270039   1.626   9.375   8.094 -1.2546 -0.8012 -0.9413
22362SOL     OW70040   3.037   8.575   8.066 -0.0246  0.4471 -0.1113
22362SOL    HW170041   2.973   8.521   8.020  0.0595  0.5856 -0.3975
22362SOL    HW270042   2.999   8.663   8.066  0.0847  0.4962 -0.1351
22363SOL     OW70043   0.541   4.469  10.031 -0.3757  0.2157 -0.7660
22363SOL    HW170044   0.564   4.533  10.099  0.7533 -2.2533  1.3180
22363SOL    HW270045   0.507   4.523   9.959  0.3813  3.1339  0.8800
22364SOL     OW70046   1.780   2.065   0.329  0.6365 -0.6052  0.0885
22364SOL    HW170047   1.752   1.986   0.282 -0.0975  1.5131 -3.4610
22364SOL    HW270048   1.702   2.092   0.378  0.0697 -0.8148 -0.6629
22365SOL     OW70049   4.835   5.286   4.280  0.1984 -0.3945  0.5168
22365SOL    HW170050   4.816   5.193   4.294  1.8912 -1.0746 -1.1686
22365SOL    HW270051   4.759   5.320   4.234 -0.4590 -0.9280  1.1939
22366SOL     OW70052   4.826   1.158   2.115 -0.7109 -0.4231 -0.4805
22366SOL    HW170053   4.747   1.175   2.063  0.1679  1.7174 -1.2026
22366SOL    HW270054   4.899   1.176   2.055  0.3380  1.1789  1.1640
22367SOL     OW70055   7.851   1.077   5.273  0.3024 -0.3476 -0.4116
22367SOL    HW170056   7.789   1.024   5.224 -0.4203 -1.4486  1.5869
22367SOL    HW270057   7.816   1.166   5.269  0.8695 -0.1652 -2.7638
22368SOL     OW70058   6.321   4.598  10.146 -0.9692  0.2517  0.0253
22368SOL    HW170059   6.375   4.523  10.122  0.4839  1.0414  0.7300
22368SOL    HW270060   6.281   4.627  10.064  0.2953  0.1215 -0.6513
22369SOL     OW70061   4.954   2.874   2.624  0.5294 -0.0595 -0.8595
22369SOL    HW170062   4.864   2.841   2.624  0.1924  0.8204 -0.0807
22369SOL    HW270063   5.008   2.795   2.620 -0.2613 -0.5784 -2.1116
22370SOL     OW70064   1.549   0.925   6.282  0.1837  0.8111 -0.0476
22370SOL    HW170065   1.538   0.934   6.187  0.7260  0.6970 -0.1271
22370SOL    HW270066   1.467   0.956   6.319 -0.5191 -0.2888 -0.6112
22371SOL     OW70067   8.459   3.010   4.850  0.3075  0.1141  0.0573
22371SOL    HW170068   8.535   3.046   4.804 -0.0083  0.1284 -0.4641
22371SOL    HW270069   8.452   3.063   4.930  0.9730 -0.0295  0.2184
22372SOL     OW70070   7.458   8.007   7.632 -0.2663  0.3664 -0.4131
22372SOL    HW170071   7.464   8.049   7.546 -1.2902  1.0865 -0.1618
22372SOL    HW270072   7.470   8.079   7.694  0.0711 -0.0806  0.0489
22373SOL     OW70073   4.685   2.947   8.483  0.3820 -0.5379 -0.1524
22373SOL    HW170074   4.619   2.962   8.551  1.0543 -3.0935  1.2014
22373SOL    HW270075   4.746   3.020   8.491 -1.0009  0.6143  0.1517
22374SOL     OW70076   9.765   1.173   7.948  0.3010  0.6140  0.3679
22374SOL    HW170077   9.837   1.115   7.922  0.4720 -0.5558  3.1446
22374SOL    HW270078   9.795   1.214   8.029 -1.3484  1.7263  0.4658
22375SOL     OW70079   6.856   3.754   7.087  0.0279  0.0846 -0.0999
22375SOL    HW170080   6.841   3.774   7.179 -1.3012  1.9737 -0.6665
22375SOL    HW270081   6.931   3.807   7.063  1.2588 -1.4445  0.1657
22376SOL     OW70082   7.602   7.212   3.955  0.1954 -0.5615 -0.0346
22376SOL    HW170083   7.536   7.145   3.971 -1.3664  1.0875  0.7359
22376SOL    HW270084   7.590   7.276   4.025  0.9091  1.0797 -1.3220
22377SOL     OW70085   2.328   6.943   9.836 -0.4052 -0.7423 -0.9787
22377SOL    HW170086   2.255   7.004   9.830 -1.3890 -1.8618 -0.7656
22377SOL    HW270087   2.406   6.997   9.824 -1.2087  0.6481 -0.1881
22378SOL     OW70088   0.983   0.348   0.111  0.2304  0.2994 -0.0621
22378SOL    HW170089   0.922   0.418   0.134  2.3347  2.5191 -0.6949
22378SOL    HW270090   1.035   0.335   0.191  0.6592  0.3851 -0.3235
22379SOL     OW70091   5.759  10.598   0.022  0.3296  0.4555 -0.6272
22379SOL    HW170092   5.781  10.531  -0.043  0.0771 -0.4134  0.1534
22379SOL    HW270093   5.707  10.662  -0.026 -0.7214 -0.6837 -1.0797
22380SOL     OW70094   3.661   0.580   3.683  0.3464  0.0293  0.2932
22380SOL    HW170095   3.756   0.573   3.693  0.4055  1.7004  1.1569
22380SOL    HW270096   3.628   0.589   3.772 -0.7048 -1.1075  0.0431
22381SOL     OW70097   2.595   4.352   5.289  0.0183  0.1333 -0.2686
22381SOL    HW170098   2.648   4.296   5.346 -1.3802  0.1475  1.0894
22381SOL    HW270099   2.548   4.290   5.233  0.2972  0.0584 -0.4233
22382SOL     OW70100   7.931   6.691   6.008  0.6950  0.2220  0.3526
22382SOL    HW170101   7.956   6.607   5.971  1.4635  0.6080 -0.0487
22382SOL    HW270102   7.848   6.713   5.967 -0.4472 -1.1569  1.7984
22383SOL     OW70103   3.132   9.327   7.835 -0.0043  0.1529  0.3912
22383SOL    HW170104   3.181   9.260   7.883 -0.3852 -0.2535  0.2211
22383SOL    HW270105   3.186   9.406   7.842  0.7036 -0.3014  0.1481
22384SOL     OW70106   0.822   4.803   3.601  0.4725 -0.0543 -0.6445
22384SOL    HW170107   0.865   4.886   3.622  1.3630 -0.6470 -0.0251
22384SOL    HW270108   0.803   4.764   3.686  0.4382 -0.6729 -0.9296
22385SOL     OW70109  10.113   9.679   4.591 -0.3408 -0.1306 -0.0434
22385SOL    HW170110  10.076   9.614   4.532 -0.3257  0.0030 -0.2013
22385SOL    HW270111  10.040   9.703   4.648 -0.8377  0.9946 -1.1073
22386SOL     OW70112   5.062   9.163   0.349 -0.4193  0.0845 -0.2704
22386SOL    HW170113   5.104   9.211   0.421 -0.4551 -0.3172  0.0191
22386SOL    HW270114   4.986   9.217   0.325 -0.9592 -0.2546  0.6323
22387SOL     OW70115   3.275   2.270   1.162  0.0777  0.1571 -1.1080
22387SOL    HW170116   3.331   2.198   1.191 -1.6601 -0.6353  0.4641
22387SOL    HW270117   3.224   2.234   1.089 -0.4839 -0.0896 -0.6015
22388SOL     OW70118   4.565   0.705   3.535  0.7543 -0.4980  0.3965
22388SOL    HW170119   4.626   0.777   3.552  1.2119 -0.8355  0.2151
22388SOL    HW270120   4.619   0.637   3.496  0.2417 -0.7776  0.1616
22389SOL     OW70121   1.471   4.369   0.630  0.3568 -0.2548 -0.4071
22389SOL    HW170122   1.377   4.351   0.621  0.5284 -1.0510 -0.7715
22389SOL    HW270123   1.485   4.382   0.724  0.0125 -0.9714 -0.2493
22390SOL     OW70124   5.532   2.837   0.427 -0.3426  0.7537  0.1883
22390SOL    HW170125   5.451   2.835   0.477  0.3591 -1.5669  1.3763
22390SOL    HW270126   5.514   2.896   0.353 -2.9899  0.5006  0.5538
22391SOL     OW70127   8.484   4.540   0.894 -0.4534  0.0253 -0.1842
22391SOL    HW170128   8.499   4.600   0.821 -1.2054  0.5275  0.0767
22391SOL    HW270129   8.572   4.513   0.920 -0.1860 -0.8229 -1.8184
22392SOL     OW70130   4.816   6.340   1.734 -0.4360  0.0818  0.0241
22392SOL    HW170131   4.877   6.315   1.664  0.6012  1.5354  0.3786
22392SOL    HW270132   4.871   6.353   1.811 -1.2497  0.9808  0.4741
22393SOL     OW70133   4.834   5.058   0.942 -0.7768 -0.0774  0.1499
22393SOL    HW170134   4.911   5.088   0.895 -1.9745  0.6535 -1.4501
22393SOL    HW270135   4.830   4.964   0.927  0.1024 -0.2130  0.7293
22394SOL     OW70136   4.044   9.913   1.702  0.3445 -0.2235  0.2292
22394SOL    HW170137   4.109   9.842   1.701  0.2265 -0.3264 -0.0763
22394SOL    HW270138   3.989   9.894   1.778  0.7171 -0.0908  0.5429
22395SOL     OW70139   6.253   6.859   6.287  0.6809 -0.0021 -0.0395
22395SOL    HW170140   6.309   6.894   6.218 -0.2551  0.2674 -0.6728
22395SOL    HW270141   6.282   6.768   6.297  0.8153 -0.0512 -0.7938
22396SOL     OW70142   9.421   6.303   4.408 -0.5997  0.2061  0.0998
22396SOL    HW170143   9.466   6.291   4.324  0.0777  1.3182  0.2792
22396SOL    HW270144   9.331   6.275   4.391 -0.6770  1.1678 -1.2446
22397SOL     OW70145   7.955   9.028   7.064  0.0761  0.6607 -0.3299
22397SOL    HW170146   7.871   9.031   7.019 -1.2998  0.2837  2.0421
22397SOL    HW270147   7.941   9.079   7.144  1.8585 -0.0354  0.4732
22398SOL     OW70148   6.202   4.361   8.774 -0.1424 -0.6111  0.0574
22398SOL    HW170149   6.207   4.445   8.820  0.0546 -0.4542 -0.2466
22398SOL    HW270150   6.265   4.369   8.703 -0.5888 -0.7766 -0.3618
22399SOL     OW70151   6.773   2.621   2.091 -0.0668 -0.3896 -0.5910
22399SOL    HW170152   6.770   2.546   2.031  1.2529  1.1529 -2.7021
22399SOL    HW270153   6.861   2.657   2.079 -0.3243  0.9177  1.1381
22400SOL     OW70154   3.542  10.500   0.048 -0.1912  0.2815 -0.3321
22400SOL    HW170155   3.458  10.529   0.086 -1.0207  0.2768 -2.0890
22400SOL    HW270156   3.518  10.428  -0.010  0.8964  0.9398 -1.6331
22401SOL     OW70157   0.705   6.683   4.729  0.0186 -0.4612 -0.1683
22401SOL    HW170158   0.774   6.617   4.718  0.2804 -0.3893  0.9248
22401SOL    HW270159   0.628   6.644   4.688  0.3782 -1.0990 -0.2523
22402SOL     OW70160   4.038   4.243   3.082 -0.7483 -0.3886 -0.3089
22402SOL    HW170161   4.095   4.168   3.098 -1.6735 -0.9393  0.5031
22402SOL    HW270162   3.992   4.256   3.164 -0.5508  1.1317 -0.4155
22403SOL     OW70163   3.850   5.132   7.909  0.5333 -0.1663 -0.5156
22403SOL    HW170164   3.921   5.102   7.854  2.0716 -0.1956  1.3891
22403SOL    HW270165   3.893   5.174   7.984 -1.4592  0.8650  0.1434
22404SOL     OW70166   9.798   8.754   3.098 -0.4464 -0.1523 -0.5295
22404SOL    HW170167   9.802   8.720   3.187 -0.3167  0.7365 -0.1821
22404SOL    HW270168   9.890   8.760   3.071 -0.5056 -0.8532 -0.8967
22405SOL     OW70169   6.735   4.678   4.111 -0.0799  0.1763  0.3995
22405SOL    HW170170   6.714   4.587   4.088 -1.0221  0.6883 -0.8897
22405SOL    HW270171   6.777   4.713   4.033 -0.7156  1.1646  0.4887
22406SOL     OW70172   2.515   0.430   3.381  0.7330 -0.5011 -0.1101
22406SOL    HW170173   2.495   0.487   3.455  2.6736  0.5369 -0.3171
22406SOL    HW270174   2.429   0.405   3.346 -0.2008  1.0213  0.9570
22407SOL     OW70175   9.359   6.294   3.764 -0.7830  0.1101  0.1195
22407SOL    HW170176   9.392   6.384   3.765  0.4716 -0.3280  1.7908
22407SOL    HW270177   9.328   6.281   3.675 -1.8927  2.5089  0.0693
22408SOL     OW70178   0.850   4.583   1.835 -0.4115 -0.3971  0.3775
22408SOL    HW170179   0.857   4.621   1.748 -0.2696 -0.7134  0.2479
22408SOL    HW270180   0.940   4.561   1.859 -0.7346 -3.7407 -0.9637
22409SOL     OW70181   1.386   8.156   8.585  0.3313  0.1708  0.0290
22409SOL    HW170182   1.430   8.160   8.501  1.4168  1.2759  0.6242
22409SOL    HW270183   1.426   8.080   8.629 -1.1847 -1.2490 -0.9170
22410SOL     OW70184   6.055   2.479   3.109  0.0011 -0.0745 -0.3825
22410SOL    HW170185   6.017   2.396   3.138  1.3121 -0.4656  0.2832
22410SOL    HW270186   5.990   2.545   3.135  0.2000 -0.6182  1.6520
22411SOL     OW70187   4.032   6.835   1.239 -0.5809  0.1660  1.0746
22411SOL    HW170188   3.946   6.797   1.258 -1.4208  1.4056 -0.0947
22411SOL    HW270189   4.038   6.834   1.144  0.3650  0.8434  1.1165
22412SOL     OW70190   9.244   7.063   3.625  0.4788  0.0469  0.1381
22412SOL    HW170191   9.162   7.112   3.631  0.8315  0.7166 -0.3513
22412SOL    HW270192   9.286   7.095   3.546  0.9865 -0.6557  0.1091
22413SOL     OW70193   7.727   6.899   2.664 -0.0432 -0.0439 -0.3150
22413SOL    HW170194   7.669   6.903   2.740  2.5066  1.2770  1.7174
22413SOL    HW270195   7.762   6.810   2.666  0.7815  0.2788  0.7402
22414SOL     OW70196   5.932   5.663  10.529  0.0144 -0.5188 -0.4779
22414SOL    HW170197   5.945   5.757  10.539  0.4168 -0.6228  0.0215
22414SOL    HW270198   5.857   5.655  10.470 -1.2942  0.1410  0.9967
22415SOL     OW70199   8.168   2.974  10.194 -0.1724 -0.1771  0.4522
22415SOL    HW170200   8.118   2.903  10.235  0.1930 -1.8756 -1.8805
22415SOL    HW270201   8.258   2.962  10.227 -0.2373 -0.4070  0.5476
22416SOL     OW70202   8.944   0.333   0.253 -0.6800  0.0734 -0.0573
22416SOL    HW170203   9.020   0.374   0.294 -1.6977  1.6346  0.3649
22416SOL    HW270204   8.895   0.296   0.326 -2.1868  2.3356  0.1831
22417SOL     OW70205   6.095   8.999   5.809 -0.1597 -0.2087  0.0640
22417SOL    HW170206   6.045   9.079   5.791  1.5359  1.4533  2.2095
22417SOL    HW270207   6.136   8.977   5.726  0.8023  2.2863 -0.2085
22418SOL     OW70208   1.115   5.299   6.707  0.0647 -0.1007 -0.0440
22418SOL    HW170209   1.148   5.209   6.712  0.3863  0.0498  0.7496
22418SOL    HW270210   1.053   5.306   6.779  0.9085  0.6449  0.6450
22419SOL     OW70211  10.071   6.423   9.620 -0.4111 -0.0084 -0.4154
22419SOL    HW170212  10.060   6.375   9.538 -2.2498  1.2600 -0.9687
22419SOL    HW270213   9.990   6.473   9.630 -2.3967 -3.4081  4.4631
22420SOL     OW70214   9.719   1.015   0.150  0.3871 -0.0978  0.3839
22420SOL    HW170215   9.781   0.942   0.149 -0.3175 -0.7050  0.3813
22420SOL    HW270216   9.634   0.974   0.136 -0.0065  0.7385  0.3008
22421SOL     OW70217   4.475   6.330   4.057  0.2917 -0.5293  0.0414
22421SOL    HW170218   4.550   6.276   4.033  0.9033 -0.6077  1.9722
22421SOL    HW270219   4.409   6.268   4.088  0.1311 -0.3252  0.1139
22422SOL     OW70220   6.415   7.481   5.799  0.1180  0.1973  0.2657
22422SOL    HW170221   6.336   7.476   5.853 -0.5152  1.8764 -0.4469
22422SOL    HW270222   6.440   7.573   5.803  0.3646  0.2528 -1.8538
22423SOL     OW70223   9.561   5.915  10.618 -0.3130  0.3800 -0.2552
22423SOL    HW170224   9.605   5.841  10.576  0.6201  1.1392 -0.6423
22423SOL    HW270225   9.502   5.874  10.681  0.8998 -0.6871  0.2431
22424SOL     OW70226   6.414   3.347   6.656  0.3416  0.2602  0.2007
22424SOL    HW170227   6.420   3.357   6.751 -0.1726  0.4215  0.2164
22424SOL    HW270228   6.358   3.419   6.628 -2.1358 -1.5713  0.1205
22425SOL     OW70229   3.105   1.435   6.702  0.2148 -0.0783 -0.5060
22425SOL    HW170230   3.074   1.372   6.636  1.6797 -0.8908 -0.4600
22425SOL    HW270231   3.043   1.508   6.696  0.4776  0.0211 -3.0091
22426SOL     OW70232  10.226   2.024   2.598 -0.3560 -0.0840  0.5083
22426SOL    HW170233  10.308   2.073   2.599 -0.4038 -0.0136  1.0617
22426SOL    HW270234  10.188   2.038   2.685 -0.2351 -1.3356  0.7782
22427SOL     OW70235   0.995   5.132   2.577  0.3083 -0.3525  0.3445
22427SOL    HW170236   0.903   5.145   2.555  0.8671 -0.1426 -2.2041
22427SOL    HW270237   1.041   5.205   2.535  1.7799 -1.3305  0.1671
22428SOL     OW70238   5.184   2.593   2.616 -0.1559 -0.0777 -0.1590
22428SOL    HW170239   5.175   2.634   2.530 -0.4238 -0.3368 -0.2538
22428SOL    HW270240   5.247   2.521   2.602  0.8314  0.6951  0.1471
22429SOL     OW70241   0.846  10.027   2.110 -0.0964  0.2497 -0.3150
22429SOL    HW170242   0.939  10.023   2.134 -0.5914 -0.2509  1.7045
22429SOL    HW270243   0.839  10.107   2.058  1.7616 -0.6396 -2.1094
22430SOL     OW70244  10.195   6.652  10.412 -0.1326 -0.3043  0.7495
22430SOL    HW170245  10.200   6.745  10.389  1.3862 -0.8107 -1.1518
22430SOL    HW270246  10.102   6.630  10.402 -0.3331  0.7455  0.1396
22431SOL     OW70247   7.317   0.997   0.768  0.1963  0.0095  0.1757
22431SOL    HW170248   7.311   0.912   0.813  2.2815 -0.4916 -0.3971
22431SOL    HW270249   7.298   1.062   0.837 -0.1927 -0.8533  0.9109
22432SOL     OW70250   9.765   9.506   5.230 -0.4281  0.4663  0.2467
22432SOL    HW170251   9.806   9.453   5.298 -0.9046 -1.2421 -0.7494
22432SOL    HW270252   9.732   9.583   5.277 -0.0867 -0.2972  1.8160
22433SOL     OW70253   3.083   9.816   7.951  0.0591  0.6802 -0.3212
22433SOL    HW170254   3.123   9.812   8.038 -0.3530 -0.9501 -0.1639
22433SOL    HW270255   3.004   9.868   7.964  1.0970  2.2932 -0.2205
22434SOL     OW70256   2.870   9.408   8.387  0.1977 -0.0118  0.0973
22434SOL    HW170257   2.940   9.399   8.451  0.3890  0.4875 -0.0390
22434SOL    HW270258   2.899   9.357   8.311 -1.0845 -2.6769  1.2244
22435SOL     OW70259   5.505   9.232   6.253  0.2745  0.2518  0.4607
22435SOL    HW170260   5.500   9.285   6.173  0.1605  0.1723  0.4164
22435SOL    HW270261   5.459   9.285   6.319  1.8038  1.1067  0.8969
22436SOL     OW70262   1.398   4.723   3.677  0.3045  1.1857  0.1163
22436SOL    HW170263   1.331   4.683   3.732 -0.0624  2.7722  0.9022
22436SOL    HW270264   1.467   4.657   3.670 -1.1528 -0.3446 -0.4160
22437SOL     OW70265   0.960   0.158   0.773 -0.0024  0.0752 -0.5649
22437SOL    HW170266   1.039   0.179   0.725  0.2003 -0.2267 -0.3649
22437SOL    HW270267   0.931   0.074   0.738 -0.4030  0.3295 -0.8492
22438SOL     OW70268   5.761   9.422   1.658 -0.0534  0.1257  0.6025
22438SOL    HW170269   5.792   9.499   1.705  3.6625 -2.0777  2.2432
22438SOL    HW270270   5.735   9.361   1.727 -1.7417 -0.6059 -0.6080
22439SOL     OW70271   1.458   0.829   7.974  0.4075  0.6606 -0.2373
22439SOL    HW170272   1.488   0.742   7.997  1.6915  0.9625 -0.7138
22439SOL    HW270273   1.374   0.814   7.929  1.2432 -0.4441 -1.4936
22440SOL     OW70274   2.227   1.070   1.180 -0.0573 -0.0707 -0.3199
22440SOL    HW170275   2.271   0.999   1.226  1.6009  0.9671 -0.1901
22440SOL    HW270276   2.141   1.076   1.221  0.2165 -1.2231  0.4643
22441SOL     OW70277   5.336   1.785   4.055 -0.4507 -0.0828  0.6599
22441SOL    HW170278   5.274   1.858   4.060  2.1035  2.1574  2.3637
22441SOL    HW270279   5.372   1.790   3.967 -1.2327 -0.1597  0.3245
22442SOL     OW70280   6.353   0.699   4.932 -1.0658 -0.1534 -0.0209
22442SOL    HW170281   6.284   0.700   4.998  0.3130 -1.4442  1.5205
22442SOL    HW270282   6.388   0.610   4.934  1.5979  0.7905  0.3275
22443SOL     OW70283   9.040   1.678   2.714 -0.4772  0.2925 -0.7441
22443SOL    HW170284   9.003   1.606   2.663 -2.0354 -1.5313  2.6438
22443SOL    HW270285   8.964   1.727   2.745  0.2670  0.4843  0.8883
22444SOL     OW70286   9.480   5.807   5.091  0.3832  0.2532 -0.1990
22444SOL    HW170287   9.467   5.860   5.012  0.2953  2.9100  1.4917
22444SOL    HW270288   9.412   5.837   5.151  1.3505 -0.6703  1.4161
22445SOL     OW70289   3.242   5.025   0.214  0.2097  0.7480  0.2812
22445SOL    HW170290   3.322   4.992   0.174 -0.9264 -1.0719 -0.6297
22445SOL    HW270291   3.216   5.099   0.159 -0.0246 -0.2069 -0.9359
22446SOL     OW70292   0.361   8.141   3.010  0.2733 -0.3745  0.3292
22446SOL    HW170293   0.363   8.206   2.941  0.8349 -0.2995  0.4095
22446SOL    HW270294   0.380   8.058   2.966  0.0670 -0.4076  0.3041
22447SOL     OW70295   2.841   7.765   6.202  0.3405  0.0482  0.0227
22447SOL    HW170296   2.804   7.739   6.286 -0.2102 -0.6669 -0.4211
22447SOL    HW270297   2.799   7.848   6.182 -0.3518 -0.3006 -0.0352
22448SOL     OW70298   9.582   3.653   8.820 -0.2194 -0.4406 -0.6074
22448SOL    HW170299   9.596   3.717   8.750 -1.0846  1.7465  1.0924
22448SOL    HW270300   9.667   3.646   8.864  0.8178 -3.1392 -2.7768
22449SOL     OW70301   1.899   2.856  10.151 -0.1757 -0.5071 -0.3066
22449SOL    HW170302   1.955   2.913  10.203  0.5593  0.0001 -1.6037
22449SOL    HW270303   1.811   2.870  10.186  0.5168 -1.8250  2.2155
22450SOL     OW70304   5.555   5.598   6.029  0.9693 -0.2194 -0.5315
22450SOL    HW170305   5.530   5.683   5.991  2.0686  1.4794  2.2694
22450SOL    HW270306   5.628   5.568   5.974  1.3431  1.2493 -0.8756
22451SOL     OW70307   8.032   1.450   3.061  0.1686 -0.2211 -0.3357
22451SOL    HW170308   7.999   1.422   2.976 -0.3324  0.3149 -0.3227
22451SOL    HW270309   8.067   1.538   3.045 -0.9228  0.3391  0.2328
22452SOL     OW70310   4.420   1.902   8.971  0.1076 -0.2167  0.0150
22452SOL    HW170311   4.410   1.922   8.878 -1.3000  0.4385  0.2743
22452SOL    HW270312   4.352   1.836   8.989  1.3104 -1.4258  0.2861
22453SOL     OW70313   5.907   0.465   5.040  0.5565 -0.7249 -0.5094
22453SOL    HW170314   5.936   0.518   4.966  1.8207  0.5404  0.8428
22453SOL    HW270315   5.975   0.399   5.051  1.5005  0.4128  0.8113
22454SOL     OW70316   5.233   4.101   9.973  0.2088  0.5029 -0.6748
22454SOL    HW170317   5.145   4.116   9.939  0.3843  1.7147 -0.6645
22454SOL    HW270318   5.291   4.138   9.906  0.8958 -2.7757 -2.0491
22455SOL     OW70319   1.243   8.820   4.513 -0.2358  0.2613 -0.0070
22455SOL    HW170320   1.337   8.802   4.503 -0.0751  1.3269 -0.6099
22455SOL    HW270321   1.239   8.913   4.537 -1.1335  0.2055  0.0833
22456SOL     OW70322   4.195   5.456   2.965 -0.0012 -0.3620  0.6860
22456SOL    HW170323   4.107   5.481   2.993 -0.2179  0.4503 -0.6301
22456SOL    HW270324   4.185   5.435   2.872  1.4404  1.1297  0.1543
22457SOL     OW70325   9.689   9.857   6.036 -0.0151  0.2694  0.3398
22457SOL    HW170326   9.602   9.854   6.076 -0.4045  2.2850 -0.2533
22457SOL    HW270327   9.724   9.941   6.063  0.3104  1.0575 -2.2762
22458SOL     OW70328   5.496   2.128   5.051  0.4138  0.0170  0.2301
22458SOL    HW170329   5.541   2.211   5.034  1.5946 -0.7185 -0.4344
22458SOL    HW270330   5.430   2.149   5.117  0.9310  1.3979  0.3457
22459SOL     OW70331   8.587   9.013   9.336 -0.6491  0.2425 -1.1174
22459SOL    HW170332   8.681   9.033   9.342 -0.2772 -1.6451  0.8971
22459SOL    HW270333   8.554   9.027   9.425 -2.0047 -0.2636 -1.5138
22460SOL     OW70334   0.425  10.209   4.271 -0.2568 -0.4658 -0.5562
22460SOL    HW170335   0.518  10.231   4.262 -0.7955  1.0302 -3.4306
22460SOL    HW270336   0.426  10.122   4.311  2.3052 -0.0296  0.5865
22461SOL     OW70337   4.018   9.001   1.815  0.7643  0.5006 -0.1929
22461SOL    HW170338   4.097   8.998   1.868  0.5773  1.4628  0.1718
22461SOL    HW270339   3.947   9.004   1.879  0.4564  0.1498 -0.5134
22462SOL     OW70340   1.212   3.969   2.951 -0.6439 -0.3323 -0.1071
22462SOL    HW170341   1.276   3.982   3.020 -0.8740  0.9547 -0.1242
22462SOL    HW270342   1.154   3.901   2.985 -1.0682  0.6536  1.1890
22463SOL     OW70343   8.644   3.148   8.325 -0.3724  0.1258 -0.2108
22463SOL    HW170344   8.707   3.111   8.387  0.2658  0.0827 -0.8687
22463SOL    HW270345   8.645   3.242   8.342  1.4039  0.4027 -1.5465
22464SOL     OW70346   8.755   6.759   8.854  0.8284 -0.3331 -0.0243
22464SOL    HW170347   8.706   6.686   8.894 -1.8659  0.4319 -1.6773
22464SOL    HW270348   8.780   6.814   8.929 -0.2157 -1.1719  0.9932
22465SOL     OW70349   5.898   4.068   5.715  0.9325  0.2364 -0.4769
22465SOL    HW170350   5.910   4.003   5.646  1.2688  0.4714 -0.6443
22465SOL    HW270351   5.807   4.095   5.708  0.7175 -0.4052 -0.2395
22466SOL     OW70352   8.344   6.109   0.074  0.5059 -0.0486 -0.3696
22466SOL    HW170353   8.257   6.071   0.082  1.5077 -2.4317  0.2658
22466SOL    HW270354   8.364   6.106  -0.020 -0.0961  0.5832 -0.5255
22467SOL     OW70355   4.948   7.935  10.210 -0.2611 -0.3170  0.0864
22467SOL    HW170356   4.916   7.852  10.244 -1.6037 -0.3129 -1.0607
22467SOL    HW270357   5.026   7.913  10.159  0.9155 -0.4985  1.8760
22468SOL     OW70358   0.904   5.462   1.120  0.0236 -0.1640 -0.2830
22468SOL    HW170359   0.902   5.557   1.104 -0.4967 -0.2103 -0.5379
22468SOL    HW270360   0.990   5.434   1.089 -0.4994 -0.0573 -1.9372
22469SOL     OW70361   0.530  10.009   5.135 -0.2175  0.3291  0.5252
22469SOL    HW170362   0.614   9.970   5.155 -0.7808  0.1780  2.8218
22469SOL    HW270363   0.547  10.103   5.130 -0.0182  0.3714  1.7535
22470SOL     OW70364   2.082   8.714   0.379  0.5086  0.0351  0.1744
22470SOL    HW170365   2.052   8.802   0.400  0.2792 -0.0501  0.2002
22470SOL    HW270366   2.176   8.716   0.398  0.3777  0.0739  0.8330
22471SOL     OW70367   6.199   3.395   8.046  0.0397 -0.4146  0.1126
22471SOL    HW170368   6.292   3.396   8.026  0.7453  0.1732  2.9731
22471SOL    HW270369   6.187   3.464   8.111 -2.0100 -1.6869  1.2246
22472SOL     OW70370   7.974   8.986   2.293 -0.0386 -0.2405  0.0269
22472SOL    HW170371   7.909   8.959   2.228  1.4954 -1.2936 -1.1228
22472SOL    HW270372   7.932   8.966   2.377 -0.0944 -3.8341 -0.6858
22473SOL     OW70373   5.262   6.468   1.588  0.4765 -0.5693  0.3122
22473SOL    HW170374   5.274   6.540   1.650 -1.3695  0.6217 -0.5891
22473SOL    HW270375   5.350   6.438   1.567  1.2762  1.0993  1.1327
22474SOL     OW70376   1.643   0.552   6.564 -0.7401  0.6913 -0.0278
22474SOL    HW170377   1.590   0.511   6.495 -0.4781 -0.3804  0.3917
22474SOL    HW270378   1.668   0.637   6.527  0.7766 -0.4835 -1.9488
22475SOL     OW70379   0.312   6.209   8.666 -0.6534 -0.0900  0.3191
22475SOL    HW170380   0.386   6.264   8.692  0.0930 -0.0726 -1.6964
22475SOL    HW270381   0.326   6.126   8.712 -0.1534  0.3877  1.0363
22476SOL     OW70382   7.118   4.120   6.634 -0.1008  0.1502 -0.0713
22476SOL    HW170383   7.047   4.058   6.649  0.3689 -0.7916 -1.4478
22476SOL    HW270384   7.079   4.206   6.645 -1.6947 -0.3228 -1.5965
22477SOL     OW70385   0.749   9.570   5.796  0.3368 -0.1173 -0.1021
22477SOL    HW170386   0.711   9.650   5.833  1.3776 -0.0271  0.8119
22477SOL    HW270387   0.843   9.587   5.792  0.5855 -1.3427  0.2058
22478SOL     OW70388   1.481   6.257   2.294 -0.4120 -0.3637  1.3331
22478SOL    HW170389   1.565   6.286   2.328  0.5272 -0.7645 -0.5188
22478SOL    HW270390   1.426   6.335   2.295  0.8160  0.5623  0.1862
22479SOL     OW70391   6.908   7.525   5.243  0.2208  0.4717  0.6805
22479SOL    HW170392   6.840   7.591   5.258  0.2423  0.3246  1.4443
22479SOL    HW270393   6.907   7.511   5.148 -1.7864 -0.5742  0.7970
22480SOL     OW70394   4.186   4.987   0.040  0.1358 -0.2744 -0.1765
22480SOL    HW170395   4.188   4.962  -0.053  1.2606 -1.0852  0.0419
22480SOL    HW270396   4.207   4.906   0.086  1.5881  0.5546  0.6892
22481SOL     OW70397   2.087   3.790  10.098 -0.5692 -0.3677  0.0102
22481SOL    HW170398   2.055   3.859  10.156  1.5727  1.1016 -0.4221
22481SOL    HW270399   2.175   3.772  10.129 -0.0733 -0.8993 -1.6069
22482SOL     OW70400   1.368   4.142   4.539 -0.0799 -0.7443 -0.0129
22482SOL    HW170401   1.350   4.060   4.493 -0.6025  0.0261 -1.2406
22482SOL    HW270402   1.296   4.150   4.602 -0.3677 -0.9343 -0.3131
22483SOL     OW70403  10.270   5.531   3.472 -0.0301 -0.1694 -0.3070
22483SOL    HW170404  10.304   5.486   3.394 -0.1560 -1.2184  0.2352
22483SOL    HW270405  10.280   5.624   3.451  2.4732 -0.4230 -0.4730
22484SOL     OW70406   4.122  10.021   7.060 -0.4306 -0.4283 -0.0313
22484SOL    HW170407   4.117   9.926   7.074  0.6252 -0.5525 -0.4626
22484SOL    HW270408   4.133  10.057   7.148 -0.2263 -0.7550  0.0798
22485SOL     OW70409   6.568   4.296   2.853  0.1316  0.1757 -0.5094
22485SOL    HW170410   6.652   4.310   2.898 -0.0874  0.4648 -0.1781
22485SOL    HW270411   6.589   4.242   2.777  0.2746 -1.8987  0.8961
22486SOL     OW70412  10.234   3.457   9.639 -0.0581  0.4879 -0.4854
22486SOL    HW170413  10.216   3.549   9.657  0.9944  0.1923  2.5366
22486SOL    HW270414  10.166   3.410   9.687  2.0445 -0.3481  1.8461
22487SOL     OW70415   9.786   4.572   0.032 -0.0239  0.6346 -0.2549
22487SOL    HW170416   9.771   4.547   0.123  1.5735 -0.4651 -0.2375
22487SOL    HW270417   9.848   4.645   0.038 -0.2642  0.8534 -0.4463
22488SOL     OW70418   2.716   2.810   7.245 -0.0675 -0.0082 -0.1996
22488SOL    HW170419   2.710   2.822   7.151 -0.0356  0.3372 -0.1589
22488SOL    HW270420   2.688   2.720   7.260  1.3623 -0.5690 -0.7050
22489SOL     OW70421   1.026   8.933   1.525 -0.1267 -0.1385  0.0445
22489SOL    HW170422   1.002   8.852   1.569 -1.5702 -0.0376 -0.5153
22489SOL    HW270423   1.044   8.995   1.596  0.4439 -0.7824  0.4742
22490SOL     OW70424   4.588   1.898   9.532 -0.2330 -0.2057  0.1776
22490SOL    HW170425   4.609   1.887   9.440  1.3910  0.2133  0.4781
22490SOL    HW270426   4.621   1.985   9.555  0.2024 -0.6565  1.3569
22491SOL     OW70427   8.248   9.364   2.151  0.3401  0.9305  0.0708
22491SOL    HW170428   8.214   9.299   2.212  1.2101  0.4310  0.0459
22491SOL    HW270429   8.268   9.440   2.206  1.3689  0.3918  0.4785
22492SOL     OW70430   2.054   7.592   6.860  0.3290 -0.4581  0.2187
22492SOL    HW170431   2.125   7.627   6.806 -0.1392 -1.2382 -0.9297
22492SOL    HW270432   2.070   7.497   6.862 -0.1659 -0.5328  0.7211
22493SOL     OW70433   7.434   1.008  10.199 -0.2774  0.0405  0.0113
22493SOL    HW170434   7.392   1.088  10.233  0.3440  1.3295 -2.0385
22493SOL    HW270435   7.383   0.986  10.121  1.4855  0.3761 -1.2933
22494SOL     OW70436   6.078   1.416   3.019  0.1284 -0.5152 -0.4921
22494SOL    HW170437   6.132   1.434   3.096  1.3100 -1.8934 -0.9455
22494SOL    HW270438   6.058   1.322   3.025  0.1311 -0.6192 -1.7739
22495SOL     OW70439   3.538   2.252   6.791 -0.1474  0.3708  0.3517
22495SOL    HW170440   3.594   2.285   6.862 -2.2087  1.6300  1.5144
22495SOL    HW270441   3.475   2.323   6.776 -0.3228 -0.2301 -2.1794
22496SOL     OW70442   1.940  10.567   5.264  0.3453 -0.4176  0.1001
22496SOL    HW170443   1.950  10.661   5.279  1.6131 -0.4256 -0.5467
22496SOL    HW270444   1.998  10.525   5.327 -1.6237 -0.8901  1.6814
22497SOL     OW70445   0.341   4.644   4.372 -0.2129  0.2994 -0.3499
22497SOL    HW170446   0.335   4.571   4.433 -0.5683  1.6434  1.3219
22497SOL    HW270447   0.293   4.615   4.294  0.3986 -1.5422 -0.0871
22498SOL     OW70448   3.368  10.401   8.632 -0.4837 -0.5451 -0.1355
22498SOL    HW170449   3.364  10.336   8.702 -0.2148  0.6357  1.0198
22498SOL    HW270450   3.361  10.485   8.677 -0.9245  0.2371 -1.5934
22499SOL     OW70451   6.450   3.703   2.871 -0.0258 -0.1565  0.0787
22499SOL    HW170452   6.509   3.776   2.891  1.4677 -1.2717 -0.0373
22499SOL    HW270453   6.473   3.680   2.781  0.4037 -1.5356  0.5267
22500SOL     OW70454  10.490   5.995   8.730 -0.2644  0.2357  0.0921
22500SOL    HW170455  10.581   6.025   8.738 -0.1847 -0.1220  0.5997
22500SOL    HW270456  10.459   5.989   8.821 -0.7852  0.3184 -0.0749
22501SOL     OW70457   2.770   0.064   4.657 -0.0161 -0.3801  0.2001
22501SOL    HW170458   2.708  -0.007   4.670 -0.6954  0.3944  1.3875
22501SOL    HW270459   2.808   0.048   4.570 -0.7350 -1.7202  0.1144
22502SOL     OW70460   5.212   2.053   8.837 -0.7291  0.0399  0.1166
22502SOL    HW170461   5.211   1.979   8.776  2.3622  0.6404 -0.8355
22502SOL    HW270462   5.290   2.104   8.812 -0.6965  1.6454  3.0421
22503SOL     OW70463   7.219   9.081   7.103  0.8829 -0.1065  0.4097
22503SOL    HW170464   7.281   9.014   7.072 -0.9481 -0.5171 -2.8149
22503SOL    HW270465   7.183   9.119   7.023 -0.7103  2.3478  2.1643
22504SOL     OW70466   5.025   8.040   4.341 -0.3129  0.0147 -0.4461
22504SOL    HW170467   4.978   7.956   4.337 -1.5820  0.7504 -2.0419
22504SOL    HW270468   5.033   8.067   4.250 -0.5879  1.9872  0.0695
22505SOL     OW70469   8.695   0.521   3.511  0.1239 -0.0495  0.0754
22505SOL    HW170470   8.717   0.474   3.430 -1.3618 -1.1883  0.3057
22505SOL    HW270471   8.600   0.517   3.517  0.1821  0.2419  1.7613
22506SOL     OW70472   3.952   9.857   0.075  0.2506  0.0775 -0.6418
22506SOL    HW170473   3.986   9.865  -0.014  1.2118  0.3672 -0.2647
22506SOL    HW270474   3.974   9.939   0.117 -2.0258  0.7765 -0.6962
22507SOL     OW70475   6.292   1.175   8.017  0.2581 -0.7430  0.2919
22507SOL    HW170476   6.224   1.143   7.957  0.5779  0.1842 -0.5906
22507SOL    HW270477   6.370   1.181   7.962  0.5540  0.1388  0.8047
22508SOL     OW70478   8.961   9.236   8.923  0.2209  0.5353  1.1473
22508SOL    HW170479   8.900   9.309   8.921 -0.3639  0.0586 -1.2975
22508SOL    HW270480   8.915   9.165   8.879  2.7567  0.4117 -1.6183
22509SOL     OW70481  10.332   2.415   6.344 -0.3832 -0.9475 -0.0812
22509SOL    HW170482  10.366   2.326   6.346  0.0952 -0.7799 -0.5840
22509SOL    HW270483  10.244   2.407   6.308 -0.7225 -1.3277  0.7984
22510SOL     OW70484   2.207   9.457   6.859  0.7041  0.3508  0.3144
22510SOL    HW170485   2.262   9.509   6.801  1.9796 -0.7481  0.4713
22510SOL    HW270486   2.157   9.401   6.801 -0.8296  1.8437  0.1351
22511SOL     OW70487  10.595   2.886  10.362 -0.0436 -0.1286 -0.4925
22511SOL    HW170488  10.685   2.920  10.359 -0.0543  0.3191  2.1832
22511SOL    HW270489  10.545   2.952  10.410 -1.5176 -0.9933 -0.7619
22512SOL     OW70490   5.399   9.191   6.733 -0.6028  0.7104  0.3656
22512SOL    HW170491   5.488   9.204   6.700  0.0050  1.1077  2.0783
22512SOL    HW270492   5.362   9.124   6.675  0.3171  1.5281 -1.2311
22513SOL     OW70493   7.521   3.634  10.111 -0.1070  0.0657 -0.7137
22513SOL    HW170494   7.551   3.563  10.168  1.3774  0.4752 -0.9445
22513SOL    HW270495   7.426   3.635  10.122  0.0817 -0.2397  1.3118
22514SOL     OW70496   9.700   6.695   4.253  0.0308  0.2641 -0.1970
22514SOL    HW170497   9.679   6.654   4.337  3.6004  1.7179  1.6737
22514SOL    HW270498   9.708   6.622   4.192 -1.2826 -1.0062  1.0620
22515SOL     OW70499   8.575   4.343  10.522  0.2982  0.9219 -0.0665
22515SOL    HW170500   8.610   4.258  10.496 -2.4971  0.1617 -1.7692
22515SOL    HW270501   8.538   4.328  10.609  0.3604  0.5616 -0.1027
22516SOL     OW70502   8.111   8.715   5.309  0.3574  0.2850 -0.3844
22516SOL    HW170503   8.032   8.733   5.256  1.0643 -0.8667 -1.9211
22516SOL    HW270504   8.150   8.802   5.324 -0.9980  0.8383  0.1116
22517SOL     OW70505   8.901   7.930   0.100  0.3102 -0.5356  0.3662
22517SOL    HW170506   8.859   7.884   0.173  1.8759  0.4712  1.9791
22517SOL    HW270507   8.988   7.889   0.093  1.8986  2.2504  2.0956
22518SOL     OW70508   0.381  10.427   8.241  0.0754  0.6983 -0.0459
22518SOL    HW170509   0.445  10.443   8.309  1.0314 -1.8409 -0.2223
22518SOL    HW270510   0.317  10.368   8.283 -2.0861  2.9847  0.0609
22519SOL     OW70511   0.765   5.790   2.131  0.3157 -0.0817  0.4630
22519SOL    HW170512   0.672   5.794   2.155  0.6176  1.2861  1.5370
22519SOL    HW270513   0.805   5.862   2.179  2.2207 -1.5749  1.2696
22520SOL     OW70514   8.938   5.236   5.412  0.3576 -0.2909 -0.6219
22520SOL    HW170515   8.905   5.268   5.496  1.7593  0.9819 -0.5072
22520SOL    HW270516   8.884   5.280   5.346  1.6801  1.7487 -0.4384
22521SOL     OW70517   7.871   6.295   9.367  0.1613  0.6202 -0.1280
22521SOL    HW170518   7.942   6.246   9.325  0.4811  0.7829  0.2141
22521SOL    HW270519   7.873   6.265   9.458 -0.9669 -0.2391 -0.3629
22522SOL     OW70520   8.863   1.061  10.373 -0.3687  0.0581 -0.1827
22522SOL    HW170521   8.887   1.153  10.384  1.7868 -0.3033 -1.2732
22522SOL    HW270522   8.946   1.016  10.360 -1.4606 -1.8803 -0.8955
22523SOL     OW70523   8.248   6.430   6.547  0.0598  0.0408  0.7001
22523SOL    HW170524   8.168   6.388   6.515  0.1964 -0.0760  0.5110
22523SOL    HW270525   8.268   6.496   6.480  0.0212  0.1930  0.8384
22524SOL     OW70526  10.155   7.868   2.486  0.1306 -0.4333  0.4994
22524SOL    HW170527  10.176   7.896   2.397  0.2196 -3.2991 -0.4718
22524SOL    HW270528  10.060   7.854   2.484 -0.1457  1.0462  1.4004
22525SOL     OW70529   5.465   7.670   7.727  0.0637  0.2845 -0.7864
22525SOL    HW170530   5.482   7.674   7.821 -0.9039  0.1864 -0.6001
22525SOL    HW270531   5.550   7.689   7.687  0.0219  2.8127  0.0872
22526SOL     OW70532   3.151   1.650   9.657  0.1622  0.4270 -0.5336
22526SOL    HW170533   3.214   1.623   9.724  0.7300 -0.1926 -1.3023
22526SOL    HW270534   3.097   1.717   9.701 -0.4344 -0.9833  0.9981
22527SOL     OW70535   9.481   6.537   2.077  0.2030 -0.2472  0.6334
22527SOL    HW170536   9.499   6.446   2.054 -1.0521 -0.4447  0.4008
22527SOL    HW270537   9.389   6.551   2.055 -1.3640 -0.5651  5.7970
22528SOL     OW70538   7.981   9.777   2.912 -0.1751 -0.4496 -0.6449
22528SOL    HW170539   8.014   9.688   2.900  0.6373 -0.1529 -0.6996
22528SOL    HW270540   7.886   9.766   2.923  0.0954 -1.4888  1.1180
22529SOL     OW70541  10.225   9.049   0.905 -0.6130 -0.4792 -0.1689
22529SOL    HW170542  10.249   8.956   0.911 -0.0639 -0.4107 -1.0908
22529SOL    HW270543  10.191   9.059   0.816 -0.0668  0.3375 -0.2951
22530SOL     OW70544  10.243   2.269   2.298  0.4822  0.0091  0.1669
22530SOL    HW170545  10.204   2.203   2.356  0.1457 -0.9434 -1.1064
22530SOL    HW270546  10.324   2.294   2.343 -1.2349  1.6602  2.6114
22531SOL     OW70547  10.591   9.371   0.485 -0.3856 -0.0743  0.0239
22531SOL    HW170548  10.613   9.386   0.393 -1.0977 -1.2392 -0.3538
22531SOL    HW270549  10.505   9.328   0.483 -1.2267  1.4168  1.3170
22532SOL     OW70550   4.890   4.904   8.568 -1.4110  0.3509  0.3853
22532SOL    HW170551   4.849   4.892   8.482  1.0464 -0.8408 -0.7141
22532SOL    HW270552   4.924   4.994   8.566  0.0573 -0.1851 -0.6147
22533SOL     OW70553   4.044  10.281   9.092  0.0988 -0.4686  0.3416
22533SOL    HW170554   3.988  10.282   9.170 -0.7846  1.8632 -0.2349
22533SOL    HW270555   4.012  10.206   9.041 -0.2762 -1.1454  1.5138
22534SOL     OW70556  10.085   9.011   7.581 -0.1418 -0.3873  0.8451
22534SOL    HW170557  10.053   9.101   7.581 -0.1520 -0.2791 -2.5773
22534SOL    HW270558  10.012   8.960   7.615 -0.8145  0.6958  1.0966
22535SOL     OW70559   5.834   9.189   3.074  0.4864  0.4851  0.0104
22535SOL    HW170560   5.893   9.162   3.004  0.4178  0.2364  0.0474
22535SOL    HW270561   5.888   9.188   3.153 -0.2400 -2.7519  0.6134
22536SOL     OW70562   4.494   0.006   5.413 -0.8613 -0.0332  0.1082
22536SOL    HW170563   4.492  -0.066   5.350  0.8306  0.5637 -0.6922
22536SOL    HW270564   4.410   0.051   5.401 -2.0811 -1.9936  0.8433
22537SOL     OW70565   4.255   5.811   5.350 -0.0224 -0.5178  0.9514
22537SOL    HW170566   4.216   5.822   5.437 -0.7823 -1.4150  0.7451
22537SOL    HW270567   4.266   5.716   5.341  1.3334 -0.3591  0.6049
22538SOL     OW70568   7.385   5.844   8.606 -0.4561 -1.0172 -0.2909
22538SOL    HW170569   7.294   5.840   8.574 -0.3941 -0.1043 -0.6072
22538SOL    HW270570   7.433   5.886   8.535 -0.5357  2.1960  1.3863
22539SOL     OW70571   4.341   9.726   1.117  0.2555 -0.2588 -0.4421
22539SOL    HW170572   4.393   9.658   1.160 -1.0840 -0.8786  0.2684
22539SOL    HW270573   4.277   9.677   1.064  0.1175  0.4673 -0.9545
22540SOL     OW70574   3.677   9.134   9.504  0.2250 -0.4621 -0.4922
22540SOL    HW170575   3.769   9.107   9.506  0.0992 -0.8629  1.4666
22540SOL    HW270576   3.628   9.055   9.524 -0.4293  0.1366  0.3464
22541SOL     OW70577   8.221   3.455   4.810  0.2102  0.0066 -0.6536
22541SOL    HW170578   8.297   3.487   4.762  0.2468 -0.6703 -1.0584
22541SOL    HW270579   8.234   3.361   4.816 -1.4217 -0.3767 -2.2252
22542SOL     OW70580   2.137   4.039   8.496 -0.0681 -0.4634  0.7076
22542SOL    HW170581   2.127   4.100   8.569 -1.0292  0.1997  0.0471
22542SOL    HW270582   2.061   4.056   8.440  0.9785 -0.4869 -0.7778
22543SOL     OW70583   5.598   0.531  10.142 -0.1549  0.2219 -0.1860
22543SOL    HW170584   5.688   0.541  10.175 -0.6114  0.1599  1.1192
22543SOL    HW270585   5.568   0.621  10.127 -0.5221  0.3518  1.2123
22544SOL     OW70586   1.682   3.168   1.963  0.5653 -0.3774 -0.0165
22544SOL    HW170587   1.680   3.122   1.879  1.7541  0.8676 -0.7648
22544SOL    HW270588   1.679   3.098   2.028 -3.1708 -1.3102 -0.9702
22545SOL     OW70589   2.934   9.591   8.061 -0.2352  0.1881  0.2289
22545SOL    HW170590   2.854   9.637   8.036 -1.2195 -1.0395  1.0073
22545SOL    HW270591   2.995   9.609   7.989 -2.4067 -1.8608 -2.3758
22546SOL     OW70592   0.195   2.988   1.936  0.0876  0.2375  0.0586
22546SOL    HW170593   0.248   2.980   1.856 -1.6903  0.1203 -1.1788
22546SOL    HW270594   0.187   2.898   1.968  0.1479  0.1772 -0.0930
22547SOL     OW70595   2.193   2.711   1.019 -0.3691 -0.4645 -0.0549
22547SOL    HW170596   2.243   2.791   1.007 -1.2294  0.2939  1.1517
22547SOL    HW270597   2.253   2.651   1.061 -0.1061  0.0128  0.2574
22548SOL     OW70598   7.905   3.738   1.890 -0.1003 -0.4698 -0.5183
22548SOL    HW170599   7.947   3.736   1.804  0.1530 -1.3881 -0.3870
22548SOL    HW270600   7.813   3.757   1.871 -0.0583 -0.7293 -1.0034
22549SOL     OW70601   7.436   0.307   7.287  0.3396 -0.2965 -0.0281
22549SOL    HW170602   7.364   0.248   7.313  1.0090 -0.1091  2.5766
22549SOL    HW270603   7.400   0.358   7.215 -1.3103 -1.8108 -0.3680
22550SOL     OW70604  10.451   8.019   7.805  0.3566 -0.0141 -0.4053
22550SOL    HW170605  10.440   8.005   7.711 -0.2130  1.0872 -0.5196
22550SOL    HW270606  10.367   8.055   7.834  0.3471 -0.8236  0.6289
22551SOL     OW70607   4.358   4.998   3.847 -0.5380  0.3531  0.4021
22551SOL    HW170608   4.379   5.031   3.759 -1.0037 -0.9570 -0.2418
22551SOL    HW270609   4.374   5.072   3.905 -0.8461  1.4632 -0.8640
22552SOL     OW70610   1.531   6.885   8.060 -0.4632 -0.1421 -0.1847
22552SOL    HW170611   1.573   6.934   8.131 -1.0972  0.9856 -0.5625
22552SOL    HW270612   1.439   6.908   8.065 -0.6049 -0.4496 -1.0568
22553SOL     OW70613   2.623   7.010   9.699  0.4323 -0.2049 -0.6769
22553SOL    HW170614   2.608   6.917   9.683  1.6004 -1.0113  2.1589
22553SOL    HW270615   2.600   7.053   9.617  1.0548 -3.1060 -2.5242
22554SOL     OW70616   7.702   2.858   1.571  0.1018  0.9401 -0.0963
22554SOL    HW170617   7.770   2.801   1.535 -0.2049 -0.0233  0.7791
22554SOL    HW270618   7.750   2.932   1.608  0.7899 -0.1486  1.2914
22555SOL     OW70619   0.952   9.209   2.109 -0.3766 -0.1371 -0.1308
22555SOL    HW170620   0.928   9.302   2.111 -1.3530 -0.3632 -0.8197
22555SOL    HW270621   0.892   9.168   2.171 -0.0207 -0.3327  0.0882
22556SOL     OW70622   6.048   6.015   1.788  0.0215 -0.2729 -0.5860
22556SOL    HW170623   5.954   6.028   1.782  0.1235  0.1597 -1.4443
22556SOL    HW270624   6.083   6.101   1.812  0.1276 -0.6547  0.7022
22557SOL     OW70625   5.890   7.392   2.140 -0.2602 -0.0385  0.0387
22557SOL    HW170626   5.899   7.327   2.210 -0.2576 -0.0618  0.0165
22557SOL    HW270627   5.802   7.378   2.106  0.0913 -0.6956 -0.6332
22558SOL     OW70628  10.355   9.520   3.824  0.1841  0.0782  1.1235
22558SOL    HW170629  10.352   9.578   3.747  0.5882 -2.1018 -0.6565
22558SOL    HW270630  10.283   9.550   3.879 -1.4769  0.4801 -1.1056
22559SOL     OW70631   6.757   9.797   8.585  0.0250  0.0511 -0.1956
22559SOL    HW170632   6.753   9.862   8.515  0.4219  0.5157  0.2061
22559SOL    HW270633   6.706   9.723   8.552  0.3590  0.1923 -1.0480
22560SOL     OW70634   9.217   8.641   8.568 -0.4496 -0.1739  0.0240
22560SOL    HW170635   9.248   8.636   8.659 -0.4538 -1.9199 -0.0330
22560SOL    HW270636   9.132   8.684   8.574 -0.3535 -0.0839  0.8294
22561SOL     OW70637  10.612   9.444   4.234  0.0342 -0.0434  0.0683
22561SOL    HW170638  10.570   9.435   4.148 -3.4156  0.8761  1.4836
22561SOL    HW270639  10.621   9.538   4.246  0.9175 -0.1837  0.5781
22562SOL     OW70640   0.338   4.119   2.143  0.4049  0.1814 -0.2923
22562SOL    HW170641   0.404   4.119   2.074 -0.6411 -0.7298 -1.3514
22562SOL    HW270642   0.331   4.027   2.169  0.2234  0.4030  0.4734
22563SOL     OW70643   2.451   9.811   9.786 -0.4589 -0.4439 -0.1733
22563SOL    HW170644   2.500   9.894   9.787 -1.3140  0.0786 -0.3747
22563SOL    HW270645   2.376   9.829   9.729 -1.4180 -0.9104  0.9259
22564SOL     OW70646   0.814   1.439   5.077 -0.7258 -0.0494 -0.6350
22564SOL    HW170647   0.790   1.472   5.164  2.6290  2.1082 -0.3478
22564SOL    HW270648   0.881   1.373   5.094  1.0331  1.4012 -1.4630
22565SOL     OW70649   7.714   0.025  10.192 -0.0405 -0.2301  0.2422
22565SOL    HW170650   7.671  -0.060  10.188 -0.2126 -0.1394  0.1445
22565SOL    HW270651   7.693   0.059  10.279  1.6716 -1.1461  1.0593
22566SOL     OW70652   0.329   9.548   6.323 -0.0102  0.3869  1.2273
22566SOL    HW170653   0.331   9.642   6.343 -0.9004  0.6280  0.2671
22566SOL    HW270654   0.407   9.534   6.269  0.1481  0.5566  1.4085
22567SOL     OW70655   2.767   1.596   7.787  0.6279  0.0141 -0.1512
22567SOL    HW170656   2.820   1.529   7.830 -0.2678 -0.4142  0.3214
22567SOL    HW270657   2.714   1.547   7.724  0.2073  0.3257 -0.0434
22568SOL     OW70658   9.796   9.877   6.610 -0.1133 -0.3582 -0.1096
22568SOL    HW170659   9.843   9.861   6.692  1.0959  0.8722 -0.5245
22568SOL    HW270660   9.864   9.873   6.542 -0.7617  0.5409 -0.8310
22569SOL     OW70661   0.819   7.555   5.972 -0.4872 -0.0630  0.5291
22569SOL    HW170662   0.769   7.537   6.052 -1.5297  0.3837 -0.0023
22569SOL    HW270663   0.753   7.585   5.909  0.2071 -1.0952 -0.7341
22570SOL     OW70664   8.080   1.822  10.649  0.1524 -0.1656  0.3587
22570SOL    HW170665   8.094   1.729  10.634 -0.7374 -0.6419  2.2165
22570SOL    HW270666   8.007   1.826  10.711 -0.3611  1.8017 -0.2996
22571SOL     OW70667   6.674   7.073   7.943 -0.1555 -0.3844 -0.6227
22571SOL    HW170668   6.754   7.028   7.967  0.1711  0.8773  0.8390
22571SOL    HW270669   6.613   7.004   7.918  0.7173 -1.5125  0.2977
22572SOL     OW70670  10.691   1.433   0.153  0.2581  0.0732 -0.1911
22572SOL    HW170671  10.727   1.403   0.237  0.4368  0.7425 -0.0200
22572SOL    HW270672  10.644   1.513   0.175  1.0547  0.7389 -0.8659
22573SOL     OW70673   5.495   2.032   0.131  0.0952 -0.2852  0.3254
22573SOL    HW170674   5.442   2.110   0.146  0.0646 -0.1828 -0.2671
22573SOL    HW270675   5.579   2.066   0.099 -0.9026 -0.5272 -2.8951
22574SOL     OW70676  10.180  10.031   3.895  0.1640 -0.2173  0.5973
22574SOL    HW170677  10.155  10.084   3.820  1.7085  1.6294  1.2872
22574SOL    HW270678  10.101  10.025   3.948 -0.7184 -0.8324 -0.7152
22575SOL     OW70679   6.539   6.820   9.337 -0.0200 -0.0069 -0.1731
22575SOL    HW170680   6.582   6.877   9.401 -0.3443 -0.7772  0.7626
22575SOL    HW270681   6.590   6.831   9.257 -0.3186  1.8875 -0.1451
22576SOL     OW70682   2.225   2.332   3.540 -0.2466 -0.4725 -0.2060
22576SOL    HW170683   2.168   2.283   3.481 -1.6336 -1.6924  2.0047
22576SOL    HW270684   2.289   2.268   3.570  1.1503  0.4147 -1.1828
22577SOL     OW70685   7.561  10.108   7.721  0.1443 -0.0025  0.0628
22577SOL    HW170686   7.612  10.036   7.757 -0.3295 -0.6758 -0.5764
22577SOL    HW270687   7.505  10.067   7.655 -0.4976  0.8744  0.0422
22578SOL     OW70688   2.227   5.678   4.212  0.0648  0.2697 -0.2409
22578SOL    HW170689   2.195   5.756   4.166 -1.0409 -0.0130  0.0152
22578SOL    HW270690   2.256   5.710   4.297  0.8761  0.5905 -0.6253
22579SOL     OW70691   3.371   3.083   6.808  0.0588  0.5707 -0.3763
22579SOL    HW170692   3.414   3.104   6.725 -0.9139 -0.7986 -1.2706
22579SOL    HW270693   3.386   2.989   6.819  1.9990  1.0812  2.1152
22580SOL     OW70694   7.743   9.148   6.909 -0.0338 -0.5805  1.0215
22580SOL    HW170695   7.777   9.236   6.922 -2.1037  0.4940 -0.3259
22580SOL    HW270696   7.766   9.127   6.819 -0.0657 -1.1908  1.1535
22581SOL     OW70697   3.299   0.296   5.512  0.3365 -0.2155  0.1145
22581SOL    HW170698   3.258   0.209   5.516 -2.9570  1.2115  0.9382
22581SOL    HW270699   3.304   0.325   5.603 -1.0735  1.3963 -0.2559
22582SOL     OW70700   7.526   4.022   0.033  0.4402 -0.3704 -0.1633
22582SOL    HW170701   7.583   3.959   0.078 -0.5673 -1.6299 -0.5682
22582SOL    HW270702   7.490   3.972  -0.040 -1.9910  0.0255  0.6781
22583SOL     OW70703  10.642   2.538   9.955  0.5036  0.1639  0.2677
22583SOL    HW170704  10.664   2.630   9.938  0.2606  0.3356  0.8281
22583SOL    HW270705  10.552   2.529   9.922  0.0014  0.5196  1.4861
22584SOL     OW70706   5.742   6.732   5.249 -0.5859  0.1192  0.1907
22584SOL    HW170707   5.805   6.782   5.198  1.5262 -0.3445  2.1754
22584SOL    HW270708   5.795   6.668   5.297 -2.9157 -2.3960 -0.3543
22585SOL     OW70709   7.308   1.543   4.315 -0.3832 -0.1356  0.7163
22585SOL    HW170710   7.395   1.551   4.354  0.1068 -1.9680  0.0597
22585SOL    HW270711   7.270   1.630   4.326  1.4546  0.6682  1.1567
22586SOL     OW70712   5.905   7.765   3.665  0.4057  0.0173 -0.0538
22586SOL    HW170713   5.905   7.716   3.747  0.9035 -1.0967 -0.6961
22586SOL    HW270714   5.964   7.839   3.682 -0.9975  0.9121  1.1847
22587SOL     OW70715   3.355   5.006   7.469  0.5474 -0.1292 -0.1957
22587SOL    HW170716   3.270   5.023   7.428  1.2828 -0.3972 -1.9206
22587SOL    HW270717   3.392   4.933   7.418  1.8505  0.0382  0.4665
22588SOL     OW70718   5.854   5.378   9.431 -0.4484  0.1385  0.6527
22588SOL    HW170719   5.843   5.283   9.428 -0.5714  0.1176  1.6061
22588SOL    HW270720   5.933   5.395   9.380 -0.1804 -0.5146  0.8519
22589SOL     OW70721  10.672   7.665   0.297 -0.4987  0.2871 -0.6301
22589SOL    HW170722  10.714   7.699   0.218  1.3608  0.1819  0.2671
22589SOL    HW270723  10.658   7.742   0.352  2.0888 -0.0891  0.6591
22590SOL     OW70724   4.630   6.216   5.503  0.4622  0.3553 -0.2330
22590SOL    HW170725   4.676   6.186   5.425 -1.8501 -2.1618 -0.8141
22590SOL    HW270726   4.596   6.135   5.542 -1.3695  1.8438  1.4200
22591SOL     OW70727   6.440   3.717   7.131 -0.0434  0.1191  0.1192
22591SOL    HW170728   6.436   3.788   7.194  0.3044  0.1694  0.0822
22591SOL    HW270729   6.533   3.705   7.113 -0.1671  0.5972 -0.9401
22592SOL     OW70730   8.778   8.702   4.000  0.2589 -0.2234  0.3529
22592SOL    HW170731   8.701   8.756   3.982  0.9154  0.4826 -0.3865
22592SOL    HW270732   8.751   8.614   3.973 -0.1469  0.1025 -0.3475
22593SOL     OW70733   3.170   5.062   8.150  0.2696 -0.5163 -0.3111
22593SOL    HW170734   3.230   5.121   8.196 -0.9626  0.3361  0.2685
22593SOL    HW270735   3.227   5.005   8.099  1.6312 -0.6856  1.3102
22594SOL     OW70736   6.200   7.791   5.402 -0.0252 -0.2606  0.0191
22594SOL    HW170737   6.276   7.846   5.386  0.5366 -1.6558 -2.8797
22594SOL    HW270738   6.192   7.737   5.323 -2.6583 -1.8058  1.1741
22595SOL     OW70739   3.080   8.942   1.935 -0.0168  0.4367  0.3274
22595SOL    HW170740   3.095   8.914   2.025  0.4981  0.0004  0.1133
22595SOL    HW270741   2.992   8.980   1.936  0.4104  1.4474  1.2472
22596SOL     OW70742   9.337   7.026  10.124 -0.0648 -0.7182 -0.5712
22596SOL    HW170743   9.382   7.091  10.178 -0.8342  0.4410 -1.2722
22596SOL    HW270744   9.383   6.944  10.141 -0.4589 -0.4883  2.0768
22597SOL     OW70745   2.257   8.023   1.285 -0.0131 -0.0401 -0.8438
22597SOL    HW170746   2.287   8.020   1.194  1.8832 -0.5522 -0.2371
22597SOL    HW270747   2.297   8.102   1.320 -0.3135 -0.1229 -0.3081
22598SOL     OW70748   5.287   9.887   2.021 -0.6955 -0.5732 -0.8751
22598SOL    HW170749   5.354   9.890   2.090 -0.4565 -1.4515 -1.0547
22598SOL    HW270750   5.211   9.932   2.059  0.0377  0.5647 -0.7266
22599SOL     OW70751  10.614   2.807   9.389  0.5256 -0.1342 -0.7608
22599SOL    HW170752  10.617   2.893   9.348  1.2924  0.3048  0.1592
22599SOL    HW270753  10.696   2.765   9.363  1.6390  0.6418  1.2633
22600SOL     OW70754   2.120   7.073   9.428  0.1044 -0.6472  0.3719
22600SOL    HW170755   2.102   7.159   9.464 -1.0447 -0.1322 -1.2926
22600SOL    HW270756   2.033   7.033   9.418  0.5143 -1.4246 -0.1937
22601SOL     OW70757   7.029   6.858   1.520  0.8334 -0.1729 -0.2535
22601SOL    HW170758   7.011   6.861   1.614 -0.5792  0.7576 -0.5089
22601SOL    HW270759   7.030   6.765   1.498  1.5605 -0.4114  0.7334
22602SOL     OW70760   6.837   1.376   9.635  0.9375  0.4541 -0.1704
22602SOL    HW170761   6.812   1.469   9.630  3.1588  1.1424  0.5018
22602SOL    HW270762   6.813   1.350   9.724 -0.8576 -0.0344 -0.7526
22603SOL     OW70763   6.409   4.479   4.574 -0.7599 -0.1772 -0.1697
22603SOL    HW170764   6.494   4.519   4.556 -0.2323 -0.9290  0.5963
22603SOL    HW270765   6.382   4.515   4.658 -0.8582 -0.4690 -0.0725
22604SOL     OW70766   2.936   5.112   6.255 -0.5008  0.1313 -0.8587
22604SOL    HW170767   2.959   5.178   6.190  1.8234 -1.4389 -1.7658
22604SOL    HW270768   2.941   5.158   6.339 -0.2503  1.3978 -1.5422
22605SOL     OW70769   6.334   3.130  10.603  0.3124 -0.4019 -0.3535
22605SOL    HW170770   6.298   3.191  10.667  0.2768 -2.4505  1.7281
22605SOL    HW270771   6.260   3.076  10.576  0.8697 -1.4856  0.2075
22606SOL     OW70772   5.589  10.676   8.605 -0.1924 -0.3536  0.1072
22606SOL    HW170773   5.569  10.586   8.630 -0.3880 -0.2649  0.2726
22606SOL    HW270774   5.538  10.730   8.666 -1.6824 -0.1266 -1.2557
22607SOL     OW70775   1.436   3.473   9.962  0.2113  0.3495 -0.8609
22607SOL    HW170776   1.501   3.498  10.028  1.0815  0.6565 -1.8164
22607SOL    HW270777   1.389   3.399  10.001  0.8836  0.3593 -0.0056
22608SOL     OW70778  10.157   0.016   9.959 -0.6942 -0.1710 -0.0585
22608SOL    HW170779  10.140   0.026   9.865  0.1923 -2.3259 -0.5076
22608SOL    HW270780  10.073  -0.012   9.995 -0.5274 -1.4786 -0.6225
22609SOL     OW70781   1.655   6.675   7.099  0.8447 -0.4157  0.6168
22609SOL    HW170782   1.627   6.748   7.156  2.1213 -0.4397  1.3146
22609SOL    HW270783   1.611   6.599   7.136 -0.3506 -0.0421  0.0000
22610SOL     OW70784   6.604   7.540   3.588 -0.2238 -0.0070  0.1606
22610SOL    HW170785   6.640   7.463   3.545  2.7477  1.9458 -1.1876
22610SOL    HW270786   6.515   7.549   3.553 -0.7744 -2.8678  0.6048
22611SOL     OW70787   6.759   7.151   1.538 -0.1285 -0.0659  0.2510
22611SOL    HW170788   6.713   7.141   1.455  1.0651  1.5464 -0.6718
22611SOL    HW270789   6.818   7.225   1.524  1.8021 -1.2056  1.7677
22612SOL     OW70790   4.883   0.276   0.383  0.1150  0.2410 -0.1417
22612SOL    HW170791   4.933   0.218   0.325 -1.1708  0.1557 -1.1857
22612SOL    HW270792   4.800   0.231   0.398 -0.0369  0.8034  0.8397
22613SOL     OW70793   9.191  10.647   0.314  0.2543 -0.3031  0.7751
22613SOL    HW170794   9.142  10.651   0.232 -0.1429 -1.0348  0.9670
22613SOL    HW270795   9.253  10.720   0.309  0.2165 -0.3297 -0.1607
22614SOL     OW70796   8.161   2.654   9.887  0.3854  0.4427  0.4268
22614SOL    HW170797   8.115   2.735   9.864 -0.8878 -0.3550  0.0426
22614SOL    HW270798   8.251   2.668   9.857  0.5435  2.2188  1.5907
22615SOL     OW70799   3.034   3.773   0.838  0.0558  0.3397  0.6476
22615SOL    HW170800   3.018   3.860   0.801  2.4436  1.0023  0.9647
22615SOL    HW270801   2.959   3.720   0.811 -1.2055  2.3492 -0.0002
22616SOL     OW70802   7.734   3.146   3.299  0.3984 -0.2775 -0.5061
22616SOL    HW170803   7.684   3.205   3.356  2.5662  0.0306  1.2197
22616SOL    HW270804   7.757   3.072   3.355  0.4055 -1.2527 -1.7567
22617SOL     OW70805   3.996   4.847   0.874 -0.5326 -0.0320  0.1941
22617SOL    HW170806   3.963   4.931   0.843 -1.3041 -0.3056  0.2531
22617SOL    HW270807   4.074   4.831   0.821  0.3594  1.2973  1.0287
22618SOL     OW70808   8.843   1.704   8.985 -0.0870 -0.0499  0.3248
22618SOL    HW170809   8.782   1.630   8.981  0.9587 -0.8993 -0.5704
22618SOL    HW270810   8.850   1.724   9.078 -0.4888 -1.0102  0.5714
22619SOL     OW70811   4.812   0.750   2.508 -0.0669 -0.0486  0.0913
22619SOL    HW170812   4.849   0.782   2.426  1.4329  1.6066  1.3147
22619SOL    HW270813   4.859   0.668   2.525 -1.1864 -0.9971 -1.2031
22620SOL     OW70814   0.083   8.369   9.266  0.2295 -0.1856  0.1916
22620SOL    HW170815   0.169   8.329   9.250 -0.0230 -1.5068  1.9051
22620SOL    HW270816   0.024   8.294   9.274 -0.6322  0.6184  1.5045
22621SOL     OW70817   8.936  10.020   8.619  0.1246  0.4491  0.8162
22621SOL    HW170818   8.851  10.043   8.583  0.7682 -1.6782 -2.5946
22621SOL    HW270819   8.917   9.956   8.688 -1.1107 -1.3966 -1.1106
22622SOL     OW70820   4.518   3.221   6.003  0.0270 -0.5296  0.3946
22622SOL    HW170821   4.512   3.310   5.968 -1.3602 -0.5718  0.4726
22622SOL    HW270822   4.472   3.167   5.939  0.2616 -1.0985  0.6929
22623SOL     OW70823   5.314   0.392   8.110  0.0352  0.5171  0.5317
22623SOL    HW170824   5.363   0.316   8.138 -2.9830 -1.0922  1.9158
22623SOL    HW270825   5.266   0.363   8.033  1.3694  2.1466 -1.0084
22624SOL     OW70826   1.746   3.867   5.952  0.0219 -0.0606  0.0088
22624SOL    HW170827   1.753   3.928   5.879  0.8938 -0.4461 -0.2382
22624SOL    HW270828   1.704   3.918   6.021  1.8050  1.2415  0.2236
22625SOL     OW70829   3.440   9.472   2.824  0.4753  0.0007 -0.0268
22625SOL    HW170830   3.428   9.509   2.912 -2.6095 -0.5735 -0.0765
22625SOL    HW270831   3.475   9.545   2.772  1.2213  0.7047  1.3893
22626SOL     OW70832   3.705   9.405   9.542 -0.4809  0.3584 -0.2483
22626SOL    HW170833   3.622   9.453   9.544 -1.6779 -1.6307  1.7125
22626SOL    HW270834   3.679   9.313   9.533  1.4488 -0.3891  1.2552
22627SOL     OW70835   1.923   0.670   6.877  0.0925  0.2968  0.1782
22627SOL    HW170836   1.982   0.597   6.859  1.8490  1.5460  0.6081
22627SOL    HW270837   1.887   0.651   6.964  2.1774  0.9296  1.2298
22628SOL     OW70838   9.581   1.423   5.731 -0.2383  0.7713 -0.5775
22628SOL    HW170839   9.516   1.492   5.720  0.7091  1.4961 -1.8790
22628SOL    HW270840   9.653   1.447   5.672  1.3938  0.2046  1.0563
22629SOL     OW70841   8.214   2.285   0.418  0.0947 -0.2837 -0.1812
22629SOL    HW170842   8.285   2.314   0.475  0.0098 -1.0440  0.3296
22629SOL    HW270843   8.257   2.236   0.349  0.1082 -0.2667 -0.1846
22630SOL     OW70844   0.639   9.494   9.146  0.1707  0.2120 -0.0163
22630SOL    HW170845   0.624   9.471   9.238  1.4373 -0.5836  0.0187
22630SOL    HW270846   0.718   9.445   9.122  0.3031  1.0214 -1.3064
22631SOL     OW70847   1.847   4.548   5.106  0.5724  0.0978  0.3476
22631SOL    HW170848   1.813   4.532   5.194  1.3617  0.1942  0.6814
22631SOL    HW270849   1.909   4.620   5.117 -0.7596  1.4614 -0.6359
22632SOL     OW70850   4.751   7.576   8.784  0.1349  0.2581 -0.2273
22632SOL    HW170851   4.669   7.532   8.806  0.1226  0.6427  0.5230
22632SOL    HW270852   4.810   7.551   8.855  0.5888  0.2138 -0.6152
22633SOL     OW70853   4.578   5.964   6.716 -0.0371 -0.2057  0.7557
22633SOL    HW170854   4.542   6.049   6.738 -0.3579  0.5282 -2.1507
22633SOL    HW270855   4.666   5.983   6.683  0.1536 -1.0891  0.7192
22634SOL     OW70856   6.100   1.203   3.814 -0.0564 -0.7974 -0.0594
22634SOL    HW170857   6.172   1.260   3.841 -2.5625  2.6971  0.0512
22634SOL    HW270858   6.121   1.179   3.724  0.6559  1.3446 -0.5250
22635SOL     OW70859  10.194   0.573   4.350 -0.2974  0.2794 -0.5566
22635SOL    HW170860  10.169   0.487   4.384  1.0009  0.2103  0.2938
22635SOL    HW270861  10.131   0.633   4.389  0.2186 -0.0079  0.7789
22636SOL     OW70862   6.208   8.777   3.547 -0.3019 -0.2157 -0.5322
22636SOL    HW170863   6.176   8.767   3.636  1.4310  0.6014  0.2346
22636SOL    HW270864   6.130   8.770   3.492 -1.2390 -2.1634  0.9202
22637SOL     OW70865   0.655   9.724   3.014 -0.1174  0.4354  1.0290
22637SOL    HW170866   0.738   9.710   2.969 -0.3637 -0.6196  0.8904
22637SOL    HW270867   0.680   9.746   3.104  0.3542  1.9935  0.5448
22638SOL     OW70868   4.249   4.392   3.282 -0.0016 -0.1269 -0.1388
22638SOL    HW170869   4.203   4.464   3.239 -1.0399 -0.8612 -0.3073
22638SOL    HW270870   4.307   4.435   3.345 -0.0613  0.8752 -0.7423
22639SOL     OW70871   7.964   2.364   2.736  0.0014 -0.1763  0.4593
22639SOL    HW170872   7.968   2.314   2.654  1.1723 -0.6566  0.7902
22639SOL    HW270873   8.034   2.328   2.790  0.6440  1.5539  0.8682
22640SOL     OW70874   9.390   4.140   0.651  0.2767  0.2084  0.0775
22640SOL    HW170875   9.425   4.052   0.649  1.2895  0.6034 -0.1739
22640SOL    HW270876   9.352   4.153   0.564  0.1540  0.0307  0.1055
22641SOL     OW70877   4.664   7.752   1.938 -0.1847  0.0987 -0.6387
22641SOL    HW170878   4.589   7.692   1.932  0.7457 -1.7504  2.9809
22641SOL    HW270879   4.737   7.704   1.900 -0.1616  0.4829 -1.0822
22642SOL     OW70880   6.733   3.328   9.772 -0.0731  0.6019  0.6226
22642SOL    HW170881   6.673   3.254   9.765  0.4197  0.1195  1.4092
22642SOL    HW270882   6.813   3.298   9.728  0.1398  0.6553  0.9760
22643SOL     OW70883   0.482   2.153   1.840 -0.3022 -0.2508  0.0983
22643SOL    HW170884   0.468   2.243   1.872 -3.7891  0.0164 -1.7181
22643SOL    HW270885   0.444   2.097   1.907  0.3571 -0.3015  0.4418
22644SOL     OW70886   4.456  10.112   6.463 -0.4152  0.0370  0.4996
22644SOL    HW170887   4.470  10.029   6.418 -1.0413 -0.6182  1.4683
22644SOL    HW270888   4.476  10.179   6.397  0.1022 -0.8723 -0.2924
22645SOL     OW70889   3.997   7.669  10.265  0.0526  0.4564  0.5302
22645SOL    HW170890   3.984   7.763  10.280  0.8679  0.5596  0.6301
22645SOL    HW270891   4.091   7.660  10.250  0.0571 -0.4219  1.0588
22646SOL     OW70892   7.340   6.703   0.285 -0.1784  0.4060  0.2993
22646SOL    HW170893   7.404   6.685   0.216 -0.6176  1.0247 -0.2829
22646SOL    HW270894   7.363   6.642   0.356  1.1732  0.7519  0.1888
22647SOL     OW70895   0.931   3.702   9.433  0.0087  0.1957 -0.1185
22647SOL    HW170896   0.969   3.789   9.421  1.6923 -0.4266  0.2919
22647SOL    HW270897   0.990   3.643   9.386 -0.0572 -0.9053  1.0960
22648SOL     OW70898   5.379  10.366   7.085 -0.6741 -0.2310  0.2441
22648SOL    HW170899   5.312  10.390   7.149 -0.3945 -0.0332  0.4633
22648SOL    HW270900   5.459  10.406   7.118 -0.3502 -0.8679  0.2377
22649SOL     OW70901   7.264   7.229  10.634 -0.3580 -0.6619 -0.2324
22649SOL    HW170902   7.349   7.210  10.673  0.0884  0.5983 -0.5479
22649SOL    HW270903   7.200   7.196  10.697  0.3261  1.5684  1.7395
22650SOL     OW70904   9.202   5.211   5.886  0.2696 -0.0382  0.0139
22650SOL    HW170905   9.163   5.127   5.862  1.1415 -0.3679 -0.3033
22650SOL    HW270906   9.142   5.276   5.850 -0.9133 -0.4990  1.0687
22651SOL     OW70907   2.616   3.588   0.245 -0.3760  0.2894  0.1488
22651SOL    HW170908   2.556   3.515   0.261 -1.1174  0.9129  0.2686
22651SOL    HW270909   2.564   3.651   0.195 -0.5058  1.7437  1.9851
22652SOL     OW70910  10.224   5.217   8.340 -0.2062 -0.2504  0.1578
22652SOL    HW170911  10.249   5.203   8.431 -2.6659 -0.1488  0.8995
22652SOL    HW270912  10.191   5.307   8.337  1.5600  0.4248 -1.2928
22653SOL     OW70913   9.238   3.233   9.811  0.6557  0.0715 -0.5034
22653SOL    HW170914   9.184   3.184   9.749 -1.3714  0.1941  1.0815
22653SOL    HW270915   9.282   3.165   9.863  1.5812 -0.0257 -1.3801
22654SOL     OW70916   6.776   9.933   6.954 -0.7208  0.0938 -0.1954
22654SOL    HW170917   6.856   9.970   6.991 -0.2670  1.1963 -2.1589
22654SOL    HW270918   6.741   9.877   7.024  0.6946  1.1198  1.4158
22655SOL     OW70919   4.932   0.045   4.636 -0.2607 -0.0058 -0.2337
22655SOL    HW170920   4.863   0.107   4.658  0.0123  0.7597 -1.4131
22655SOL    HW270921   4.983   0.089   4.568  0.9097 -0.8792  0.0325
22656SOL     OW70922   5.423   3.854   1.143 -0.4400  0.1881 -0.7506
22656SOL    HW170923   5.394   3.881   1.055 -0.0843 -1.0070 -1.2566
22656SOL    HW270924   5.458   3.766   1.130  0.2605  0.2722  0.4783
22657SOL     OW70925   9.626   1.585   3.858  1.2139  0.0829 -0.2993
22657SOL    HW170926   9.581   1.564   3.776 -0.0435 -1.2012  0.6792
22657SOL    HW270927   9.621   1.681   3.864 -0.8770  0.0353 -0.5349
22658SOL     OW70928   2.859   7.252   2.220 -0.5571 -0.5059 -0.1001
22658SOL    HW170929   2.808   7.331   2.201 -1.3572 -1.1005 -0.4592
22658SOL    HW270930   2.875   7.213   2.134  0.1231 -0.5716  0.0494
22659SOL     OW70931   1.356   5.889   7.506 -0.4513 -0.1448 -0.4980
22659SOL    HW170932   1.450   5.907   7.512 -0.8592  1.9425  0.5964
22659SOL    HW270933   1.316   5.975   7.502 -2.3369 -1.0048 -1.1570
22660SOL     OW70934   1.595   3.663   4.733 -0.1349 -0.0563 -0.8490
22660SOL    HW170935   1.563   3.621   4.653  0.5477 -1.2745 -0.5065
22660SOL    HW270936   1.663   3.723   4.703 -1.5885  1.4030 -1.4185
22661SOL     OW70937   1.421   0.564   7.193  0.1103 -0.6527  0.6253
22661SOL    HW170938   1.354   0.522   7.140  0.1134 -0.5315  0.5246
22661SOL    HW270939   1.503   0.543   7.148  0.1172 -0.5930  0.6095
22662SOL     OW70940   5.773   6.126   3.675 -0.5149 -0.5992 -0.0320
22662SOL    HW170941   5.743   6.035   3.673 -2.0574 -0.1061 -0.6938
22662SOL    HW270942   5.753   6.156   3.763 -2.2786 -0.2141 -0.5243
22663SOL     OW70943   1.540   8.968   8.260 -0.0674  0.3824 -0.2911
22663SOL    HW170944   1.565   8.939   8.348  1.4559  0.5240 -0.6485
22663SOL    HW270945   1.546   8.890   8.206 -0.6480  0.3735 -0.3504
22664SOL     OW70946   4.561   2.375   2.062  0.1102  0.1871 -0.2467
22664SOL    HW170947   4.592   2.287   2.083 -2.1514 -0.6434 -0.1643
22664SOL    HW270948   4.621   2.433   2.109  1.1339 -1.3133  0.3961
22665SOL     OW70949   9.425   0.986   5.651 -0.2147  0.7045 -0.2636
22665SOL    HW170950   9.451   0.896   5.670 -2.0488  0.2042  0.0592
22665SOL    HW270951   9.474   1.009   5.571  1.6659  0.1071  0.6469
22666SOL     OW70952   2.582   4.973   2.412  0.3427  0.1204  0.0334
22666SOL    HW170953   2.656   5.022   2.375  1.5802 -0.0508  2.1382
22666SOL    HW270954   2.622   4.901   2.460 -1.3985 -2.4648 -2.1091
22667SOL     OW70955   7.663   7.749   6.814  0.5445 -0.2042  0.2789
22667SOL    HW170956   7.628   7.751   6.903  0.4094 -0.0595  0.2232
22667SOL    HW270957   7.586   7.736   6.759  0.8673 -3.0323  0.3348
22668SOL     OW70958   8.418   3.087   2.402  0.4123 -0.1383 -0.1237
22668SOL    HW170959   8.429   3.104   2.495 -2.0533  0.3247  0.1418
22668SOL    HW270960   8.368   3.005   2.398  2.2113 -1.2645 -1.1364
22669SOL     OW70961   2.433   3.841   3.580 -0.3286 -0.3205  0.2072
22669SOL    HW170962   2.502   3.811   3.522 -0.2153 -0.0155  0.1806
22669SOL    HW270963   2.466   3.825   3.669 -0.3616 -0.4798  0.1896
22670SOL     OW70964   0.739   4.178   0.014  0.1744  0.7045 -0.7782
22670SOL    HW170965   0.772   4.268   0.007 -0.6550  1.0012 -0.9233
22670SOL    HW270966   0.772   4.134  -0.065  1.5215  0.5614 -0.1584
22671SOL     OW70967   6.002   4.332  10.419 -0.2003  0.1176 -0.4294
22671SOL    HW170968   5.913   4.356  10.395 -0.8252 -2.3056 -0.8544
22671SOL    HW270969   6.049   4.328  10.336  0.3540  1.4163 -0.2033
22672SOL     OW70970   8.795   8.767   4.321  0.0981 -0.4657 -0.4558
22672SOL    HW170971   8.832   8.711   4.389 -2.9546 -0.0340  1.7392
22672SOL    HW270972   8.745   8.707   4.265 -0.3565 -0.3592 -0.1623
22673SOL     OW70973   0.096   5.355   8.928  0.5170  0.5837 -0.0764
22673SOL    HW170974   0.176   5.369   8.878 -0.1528  0.6629 -1.1709
22673SOL    HW270975   0.125   5.345   9.019  1.7750  0.3351 -0.4914
22674SOL     OW70976   4.964   1.112   3.651 -0.4755 -0.3343  0.5962
22674SOL    HW170977   4.995   1.202   3.662  0.9361 -0.7459  0.2366
22674SOL    HW270978   5.009   1.062   3.719  0.4542 -1.1137 -0.5253
22675SOL     OW70979   3.137   5.482   1.217 -0.7659 -0.1541 -0.4240
22675SOL    HW170980   3.068   5.440   1.164 -1.0957 -0.1587 -0.0013
22675SOL    HW270981   3.169   5.411   1.274 -1.2252  0.1197  0.1938
22676SOL     OW70982   1.428   3.623   3.892  0.2208  0.0542  0.0682
22676SOL    HW170983   1.386   3.708   3.877  0.8389  0.2656 -0.5552
22676SOL    HW270984   1.465   3.600   3.806 -1.6861 -1.8310 -0.3378
22677SOL     OW70985   4.985   9.856   9.844 -0.1985  0.3610  0.1644
22677SOL    HW170986   4.937   9.938   9.828 -1.0963 -0.2814 -0.5799
22677SOL    HW270987   5.051   9.879   9.908 -0.2254  1.7524 -0.2720
22678SOL     OW70988  10.564   2.762   5.839 -0.4306 -0.2491  0.0289
22678SOL    HW170989  10.650   2.724   5.857 -0.9008 -0.5614  1.8108
22678SOL    HW270990  10.506   2.687   5.828 -0.0452 -0.1743 -4.3091
22679SOL     OW70991   2.897   2.694   6.718 -0.0377  0.1609 -0.4749
22679SOL    HW170992   2.979   2.692   6.768 -0.5144  1.3168  0.4131
22679SOL    HW270993   2.864   2.783   6.732 -1.7617 -0.4818 -0.2954
22680SOL     OW70994   7.237   0.543   5.573  0.2532 -0.2314 -0.8768
22680SOL    HW170995   7.236   0.621   5.630 -0.8645 -0.8309 -0.0359
22680SOL    HW270996   7.189   0.570   5.495  0.3769  0.1052 -0.8409
22681SOL     OW70997   7.314   8.151   9.254 -0.1511  0.1584  0.0496
22681SOL    HW170998   7.345   8.139   9.164 -1.0107 -1.7939 -0.0264
22681SOL    HW270999   7.244   8.215   9.246 -1.4478 -1.3084 -0.9980
22682SOL     OW71000   5.094   0.448   5.802 -0.2378 -0.0061 -0.1655
22682SOL    HW171001   5.037   0.419   5.730 -2.9710  0.3257  1.7205
22682SOL    HW271002   5.110   0.541   5.783 -0.2616 -0.1118 -0.7391
22683SOL     OW71003   6.737   6.574   7.090 -1.0733  0.2786  0.7830
22683SOL    HW171004   6.738   6.668   7.110 -1.3202  0.8583 -1.6156
22683SOL    HW271005   6.683   6.535   7.159 -0.4271  1.7652  2.2028
22684SOL     OW71006   1.248   5.076   8.323 -0.1614 -0.8348 -0.7750
22684SOL    HW171007   1.204   5.087   8.239 -0.1727  1.1035 -0.5527
22684SOL    HW271008   1.300   4.996   8.312  0.7208 -0.0400 -3.0336
22685SOL     OW71009   7.555   1.572   9.530 -0.2351  0.8081  0.5450
22685SOL    HW171010   7.520   1.590   9.443 -0.4582  0.0947  0.4823
22685SOL    HW271011   7.536   1.480   9.546  0.1610  0.8243  1.1869
22686SOL     OW71012  10.597   9.750   4.625 -0.2457 -0.0495 -0.3164
22686SOL    HW171013  10.550   9.820   4.578 -1.0625 -0.1867  0.2654
22686SOL    HW271014  10.528   9.690   4.652  0.4666 -1.1707 -0.9465
22687SOL     OW71015   3.081   1.937  10.620 -0.1686 -0.0236 -0.4546
22687SOL    HW171016   3.135   2.015  10.627 -0.1214  0.0822 -1.7682
22687SOL    HW271017   2.992   1.970  10.607 -0.0694 -0.1647 -1.5898
22688SOL     OW71018   0.324   4.952   5.255  0.6823 -0.1336  0.0401
22688SOL    HW171019   0.268   4.890   5.209  0.2096 -0.5376  1.1309
22688SOL    HW271020   0.394   4.898   5.292  0.8736  0.1355  0.0734
22689SOL     OW71021   6.275   6.523   9.228  0.8277  0.2150  0.1840
22689SOL    HW171022   6.292   6.563   9.314  2.2612 -2.3332  1.1959
22689SOL    HW271023   6.336   6.450   9.223  2.2457  1.3950 -3.9257
22690SOL     OW71024   4.951   4.005   4.245 -0.1773  0.1450 -0.4219
22690SOL    HW171025   4.939   4.098   4.266  0.6997  0.1620  0.0280
22690SOL    HW271026   5.045   3.990   4.253 -0.3430 -0.8551 -0.2185
22691SOL     OW71027   5.058   3.148   7.021  0.0555  0.0398  0.0525
22691SOL    HW171028   5.050   3.059   6.986 -1.4580  0.4351 -0.6611
22691SOL    HW271029   5.007   3.147   7.102 -2.3839  0.9416 -1.3688
22692SOL     OW71030   6.413   3.281   0.844 -0.0052  0.1409 -0.1039
22692SOL    HW171031   6.327   3.300   0.806  1.0334  1.1723 -2.0964
22692SOL    HW271032   6.472   3.279   0.769  1.3103 -3.4487  0.8504
22693SOL     OW71033  10.087   1.373   1.987  0.0105 -0.2613  0.0898
22693SOL    HW171034  10.166   1.408   2.028  0.5100 -1.5885  0.3075
22693SOL    HW271035  10.118   1.332   1.906 -0.8792  1.7492 -1.3479
22694SOL     OW71036   5.594   7.469   2.787 -0.7136  0.0373 -0.5096
22694SOL    HW171037   5.590   7.373   2.782  3.0148 -0.4147  1.4790
22694SOL    HW271038   5.560   7.489   2.874 -0.2080  0.3593 -0.3832
22695SOL     OW71039   4.432   0.775  10.040 -0.4524  0.5182  0.0869
22695SOL    HW171040   4.474   0.821  10.112  0.3470  4.8199 -2.7320
22695SOL    HW271041   4.347   0.818  10.031 -1.2437 -1.1033 -0.5226
22696SOL     OW71042   5.369   2.684   8.514 -0.1623 -0.6838 -0.3358
22696SOL    HW171043   5.300   2.691   8.448  0.5305 -1.3898 -1.1721
22696SOL    HW271044   5.405   2.596   8.500  0.4763 -0.5599  0.5078
22697SOL     OW71045   2.997   1.007   6.446 -0.5243  0.1944 -0.3348
22697SOL    HW171046   2.994   1.103   6.442 -0.9842  0.4013  2.7035
22697SOL    HW271047   2.906   0.980   6.458 -0.4023 -0.6480 -1.1829
22698SOL     OW71048   5.053   8.768   4.971 -0.1166 -0.1351  0.3819
22698SOL    HW171049   4.976   8.824   4.960  0.6557  0.6095 -1.7575
22698SOL    HW271050   5.100   8.807   5.044 -0.6152  0.7948  0.2250
22699SOL     OW71051   3.966   4.999   2.538 -0.7744  0.2192 -0.0821
22699SOL    HW171052   3.921   4.928   2.492  0.4166 -0.3776 -0.3618
22699SOL    HW271053   4.050   5.007   2.493 -0.6448  1.3912  0.3483
22700SOL     OW71054   4.617   7.127   5.160 -0.2961 -0.0921  0.6574
22700SOL    HW171055   4.551   7.101   5.225 -0.6452 -1.2458 -0.1300
22700SOL    HW271056   4.575   7.198   5.111  0.0424  0.9264  1.7845
22701SOL     OW71057  10.234   3.428   5.878 -0.3172 -0.6545  0.1652
22701SOL    HW171058  10.233   3.508   5.827 -0.0376 -0.7983 -0.0682
22701SOL    HW271059  10.143   3.399   5.879 -0.2089 -1.0859 -0.9440
22702SOL     OW71060   2.063   6.758   5.926  0.2370 -0.5047  0.1261
22702SOL    HW171061   2.048   6.788   6.016 -0.1869 -0.4346  0.0328
22702SOL    HW271062   2.091   6.667   5.937 -0.7653 -0.8092  0.2865
22703SOL     OW71063   6.083   3.153   7.765  0.7665  0.4643 -0.1473
22703SOL    HW171064   6.035   3.165   7.847  0.2701  0.5944 -0.4481
22703SOL    HW271065   6.124   3.067   7.774  1.1133  0.6822  0.4264
22704SOL     OW71066   7.508   1.904   4.444 -0.4294 -0.1432  0.1046
22704SOL    HW171067   7.561   1.826   4.456 -1.4210 -0.7170  0.8826
22704SOL    HW271068   7.532   1.961   4.517  0.1328  0.1997 -0.3391
22705SOL     OW71069   6.128   9.531   4.340  0.4242  0.1814  0.0283
22705SOL    HW171070   6.162   9.479   4.414  1.9908  1.3409  0.1783
22705SOL    HW271071   6.194   9.520   4.272  0.1313  0.9469 -0.3865
22706SOL     OW71072   2.996   2.167   2.820 -0.0889  0.9745  0.3579
22706SOL    HW171073   3.079   2.123   2.838 -0.4884 -0.0398 -0.2136
22706SOL    HW271074   2.990   2.169   2.724 -1.4492 -0.4118  0.3785
22707SOL     OW71075   0.112   9.219  10.692 -0.2331 -0.2421  0.0935
22707SOL    HW171076   0.044   9.224  10.625  0.3857 -0.2355 -0.5475
22707SOL    HW271077   0.194   9.218  10.642  0.1895 -2.4472  0.7100
22708SOL     OW71078   5.953   4.996  10.298 -0.0203  0.3045 -0.1297
22708SOL    HW171079   5.869   5.041  10.306  0.5045  1.2287  0.3564
22708SOL    HW271080   5.999   5.014  10.380  1.4507  1.5323 -1.1469
22709SOL     OW71081   1.666   5.268   3.985  0.3793  0.0680 -0.3579
22709SOL    HW171082   1.665   5.234   3.895 -1.9510 -0.9188 -0.0272
22709SOL    HW271083   1.694   5.193   4.038 -1.3468 -0.3561  0.0157
22710SOL     OW71084   7.945   1.503   4.790  0.4627 -0.0375  0.2339
22710SOL    HW171085   7.917   1.483   4.701  0.3921 -0.2682  0.3065
22710SOL    HW271086   7.868   1.482   4.844 -0.0178  1.4938  0.2011
22711SOL     OW71087   3.791   5.808   6.168 -0.2675  0.0846 -0.7736
22711SOL    HW171088   3.785   5.808   6.264  0.1565  1.0269 -0.7428
22711SOL    HW271089   3.701   5.794   6.139 -0.3475 -0.5484 -0.2403
22712SOL     OW71090   1.200   7.527   7.688  0.4721  0.2508  0.2235
22712SOL    HW171091   1.128   7.496   7.742  1.6606  0.7085  2.1833
22712SOL    HW271092   1.228   7.450   7.639  0.5127 -0.6761  1.6348
22713SOL     OW71093   6.127   2.252  10.567  0.0746 -0.3023  0.0387
22713SOL    HW171094   6.098   2.333  10.609  0.1200 -0.0382 -0.4291
22713SOL    HW271095   6.068   2.241  10.492  1.2319  0.3002 -0.9863
22714SOL     OW71096   4.513   2.915   5.205 -0.2942 -0.7692  0.5660
22714SOL    HW171097   4.524   2.899   5.111 -0.4465  1.1622  0.1864
22714SOL    HW271098   4.599   2.895   5.242  1.0187  2.1741 -0.5907
22715SOL     OW71099  10.259   7.645   4.043 -0.0816  0.0210 -0.3992
22715SOL    HW171100  10.247   7.669   3.951  0.6272 -0.6876 -0.6962
22715SOL    HW271101  10.353   7.628   4.051 -0.0571  0.5517  0.5810
22716SOL     OW71102   3.931   8.046   3.708 -0.0051 -0.6086  0.0676
22716SOL    HW171103   3.993   8.067   3.638 -0.7821  1.8275 -0.0238
22716SOL    HW271104   3.984   8.039   3.787  0.6352 -1.0501 -0.3957
22717SOL     OW71105   5.215  10.341   6.334 -0.0584  0.5232  0.2560
22717SOL    HW171106   5.277  10.406   6.367 -0.8523  0.6358  1.5771
22717SOL    HW271107   5.270  10.278   6.287  1.0633  0.6932  1.2828
22718SOL     OW71108   8.276   7.943  10.632 -0.0310 -0.0804  0.9523
22718SOL    HW171109   8.231   7.886  10.570  0.2667 -0.9295  1.5021
22718SOL    HW271110   8.206   7.979  10.687 -0.1755 -0.2829  0.9026
22719SOL     OW71111   1.637   6.496   4.779  0.3482 -0.6602  0.1250
22719SOL    HW171112   1.703   6.551   4.820 -0.6008  0.5840  0.0403
22719SOL    HW271113   1.657   6.500   4.685 -0.2104  0.2576  0.0296
22720SOL     OW71114   9.410   9.937   3.714 -0.1746 -0.7534  0.4382
22720SOL    HW171115   9.443  10.009   3.659  1.1231 -1.9984 -0.4967
22720SOL    HW271116   9.317   9.959   3.728 -0.5474 -0.2644 -2.1424
22721SOL     OW71117   4.471   8.323   0.759 -0.3102 -0.6329  0.5559
22721SOL    HW171118   4.510   8.322   0.671 -0.5569 -0.3843  0.4409
22721SOL    HW271119   4.426   8.239   0.766  0.2737 -0.9455  0.7084
22722SOL     OW71120   7.693  10.323   9.224 -0.2448  0.5799  0.0643
22722SOL    HW171121   7.600  10.345   9.220 -0.5436 -0.4742  0.8690
22722SOL    HW271122   7.727  10.375   9.297 -0.0896  1.2962 -0.5029
22723SOL     OW71123   3.278   7.219   4.027  0.4747  0.0174  0.0951
22723SOL    HW171124   3.355   7.162   4.030 -0.2973 -1.0685  0.0926
22723SOL    HW271125   3.299   7.285   3.962  0.7934 -1.1985 -1.0783
22724SOL     OW71126   0.058   3.725   5.973 -0.1405 -0.0349  0.2597
22724SOL    HW171127   0.127   3.705   5.910 -1.5111  1.2413 -1.7413
22724SOL    HW271128  -0.022   3.693   5.932 -1.3623  2.6803  0.3203
22725SOL     OW71129   1.414   8.321   3.616  0.1406  0.1696  0.0112
22725SOL    HW171130   1.434   8.411   3.591 -3.5376  1.3835  0.8445
22725SOL    HW271131   1.354   8.289   3.548  0.2606 -1.1376  0.4842
22726SOL     OW71132   4.432   4.253   1.732 -0.3300 -0.7145  0.1952
22726SOL    HW171133   4.364   4.236   1.796 -1.3518  0.3755 -0.5610
22726SOL    HW271134   4.386   4.294   1.658  0.7802 -2.0344 -1.2912
22727SOL     OW71135   9.671   6.732   9.091 -0.7761 -0.0277  0.2573
22727SOL    HW171136   9.679   6.782   9.172 -0.1833 -0.4069  0.4370
22727SOL    HW271137   9.667   6.799   9.022 -0.6111  0.2825  0.5454
22728SOL     OW71138  10.107   9.384   8.173  0.2681 -0.3026  0.8808
22728SOL    HW171139  10.170   9.367   8.102  0.2901  2.5164  0.1189
22728SOL    HW271140  10.162   9.398   8.250  0.3417 -1.4878  1.0624
22729SOL     OW71141   0.718   2.266   4.230  0.1822  0.2035  0.3582
22729SOL    HW171142   0.813   2.281   4.228 -0.0083  1.6628  1.0811
22729SOL    HW271143   0.699   2.246   4.321 -0.0946 -1.0329  0.0430
22730SOL     OW71144   4.432   1.397   6.101  0.1308 -0.5947 -0.0376
22730SOL    HW171145   4.372   1.470   6.087  0.4178 -0.1895  0.7482
22730SOL    HW271146   4.466   1.377   6.014 -2.2978 -1.8799 -0.7683
22731SOL     OW71147   4.844   4.544   0.484  0.0145 -0.5417  0.0512
22731SOL    HW171148   4.818   4.635   0.501  0.0542 -0.7236  1.1683
22731SOL    HW271149   4.869   4.511   0.570 -0.3734 -1.7315 -0.2842
22732SOL     OW71150   4.186   6.456   2.476  0.4262 -0.1212 -0.1549
22732SOL    HW171151   4.142   6.504   2.406 -0.0253 -0.1871  0.0800
22732SOL    HW271152   4.179   6.364   2.450 -0.7828 -0.2391  0.5539
22733SOL     OW71153   2.820   1.409   8.346 -0.2895 -0.4010  0.0780
22733SOL    HW171154   2.731   1.377   8.360 -1.3297  2.1857  0.0111
22733SOL    HW271155   2.863   1.398   8.430 -1.8242  1.4312  1.2105
22734SOL     OW71156   3.490   7.388   7.597  0.1296 -0.0502 -0.2290
22734SOL    HW171157   3.553   7.416   7.663  2.2183 -0.7966 -1.7838
22734SOL    HW271158   3.405   7.416   7.631  1.3173  1.3993  1.7643
22735SOL     OW71159   8.844   9.909   3.241  0.4808  0.3118  0.2806
22735SOL    HW171160   8.938   9.922   3.248  0.9503 -1.0026 -2.3603
22735SOL    HW271161   8.829   9.819   3.270  0.0080  0.5423  0.7758
22736SOL     OW71162   0.762   7.535   0.778  0.5382 -0.2018 -0.2293
22736SOL    HW171163   0.837   7.578   0.819 -0.6143  0.7325  0.9784
22736SOL    HW271164   0.721   7.487   0.849  1.8529 -3.5807 -1.5414
22737SOL     OW71165   9.511   1.152   9.691 -0.1136 -0.3686  0.0907
22737SOL    HW171166   9.590   1.204   9.705  1.2244 -2.6538  1.6805
22737SOL    HW271167   9.463   1.200   9.624  1.1412  2.6810  1.1878
22738SOL     OW71168   0.747   8.251   9.370 -0.8215  0.1120  0.3536
22738SOL    HW171169   0.679   8.316   9.390  0.1244  0.9594  0.9234
22738SOL    HW271170   0.732   8.179   9.431  0.1920  1.3333  2.1407
22739SOL     OW71171   2.444   9.535   6.678 -0.2997 -0.3772  0.0770
22739SOL    HW171172   2.461   9.623   6.644  2.0926 -0.3186  1.2545
22739SOL    HW271173   2.448   9.479   6.601  2.8192  0.0269 -0.1641
22740SOL     OW71174   5.764   1.408   7.813  0.4788  0.2386 -0.0118
22740SOL    HW171175   5.707   1.444   7.744  0.9255  2.4522  0.6844
22740SOL    HW271176   5.703   1.378   7.880  0.0878  1.0825  0.0238
22741SOL     OW71177   6.600   8.875   9.108 -0.3202  0.3412  0.0130
22741SOL    HW171178   6.541   8.934   9.155  0.4573  1.4412 -0.3517
22741SOL    HW271179   6.566   8.875   9.018 -0.1859  0.4071 -0.0366
22742SOL     OW71180  10.198   3.431   2.351 -0.1182  0.4975 -0.0078
22742SOL    HW171181  10.199   3.336   2.339  1.6228  0.5528 -0.7438
22742SOL    HW271182  10.287   3.452   2.379 -0.5775  1.8795  0.4871
22743SOL     OW71183   6.615   3.041   8.272 -0.3812 -0.1681 -0.2717
22743SOL    HW171184   6.633   3.098   8.197 -0.0860 -0.9072 -0.7775
22743SOL    HW271185   6.685   2.975   8.269 -0.5696 -0.4106  0.4511
22744SOL     OW71186   6.001  10.170   2.705  1.0471 -0.5764  0.2813
22744SOL    HW171187   6.036  10.195   2.620 -0.6875 -0.4246 -0.4349
22744SOL    HW271188   5.981  10.252   2.749  0.8315 -0.6607  0.3442
22745SOL     OW71189   7.532   7.768   6.354  0.3936 -0.4045 -0.1163
22745SOL    HW171190   7.610   7.726   6.318 -0.2894  0.5406 -2.9537
22745SOL    HW271191   7.521   7.848   6.302 -1.6847  0.2104  1.1300
22746SOL     OW71192  10.079   9.749   0.066  0.4755  0.4187  0.1145
22746SOL    HW171193  10.085   9.687  -0.006  1.9612 -0.5006  0.9708
22746SOL    HW271194  10.147   9.815   0.048  0.1385  0.7765  0.1381
22747SOL     OW71195   3.269   6.136   5.223 -0.2292  0.3883 -0.1538
22747SOL    HW171196   3.319   6.212   5.252  2.7601 -1.2625 -0.6128
22747SOL    HW271197   3.240   6.094   5.304 -1.6905  1.7565  0.1056
22748SOL     OW71198   5.026   1.988   5.486 -0.6232  0.3834  0.0169
22748SOL    HW171199   5.028   2.004   5.392 -0.0628  1.4997  0.1922
22748SOL    HW271200   4.962   2.050   5.520  0.1306  0.9235  0.5070
22749SOL     OW71201   2.357   6.592   3.847  0.3184 -0.1919 -0.3711
22749SOL    HW171202   2.283   6.615   3.904  2.3141  0.4769  2.1307
22749SOL    HW271203   2.383   6.505   3.876  1.6559  0.3514  0.1277
22750SOL     OW71204   2.469  10.324   6.425  0.0327  0.2958  0.2456
22750SOL    HW171205   2.565  10.328   6.432 -0.0910  1.5831  1.9076
22750SOL    HW271206   2.439  10.409   6.458 -1.7147 -0.2787  0.2518
22751SOL     OW71207   3.369   2.438   8.477  0.3157  0.0455 -0.3537
22751SOL    HW171208   3.364   2.524   8.435  0.1194 -0.6089 -1.7186
22751SOL    HW271209   3.290   2.432   8.529 -0.4457  0.0899 -1.4731
22752SOL     OW71210   1.961   1.294   8.932 -0.5007  0.2198  0.7134
22752SOL    HW171211   1.947   1.313   9.025  1.0369  2.2160  0.6141
22752SOL    HW271212   1.991   1.203   8.931 -1.1242 -0.0325  2.0920
22753SOL     OW71213   0.118   9.073   7.618 -0.2127 -0.3382  0.4180
22753SOL    HW171214   0.153   8.984   7.617  0.2072 -0.1874 -1.0558
22753SOL    HW271215   0.058   9.074   7.692 -1.3461 -2.2895 -0.3897
22754SOL     OW71216   7.349   6.821  10.551  0.4037  0.5219 -0.6871
22754SOL    HW171217   7.442   6.841  10.556  0.8572 -1.4963  0.3050
22754SOL    HW271218   7.311   6.866  10.626  0.7926  0.4418 -0.4376
22755SOL     OW71219   3.446   6.965   2.211  0.0824  0.0769  0.0475
22755SOL    HW171220   3.412   7.051   2.187  0.1893 -0.3100 -1.6696
22755SOL    HW271221   3.370   6.907   2.208  0.0999  0.0140  0.6905
22756SOL     OW71222   5.119   2.012   7.143  0.4886 -0.3505  0.2275
22756SOL    HW171223   5.037   2.008   7.094  2.0671 -2.3425 -2.5103
22756SOL    HW271224   5.115   1.938   7.203  0.2254 -0.3157  0.2564
22757SOL     OW71225   5.315   6.713   6.620  0.4680  0.4659  0.1876
22757SOL    HW171226   5.366   6.657   6.679 -1.8510 -0.9865  0.9315
22757SOL    HW271227   5.236   6.734   6.669 -0.1998  1.6771 -1.3437
22758SOL     OW71228   0.061   0.922   0.839  0.2821 -0.8585  0.2790
22758SOL    HW171229   0.127   0.990   0.853  0.1641 -0.3982 -1.2987
22758SOL    HW271230   0.085   0.881   0.756 -0.2533 -2.0674  0.6943
22759SOL     OW71231   8.955   7.028   5.006  0.3899 -0.2461  0.1358
22759SOL    HW171232   9.028   6.988   5.053  1.3032 -0.6969 -1.5689
22759SOL    HW271233   8.985   7.116   4.984  0.1484 -0.1910  0.0162
22760SOL     OW71234   1.091   3.114   1.399  0.4452  0.0355  0.0226
22760SOL    HW171235   1.178   3.151   1.416  0.8026 -0.5322 -0.5326
22760SOL    HW271236   1.035   3.190   1.386  0.9292  0.4027  0.0537
22761SOL     OW71237   3.818   0.400   8.930 -0.0583 -0.1821  0.8502
22761SOL    HW171238   3.823   0.432   9.020  0.0178  0.0280  0.7705
22761SOL    HW271239   3.785   0.310   8.939 -0.0278 -0.1704  1.0886
22762SOL     OW71240   1.166   8.901   4.095  0.5035  0.0004  0.6616
22762SOL    HW171241   1.155   8.977   4.153  0.9046 -0.5387  1.4515
22762SOL    HW271242   1.145   8.826   4.150 -1.0477 -0.4164 -0.4237
22763SOL     OW71243   2.747   5.522   3.208 -0.0843  0.3247 -0.4140
22763SOL    HW171244   2.810   5.523   3.135 -0.1973 -0.9096 -0.5604
22763SOL    HW271245   2.771   5.444   3.258 -0.8076  0.4609  0.1567
22764SOL     OW71246   2.988   1.908   9.272  0.6799  0.3470  0.2404
22764SOL    HW171247   2.975   1.823   9.314 -0.1287  1.7002  2.9789
22764SOL    HW271248   2.920   1.964   9.311 -1.3147  1.4519 -4.1714
22765SOL     OW71249   0.231   7.511   5.908 -0.2410 -0.1537  0.2240
22765SOL    HW171250   0.193   7.531   5.994 -1.0141 -2.3771  0.4670
22765SOL    HW271251   0.302   7.575   5.898  0.2438 -0.1784  2.7703
22766SOL     OW71252   5.465   9.578   7.421  0.1949  0.0750 -0.6437
22766SOL    HW171253   5.494   9.666   7.399 -0.3445  0.1474 -1.0867
22766SOL    HW271254   5.394   9.591   7.484 -0.4179 -0.0043 -1.3095
22767SOL     OW71255   4.399   6.466   9.007 -0.3778  0.5417  0.0669
22767SOL    HW171256   4.462   6.399   8.982 -0.0905  0.2324  1.5371
22767SOL    HW271257   4.325   6.454   8.947  0.3551 -0.0030 -0.7497
22768SOL     OW71258   5.615   5.861   8.841  0.2475  0.3769 -0.8859
22768SOL    HW171259   5.611   5.956   8.832  0.3150  0.3100 -1.7440
22768SOL    HW271260   5.597   5.845   8.933 -1.7927  1.1013 -1.0960
22769SOL     OW71261   7.225   3.668   4.231  0.0131 -0.3554  0.2754
22769SOL    HW171262   7.237   3.589   4.177  2.8625 -0.6783  1.2242
22769SOL    HW271263   7.234   3.636   4.321  0.0618  0.9074  0.7291
22770SOL     OW71264   9.410   9.895   1.503  0.1098  0.6250 -0.6550
22770SOL    HW171265   9.478   9.841   1.463  0.4989  2.3820 -2.5393
22770SOL    HW271266   9.455   9.938   1.576  0.8916  1.2846 -1.4959
22771SOL     OW71267  10.338   2.377   8.082 -0.2350 -0.7652  0.6911
22771SOL    HW171268  10.386   2.459   8.094  1.6049 -1.6398 -0.2679
22771SOL    HW271269  10.256   2.404   8.040  0.6982  0.5241 -0.4269
22772SOL     OW71270   1.458   9.826   6.210 -0.1178  0.6290 -0.2049
22772SOL    HW171271   1.472   9.891   6.279 -2.1361  1.4383 -0.4966
22772SOL    HW271272   1.492   9.745   6.247  1.3971  1.5870  0.6257
22773SOL     OW71273   8.932   2.174   2.419  0.5108 -0.5034 -0.4555
22773SOL    HW171274   9.021   2.155   2.388  0.9521 -0.8942  0.9817
22773SOL    HW271275   8.941   2.255   2.469 -0.3316  0.5327 -1.8891
22774SOL     OW71276   5.513   7.704   4.185  0.0398 -0.1932  0.5305
22774SOL    HW171277   5.518   7.787   4.138  0.6558  0.6483  2.0049
22774SOL    HW271278   5.422   7.698   4.215 -0.8731 -1.6100 -2.1592
22775SOL     OW71279   2.520   0.708   8.555  0.1765 -0.1219  0.6359
22775SOL    HW171280   2.484   0.792   8.581 -1.5796 -0.3585 -0.8535
22775SOL    HW271281   2.512   0.653   8.633 -0.8699  0.4149  0.9238
22776SOL     OW71282   0.769   7.774   4.228  0.2965 -0.0529  0.0398
22776SOL    HW171283   0.815   7.807   4.306  1.3665  1.3734 -1.1531
22776SOL    HW271284   0.825   7.798   4.155 -2.8377  2.9098 -1.6663
22777SOL     OW71285   4.864   8.282   1.067  0.4789 -0.1593  0.0939
22777SOL    HW171286   4.856   8.311   0.976  0.4770 -0.7249 -0.0854
22777SOL    HW271287   4.809   8.344   1.116 -0.3899 -0.5032 -0.4241
22778SOL     OW71288   2.835   8.798   8.941  0.0118  0.2683  0.4131
22778SOL    HW171289   2.754   8.750   8.959  0.0736 -0.5894 -1.3225
22778SOL    HW271290   2.865   8.828   9.026 -1.0194 -1.2163  1.3456
22779SOL     OW71291   6.542   6.356   2.813  0.2304 -0.3600  0.1658
22779SOL    HW171292   6.516   6.270   2.780 -0.1735 -0.8471  1.6841
22779SOL    HW271293   6.460   6.404   2.821 -0.1792 -1.2897  3.2308
22780SOL     OW71294   6.849   7.323   7.393 -0.0030  0.2487  0.6121
22780SOL    HW171295   6.816   7.302   7.306 -1.0934 -1.6910  1.4277
22780SOL    HW271296   6.943   7.304   7.389  0.1707  1.2007 -0.3947
22781SOL     OW71297   6.021   9.626  10.547 -0.5586  0.3086 -0.5204
22781SOL    HW171298   6.039   9.697  10.609 -0.0498 -0.1063 -0.1847
22781SOL    HW271299   6.007   9.671  10.463 -0.9116  0.8499 -0.1813
22782SOL     OW71300   4.723   6.602   2.955 -0.0567  0.1525 -0.0798
22782SOL    HW171301   4.642   6.561   2.984 -1.4801  2.5023 -0.4438
22782SOL    HW271302   4.791   6.563   3.010 -0.9545 -3.6423 -1.3302
22783SOL     OW71303   1.536   6.359   3.050  0.5406  0.1262  0.1586
22783SOL    HW171304   1.579   6.306   3.117  0.1179  0.0736  0.3866
22783SOL    HW271305   1.561   6.449   3.071 -1.4224  0.3597  1.7646
22784SOL     OW71306  10.059   1.484   2.513  0.0356  0.1458 -0.2870
22784SOL    HW171307   9.971   1.522   2.515  0.0993  0.7164 -3.1076
22784SOL    HW271308  10.114   1.550   2.554 -0.7479  0.0246  1.0212
22785SOL     OW71309   3.108   7.825   2.684 -0.2801  0.0997  0.0182
22785SOL    HW171310   3.142   7.792   2.768 -0.8710  1.1518  0.7027
22785SOL    HW271311   3.171   7.794   2.619  2.0055  1.8780  1.2056
22786SOL     OW71312   6.845   2.337   8.030  0.0394  0.0660 -0.2835
22786SOL    HW171313   6.776   2.361   7.969 -1.6510 -1.7762  0.7677
22786SOL    HW271314   6.887   2.420   8.053 -0.1077  0.9488 -2.8705
22787SOL     OW71315   4.396  10.175   0.049 -0.0498  0.2115 -0.0696
22787SOL    HW171316   4.420  10.136   0.133 -0.1721 -0.8570 -0.5013
22787SOL    HW271317   4.440  10.120  -0.016  0.4412  1.3102 -0.6938
22788SOL     OW71318   5.328   4.639   4.083  0.2313  0.3649  0.2440
22788SOL    HW171319   5.269   4.677   4.148  0.2673 -0.0837  0.5414
22788SOL    HW271320   5.342   4.709   4.020  0.6437  0.9908  1.0148
22789SOL     OW71321   1.891   8.525   1.194 -0.0192  0.3237 -0.4909
22789SOL    HW171322   1.976   8.494   1.223  0.4896  1.6256 -0.5195
22789SOL    HW271323   1.887   8.616   1.224 -2.3010 -0.3182  1.4520
22790SOL     OW71324   4.729  10.610   5.797 -0.1835 -0.2807  0.2505
22790SOL    HW171325   4.772  10.618   5.882  0.7805 -1.3115 -0.1106
22790SOL    HW271326   4.792  10.648   5.735  0.6067 -2.4401 -0.3747
22791SOL     OW71327   4.094  10.560   1.207  0.7495 -0.0262 -0.4789
22791SOL    HW171328   4.025  10.523   1.261 -0.4376 -0.4424 -2.2006
22791SOL    HW271329   4.081  10.521   1.121  0.9339  2.5597 -1.7737
22792SOL     OW71330   5.962   6.394   4.724 -0.0709 -0.4468 -0.5314
22792SOL    HW171331   5.875   6.355   4.731 -0.3696 -0.0187 -1.6394
22792SOL    HW271332   5.963   6.463   4.791 -0.9425  0.1624 -1.1138
22793SOL     OW71333  10.326   5.991   2.707 -0.0116  0.3294 -0.1976
22793SOL    HW171334  10.366   6.057   2.650  0.9138 -0.3263 -0.3439
22793SOL    HW271335  10.400   5.954   2.755 -0.3321 -1.3717 -0.9476
22794SOL     OW71336   8.117   8.094   2.767 -0.3017  0.8904 -0.0174
22794SOL    HW171337   8.022   8.085   2.771 -0.2098  0.3335  1.4295
22794SOL    HW271338   8.133   8.187   2.781 -0.5239  0.5068  3.4890
22795SOL     OW71339   2.065   7.844   0.943  0.1458 -0.3660  0.1296
22795SOL    HW171340   2.027   7.845   0.855  1.7110 -0.4194 -0.5826
22795SOL    HW271341   2.065   7.752   0.969  1.2585 -0.5751 -0.5566
22796SOL     OW71342   0.119   2.291   8.762  0.0247 -0.2312  0.3505
22796SOL    HW171343   0.079   2.240   8.692 -1.7962 -0.6995  1.6548
22796SOL    HW271344   0.112   2.382   8.733 -2.5423 -0.2409  0.7168
22797SOL     OW71345   7.463   1.750   8.014  0.3340  0.0180 -0.1488
22797SOL    HW171346   7.465   1.664   8.055  1.4648  1.6332  3.5593
22797SOL    HW271347   7.375   1.756   7.977  0.3872 -2.8546 -1.0276
22798SOL     OW71348   8.145   3.998   5.567  0.1435 -0.0647 -0.1142
22798SOL    HW171349   8.114   3.929   5.509 -2.0236 -0.0200  0.8838
22798SOL    HW271350   8.150   4.076   5.511 -1.1357 -0.2032 -0.4539
22799SOL     OW71351   3.128   2.198   8.734  0.9832 -0.2443  0.1189
22799SOL    HW171352   3.054   2.258   8.729  1.8852  0.9413  0.4789
22799SOL    HW271353   3.138   2.179   8.827 -0.8613 -3.0515 -0.1390
22800SOL     OW71354   4.652   8.867   6.836  0.6449  0.4875  0.4959
22800SOL    HW171355   4.596   8.860   6.759  0.1113 -1.0425  0.9978
22800SOL    HW271356   4.685   8.778   6.850 -1.2483  0.1117  3.4697
22801SOL     OW71357   6.813   0.810   6.834 -0.6011 -0.1453  0.3161
22801SOL    HW171358   6.799   0.738   6.773  1.0507  0.0255 -0.3388
22801SOL    HW271359   6.789   0.889   6.785  2.5736  0.1868 -0.9547
22802SOL     OW71360  10.262   0.807   8.253  0.0841  0.1779 -0.1091
22802SOL    HW171361  10.240   0.724   8.295  1.0118 -0.3347 -0.6196
22802SOL    HW271362  10.236   0.795   8.162  1.2702  0.0303 -0.4338
22803SOL     OW71363   9.204   7.177   9.947  0.1478  0.1076  0.7636
22803SOL    HW171364   9.232   7.122  10.020  0.8411  1.1419  1.2994
22803SOL    HW271365   9.272   7.165   9.881  0.8031  1.0057  1.2467
22804SOL     OW71366   0.874   2.408   9.897  0.3919  0.5019  0.1379
22804SOL    HW171367   0.916   2.445   9.820  1.0270 -0.1926  0.1427
22804SOL    HW271368   0.907   2.319   9.903  0.1097  0.4398  1.0342
22805SOL     OW71369   2.447   9.114   9.497  0.2501  0.1512 -0.3005
22805SOL    HW171370   2.491   9.034   9.467  0.1765  0.8394 -2.4025
22805SOL    HW271371   2.385   9.135   9.428  1.1313  2.7042 -0.4383
22806SOL     OW71372   2.647   7.872   7.499 -0.1229 -0.0547 -0.1863
22806SOL    HW171373   2.713   7.832   7.443 -0.3316 -0.2744 -0.2744
22806SOL    HW271374   2.568   7.821   7.484 -0.4589  0.5461 -0.4923
22807SOL     OW71375   8.343   0.132   3.821  0.2436  0.0640  0.0408
22807SOL    HW171376   8.283   0.132   3.747  0.9954  2.5183 -0.6584
22807SOL    HW271377   8.316   0.206   3.875  1.3661 -0.0457  0.8021
22808SOL     OW71378   3.255   9.213   8.562 -0.2638 -1.0598  0.1502
22808SOL    HW171379   3.241   9.145   8.627 -0.2405  0.3115  1.6682
22808SOL    HW271380   3.349   9.212   8.545 -0.0322 -0.4643  1.2965
22809SOL     OW71381   7.967   6.467   3.762 -0.0689 -0.5054 -0.4298
22809SOL    HW171382   7.936   6.385   3.723  1.3491 -0.4442 -1.7650
22809SOL    HW271383   8.049   6.443   3.805 -0.1267  0.0478  0.0012
22810SOL     OW71384   4.445   8.763   4.930  0.6709 -0.5489  0.4046
22810SOL    HW171385   4.479   8.749   5.018  1.6249 -1.2538 -0.0621
22810SOL    HW271386   4.522   8.776   4.875  0.0591  0.9433 -0.1796
22811SOL     OW71387   9.327   6.482  10.176  0.0578 -0.0132 -0.0049
22811SOL    HW171388   9.311   6.507  10.085 -0.3068  1.4584  0.4462
22811SOL    HW271389   9.396   6.415  10.170  1.4257  1.4276 -1.2576
22812SOL     OW71390   5.490   7.231   8.252 -0.4626  0.3100 -0.6511
22812SOL    HW171391   5.449   7.217   8.338  0.8731  0.5404  0.0499
22812SOL    HW271392   5.487   7.146   8.210  0.7106 -0.3170  0.4756
22813SOL     OW71393   3.285   6.585   7.888 -0.7311 -0.5826  0.5034
22813SOL    HW171394   3.357   6.647   7.878 -0.8273 -0.6285 -0.5903
22813SOL    HW271395   3.328   6.499   7.887 -0.8316 -0.6362 -0.7265
22814SOL     OW71396   2.704   0.771   0.416  0.0093 -0.3814  0.3345
22814SOL    HW171397   2.688   0.689   0.463 -1.3271 -0.2567  0.1457
22814SOL    HW271398   2.795   0.793   0.436 -0.2677 -0.7691  2.1488
22815SOL     OW71399  10.617   4.107   7.487 -0.5424 -0.0497 -0.2498
22815SOL    HW171400  10.526   4.079   7.486 -0.6444  0.2460 -1.6785
22815SOL    HW271401  10.613   4.201   7.508 -0.7957  0.5309 -2.6273
22816SOL     OW71402   9.452   0.262   7.324  0.9521 -0.4113  0.0433
22816SOL    HW171403   9.521   0.282   7.387  0.5178 -1.8106  0.9980
22816SOL    HW271404   9.430   0.171   7.341  0.4662 -0.6713 -1.8114
22817SOL     OW71405   9.929   2.676   1.761 -0.2775 -0.4455  0.2992
22817SOL    HW171406   9.968   2.631   1.686 -0.4308 -0.6392  0.3373
22817SOL    HW271407   9.928   2.611   1.831  0.5246 -0.0558  0.6912
22818SOL     OW71408   5.259   9.603   6.846 -0.0805 -0.5774 -0.3690
22818SOL    HW171409   5.346   9.591   6.884  0.3087 -0.9622 -1.3543
22818SOL    HW271410   5.233   9.691   6.874  1.1304  0.0090 -1.0026
22819SOL     OW71411   4.712   3.894   4.225 -0.7794 -0.0567 -0.2786
22819SOL    HW171412   4.674   3.943   4.298  0.7583 -1.9038  1.8809
22819SOL    HW271413   4.802   3.927   4.218  0.0294 -1.9038  0.6932
22820SOL     OW71414   9.304   4.531   3.686 -0.3618 -0.0105 -0.4062
22820SOL    HW171415   9.323   4.488   3.769  0.8506  0.6667 -0.3126
22820SOL    HW271416   9.234   4.593   3.706  0.6713  0.9359  0.3802
22821SOL     OW71417   4.302   0.818   7.779  0.6881  0.1411 -0.7226
22821SOL    HW171418   4.272   0.752   7.842 -1.7354  0.8874 -0.9980
22821SOL    HW271419   4.357   0.876   7.830  0.2251 -0.2851  0.3004
22822SOL     OW71420   4.612   3.017   1.162  0.1363  0.0582 -0.2322
22822SOL    HW171421   4.610   3.109   1.189  1.4023 -0.2846  1.1154
22822SOL    HW271422   4.531   2.980   1.199 -0.8526  0.7965 -1.5612
22823SOL     OW71423   9.277   7.664   2.023 -0.0981  0.3278  0.1985
22823SOL    HW171424   9.342   7.665   1.952  0.1008  0.4618  0.3836
22823SOL    HW271425   9.195   7.643   1.979  0.4469 -2.3210  0.2965
22824SOL     OW71426   2.837  10.621   8.754  0.0256 -0.7077 -0.3035
22824SOL    HW171427   2.907  10.651   8.696  0.0465 -1.0458 -0.4571
22824SOL    HW271428   2.856  10.663   8.838  0.0401 -0.2789 -0.5179
22825SOL     OW71429   0.613   7.452   4.019 -0.2611  0.2349  0.0728
22825SOL    HW171430   0.606   7.508   3.942 -2.8921  2.0659  1.4763
22825SOL    HW271431   0.546   7.386   4.007 -0.6183  0.4687  0.6988
22826SOL     OW71432   0.268   3.070   8.757 -0.6835  0.1840 -0.0030
22826SOL    HW171433   0.290   2.978   8.742  1.3859  0.7417 -0.7640
22826SOL    HW271434   0.309   3.092   8.841  1.1732  1.0269 -1.0505
22827SOL     OW71435   1.832   1.902   0.004  0.5039 -0.6152  0.0542
22827SOL    HW171436   1.783   1.846   0.064  0.5215 -0.3219  0.3455
22827SOL    HW271437   1.778   1.907  -0.075  0.1944 -0.5109  0.2726
22828SOL     OW71438   3.473   3.387   3.395  0.2530  0.1496 -0.3637
22828SOL    HW171439   3.506   3.301   3.420 -1.4664 -0.6138 -0.5476
22828SOL    HW271440   3.383   3.371   3.367 -0.6293  2.2084  1.0181
22829SOL     OW71441   1.408   6.266   4.260 -0.1395  0.3472  0.0187
22829SOL    HW171442   1.429   6.201   4.192  1.7306 -0.5087  1.3195
22829SOL    HW271443   1.486   6.322   4.264 -0.1848  0.3394  1.4750
22830SOL     OW71444   5.628  10.404   0.316  0.2478 -0.1465 -0.1942
22830SOL    HW171445   5.663  10.316   0.308  2.4129  0.5400  0.8424
22830SOL    HW271446   5.706  10.460   0.318 -0.9885  1.6340  0.8922
22831SOL     OW71447   2.914   0.604   6.555  0.4521  0.1895  0.2526
22831SOL    HW171448   2.860   0.637   6.627 -2.5415 -2.7619 -0.4276
22831SOL    HW271449   2.930   0.513   6.576  2.6224  0.1765 -1.1490
22832SOL     OW71450   4.404   4.340   5.120 -0.2354  0.2810  0.1227
22832SOL    HW171451   4.455   4.421   5.119 -1.1656  0.8830  0.2446
22832SOL    HW271452   4.458   4.278   5.170  1.1373  0.3746 -1.1702
22833SOL     OW71453   5.606   4.239   4.058  0.1687 -0.5484  0.4508
22833SOL    HW171454   5.589   4.329   4.030 -0.6093 -0.5308  0.9580
22833SOL    HW271455   5.530   4.215   4.111 -0.0276 -1.7918 -0.3544
22834SOL     OW71456   8.592   5.228   6.647 -0.1127 -0.1063 -0.7922
22834SOL    HW171457   8.601   5.304   6.589 -1.9321  0.5192 -0.3298
22834SOL    HW271458   8.512   5.245   6.696  0.0284 -1.8317  0.1120
22835SOL     OW71459   9.514   9.340  10.280  0.5438 -0.5179  0.1196
22835SOL    HW171460   9.465   9.375  10.355  2.1734 -0.8103  1.3945
22835SOL    HW271461   9.596   9.390  10.280  0.2177  0.1190 -2.0829
22836SOL     OW71462   9.255   5.279   9.759 -0.0869  0.8609  0.4158
22836SOL    HW171463   9.203   5.211   9.802  0.6242 -0.1771 -0.3055
22836SOL    HW271464   9.223   5.278   9.668  0.0038  1.4108  0.3797
22837SOL     OW71465   7.874   3.850   0.487 -0.4536 -0.5521  0.8957
22837SOL    HW171466   7.807   3.796   0.528 -0.7106 -1.0769 -0.1934
22837SOL    HW271467   7.932   3.787   0.444 -2.9923 -0.0530 -3.9850
22838SOL     OW71468   3.353   5.489   0.566 -0.0680  0.3045  0.3235
22838SOL    HW171469   3.442   5.504   0.535 -1.1627  0.9786 -2.7905
22838SOL    HW271470   3.332   5.567   0.617  1.7734 -0.8190  3.0318
22839SOL     OW71471   9.880   0.935   3.596 -0.3902 -0.3093 -0.2410
22839SOL    HW171472   9.920   0.993   3.662 -0.2596 -0.5143 -0.1404
22839SOL    HW271473   9.932   0.855   3.600  0.3780  0.1039 -1.4169
22840SOL     OW71474  10.439   0.083   2.787 -0.1769  0.1633  0.0744
22840SOL    HW171475  10.532   0.092   2.810 -0.7905  2.4241  2.0464
22840SOL    HW271476  10.428   0.138   2.710  0.1153 -0.0751 -0.1385
22841SOL     OW71477   4.211   4.603  10.146  0.5379  0.0641  0.6599
22841SOL    HW171478   4.177   4.691  10.161  2.5792  1.0426 -0.1744
22841SOL    HW271479   4.183   4.580  10.058 -1.1017 -0.7014  1.3437
22842SOL     OW71480   7.911   4.853   9.206 -0.1215  0.1583 -0.0794
22842SOL    HW171481   7.998   4.818   9.189  0.0059 -0.1919  1.1950
22842SOL    HW271482   7.882   4.888   9.121  1.8704  1.6859 -0.2124
22843SOL     OW71483   5.491   5.313   3.991 -0.2948  0.1324 -0.2203
22843SOL    HW171484   5.534   5.398   3.981 -0.0765 -0.0658 -1.0206
22843SOL    HW271485   5.499   5.272   3.905 -1.5522 -0.1672 -0.2072
22844SOL     OW71486   6.338   9.828   3.678  0.0125 -0.3777  0.5185
22844SOL    HW171487   6.328   9.858   3.769 -0.6428 -0.0203  0.3315
22844SOL    HW271488   6.348   9.909   3.627  0.3333 -0.5760  0.2638
22845SOL     OW71489   7.370   6.921   7.557 -0.1235 -0.2316 -0.2342
22845SOL    HW171490   7.439   6.923   7.490  0.6844 -1.6387  0.5198
22845SOL    HW271491   7.312   6.850   7.530  0.0754 -0.6490  0.4154
22846SOL     OW71492   3.832   0.687   4.446  0.0775  0.2619 -0.1808
22846SOL    HW171493   3.778   0.681   4.525  0.5554  0.9768  0.2035
22846SOL    HW271494   3.819   0.602   4.403  0.2543 -0.3695  0.9494
22847SOL     OW71495  10.398   2.086   4.867  0.2506  1.0017 -0.0145
22847SOL    HW171496  10.415   2.136   4.787  1.6667 -0.9313 -0.9773
22847SOL    HW271497  10.372   1.999   4.836 -1.1639  0.7818  1.6323
22848SOL     OW71498   2.800   7.608   4.807 -0.2783  0.0967  0.0948
22848SOL    HW171499   2.855   7.675   4.766 -1.0014  0.6720  0.0371
22848SOL    HW271500   2.749   7.656   4.872 -0.7472 -0.4107  0.1098
22849SOL     OW71501   6.553   0.270   8.103 -0.0593 -0.0950  0.1953
22849SOL    HW171502   6.504   0.198   8.144  0.2998 -0.8289 -0.6378
22849SOL    HW271503   6.626   0.287   8.164  1.0060 -1.8064 -0.5318
22850SOL     OW71504   4.782   0.155   7.504 -0.6218 -0.0543  0.1398
22850SOL    HW171505   4.832   0.195   7.575 -0.0703  0.8809 -0.7473
22850SOL    HW271506   4.813   0.065   7.499 -1.3986 -0.4353  1.7390
22851SOL     OW71507   7.991   4.472   9.914  0.3520 -0.6566  0.3229
22851SOL    HW171508   7.988   4.536   9.986 -0.5844  0.1727 -0.4042
22851SOL    HW271509   7.924   4.504   9.853  2.3915 -0.2577 -1.8070
22852SOL     OW71510   3.304   3.950   1.522  0.4303  0.1364  0.4387
22852SOL    HW171511   3.295   4.017   1.454  1.0382  0.7848  0.9756
22852SOL    HW271512   3.314   3.868   1.475  1.3548  0.6367 -0.2737
22853SOL     OW71513   5.097  10.474   4.006  0.5243 -0.5011  0.2201
22853SOL    HW171514   5.133  10.463   4.095  0.4326 -0.9203  0.2068
22853SOL    HW271515   5.018  10.527   4.019 -0.5184 -2.1001  0.6268
22854SOL     OW71516   2.905   2.312   1.685 -0.0208 -0.6664  0.2295
22854SOL    HW171517   2.951   2.338   1.605 -0.4036 -0.3838  0.1005
22854SOL    HW271518   2.865   2.393   1.717  0.0124 -0.8086  0.6273
22855SOL     OW71519   1.329   2.577   8.536 -0.2402  0.5309 -0.2561
22855SOL    HW171520   1.385   2.616   8.469  0.6167  1.5170  0.9652
22855SOL    HW271521   1.386   2.569   8.613 -1.6598  1.1340  0.9089
22856SOL     OW71522   3.727   8.233   1.451 -0.4542  0.5526  0.2056
22856SOL    HW171523   3.734   8.141   1.478  1.0485 -0.1995 -2.4065
22856SOL    HW271524   3.646   8.236   1.401  1.1206 -0.2935 -2.6056
22857SOL     OW71525   0.890   2.609   8.005  0.3273 -0.2002  0.1368
22857SOL    HW171526   0.871   2.676   8.071  0.6791 -0.0508  0.0933
22857SOL    HW271527   0.807   2.564   7.991  0.2489 -0.2306  0.6766
22858SOL     OW71528   2.230   5.055   6.122 -0.6552  0.1460  0.1894
22858SOL    HW171529   2.187   5.114   6.183 -0.2314  1.2526 -0.5567
22858SOL    HW271530   2.275   4.991   6.177 -2.3679 -0.4202  0.9953
22859SOL     OW71531   3.590   8.792   7.046 -0.5362 -0.0574  0.4802
22859SOL    HW171532   3.615   8.727   7.111  1.0634  0.1726  0.1387
22859SOL    HW271533   3.529   8.746   6.988 -0.2130 -0.9481  0.8350
22860SOL     OW71534   1.286   3.847   7.097  0.2083  0.3206  0.6816
22860SOL    HW171535   1.209   3.789   7.095  0.4355  0.0208  0.4526
22860SOL    HW271536   1.356   3.795   7.057  0.3939  0.7905  0.3804
22861SOL     OW71537   2.888   4.106  10.307 -0.5228 -0.5547 -0.3555
22861SOL    HW171538   2.844   4.093  10.391 -0.3960  0.9104 -0.0354
22861SOL    HW271539   2.824   4.152  10.253 -0.1577 -0.3523 -0.6266
22862SOL     OW71540   7.260   0.976   9.952  0.4903  0.4064  0.2105
22862SOL    HW171541   7.184   0.957  10.008 -0.4379 -0.6375 -1.3224
22862SOL    HW271542   7.241   1.063   9.917 -0.5654 -0.2607 -0.9656
22863SOL     OW71543   6.593   0.405   3.442  0.3283  0.3339 -0.5386
22863SOL    HW171544   6.581   0.313   3.465  0.6858  0.4232  0.0354
22863SOL    HW271545   6.663   0.435   3.499  0.1035  1.0078 -0.6032
22864SOL     OW71546   2.161   4.756   9.997  0.2052  0.2211  0.5518
22864SOL    HW171547   2.155   4.851   9.988 -0.6752  0.2439  1.2330
22864SOL    HW271548   2.253   4.739  10.015  0.3703  0.9434  0.4225
22865SOL     OW71549   6.460   5.917   4.159 -0.3401  0.0873 -0.0563
22865SOL    HW171550   6.394   5.919   4.090 -0.9520  1.0351  0.5224
22865SOL    HW271551   6.427   5.977   4.226  0.8438  0.1668  0.5009
22866SOL     OW71552   0.463   9.329   6.482  0.1617 -0.6630 -0.2856
22866SOL    HW171553   0.438   9.274   6.408  0.7321  0.8587 -1.6504
22866SOL    HW271554   0.507   9.404   6.443  2.2188 -0.7210  1.7005
22867SOL     OW71555   5.612   6.667   7.258  0.2238 -0.4188  0.0367
22867SOL    HW171556   5.659   6.735   7.307 -1.4164  0.8177 -0.0364
22867SOL    HW271557   5.681   6.621   7.210  1.4651  0.7131  0.6597
22868SOL     OW71558  10.366   9.612   0.417 -0.0829 -0.1335  0.7188
22868SOL    HW171559  10.376   9.687   0.359  0.5623 -0.6381  0.1571
22868SOL    HW271560  10.272   9.608   0.437 -0.6568 -1.0780 -1.8373
22869SOL     OW71561   5.884   5.447   0.889  0.0366 -0.5653 -0.7890
22869SOL    HW171562   5.807   5.500   0.911 -1.3169 -0.9324 -4.0482
22869SOL    HW271563   5.959   5.499   0.919 -1.3710  1.2900 -0.3174
22870SOL     OW71564   1.430  10.109   5.677 -0.1018 -0.1664  0.1600
22870SOL    HW171565   1.405  10.085   5.766 -0.7540 -2.1549 -0.4959
22870SOL    HW271566   1.370  10.059   5.621  0.9111  0.2963 -1.4063
22871SOL     OW71567   6.875   7.581   3.716 -0.4130  0.2571 -0.0871
22871SOL    HW171568   6.942   7.532   3.667 -1.8971 -1.5906 -0.3696
22871SOL    HW271569   6.803   7.519   3.726 -1.0388  1.2924  2.5658
22872SOL     OW71570   3.064   8.062   1.575 -0.0354  0.0030  0.1384
22872SOL    HW171571   3.103   8.066   1.662 -1.9708  1.0074  1.0195
22872SOL    HW271572   3.029   7.973   1.568  1.2939 -0.5191 -0.1929
22873SOL     OW71573   5.936  10.271   3.732  0.8805 -0.8470  0.4561
22873SOL    HW171574   5.965  10.352   3.689 -1.2073 -0.5660 -0.5414
22873SOL    HW271575   6.010  10.211   3.721  1.2605 -0.0965 -1.7084
22874SOL     OW71576   3.541   2.156   0.733 -0.7268  0.0438  0.6075
22874SOL    HW171577   3.569   2.070   0.765 -0.5119 -1.0574 -2.2083
22874SOL    HW271578   3.447   2.147   0.719 -0.3103 -0.8312 -2.3698
22875SOL     OW71579   9.592   7.640   7.777 -0.2022 -0.5909  0.0512
22875SOL    HW171580   9.685   7.620   7.788 -0.2761 -0.1147  1.8325
22875SOL    HW271581   9.586   7.735   7.789 -0.8870 -0.5655 -0.3915
22876SOL     OW71582   0.726   1.331   3.241 -0.2557 -0.0631 -0.0903
22876SOL    HW171583   0.644   1.347   3.195 -0.9584 -1.6636  0.5361
22876SOL    HW271584   0.730   1.401   3.307 -1.6577 -0.5556  0.5566
22877SOL     OW71585   2.279   0.153   1.441 -0.3078 -0.3266 -0.3703
22877SOL    HW171586   2.233   0.165   1.358 -2.2457 -0.9580  0.5556
22877SOL    HW271587   2.242   0.219   1.499  0.2725 -0.5667  0.2868
22878SOL     OW71588   1.615   9.607  10.138  0.1409 -0.3203 -0.0284
22878SOL    HW171589   1.580   9.591  10.225 -1.4119 -1.0189 -0.7496
22878SOL    HW271590   1.623   9.520  10.099 -2.4200  0.0992 -1.7445
22879SOL     OW71591   4.871   1.419   9.520 -0.5455 -0.3182  0.7078
22879SOL    HW171592   4.781   1.436   9.493 -0.2994  0.1370  0.1595
22879SOL    HW271593   4.880   1.324   9.516  0.1060 -0.2369 -2.9775
22880SOL     OW71594   5.899   9.175   4.405  0.1665  0.5139  0.0431
22880SOL    HW171595   5.808   9.176   4.437 -0.0561  3.7793 -0.3110
22880SOL    HW271596   5.896   9.118   4.328 -1.2159 -0.6145  0.8683
22881SOL     OW71597   1.321   3.213   1.484  0.0093 -0.5183 -0.2053
22881SOL    HW171598   1.338   3.291   1.536  0.1001 -0.2036 -0.7052
22881SOL    HW271599   1.338   3.140   1.544 -0.5712 -0.1578  0.4164
22882SOL     OW71600   2.268   8.436  10.578 -0.9903 -0.1314  0.0296
22882SOL    HW171601   2.224   8.521  10.583 -0.0675  0.2941  2.0160
22882SOL    HW271602   2.345   8.452  10.523 -0.8746  0.3147  0.3120
22883SOL     OW71603   4.355   1.179   7.204  0.1292  0.1872 -0.5474
22883SOL    HW171604   4.438   1.190   7.251  0.7233 -2.7381 -0.7012
22883SOL    HW271605   4.291   1.229   7.255  1.2636 -0.7196  1.9033
22884SOL     OW71606  10.544   6.641   2.089  0.0213  0.1409 -0.7254
22884SOL    HW171607  10.549   6.690   2.171 -0.0138 -1.8536  0.5302
22884SOL    HW271608  10.631   6.651   2.049  1.0256 -1.1657  0.9945
22885SOL     OW71609   4.765   6.765   9.484 -0.0515 -0.2403  0.2115
22885SOL    HW171610   4.851   6.770   9.526  1.1204  0.6065 -2.0817
22885SOL    HW271611   4.777   6.701   9.414 -1.2620 -0.0240 -0.2216
22886SOL     OW71612   1.423   0.156   5.038  0.5548 -0.5049  0.2328
22886SOL    HW171613   1.360   0.153   5.110 -0.1612  0.8486 -0.3192
22886SOL    HW271614   1.460   0.067   5.035  0.4224 -0.6582  2.0893
22887SOL     OW71615  10.012   8.329   9.533  0.1668  0.3703 -0.3219
22887SOL    HW171616   9.972   8.243   9.541 -0.7065  0.7723 -0.2722
22887SOL    HW271617  10.067   8.338   9.611 -1.6295  0.8208  0.9518
22888SOL     OW71618   8.588   1.312   3.104 -0.0781  0.5484 -0.1602
22888SOL    HW171619   8.601   1.262   3.024  0.2703  0.4729 -0.0573
22888SOL    HW271620   8.562   1.399   3.074  1.9885  1.1283 -0.4349
22889SOL     OW71621  10.370   2.505   3.281 -0.1731  0.2861 -0.4454
22889SOL    HW171622  10.378   2.586   3.229 -0.9511  0.0114 -1.0228
22889SOL    HW271623  10.441   2.449   3.249  1.9275  1.5771  1.6296
22890SOL     OW71624   4.490   5.089   0.388 -0.0891  0.9428 -0.3534
22890SOL    HW171625   4.411   5.075   0.441  1.1460  0.1141  1.3438
22890SOL    HW271626   4.543   5.149   0.440  0.8535  0.6762 -0.9854
22891SOL     OW71627   8.824   4.066   2.245 -0.5869  0.6473 -0.1400
22891SOL    HW171628   8.912   4.052   2.281 -0.6582 -0.3740 -0.3115
22891SOL    HW271629   8.769   4.006   2.295 -1.0326  0.6631 -0.6120
22892SOL     OW71630   4.413   6.494  10.282  0.1141 -0.3456 -0.0210
22892SOL    HW171631   4.445   6.574  10.241 -0.9409  0.6342  0.9782
22892SOL    HW271632   4.396   6.519  10.373  0.6358 -1.9624  0.5557
22893SOL     OW71633   5.356   8.073   8.998  0.2165  0.2026  0.0363
22893SOL    HW171634   5.449   8.065   9.017  0.1819  0.0554  0.1413
22893SOL    HW271635   5.351   8.081   8.903  0.4125  1.2261  0.1022
22894SOL     OW71636   7.488   7.095   1.214 -0.0879  0.1110 -0.3031
22894SOL    HW171637   7.469   7.014   1.260 -0.2139  0.0766 -0.4125
22894SOL    HW271638   7.502   7.068   1.123  2.1937 -0.0851  0.0733
22895SOL     OW71639   4.581   8.332   2.026  0.2530  0.2723 -0.5914
22895SOL    HW171640   4.525   8.277   1.971 -0.1371 -0.3783  0.4397
22895SOL    HW271641   4.667   8.291   2.021 -0.3928 -1.5105  1.5386
22896SOL     OW71642   0.818   9.614  10.329 -0.1262 -0.5591  0.4678
22896SOL    HW171643   0.837   9.672  10.254  0.6045 -1.4725 -0.0729
22896SOL    HW271644   0.735   9.646  10.363 -0.1500  0.2868 -0.3432
22897SOL     OW71645   8.986   9.103   1.691 -0.0694  0.4553  0.0135
22897SOL    HW171646   9.031   9.106   1.607 -0.0836 -1.6511 -0.1282
22897SOL    HW271647   9.052   9.132   1.755  0.5542  0.2344 -0.5191
22898SOL     OW71648   5.519   5.383   0.886 -0.0557 -0.7151 -0.4332
22898SOL    HW171649   5.541   5.464   0.932 -0.8491 -0.6745 -0.1126
22898SOL    HW271650   5.424   5.383   0.883 -0.0343 -1.0760 -1.4362
22899SOL     OW71651   6.377   6.031   6.893  0.5261 -0.7631  0.0680
22899SOL    HW171652   6.433   6.067   6.962 -1.3421 -0.3965  1.4690
22899SOL    HW271653   6.344   5.949   6.930  0.0352 -0.9069 -0.6731
22900SOL     OW71654   8.408   4.227   1.043  0.7455  0.5557  0.2751
22900SOL    HW171655   8.408   4.248   0.949 -0.8587  0.2740  0.1942
22900SOL    HW271656   8.342   4.159   1.053  0.2838  1.1814  1.7397
22901SOL     OW71657   3.905   5.172   0.888  0.0183  0.0622 -0.5761
22901SOL    HW171658   3.879   5.214   0.805  0.5912  0.7483 -0.4198
22901SOL    HW271659   3.990   5.210   0.908  0.4860 -1.0823 -0.3420
22902SOL     OW71660   8.777   0.772   9.494  0.2314  0.5141  0.7632
22902SOL    HW171661   8.845   0.823   9.450  0.6563  1.2162  2.1439
22902SOL    HW271662   8.704   0.834   9.504  0.6078  0.7844  2.1105
22903SOL     OW71663   9.998   8.385   9.908 -0.6318  0.1032 -0.1329
22903SOL    HW171664  10.089   8.381   9.937 -0.5038 -2.8237 -0.5973
22903SOL    HW271665   9.988   8.472   9.869  2.5322 -0.1061 -1.7131
22904SOL     OW71666  10.003   2.408   0.074 -0.2771 -0.1168  0.3396
22904SOL    HW171667   9.963   2.492   0.091 -0.9435 -0.2175 -0.6422
22904SOL    HW271668   9.987   2.392  -0.020  1.3748 -0.5094  0.0861
22905SOL     OW71669   3.893   0.120   7.010 -0.2766 -0.3292 -0.0624
22905SOL    HW171670   3.942   0.067   6.947  0.8222  0.6334 -0.0329
22905SOL    HW271671   3.824   0.162   6.958 -0.6757 -1.1539 -0.2242
22906SOL     OW71672   7.672   8.764   2.367  0.0505 -0.4119 -0.1187
22906SOL    HW171673   7.634   8.726   2.446 -0.8894  0.3528 -0.1726
22906SOL    HW271674   7.766   8.760   2.380 -0.1015  0.4416  1.4099
22907SOL     OW71675   3.893   0.186   9.873  0.3784  0.3192 -0.1689
22907SOL    HW171676   3.917   0.246   9.943  1.4902 -0.0178 -0.2375
22907SOL    HW271677   3.891   0.240   9.794 -2.0569  0.9509  0.2485
22908SOL     OW71678   7.349   3.170   2.139  0.1215  0.0669  0.4808
22908SOL    HW171679   7.390   3.093   2.100  0.8133 -0.6533  2.4895
22908SOL    HW271680   7.401   3.188   2.217 -0.4489  2.1796  0.4462
22909SOL     OW71681   0.266   0.746   8.293 -0.3900  0.1787 -0.3775
22909SOL    HW171682   0.294   0.831   8.258 -0.4110  0.2311 -0.2681
22909SOL    HW271683   0.347   0.707   8.327 -0.3159 -0.0014 -0.7509
22910SOL     OW71684   2.110   8.521   1.752  0.6445 -0.2075 -0.0222
22910SOL    HW171685   2.115   8.607   1.710 -0.4874 -0.4646 -0.7422
22910SOL    HW271686   2.163   8.529   1.831 -0.5919  1.6228  0.6868
22911SOL     OW71687   3.914   3.473   0.861  0.2283  0.1904  0.2075
22911SOL    HW171688   3.938   3.381   0.857  1.7974  0.5399  0.9085
22911SOL    HW271689   3.821   3.473   0.885 -0.3866 -1.2181 -1.8759
22912SOL     OW71690   5.456  10.077   5.511 -0.0115  0.7583 -0.3440
22912SOL    HW171691   5.398  10.153   5.508 -0.6741  0.2367 -0.9890
22912SOL    HW271692   5.399  10.002   5.500  0.8055  0.2459 -1.2814
22913SOL     OW71693   2.901   6.559   7.186  0.5005  0.2000  0.6306
22913SOL    HW171694   2.950   6.478   7.172 -2.8701 -1.8004 -1.0078
22913SOL    HW271695   2.934   6.619   7.119  3.3583  0.4862  2.1496
22914SOL     OW71696   4.809   1.820   4.798 -0.2113 -0.7032  0.2288
22914SOL    HW171697   4.853   1.837   4.881  0.2664 -0.1534 -0.1248
22914SOL    HW271698   4.869   1.762   4.751  0.6304  0.7915 -0.6360
22915SOL     OW71699   7.586   1.510   8.108 -0.0166  0.0577  0.6982
22915SOL    HW171700   7.629   1.440   8.060 -1.4609  0.9541 -2.1136
22915SOL    HW271701   7.640   1.523   8.186  2.1063 -1.9365 -0.3362
22916SOL     OW71702   5.823   4.193   2.069  0.5698  0.8379 -0.1874
22916SOL    HW171703   5.876   4.241   2.005 -1.0272  0.7160 -1.6686
22916SOL    HW271704   5.765   4.138   2.017 -0.9039  0.8221  1.3661
22917SOL     OW71705   1.047   5.929   1.154 -0.2935 -0.5459  0.0062
22917SOL    HW171706   1.090   5.886   1.080 -0.4253 -1.9203  0.7009
22917SOL    HW271707   1.112   5.991   1.187 -0.4249  0.4993 -1.5585
22918SOL     OW71708   1.907   4.792   4.888  0.2988 -0.2557 -0.2804
22918SOL    HW171709   1.894   4.880   4.852 -1.0667 -0.3872 -0.1718
22918SOL    HW271710   1.851   4.735   4.834  0.4105 -0.8953  0.2591
22919SOL     OW71711   8.814   8.720   0.740  0.3700  0.4463 -0.1948
22919SOL    HW171712   8.800   8.733   0.646  0.8168  0.6161 -0.2406
22919SOL    HW271713   8.726   8.721   0.778  0.1289 -0.4438 -0.7075
22920SOL     OW71714   9.588   4.816   4.141  0.0390 -0.3221  0.0812
22920SOL    HW171715   9.510   4.822   4.197 -0.0375 -0.7414  0.0204
22920SOL    HW271716   9.627   4.903   4.147 -1.5794  0.5950 -1.5349
22921SOL     OW71717   4.406  10.625   1.984 -0.1019  0.1421 -0.0335
22921SOL    HW171718   4.381  10.646   2.073 -0.1687  1.8369 -0.4106
22921SOL    HW271719   4.501  10.609   1.988  0.0729  1.1832  0.2003
22922SOL     OW71720   9.488   6.281   2.007 -0.0938  0.1903 -0.4661
22922SOL    HW171721   9.430   6.245   2.074  2.8748 -1.6578  1.3001
22922SOL    HW271722   9.486   6.216   1.937 -2.0918  1.4411 -1.6807
22923SOL     OW71723   9.559   2.045   1.505  0.4226 -0.3943 -0.1989
22923SOL    HW171724   9.649   2.077   1.509 -0.4077  2.6790 -2.0976
22923SOL    HW271725   9.522   2.067   1.590  0.7841  0.8627 -0.3476
22924SOL     OW71726   6.958   3.389   2.042  0.0331 -0.3406  0.0979
22924SOL    HW171727   6.930   3.406   2.132  3.5953  1.0215  1.0914
22924SOL    HW271728   6.961   3.475   2.000  0.4319 -0.7195 -0.6860
22925SOL     OW71729   9.164   7.744   3.829 -0.1565 -0.4521  0.3238
22925SOL    HW171730   9.187   7.696   3.749 -0.9887  1.0597 -0.8717
22925SOL    HW271731   9.238   7.802   3.843 -1.0706  1.0671 -0.8352
22926SOL     OW71732   0.942   6.770   2.361 -0.0251 -0.2447  0.0927
22926SOL    HW171733   0.981   6.836   2.419 -0.1979 -1.2202  1.3604
22926SOL    HW271734   0.942   6.811   2.275  1.0766  0.9087  0.6083
22927SOL     OW71735   3.218   9.729   0.034 -0.2413  0.7116  0.0234
22927SOL    HW171736   3.262   9.671   0.096 -0.0341  1.1947  0.3382
22927SOL    HW271737   3.249   9.816   0.058  1.5288  0.7431 -2.1254
22928SOL     OW71738   1.477   9.904   1.511 -0.4363 -0.1691 -0.3861
22928SOL    HW171739   1.452   9.915   1.603 -0.7708 -0.5575 -0.4273
22928SOL    HW271740   1.542   9.834   1.512  0.8721  0.9916 -0.2523
22929SOL     OW71741   0.538   8.021   5.651 -0.2199 -0.5069 -0.1658
22929SOL    HW171742   0.475   8.075   5.602 -1.1313 -1.1842  0.2408
22929SOL    HW271743   0.551   7.944   5.596  0.2199 -0.3949 -0.2217
22930SOL     OW71744   9.005   3.495   4.490 -0.3804 -0.4298 -0.0938
22930SOL    HW171745   9.020   3.417   4.543 -0.4809  0.9192  2.0050
22930SOL    HW271746   9.022   3.568   4.548  0.4286  1.1708 -2.1992
22931SOL     OW71747  10.230   9.024   8.655 -0.2362  0.3788 -0.2105
22931SOL    HW171748  10.279   9.037   8.736  0.3457 -2.5777  0.0269
22931SOL    HW271749  10.296   9.032   8.586 -0.5797  2.0468 -0.4090
22932SOL     OW71750   7.383   6.441   8.549 -0.3784 -0.0056  0.8685
22932SOL    HW171751   7.470   6.402   8.540  0.3190  1.3369  1.5743
22932SOL    HW271752   7.361   6.430   8.641 -0.0896  1.3757  1.1249
22933SOL     OW71753   3.437   3.252   5.728 -0.2290  0.2718 -0.0173
22933SOL    HW171754   3.457   3.305   5.805 -0.4858  0.4334 -0.0616
22933SOL    HW271755   3.517   3.253   5.676 -0.2397  0.6346 -0.0300
22934SOL     OW71756   2.245   0.475   2.581  0.0625  0.0005  0.4211
22934SOL    HW171757   2.283   0.407   2.637 -1.8307 -0.6700  0.9597
22934SOL    HW271758   2.301   0.475   2.503  2.1583  0.2752  1.8479
22935SOL     OW71759   6.094   5.173   7.871 -0.1913 -0.2700 -0.2552
22935SOL    HW171760   6.005   5.207   7.879  0.5078  1.5144  0.2343
22935SOL    HW271761   6.121   5.155   7.961  0.1744 -0.2135 -0.3526
22936SOL     OW71762   9.111   1.322   1.621  0.1669  0.2255 -0.0583
22936SOL    HW171763   9.191   1.367   1.648 -0.1426  0.9372 -0.2872
22936SOL    HW271764   9.045   1.351   1.684 -0.2558  0.8658 -0.7764
22937SOL     OW71765   9.871   5.861   2.552  0.7915 -0.1895  0.0396
22937SOL    HW171766   9.851   5.943   2.598  0.7808  0.4431 -1.0630
22937SOL    HW271767   9.954   5.879   2.507  1.1822 -1.0478  0.3808
22938SOL     OW71768   3.874   2.668   1.841  0.0545 -0.7626 -0.3637
22938SOL    HW171769   3.927   2.624   1.907  0.4242  1.4159  0.9018
22938SOL    HW271770   3.912   2.756   1.834 -1.6909 -0.0255 -1.4662
22939SOL     OW71771   6.698  10.423   6.708 -0.1727  0.0023  0.1290
22939SOL    HW171772   6.787  10.428   6.672  0.2163  1.4094  1.2171
22939SOL    HW271773   6.659  10.346   6.664  1.6927 -0.8854 -0.0752
22940SOL     OW71774   9.732   8.398   4.435 -0.0779  0.0618  0.2197
22940SOL    HW171775   9.806   8.457   4.423  0.2668 -0.4971 -0.4942
22940SOL    HW271776   9.665   8.431   4.376 -0.2811  0.3688  0.6180
22941SOL     OW71777   3.040   4.239   6.394 -0.2376 -0.0322  1.0019
22941SOL    HW171778   3.016   4.300   6.324  0.3903 -2.5881 -1.6304
22941SOL    HW271779   3.109   4.185   6.357 -0.8339 -2.4502  3.1068
22942SOL     OW71780   8.899   0.336   5.785  0.1682 -0.4057 -0.8341
22942SOL    HW171781   8.943   0.335   5.870 -0.1706 -1.1325 -0.6637
22942SOL    HW271782   8.958   0.387   5.729  0.6292 -0.3260 -0.2880
22943SOL     OW71783   3.320   8.736   1.354  0.5238 -0.3528  0.3310
22943SOL    HW171784   3.356   8.714   1.441  0.6115 -1.4816  0.0281
22943SOL    HW271785   3.234   8.694   1.353  0.2176  0.2718  0.1317
22944SOL     OW71786  10.528   6.493   1.495  0.3387 -0.1829  0.3159
22944SOL    HW171787  10.458   6.451   1.445  1.0404 -0.6350 -0.3077
22944SOL    HW271788  10.483   6.534   1.569 -0.5711 -0.5454 -0.0197
22945SOL     OW71789   2.972   9.023   4.072 -0.2300 -0.6231  0.1956
22945SOL    HW171790   2.898   9.065   4.116  0.4762  1.8107 -0.7698
22945SOL    HW271791   3.039   9.014   4.141 -0.1326  0.6040  0.2962
22946SOL     OW71792   4.291   2.574  10.236  0.2554  0.3002 -0.4137
22946SOL    HW171793   4.358   2.637  10.264 -0.0084  1.0644 -1.4328
22946SOL    HW271794   4.339   2.510  10.183  0.3970  0.0662 -0.0083
22947SOL     OW71795   7.489   0.317   8.858  0.2649  0.2826  0.5115
22947SOL    HW171796   7.577   0.305   8.894 -0.5604 -1.8238  2.0433
22947SOL    HW271797   7.457   0.228   8.844 -1.2828  1.0281 -0.9092
22948SOL     OW71798   8.509   2.102   9.545 -0.2976 -0.2294 -0.0475
22948SOL    HW171799   8.581   2.129   9.489  0.1261 -1.7127 -0.2600
22948SOL    HW271800   8.506   2.169   9.614  0.0412  0.8741 -1.0618
22949SOL     OW71801   3.562   8.458   9.505 -0.4328  0.5413 -0.0198
22949SOL    HW171802   3.621   8.481   9.433 -1.3077  1.1418 -0.5652
22949SOL    HW271803   3.601   8.380   9.544  0.9531  1.1671 -0.0883
22950SOL     OW71804   2.966   4.176   4.551  0.3002  0.0986 -0.1541
22950SOL    HW171805   2.913   4.143   4.478  0.4699  0.1336 -0.2928
22950SOL    HW271806   2.932   4.263   4.568  0.5412  0.2558 -0.4700
22951SOL     OW71807   0.727  10.484   4.497 -0.3532  0.0067  0.6396
22951SOL    HW171808   0.731  10.429   4.419  0.2923  0.1182  0.5899
22951SOL    HW271809   0.635  10.480   4.524 -0.4423 -0.5873  0.2753
22952SOL     OW71810   5.544   4.382   0.044 -0.3869 -0.2534  0.2498
22952SOL    HW171811   5.599   4.316   0.087  0.1296  0.2983  0.4503
22952SOL    HW271812   5.469   4.392   0.104  0.1290  0.2138  0.8324
22953SOL     OW71813  10.392   6.895   8.490 -0.6166  0.3424 -0.2152
22953SOL    HW171814  10.320   6.954   8.465 -0.4061  0.6610 -0.0794
22953SOL    HW271815  10.352   6.808   8.493 -1.8160  0.8790  3.0445
22954SOL     OW71816   5.381   4.934   4.604 -0.2085  0.1888 -0.3921
22954SOL    HW171817   5.305   4.976   4.565  0.0251  1.2473  0.2645
22954SOL    HW271818   5.351   4.844   4.623 -1.5481  0.7895  0.5236
22955SOL     OW71819   6.225   7.595   0.878 -0.4668  0.1030  0.1729
22955SOL    HW171820   6.256   7.505   0.889  0.5608  0.3786 -0.3481
22955SOL    HW271821   6.295   7.648   0.915 -0.0341  0.7714 -1.5200
22956SOL     OW71822   7.565   5.238   6.100  0.3436 -0.1621  0.4781
22956SOL    HW171823   7.556   5.146   6.124 -1.7099  0.0729  0.8300
22956SOL    HW271824   7.494   5.282   6.148 -0.5331  1.1491 -1.8676
22957SOL     OW71825   8.768   6.382  10.305 -0.9025 -0.0189  0.1049
22957SOL    HW171826   8.721   6.354  10.383 -1.0495  0.1867  0.0911
22957SOL    HW271827   8.830   6.448  10.336 -0.1299 -0.7900  0.2369
22958SOL     OW71828   8.567   0.691   4.526  0.5638  0.0757 -0.2063
22958SOL    HW171829   8.629   0.723   4.460  1.8285 -0.9121  0.4525
22958SOL    HW271830   8.495   0.654   4.476  1.4959 -0.6409 -1.0551
22959SOL     OW71831   6.352   8.278   0.356  0.2288  0.8251  0.3825
22959SOL    HW171832   6.318   8.189   0.359  1.1814  0.4547  0.4903
22959SOL    HW271833   6.397   8.284   0.271 -0.4306  1.4328  0.0647
22960SOL     OW71834   0.538   6.332   2.204 -0.8008 -0.7469  0.0012
22960SOL    HW171835   0.560   6.300   2.292 -1.9910  2.9134  1.8280
22960SOL    HW271836   0.453   6.374   2.214 -0.1056  1.4848 -2.4360
22961SOL     OW71837   8.460   6.318   6.371 -0.4456 -0.0757  0.5041
22961SOL    HW171838   8.404   6.383   6.415 -0.0343  1.5954 -1.2973
22961SOL    HW271839   8.426   6.313   6.282  1.6343  0.3009 -0.3827
22962SOL     OW71840   8.506   5.507   2.350 -0.0284  0.2073 -0.0052
22962SOL    HW171841   8.574   5.548   2.402  1.3045 -1.3585 -0.4307
22962SOL    HW271842   8.432   5.568   2.354  1.5987  2.2800 -0.0772
22963SOL     OW71843   9.096   0.679   2.444  0.3624  0.2406 -1.1305
22963SOL    HW171844   9.103   0.763   2.398  0.4995  0.3584 -0.8979
22963SOL    HW271845   9.179   0.670   2.491  0.4718 -0.1762 -1.4049
22964SOL     OW71846   0.986   4.657   6.735  0.1951  0.1674  0.2197
22964SOL    HW171847   0.934   4.638   6.813  1.0923  0.8473  1.0006
22964SOL    HW271848   1.077   4.652   6.764  0.6865 -2.1853 -1.3728
22965SOL     OW71849   4.206   3.902   8.071  0.3421  0.1958  0.5610
22965SOL    HW171850   4.110   3.897   8.066  0.3411  0.2116  0.5708
22965SOL    HW271851   4.225   3.991   8.098  0.3759  0.3331  0.0857
22966SOL     OW71852   1.629   0.501   3.365 -0.3082 -0.2323 -0.0723
22966SOL    HW171853   1.595   0.514   3.453  1.3594 -0.4070  0.6388
22966SOL    HW271854   1.655   0.408   3.363  3.3380  0.6053  0.7155
22967SOL     OW71855   7.275   4.577  10.201  0.0546 -0.0818 -0.2392
22967SOL    HW171856   7.231   4.498  10.232 -1.0390 -0.4050 -2.4337
22967SOL    HW271857   7.240   4.647  10.257  0.0062 -0.9319  0.8284
22968SOL     OW71858   4.162   8.872   3.704 -0.2702  0.2560  0.0120
22968SOL    HW171859   4.257   8.873   3.702 -0.2666  1.2874  0.4261
22968SOL    HW271860   4.136   8.954   3.664 -0.9798  0.1492  0.2394
22969SOL     OW71861   9.292  10.101   0.915 -0.4972  0.0575 -0.0215
22969SOL    HW171862   9.297  10.024   0.859 -0.3615  1.8030 -2.5899
22969SOL    HW271863   9.198  10.116   0.927 -0.5207 -0.6276  0.6883
22970SOL     OW71864   3.950   6.485   1.186  0.4740  0.1711 -0.1954
22970SOL    HW171865   3.945   6.441   1.101  0.1691  0.3383 -0.2645
22970SOL    HW271866   4.025   6.444   1.230 -0.9399 -1.8452  0.5261
22971SOL     OW71867  10.287   7.976   1.852  0.4353 -0.2071 -0.4005
22971SOL    HW171868  10.359   7.945   1.797 -0.5106 -0.6322 -1.4229
22971SOL    HW271869  10.330   8.006   1.932  1.6895 -1.0996 -0.7057
22972SOL     OW71870   0.951   5.184   6.199  0.3538  0.0682 -0.0722
22972SOL    HW171871   0.910   5.255   6.249  1.1128 -0.5424  1.4965
22972SOL    HW271872   0.948   5.214   6.108 -0.3960  1.5812  0.4148
22973SOL     OW71873   1.184   0.843   5.146  0.2755  0.1065  0.7133
22973SOL    HW171874   1.150   0.754   5.136 -1.2565  0.8686 -1.8724
22973SOL    HW271875   1.249   0.852   5.076 -2.2722  2.0423 -1.6941
22974SOL     OW71876   4.955   8.595   6.695  0.6355 -0.1897 -0.4307
22974SOL    HW171877   4.962   8.617   6.788  0.5489  0.8039 -0.6480
22974SOL    HW271878   4.912   8.671   6.656  1.1393 -0.3700 -1.3663
22975SOL     OW71879   9.269   0.586   0.888  0.7896  0.0936 -0.4152
22975SOL    HW171880   9.180   0.621   0.880  1.1256  0.8791 -0.7915
22975SOL    HW271881   9.323   0.663   0.907  1.5418 -0.2160 -1.2397
22976SOL     OW71882   8.513   5.643   8.467 -0.0412 -0.4024  0.2537
22976SOL    HW171883   8.492   5.573   8.406 -0.0687  0.6761 -1.0071
22976SOL    HW271884   8.493   5.724   8.420 -0.0873  0.4734  1.6934
22977SOL     OW71885   9.909   4.340   5.315 -0.0554 -0.1886 -0.3399
22977SOL    HW171886   9.877   4.376   5.398  0.3410  0.8035 -0.6120
22977SOL    HW271887   9.964   4.266   5.342 -0.6822 -0.4667  0.2327
22978SOL     OW71888   9.205   2.755   5.773  0.2897 -0.3936 -0.8363
22978SOL    HW171889   9.156   2.779   5.694  0.0921  0.5640 -0.4388
22978SOL    HW271890   9.141   2.762   5.844  0.9254  0.6776 -0.3358
22979SOL     OW71891   3.636   8.774  10.432  0.0011  0.0247 -0.1679
22979SOL    HW171892   3.662   8.730  10.513 -1.6527 -3.8238 -1.4956
22979SOL    HW271893   3.581   8.847  10.460 -0.9451 -1.4922  2.2342
22980SOL     OW71894   1.186   9.930   0.525  0.8821 -0.6854 -0.1876
22980SOL    HW171895   1.217   9.960   0.610 -1.0607  1.4943 -0.1241
22980SOL    HW271896   1.113   9.872   0.545 -0.6796  1.1397 -0.2626
22981SOL     OW71897   8.924   9.760   6.240 -0.5660  0.1701 -0.1276
22981SOL    HW171898   8.991   9.813   6.284 -0.3190 -0.7251  0.5858
22981SOL    HW271899   8.905   9.809   6.160 -0.8695  1.7197  0.8433
22982SOL     OW71900   3.619   7.569   3.635 -0.5984  0.2699  0.9848
22982SOL    HW171901   3.663   7.650   3.659 -2.0756  1.4163  0.0386
22982SOL    HW271902   3.621   7.567   3.539 -0.6956 -0.7527  0.9878
22983SOL     OW71903   5.603   4.491   3.121 -0.0970  0.7679 -0.5304
22983SOL    HW171904   5.534   4.508   3.057 -0.5164 -0.1134 -0.3416
22983SOL    HW271905   5.600   4.396   3.134 -0.0689  0.9299  0.8385
22984SOL     OW71906   3.819   5.666   0.621  0.0450 -0.4713 -0.4347
22984SOL    HW171907   3.759   5.738   0.639  1.2827  0.5540 -0.2409
22984SOL    HW271908   3.848   5.680   0.531 -1.5149 -2.1329 -1.2601
22985SOL     OW71909   8.322   6.661   2.451 -0.4956 -0.6331 -0.0117
22985SOL    HW171910   8.400   6.658   2.506  0.3958  1.4228 -1.0795
22985SOL    HW271911   8.349   6.706   2.371 -2.5261 -0.7454 -0.8471
22986SOL     OW71912   7.850   6.181   4.522  0.4663  0.1427  0.0670
22986SOL    HW171913   7.874   6.141   4.438 -1.3315  0.4226 -0.6292
22986SOL    HW271914   7.755   6.168   4.527  0.5581  0.0603  2.1124
22987SOL     OW71915   4.035   3.271   7.038 -0.3408  0.2408  0.5098
22987SOL    HW171916   3.954   3.221   7.052 -0.8953  0.6544 -0.9377
22987SOL    HW271917   4.098   3.206   7.006  0.7259 -0.5686  3.8665
22988SOL     OW71918   6.191   4.771   0.416 -0.0413  0.0832 -0.0763
22988SOL    HW171919   6.197   4.705   0.347  1.4520 -0.8027  0.8318
22988SOL    HW271920   6.133   4.838   0.381  0.1707 -0.6468 -1.9155
22989SOL     OW71921   5.178  10.034   6.028 -0.3028  0.7660  0.7556
22989SOL    HW171922   5.087  10.052   6.053 -0.2958  1.7243  0.1634
22989SOL    HW271923   5.194  10.094   5.955  1.0629  1.2212  1.4008
22990SOL     OW71924   0.267   9.947   5.367  0.4107  0.5184 -0.4454
22990SOL    HW171925   0.277   9.974   5.276  3.1701  2.0456  0.2023
22990SOL    HW271926   0.279  10.027   5.418 -0.6147 -0.3717  1.3044
22991SOL     OW71927   9.661   6.660   1.558 -0.1896 -0.3585  0.5788
22991SOL    HW171928   9.631   6.583   1.607 -0.9397 -0.8492 -0.5867
22991SOL    HW271929   9.586   6.720   1.559 -1.5077 -1.6986 -2.5685
22992SOL     OW71930   0.690   7.905   0.456  0.4452 -0.1100  0.0620
22992SOL    HW171931   0.779   7.919   0.425  0.6228  1.4271  1.1788
22992SOL    HW271932   0.698   7.842   0.528  0.6443  0.1512  0.2657
22993SOL     OW71933   8.801   5.161   1.505  0.3418 -0.6083 -0.1912
22993SOL    HW171934   8.889   5.137   1.478  1.0327  1.9847 -0.5001
22993SOL    HW271935   8.744   5.103   1.454  1.8040 -2.3807  0.0637
22994SOL     OW71936   6.913   6.393   2.389  0.1614  0.0111 -0.4938
22994SOL    HW171937   6.996   6.381   2.435 -0.0145 -0.4451 -0.2928
22994SOL    HW271938   6.927   6.353   2.303 -0.3034 -1.3829  0.0440
22995SOL     OW71939   5.064   4.343  10.473 -0.1868  0.2927 -0.1340
22995SOL    HW171940   4.990   4.283  10.484 -0.4748  0.6943  0.1369
22995SOL    HW271941   5.106   4.315  10.392 -0.7570  0.1962 -0.3967
22996SOL     OW71942   9.163   1.959   1.274  0.0518 -0.1907  0.4706
22996SOL    HW171943   9.121   1.987   1.356  0.0695  0.6461  0.2003
22996SOL    HW271944   9.247   1.922   1.302  0.9381  1.8810  0.6946
22997SOL     OW71945   5.839   3.640   6.615 -0.2069 -0.2746  0.3525
22997SOL    HW171946   5.898   3.709   6.647  1.1988 -0.5243 -1.5640
22997SOL    HW271947   5.777   3.687   6.560 -0.1655 -0.3541  0.2393
22998SOL     OW71948   7.603   7.859   3.453  0.7303 -0.1392  0.4392
22998SOL    HW171949   7.675   7.815   3.498  2.4342  0.5472 -1.4398
22998SOL    HW271950   7.633   7.949   3.442 -0.3375  0.1150 -0.5601
22999SOL     OW71951   2.059   9.074   3.215  0.3189  0.6336  0.0855
22999SOL    HW171952   2.079   9.068   3.309  0.0400 -0.4138  0.0879
22999SOL    HW271953   1.982   9.019   3.204  0.5274  0.5180 -0.8194
23000SOL     OW71954   4.342   9.914   2.052  0.8932  0.8694 -0.1840
23000SOL    HW171955   4.286   9.990   2.071 -2.0403 -1.4862  1.4428
23000SOL    HW271956   4.346   9.911   1.957  2.5405  3.9084 -0.3583
23001SOL     OW71957   6.704   4.803   6.505  0.3313 -0.1816 -0.0500
23001SOL    HW171958   6.618   4.761   6.500  0.9217 -1.4475 -0.0237
23001SOL    HW271959   6.754   4.749   6.566  0.5507  1.6825  1.5101
23002SOL     OW71960   8.130   3.820   4.586  0.4834  0.2561  0.3930
23002SOL    HW171961   8.111   3.907   4.621  0.9025  0.5575 -0.1083
23002SOL    HW271962   8.134   3.832   4.491  2.7315  0.1501  0.4281
23003SOL     OW71963   5.199   8.673   9.284  0.8107  0.1816  0.1022
23003SOL    HW171964   5.215   8.751   9.232  0.1250 -0.1610 -0.6546
23003SOL    HW271965   5.286   8.640   9.307  1.1035  1.5529  1.0493
23004SOL     OW71966   7.351  10.286   2.947  0.4448  0.4626  0.1785
23004SOL    HW171967   7.341  10.381   2.942 -2.2752  0.2129 -0.3778
23004SOL    HW271968   7.386  10.262   2.861  0.9302  0.9101  0.2416
23005SOL     OW71969   8.197   6.090   6.382 -0.0830 -0.4046  0.1950
23005SOL    HW171970   8.213   6.039   6.303  0.3220 -1.3943  0.8874
23005SOL    HW271971   8.281   6.130   6.402 -0.0298 -0.6290  0.4342
23006SOL     OW71972   6.764   3.273  10.598  0.6191 -0.7681  0.1741
23006SOL    HW171973   6.691   3.245  10.543  1.2751 -0.9630 -0.6218
23006SOL    HW271974   6.800   3.349  10.553 -0.4196  0.7003  1.7094
23007SOL     OW71975   1.236   6.159   5.978 -0.2057  0.9200 -0.5434
23007SOL    HW171976   1.162   6.118   6.023  0.6734 -1.1449 -0.8821
23007SOL    HW271977   1.216   6.252   5.980 -1.8093  0.5992  1.1697
23008SOL     OW71978   1.936   7.939   5.799  0.7958  0.4180  0.1733
23008SOL    HW171979   1.921   7.905   5.711  2.1000  0.7043 -0.1825
23008SOL    HW271980   1.849   7.959   5.833  0.0674 -1.9325 -0.1259
23009SOL     OW71981   5.057   1.531   8.351  0.7055 -0.0159  0.0599
23009SOL    HW171982   5.111   1.604   8.322  1.0269  0.3373  1.4493
23009SOL    HW271983   5.000   1.569   8.419 -0.2311 -0.7145 -0.3058
23010SOL     OW71984   5.016   4.110  10.197  0.2782 -0.3976 -0.0844
23010SOL    HW171985   5.035   4.042  10.132 -2.3102 -1.3927  0.0728
23010SOL    HW271986   4.921   4.119  10.194  0.4213  2.2538  0.9205
23011SOL     OW71987   2.916   1.875  10.158  0.2401 -0.6277 -0.0914
23011SOL    HW171988   2.996   1.919  10.130  0.6098 -1.2687 -0.0325
23011SOL    HW271989   2.921   1.873  10.254  0.4322 -1.1882 -0.1115
23012SOL     OW71990   1.482   1.257   6.373  0.3602 -0.3539 -0.0299
23012SOL    HW171991   1.523   1.253   6.459 -2.0237 -0.8897  1.1543
23012SOL    HW271992   1.439   1.172   6.363  0.3601 -0.1969 -1.6456
23013SOL     OW71993   4.836   9.264   1.393 -0.7078 -0.5854 -0.0983
23013SOL    HW171994   4.911   9.213   1.362 -1.3921 -1.1476 -0.8846
23013SOL    HW271995   4.804   9.308   1.314 -0.6046  0.4647  0.4250
23014SOL     OW71996   7.609   7.803  10.424  0.1375  0.3444 -0.0347
23014SOL    HW171997   7.647   7.871  10.479 -2.0818  2.3401 -0.8274
23014SOL    HW271998   7.529   7.776  10.470  0.4915 -1.1202 -0.2016
23015SOL     OW71999   1.220   2.086   9.098 -0.1465 -0.3447  0.3231
23015SOL    HW172000   1.171   2.157   9.056 -1.1570 -1.1132  0.1610
23015SOL    HW272001   1.275   2.051   9.028 -0.3331 -0.3268  0.1676
23016SOL     OW72002   8.806   6.374   1.534 -0.4826 -0.2844 -0.1587
23016SOL    HW172003   8.770   6.293   1.500  1.6226 -1.3242 -0.1056
23016SOL    HW272004   8.734   6.416   1.581 -1.7777 -1.8052 -0.7267
23017SOL     OW72005   4.925   4.209   1.057 -0.3414  0.2107  0.0722
23017SOL    HW172006   4.917   4.163   0.973  0.5184 -0.0438  0.1165
23017SOL    HW272007   4.864   4.282   1.050 -1.5841 -0.7990 -0.0891
23018SOL     OW72008   0.927   1.314  10.486  0.0520 -0.5030 -0.8350
23018SOL    HW172009   1.008   1.324  10.537 -0.9317 -0.2614  0.7193
23018SOL    HW272010   0.879   1.243  10.529  0.0893 -1.7450 -2.6870
23019SOL     OW72011   3.113   0.928   7.723 -0.0758 -0.2052 -0.1472
23019SOL    HW172012   3.190   0.930   7.666  0.5071  3.4215  0.5388
23019SOL    HW272013   3.054   0.993   7.686 -0.0479  1.6603  2.7390
23020SOL     OW72014   7.374   6.072   2.699 -0.0097 -0.3852  0.2041
23020SOL    HW172015   7.280   6.073   2.714  0.0889  0.9327  0.8505
23020SOL    HW272016   7.413   6.093   2.784  0.6826  3.4917 -0.8712
23021SOL     OW72017  10.403   1.266   8.495  0.1441  0.2867  0.1099
23021SOL    HW172018  10.406   1.174   8.523 -0.5268  0.4687  0.8029
23021SOL    HW272019  10.323   1.300   8.534  0.6870  1.3311  0.3246
23022SOL     OW72020   1.689   9.343   6.414 -0.1849  0.3288 -0.0350
23022SOL    HW172021   1.634   9.312   6.486  0.4041 -1.3399 -0.2505
23022SOL    HW272022   1.659   9.292   6.338  0.6242  0.5095 -0.4847
23023SOL     OW72023  10.502   2.682   8.737 -0.3452  0.1508 -0.1678
23023SOL    HW172024  10.438   2.739   8.779 -0.4541 -0.7028  0.8665
23023SOL    HW272025  10.456   2.649   8.659 -1.0667 -0.2193  0.4049
23024SOL     OW72026   6.921   5.696   7.277 -0.5314 -0.0554  0.6301
23024SOL    HW172027   6.940   5.774   7.329 -2.7471  0.5647  0.6251
23024SOL    HW272028   6.834   5.712   7.241 -0.9194 -2.3914  0.3555
23025SOL     OW72029   4.786   9.119   7.124 -0.2640  0.7227 -0.0577
23025SOL    HW172030   4.824   9.100   7.038  0.0140 -1.5037  0.4881
23025SOL    HW272031   4.705   9.067   7.127 -0.0747  0.4549  1.1495
23026SOL     OW72032   3.103   0.975   6.805  0.5114  0.4396  0.0574
23026SOL    HW172033   3.155   0.935   6.875 -0.2032  2.6273  1.9506
23026SOL    HW272034   3.116   1.069   6.817 -2.3484  0.9952 -0.5924
23027SOL     OW72035   6.177   2.868   7.715  0.4252 -0.5720 -0.2801
23027SOL    HW172036   6.084   2.853   7.697  0.2722 -0.8208  0.6266
23027SOL    HW272037   6.203   2.793   7.768  0.8900 -0.0205  0.2925
23028SOL     OW72038  10.347   8.355   9.677 -0.1723 -0.0673  0.1049
23028SOL    HW172039  10.305   8.353   9.763 -1.3117  0.4610 -0.4087
23028SOL    HW272040  10.428   8.403   9.690 -0.6446  0.5615  0.7598
23029SOL     OW72041   4.073   2.403   5.353  0.3043  0.5200  0.4176
23029SOL    HW172042   4.020   2.373   5.279  0.4809 -1.1209  0.9165
23029SOL    HW272043   4.153   2.437   5.312  0.4935 -0.5679 -0.1464
23030SOL     OW72044   5.122   5.657   5.460  0.1772 -0.7889 -0.0058
23030SOL    HW172045   5.091   5.574   5.421  2.1868 -1.6451  0.1148
23030SOL    HW272046   5.216   5.644   5.472  0.2612  0.9442  1.5248
23031SOL     OW72047   9.184   7.879   0.018 -0.4584 -0.6648 -0.1760
23031SOL    HW172048   9.234   7.863   0.098 -1.9842 -2.2647  0.5193
23031SOL    HW272049   9.172   7.974   0.016  2.0035 -0.2707 -0.0602
23032SOL     OW72050   3.994   0.054   3.625 -0.4938  0.7024  0.6903
23032SOL    HW172051   4.046   0.130   3.652  0.4647  0.5287 -0.5898
23032SOL    HW272052   3.903   0.085   3.629 -0.1023  2.0979 -0.2932
23033SOL     OW72053  10.265   8.206   8.852 -0.4781  0.3332  0.5990
23033SOL    HW172054  10.277   8.131   8.795 -1.7089  0.4798  0.1093
23033SOL    HW272055  10.241   8.277   8.793  1.0885  1.2519  1.0005
23034SOL     OW72056   2.069   6.070   0.322 -0.1545  0.2512 -0.4404
23034SOL    HW172057   2.048   6.036   0.409  2.4680 -1.0923 -0.2499
23034SOL    HW272058   2.112   6.154   0.339 -0.2066  0.2849 -0.4754
23035SOL     OW72059   0.520   2.342   3.034 -0.0143 -0.3049  0.1986
23035SOL    HW172060   0.443   2.398   3.031 -0.3516 -0.8026 -1.2537
23035SOL    HW272061   0.498   2.274   3.097 -0.1322  0.4213  0.9606
23036SOL     OW72062   1.513   5.707   8.398 -0.3369  0.1600  0.4626
23036SOL    HW172063   1.448   5.775   8.378 -0.2453  0.0534 -0.2305
23036SOL    HW272064   1.477   5.627   8.359  1.0382  0.4565 -1.5827
23037SOL     OW72065   8.902   4.888   9.488  0.9100  0.1140  0.3881
23037SOL    HW172066   8.834   4.948   9.457  1.0628  0.0585 -0.0603
23037SOL    HW272067   8.877   4.868   9.578 -0.9202 -1.6586 -0.4261
23038SOL     OW72068   7.461   2.745   2.129  0.2000 -0.2465  0.3004
23038SOL    HW172069   7.487   2.688   2.057  0.2044 -1.6044  1.3353
23038SOL    HW272070   7.456   2.832   2.090 -0.1532 -0.9928 -1.4088
23039SOL     OW72071   0.503   1.193   7.559 -0.3385 -0.5929  0.2655
23039SOL    HW172072   0.489   1.286   7.574  1.5538 -0.3896  1.0044
23039SOL    HW272073   0.546   1.162   7.638 -0.0441 -1.8843 -0.3703
23040SOL     OW72074   2.352   4.348   0.094 -0.0906  0.0451 -0.1605
23040SOL    HW172075   2.263   4.316   0.078 -0.5161  1.1510 -0.1077
23040SOL    HW272076   2.395   4.341   0.009 -0.3095 -0.2517 -0.2491
23041SOL     OW72077   8.981   5.613   6.258 -0.3586 -0.8386  0.5327
23041SOL    HW172078   8.978   5.564   6.340 -0.4762 -1.5117  0.1369
23041SOL    HW272079   8.913   5.572   6.203  0.5156 -1.1816 -0.3200
23042SOL     OW72080   6.880   5.240   4.773 -0.9580  0.2231  0.9295
23042SOL    HW172081   6.953   5.300   4.790  0.4422 -1.0165 -0.3245
23042SOL    HW272082   6.874   5.238   4.677 -0.9036 -1.6514  0.9320
23043SOL     OW72083   7.077   4.903   9.094  0.0460 -0.0087 -0.1277
23043SOL    HW172084   7.045   4.980   9.047 -0.1685  0.5791  0.9559
23043SOL    HW272085   7.021   4.831   9.063  0.4638  0.1961 -1.3896
23044SOL     OW72086   8.616   3.782   7.106  0.0364 -0.6018  0.1728
23044SOL    HW172087   8.582   3.870   7.121 -2.0524 -1.7579  3.4265
23044SOL    HW272088   8.711   3.790   7.120  0.0185  1.2270 -0.4572
23045SOL     OW72089  10.380   3.606   1.148  0.2869  0.5797  0.0579
23045SOL    HW172090  10.328   3.680   1.180 -1.5819 -0.9791  0.8256
23045SOL    HW272091  10.329   3.571   1.075  1.9749  0.9874 -1.3753
23046SOL     OW72092   1.484   9.513   2.096  0.0580 -0.6652  0.0128
23046SOL    HW172093   1.557   9.469   2.052 -0.8497 -1.4838 -0.7489
23046SOL    HW272094   1.493   9.488   2.188 -0.5570 -2.7471 -0.4186
23047SOL     OW72095   9.469   7.864   6.241 -0.6220 -0.6383 -0.6406
23047SOL    HW172096   9.437   7.802   6.306 -0.0290  0.7955  1.0981
23047SOL    HW272097   9.390   7.907   6.208 -0.8678 -0.5952 -0.0233
23048SOL     OW72098   7.556   3.449   4.943 -0.0967 -0.2857 -0.2690
23048SOL    HW172099   7.532   3.378   4.884 -1.4266  0.7727 -1.0720
23048SOL    HW272100   7.602   3.406   5.015  0.2903 -1.7876 -1.3584
23049SOL     OW72101   9.550   9.014   9.400 -0.1293  0.5454 -0.1095
23049SOL    HW172102   9.524   9.075   9.331 -0.6754  1.4167  0.8328
23049SOL    HW272103   9.469   8.969   9.423  0.0263  0.3335  0.0257
23050SOL     OW72104  10.521   8.847   8.178  0.1150  0.1896  0.6475
23050SOL    HW172105  10.486   8.901   8.249 -1.2545  0.5496 -0.2495
23050SOL    HW272106  10.457   8.857   8.108  0.3693 -1.7815  0.0849
23051SOL     OW72107   8.287   5.138   7.059  0.6597  0.0080 -0.0187
23051SOL    HW172108   8.260   5.073   6.994  4.4731 -1.2757 -0.6182
23051SOL    HW272109   8.272   5.096   7.143 -2.8646  1.0676  0.0177
23052SOL     OW72110   2.991   5.072   1.157 -0.3966  0.0205  0.1192
23052SOL    HW172111   2.958   5.062   1.067 -0.6297 -1.0294  0.3093
23052SOL    HW272112   3.011   4.982   1.185  0.2377  0.3979  0.9081
23053SOL     OW72113   8.561   0.789   3.080  0.2036 -0.0333 -0.1250
23053SOL    HW172114   8.542   0.727   3.010 -0.0349  0.8456 -0.8459
23053SOL    HW272115   8.655   0.806   3.072  0.0242  0.6983 -0.7664
23054SOL     OW72116   7.265   7.824   1.227  0.4382  0.1255  0.5310
23054SOL    HW172117   7.214   7.895   1.187  0.1919 -0.0188  0.5823
23054SOL    HW272118   7.240   7.827   1.319 -0.0010 -0.3812  0.4356
23055SOL     OW72119   0.273  10.540   8.519 -0.0346 -0.4963 -0.3872
23055SOL    HW172120   0.366  10.563   8.509 -0.7151  1.6451 -2.6932
23055SOL    HW272121   0.262  10.462   8.464  0.2154 -0.1230 -0.9829
23056SOL     OW72122   4.343   0.792   4.683 -0.2530 -0.2187  0.0260
23056SOL    HW172123   4.315   0.723   4.624  1.4855 -0.9493 -0.0073
23056SOL    HW272124   4.339   0.752   4.770 -0.5960  0.1068  0.1623
23057SOL     OW72125   3.031   7.534   0.815  0.2957 -0.3885 -0.3805
23057SOL    HW172126   2.976   7.533   0.737 -0.0883 -1.2664 -0.1053
23057SOL    HW272127   3.098   7.601   0.797 -0.7017  0.5179 -0.8195
23058SOL     OW72128   5.013   4.935   3.755  0.0830  0.1210 -0.6405
23058SOL    HW172129   4.946   4.956   3.690 -2.3551 -1.2074  1.2709
23058SOL    HW272130   5.004   5.003   3.823  0.2183 -0.4371 -0.0495
23059SOL     OW72131   5.401   3.179   4.726  0.3849  0.2590  0.4338
23059SOL    HW172132   5.460   3.222   4.788 -1.2338  2.4972  0.5141
23059SOL    HW272133   5.442   3.195   4.640 -0.6390  2.9882  0.3470
23060SOL     OW72134  10.435   0.423   2.658  0.5000 -0.7916 -0.5813
23060SOL    HW172135  10.424   0.343   2.608  0.8008 -0.3950 -1.2993
23060SOL    HW272136  10.398   0.492   2.601 -0.7358 -0.5550  0.4643
23061SOL     OW72137   6.365  10.613   8.251  0.4773 -0.3128 -0.1796
23061SOL    HW172138   6.368  10.544   8.185 -0.4086 -0.8433  0.3150
23061SOL    HW272139   6.336  10.691   8.204 -0.3897 -0.7441 -0.3893
23062SOL     OW72140   1.563   0.632   8.623  0.5649  0.0833  0.1207
23062SOL    HW172141   1.525   0.550   8.592  1.4794 -1.0102  1.7184
23062SOL    HW272142   1.488   0.684   8.652 -0.0337 -0.1139 -1.0103
23063SOL     OW72143   6.615   6.036   0.181 -0.3919  0.1188  0.2472
23063SOL    HW172144   6.582   6.111   0.132 -0.1646 -0.3214 -0.5948
23063SOL    HW272145   6.694   6.068   0.226 -1.0956  0.7607  1.0543
23064SOL     OW72146   2.949   0.078   3.920 -0.0334  0.0440 -0.4521
23064SOL    HW172147   2.984   0.065   3.831 -0.4699 -1.0631 -0.4785
23064SOL    HW272148   2.858   0.104   3.906 -0.7088 -2.0207 -0.3574
23065SOL     OW72149   2.060   2.613   5.500  0.1637  0.0452 -0.1720
23065SOL    HW172150   2.111   2.580   5.573  0.4278 -1.8442 -1.1492
23065SOL    HW272151   1.996   2.672   5.540  0.3120 -0.9207  1.5742
23066SOL     OW72152   1.019   4.731   4.193  0.3940 -0.5033  0.3996
23066SOL    HW172153   1.003   4.637   4.188  1.5847 -0.6804 -0.5814
23066SOL    HW272154   0.943   4.771   4.150  1.0617 -1.1624 -1.4782
23067SOL     OW72155   4.597   8.579   0.086  0.2139  0.4409  0.0144
23067SOL    HW172156   4.664   8.579   0.018  1.2520 -1.1103  0.9947
23067SOL    HW272157   4.641   8.546   0.164 -1.7203 -0.7669  0.6647
23068SOL     OW72158   1.327   6.274   3.679 -0.0654  0.2894 -0.4070
23068SOL    HW172159   1.245   6.249   3.637 -0.3767  0.8689 -0.1594
23068SOL    HW272160   1.300   6.314   3.762  0.4457  0.7923 -0.4780
23069SOL     OW72161   8.077   5.895   2.600  0.0243 -0.6638  0.4643
23069SOL    HW172162   8.155   5.845   2.622  0.5142  0.3682  1.1418
23069SOL    HW272163   8.020   5.887   2.677  0.3774  0.3242  0.8414
23070SOL     OW72164   9.401   4.558   2.339 -0.1471 -0.6050  0.3428
23070SOL    HW172165   9.420   4.647   2.309 -2.3907 -1.0381 -2.9255
23070SOL    HW272166   9.337   4.569   2.410  1.1597  0.3708  1.4169
23071SOL     OW72167   0.242   9.672   5.436 -0.8760 -0.0081  0.2104
23071SOL    HW172168   0.269   9.759   5.406  0.6031 -1.3304 -2.7018
23071SOL    HW272169   0.161   9.654   5.389 -1.1097 -0.2804  0.7077
23072SOL     OW72170   4.584   0.847   0.299 -0.5071 -0.6465  0.0680
23072SOL    HW172171   4.593   0.769   0.245 -0.8623  1.0513 -2.5873
23072SOL    HW272172   4.496   0.839   0.336 -1.8157 -0.1051 -2.6877
23073SOL     OW72173   2.107   9.019   8.885  0.0151  0.0673  0.3235
23073SOL    HW172174   2.103   9.010   8.980  2.4010  0.9710  0.5718
23073SOL    HW272175   2.122   9.113   8.871  2.1348 -0.3697 -0.7714
23074SOL     OW72176   0.099   8.131   4.093  0.4328  0.0094 -0.0624
23074SOL    HW172177   0.030   8.198   4.092  1.2092  0.8580  0.6804
23074SOL    HW272178   0.128   8.125   4.002 -0.3296 -0.0425 -0.3073
23075SOL     OW72179   1.760   3.492   0.371 -0.0525  0.2936 -0.2046
23075SOL    HW172180   1.778   3.431   0.300 -0.9928  0.7656 -0.8752
23075SOL    HW272181   1.666   3.487   0.384  0.2563 -1.0517  2.2165
23076SOL     OW72182   5.887  10.353   4.351 -0.8380  0.1368  0.0932
23076SOL    HW172183   5.824  10.291   4.314 -1.5640  0.8152  0.1636
23076SOL    HW272184   5.891  10.332   4.444 -0.0612 -0.6690 -0.1098
23077SOL     OW72185   6.611   1.790   0.097  0.5593 -0.5329  0.1917
23077SOL    HW172186   6.592   1.767   0.006  1.0149  1.7283 -0.5283
23077SOL    HW272187   6.525   1.796   0.139  0.1976  0.5268 -0.6647
23078SOL     OW72188   3.440   1.855   4.845 -0.3233  0.0183  0.4092
23078SOL    HW172189   3.476   1.942   4.826  0.2029 -0.1862  0.4520
23078SOL    HW272190   3.358   1.852   4.795 -0.5735  0.7080  0.7651
23079SOL     OW72191   8.225   7.118   6.178  0.1871  0.4256 -0.0806
23079SOL    HW172192   8.241   7.212   6.178  1.1144  0.2794 -0.7997
23079SOL    HW272193   8.310   7.079   6.160 -0.2706 -0.5389 -0.2178
23080SOL     OW72194   2.709   5.746   9.688 -0.0262 -0.5269  0.2216
23080SOL    HW172195   2.791   5.699   9.702  0.6258  1.0112  1.8622
23080SOL    HW272196   2.731   5.838   9.701 -1.3329  0.2992 -2.5150
23081SOL     OW72197   6.728   4.613   5.670  0.3156  0.3471  0.1674
23081SOL    HW172198   6.701   4.596   5.760 -1.2191  0.5348 -0.2288
23081SOL    HW272199   6.693   4.701   5.651  0.9124  0.4515 -0.5030
23082SOL     OW72200   1.291   0.544   1.139  0.5970  0.0337  0.5740
23082SOL    HW172201   1.337   0.461   1.153 -0.4461 -1.1299 -2.2140
23082SOL    HW272202   1.209   0.535   1.186  0.1972 -0.8280 -0.2670
23083SOL     OW72203  10.189   0.635   2.323 -0.3967 -0.2103  0.3932
23083SOL    HW172204  10.235   0.669   2.246 -1.0871 -1.0478 -0.4058
23083SOL    HW272205  10.255   0.636   2.392  0.1731  0.7865 -0.1349
23084SOL     OW72206   1.095   6.208  10.392  0.9193  0.5971 -0.4004
23084SOL    HW172207   1.114   6.229  10.301  0.2792  1.1743 -0.4127
23084SOL    HW272208   1.141   6.275  10.442 -0.5910  1.7153 -0.4135
23085SOL     OW72209   6.335   6.889   2.738 -0.3303 -0.3624  0.0800
23085SOL    HW172210   6.284   6.966   2.715 -0.8435 -0.3319  1.2428
23085SOL    HW272211   6.421   6.903   2.698 -0.4500  0.7640  0.2034
23086SOL     OW72212   5.799   4.048   8.002 -0.4767  0.3362 -0.1952
23086SOL    HW172213   5.889   4.021   8.019 -0.9208  0.2422  2.3496
23086SOL    HW272214   5.804   4.144   7.996 -0.3961  0.4615  1.5253
23087SOL     OW72215   7.447   8.301   2.684  0.1857  0.2198  0.4753
23087SOL    HW172216   7.531   8.338   2.658  0.8153 -1.5790 -0.2042
23087SOL    HW272217   7.413   8.260   2.605  0.4506 -2.2902  1.5567
23088SOL     OW72218   7.330   2.822   9.226  0.2944 -0.0885  0.3532
23088SOL    HW172219   7.276   2.800   9.302  0.2634 -1.0980  0.0458
23088SOL    HW272220   7.267   2.832   9.154  0.3184  0.9187  0.4454
23089SOL     OW72221   2.965   2.416   4.085  0.3480 -0.0684  0.3826
23089SOL    HW172222   2.950   2.322   4.085  1.2616 -0.2247  0.7204
23089SOL    HW272223   2.942   2.444   4.174  1.1476 -0.1724  0.6375
23090SOL     OW72224   3.177   4.943   2.127 -0.0939 -0.1083  0.8028
23090SOL    HW172225   3.150   5.028   2.091  1.2017  0.2707  0.6942
23090SOL    HW272226   3.099   4.888   2.119 -0.5727  0.6958 -0.3254
23091SOL     OW72227   1.491   7.165   8.835  0.1780 -0.6074 -0.6775
23091SOL    HW172228   1.433   7.235   8.865  1.1485 -0.5139  1.1365
23091SOL    HW272229   1.485   7.098   8.903  1.5954 -0.9262 -0.8274
23092SOL     OW72230  10.628   6.148   2.844 -0.0415 -0.1226  0.2039
23092SOL    HW172231  10.720   6.144   2.871 -0.0132  0.7812  0.2755
23092SOL    HW272232  10.585   6.084   2.900  0.4715 -0.2220  0.4997
23093SOL     OW72233   1.323   7.262   6.657  0.1731 -0.1728 -0.1367
23093SOL    HW172234   1.273   7.328   6.704  2.3182  1.8954 -0.5416
23093SOL    HW272235   1.268   7.237   6.583 -0.4710  1.7318 -0.3593
23094SOL     OW72236   5.469   6.791   1.537 -0.4148 -0.2013  0.4733
23094SOL    HW172237   5.487   6.884   1.548  2.1153 -0.4110 -1.0989
23094SOL    HW272238   5.378   6.788   1.509 -0.6675  1.7535  0.9366
23095SOL     OW72239   1.495   4.002   8.784  0.4112 -0.3483 -0.0080
23095SOL    HW172240   1.504   4.069   8.716 -2.6319 -1.0904 -1.3630
23095SOL    HW272241   1.441   4.044   8.851 -0.7102 -1.0737 -0.4238
23096SOL     OW72242   3.167   2.409   6.039  0.1300  0.0778  0.6448
23096SOL    HW172243   3.191   2.492   6.081 -0.2304  0.1157  0.7809
23096SOL    HW272244   3.123   2.435   5.958 -0.8903  0.0501  1.1688
23097SOL     OW72245   6.964   6.940   5.339  0.1610 -0.2692 -0.4397
23097SOL    HW172246   6.896   6.975   5.282  2.1093  2.6151 -1.1902
23097SOL    HW272247   7.039   6.927   5.282  0.9791 -1.1148  0.7747
23098SOL     OW72248  10.480   2.802   5.562  0.1033 -0.1404  0.6233
23098SOL    HW172249  10.497   2.831   5.652 -0.0016  1.2236  0.2224
23098SOL    HW272250  10.529   2.720   5.554  0.8772  0.1967  1.6404
23099SOL     OW72251   4.738   5.145   3.990 -0.5573 -0.5855  0.5465
23099SOL    HW172252   4.700   5.233   3.994 -0.0830 -0.4125  1.3734
23099SOL    HW272253   4.676   5.089   4.037 -0.1650 -0.4298  1.2681
23100SOL     OW72254   5.706   3.734   5.721  0.3514  0.4636  0.0144
23100SOL    HW172255   5.644   3.687   5.777  0.6092  0.5449  0.3775
23100SOL    HW272256   5.784   3.745   5.776 -0.1320  2.3988  0.3982
23101SOL     OW72257   4.066   2.215   7.382  0.1076 -0.3771  0.1182
23101SOL    HW172258   3.998   2.199   7.317 -0.4464  1.2819  0.2372
23101SOL    HW272259   4.133   2.265   7.334  0.6928 -0.9685  0.3037
23102SOL     OW72260   6.923   2.913   7.420  0.0619  0.4716 -0.2146
23102SOL    HW172261   6.840   2.910   7.371  0.4480  0.9021 -0.9063
23102SOL    HW272262   6.910   2.850   7.492 -0.1511 -0.9832 -1.4591
23103SOL     OW72263  10.669   5.386   2.007 -0.0554 -0.6623 -0.1259
23103SOL    HW172264  10.637   5.471   2.035 -0.4990 -0.6037 -0.7873
23103SOL    HW272265  10.702   5.345   2.087 -1.5512 -0.6260  0.5463
23104SOL     OW72266  10.412   7.745   5.224  0.5778 -0.8076 -0.1901
23104SOL    HW172267  10.422   7.660   5.181  0.5619 -0.1351 -1.5814
23104SOL    HW272268  10.325   7.775   5.199  0.8545 -0.0687 -0.2972
23105SOL     OW72269   1.947   9.941   4.282  0.6495  0.2404 -0.2670
23105SOL    HW172270   1.931   9.937   4.188  1.1470  3.6524 -0.6073
23105SOL    HW272271   1.863   9.922   4.323  0.3861 -1.0626 -1.3687
23106SOL     OW72272   7.760  10.082   6.017  0.0002 -0.0883 -0.7541
23106SOL    HW172273   7.839  10.029   6.006 -0.4145 -0.5775 -1.4002
23106SOL    HW272274   7.778  10.162   5.966  1.0768  0.9459  1.0946
23107SOL     OW72275   2.067   9.262  10.076 -0.1210 -0.3526  0.2587
23107SOL    HW172276   2.118   9.316  10.137  0.9547 -0.4126 -0.5436
23107SOL    HW272277   2.112   9.274   9.992 -0.9935 -1.0314 -0.3121
23108SOL     OW72278  10.361   2.587   0.862 -0.2236 -0.1548 -0.4395
23108SOL    HW172279  10.266   2.589   0.871 -0.2335 -0.2116 -0.5332
23108SOL    HW272280  10.386   2.500   0.893 -0.1775 -0.0514 -0.1831
23109SOL     OW72281  10.472   8.987   2.020 -0.5580  0.0024  0.3870
23109SOL    HW172282  10.387   8.947   2.039  0.0712 -1.9051 -0.5663
23109SOL    HW272283  10.470   9.004   1.926  0.3538 -0.7305  0.2195
23110SOL     OW72284   0.462   5.443   9.094 -0.5202 -0.4737 -0.1844
23110SOL    HW172285   0.548   5.418   9.059 -0.3474  0.3229 -0.3602
23110SOL    HW272286   0.404   5.441   9.019 -0.9141 -2.0837  0.1363
23111SOL     OW72287   4.616   4.124   9.285 -0.0385  0.3955  0.3646
23111SOL    HW172288   4.570   4.041   9.290 -0.1726  0.5564  2.8381
23111SOL    HW272289   4.569   4.174   9.218 -0.6009 -1.0905 -0.3891
23112SOL     OW72290   8.689   0.308   8.082 -0.4648 -0.3150  0.5104
23112SOL    HW172291   8.711   0.218   8.104  1.7390 -0.2037 -0.9729
23112SOL    HW272292   8.729   0.360   8.152  0.0473 -0.3854  0.2731
23113SOL     OW72293   8.772   7.618   6.451 -0.1273 -0.0373 -0.2244
23113SOL    HW172294   8.780   7.560   6.527 -1.4476  0.7130  0.5278
23113SOL    HW272295   8.795   7.705   6.484  0.0202  0.1788 -0.8796
23114SOL     OW72296   5.523   8.903   6.862  0.1742 -0.2970 -0.4631
23114SOL    HW172297   5.487   8.918   6.775  1.5558 -0.4624 -1.0779
23114SOL    HW272298   5.572   8.821   6.855 -0.3139 -0.7069  0.6678
23115SOL     OW72299   5.446   7.601   9.253  0.1210 -0.6022  0.4508
23115SOL    HW172300   5.389   7.592   9.329  1.4096  0.6600  1.6135
23115SOL    HW272301   5.421   7.685   9.214  0.1672 -0.7563  0.0843
23116SOL     OW72302   1.305   8.165   7.923  0.4677 -0.2283 -0.2061
23116SOL    HW172303   1.391   8.161   7.965  0.6910 -0.0392 -0.6320
23116SOL    HW272304   1.255   8.094   7.963 -0.3263  1.6969  2.5130
23117SOL     OW72305   8.608   1.891  10.236  0.2847  0.2524 -0.0852
23117SOL    HW172306   8.593   1.820  10.298  0.7556  0.8282  0.7101
23117SOL    HW272307   8.703   1.893  10.224  0.3794  1.3777  0.6829
23118SOL     OW72308   7.804   9.599   7.694 -0.6244 -0.0752 -0.1236
23118SOL    HW172309   7.814   9.614   7.600 -1.4285  0.2064 -0.1716
23118SOL    HW272310   7.869   9.533   7.715 -1.3741 -1.1785 -1.1506
23119SOL     OW72311   5.944   3.185  10.667  0.2100 -0.2157 -0.1488
23119SOL    HW172312   5.910   3.198  10.578  1.8809 -0.2638 -0.8201
23119SOL    HW272313   5.910   3.261  10.716 -0.9102 -0.3038 -0.7418
23120SOL     OW72314   2.818   5.243   3.264 -0.2374 -0.0274 -0.4874
23120SOL    HW172315   2.782   5.158   3.241 -1.0644 -0.0418  0.7482
23120SOL    HW272316   2.858   5.230   3.350  0.1015  0.7077 -0.5254
23121SOL     OW72317   9.759   8.185   3.951 -0.0302  0.4521  0.4586
23121SOL    HW172318   9.806   8.110   3.915  0.3518  0.8270  0.1749
23121SOL    HW272319   9.743   8.242   3.875  1.8266  1.8183  1.0412
23122SOL     OW72320   7.822   4.486   6.425 -0.3353  0.0388  0.0462
23122SOL    HW172321   7.878   4.416   6.459 -2.9075 -2.3990 -0.3032
23122SOL    HW272322   7.766   4.510   6.499 -0.8264  0.2785 -0.3993
23123SOL     OW72323   1.686   1.429   2.699  0.0645  0.2316  0.2950
23123SOL    HW172324   1.598   1.440   2.733 -0.6704  0.3494 -1.5382
23123SOL    HW272325   1.683   1.346   2.650  1.4795 -0.6913  1.6710
23124SOL     OW72326   6.564   0.293   4.567 -0.0991  0.0907  0.2034
23124SOL    HW172327   6.585   0.361   4.503  0.1312 -0.6301 -0.5040
23124SOL    HW272328   6.470   0.278   4.557  0.0501 -0.4638 -0.4184
23125SOL     OW72329   4.233   2.473   3.301 -0.3526 -0.8559 -0.1982
23125SOL    HW172330   4.262   2.542   3.360 -2.7761  0.6036 -0.5675
23125SOL    HW272331   4.138   2.469   3.313 -0.5836 -2.4536 -1.9810
23126SOL     OW72332   2.097   4.461   5.898  0.4845  0.1835 -0.0443
23126SOL    HW172333   2.121   4.514   5.974  0.4160 -0.7432  0.6378
23126SOL    HW272334   2.011   4.424   5.920 -0.4727  1.4628 -1.4077
23127SOL     OW72335   1.734   5.878   5.684  0.3504  0.1118  0.3684
23127SOL    HW172336   1.687   5.904   5.605  0.2576  0.1540  0.4382
23127SOL    HW272337   1.824   5.907   5.668  1.2028 -2.9317 -1.2594
23128SOL     OW72338   5.370   8.751   7.229 -0.1821  1.1881 -0.0793
23128SOL    HW172339   5.329   8.706   7.303 -0.6714 -2.0370 -2.0921
23128SOL    HW272340   5.297   8.780   7.175  0.1626  1.2997 -0.4911
23129SOL     OW72341   4.048   5.078   3.068  0.0683 -0.3506  0.4172
23129SOL    HW172342   4.038   5.104   2.976 -1.6513  0.8446  0.9074
23129SOL    HW272343   4.012   4.989   3.071 -0.8084 -0.0218  0.0963
23130SOL     OW72344   9.525   4.744   5.886  0.1548 -0.1048 -0.2565
23130SOL    HW172345   9.510   4.655   5.857 -0.3996  0.3334 -1.3586
23130SOL    HW272346   9.532   4.795   5.805  0.3870  0.8577  0.3547
23131SOL     OW72347   6.924   7.942   6.252  0.5401 -0.0666  0.1606
23131SOL    HW172348   7.008   7.928   6.208 -0.3766  2.6582 -2.8386
23131SOL    HW272349   6.947   7.987   6.333  2.0141 -0.5594  0.0597
23132SOL     OW72350   1.368  10.211   7.760  0.4776  0.6775  0.3681
23132SOL    HW172351   1.381  10.170   7.675  0.5924  0.7280  0.3607
23132SOL    HW272352   1.388  10.143   7.824 -0.9617  0.2200  0.3554
23133SOL     OW72353   0.166   0.748   0.619 -0.0645  0.2018  0.3430
23133SOL    HW172354   0.123   0.674   0.577 -0.0738  0.6912 -0.5377
23133SOL    HW272355   0.248   0.713   0.653 -0.3457 -0.3393  0.4690
23134SOL     OW72356   5.228  10.326   0.563  0.1266 -0.4590  0.5234
23134SOL    HW172357   5.207  10.319   0.470  0.1535  0.2474  0.4633
23134SOL    HW272358   5.258  10.238   0.587 -0.0275 -0.6855 -0.0929
23135SOL     OW72359   9.947   8.506   4.258 -0.1888  0.1857  0.2340
23135SOL    HW172360   9.919   8.472   4.173  0.7992 -2.6923  0.9439
23135SOL    HW272361   9.996   8.585   4.238 -0.9874  0.2285 -1.7421
23136SOL     OW72362   1.210   2.450  10.205 -0.2379  0.1066  0.7685
23136SOL    HW172363   1.193   2.543  10.217  0.1988  0.1968  0.7089
23136SOL    HW272364   1.254   2.444  10.121 -1.2440 -0.2783  0.2562
23137SOL     OW72365   6.286   8.072   5.684  0.3138 -0.1319 -0.7452
23137SOL    HW172366   6.357   8.121   5.725 -1.1477  1.1909  0.3375
23137SOL    HW272367   6.244   8.026   5.757 -1.0058  0.5248 -1.0566
23138SOL     OW72368   4.826   7.854   6.149 -0.0869  0.2319 -0.2390
23138SOL    HW172369   4.837   7.759   6.153  0.1057  0.2479 -0.3667
23138SOL    HW272370   4.770   7.875   6.223  0.5066  0.1103  0.2467
23139SOL     OW72371   0.686   3.428   2.121 -0.7142  0.3143  0.0133
23139SOL    HW172372   0.728   3.423   2.035 -0.8874 -1.1011 -0.0103
23139SOL    HW272373   0.706   3.516   2.153  2.1979 -0.2497 -0.0217
23140SOL     OW72374   8.122   8.831   1.496 -0.1235 -0.0392  0.1156
23140SOL    HW172375   8.141   8.737   1.505 -1.2912 -0.2167  0.9721
23140SOL    HW272376   8.102   8.860   1.584  1.9854  1.4689  0.1823
23141SOL     OW72377   2.939   7.657   2.162  0.2330 -0.2185 -0.6584
23141SOL    HW172378   2.904   7.571   2.138 -2.6191  0.1943  1.5187
23141SOL    HW272379   2.863   7.707   2.190  2.3007  1.5476  2.3917
23142SOL     OW72380   5.071   3.141   3.568 -0.2991 -0.1760  0.4330
23142SOL    HW172381   5.057   3.118   3.660  0.1363 -0.7514  0.3609
23142SOL    HW272382   5.166   3.135   3.557  0.2004  3.7145  0.9543
23143SOL     OW72383   9.474   5.503   2.137 -0.0759  0.5532  0.3841
23143SOL    HW172384   9.551   5.480   2.189  0.6462  0.3958 -0.7128
23143SOL    HW272385   9.504   5.493   2.046 -1.5571 -0.0563 -0.0603
23144SOL     OW72386   9.938   1.231   2.425  0.1789  0.8010  0.4707
23144SOL    HW172387  10.004   1.184   2.375 -0.6610 -1.1005  1.0347
23144SOL    HW272388   9.979   1.314   2.449  1.7798  0.3110 -0.4772
23145SOL     OW72389  10.482   7.280   5.531  0.2369  0.4770  0.2673
23145SOL    HW172390  10.515   7.195   5.502  1.8976  1.4437 -0.8797
23145SOL    HW272391  10.478   7.333   5.451 -3.3126  0.7740  0.4981
23146SOL     OW72392   9.953  10.574   8.254 -0.2704  0.3007  0.1577
23146SOL    HW172393  10.004  10.539   8.181 -0.9858 -0.3014 -0.0711
23146SOL    HW272394  10.015  10.579   8.327 -0.4287 -2.8220  0.6237
23147SOL     OW72395   6.887   8.879   6.644 -0.5105  0.5257  0.4139
23147SOL    HW172396   6.916   8.882   6.553  0.0156  0.6831  0.5816
23147SOL    HW272397   6.792   8.874   6.639 -0.4214 -2.8222 -0.2382
23148SOL     OW72398   4.201   7.908   5.924 -0.7992 -0.2141  0.5060
23148SOL    HW172399   4.161   7.979   5.874  0.9378 -0.0492 -0.7429
23148SOL    HW272400   4.287   7.943   5.951 -0.2573 -1.5527  0.5752
23149SOL     OW72401   0.844   2.063   6.806  0.5266 -0.0392  0.3460
23149SOL    HW172402   0.880   2.028   6.888  1.9616  2.2135  0.7812
23149SOL    HW272403   0.898   2.139   6.787 -1.3230  0.9428 -1.4147
23150SOL     OW72404   7.496   8.801  10.582 -0.4995 -0.2642 -0.0519
23150SOL    HW172405   7.585   8.767  10.572  0.0139  1.6486 -3.2202
23150SOL    HW272406   7.468   8.768  10.668  3.5934 -0.0698  1.6023
23151SOL     OW72407   7.194   4.815   3.024 -0.1782 -0.2485 -0.2426
23151SOL    HW172408   7.122   4.795   2.964 -0.0340  1.0592 -0.8723
23151SOL    HW272409   7.233   4.730   3.044 -0.7667 -0.7873 -1.3185
23152SOL     OW72410   3.479   3.078   6.222  0.0420  0.0660 -0.4423
23152SOL    HW172411   3.392   3.116   6.233  0.3538  0.3188  1.8006
23152SOL    HW272412   3.531   3.118   6.293  2.5852  1.4855 -2.8862
23153SOL     OW72413  10.657   1.296   5.188  0.0941  0.1626 -0.1960
23153SOL    HW172414  10.596   1.312   5.260 -0.0959 -0.2880 -0.2536
23153SOL    HW272415  10.689   1.383   5.164  0.3370  0.2983  0.5832
23154SOL     OW72416   7.509   7.203   6.617 -0.9689 -0.1947  0.6243
23154SOL    HW172417   7.559   7.275   6.654 -2.0611  0.2518  1.2738
23154SOL    HW272418   7.519   7.212   6.522 -1.8609  1.3756  0.6611
23155SOL     OW72419   3.533   8.965   4.094  0.5269 -0.2098 -0.0159
23155SOL    HW172420   3.553   8.922   4.178 -0.5795  0.2399  0.4922
23155SOL    HW272421   3.483   9.043   4.118 -2.4915 -1.6266 -1.2040
23156SOL     OW72422   8.049  10.259   3.757 -0.2754 -0.3701  0.5676
23156SOL    HW172423   8.078  10.235   3.669  0.6701  0.3815  0.6551
23156SOL    HW272424   7.978  10.198   3.776  1.4167 -2.4881  0.4367
23157SOL     OW72425   9.062   5.609   7.799  0.0739 -0.1165 -0.0997
23157SOL    HW172426   9.064   5.705   7.804 -1.6351 -0.0654 -0.0692
23157SOL    HW272427   9.006   5.582   7.871  0.2782 -1.1421 -0.3115
23158SOL     OW72428   1.728   9.679   9.111  0.4320  0.2692 -0.4819
23158SOL    HW172429   1.818   9.655   9.131 -0.3128 -1.6177  0.9698
23158SOL    HW272430   1.697   9.610   9.053  0.0385  1.1792 -1.3926
23159SOL     OW72431   1.848   4.594   0.720  0.0648  0.0540  0.5060
23159SOL    HW172432   1.871   4.640   0.639 -1.1701 -1.5321 -0.8033
23159SOL    HW272433   1.778   4.534   0.695 -1.5912  0.7172  3.1167
23160SOL     OW72434   1.456   1.979   4.569  0.4700  0.0655 -1.1501
23160SOL    HW172435   1.403   2.047   4.527 -0.2683  0.0924 -0.2023
23160SOL    HW272436   1.451   1.999   4.662 -0.0217 -1.4778 -0.8186
23161SOL     OW72437   9.901   4.040   1.261  0.0515  0.1807 -0.2164
23161SOL    HW172438   9.882   4.122   1.215  0.0690  0.0654 -0.4279
23161SOL    HW272439   9.997   4.039   1.268  0.0263  0.4094  0.2109
23162SOL     OW72440   3.547   2.506   6.419 -0.0815  0.0523  0.2004
23162SOL    HW172441   3.464   2.460   6.410  0.7876 -1.5751  0.0447
23162SOL    HW272442   3.533   2.590   6.376 -1.7921  0.0257  0.6560
23163SOL     OW72443   4.926   5.646   2.563 -0.5136 -0.0851 -0.2642
23163SOL    HW172444   4.899   5.702   2.490  0.7269 -0.0645 -0.7331
23163SOL    HW272445   5.016   5.622   2.543 -0.7160 -1.5268  0.3834
23164SOL     OW72446  10.671   5.126   8.918  0.2993  0.4700 -0.0062
23164SOL    HW172447  10.737   5.195   8.928  0.2239  0.6802 -0.8382
23164SOL    HW272448  10.703   5.054   8.972  1.7415  0.2004 -1.1636
23165SOL     OW72449   5.255   0.229   6.221 -0.4229 -0.3241  0.0856
23165SOL    HW172450   5.198   0.153   6.211 -1.8977  0.9355 -1.7663
23165SOL    HW272451   5.232   0.265   6.307 -0.6750 -1.1896  0.3912
23166SOL     OW72452   8.313   2.463   9.170 -0.6758 -0.0585  0.3668
23166SOL    HW172453   8.226   2.447   9.133 -0.4923 -2.6956  0.8960
23166SOL    HW272454   8.371   2.407   9.119  0.3106 -0.2581  1.6591
23167SOL     OW72455   4.190   1.859   5.534 -0.2659 -0.1067  0.1188
23167SOL    HW172456   4.140   1.880   5.613  0.8439  0.8624  0.5858
23167SOL    HW272457   4.232   1.941   5.509  1.2091 -0.9099 -0.1633
23168SOL     OW72458   1.518   0.569   8.953  0.2020  0.0838 -0.3917
23168SOL    HW172459   1.466   0.620   8.891  1.0626  0.5384 -0.7522
23168SOL    HW272460   1.470   0.486   8.962 -0.8912  0.7187 -0.2468
23169SOL     OW72461  10.270   9.047   9.944 -0.4447 -0.2230  0.1003
23169SOL    HW172462  10.264   9.008   9.857  0.5666 -0.6469  0.2079
23169SOL    HW272463  10.285   9.140   9.927 -0.5101 -0.2623 -0.1764
23170SOL     OW72464   9.069   9.457   0.055  0.2964 -0.3358  0.4127
23170SOL    HW172465   9.111   9.485   0.136  3.8159  0.4228 -1.4786
23170SOL    HW272466   9.045   9.539   0.011 -1.0403 -0.7251  0.3662
23171SOL     OW72467   9.010   3.666   8.587 -0.0477  0.4400  0.0784
23171SOL    HW172468   8.993   3.579   8.624 -0.6318  0.0918 -0.9902
23171SOL    HW272469   8.926   3.712   8.595 -0.4107  0.0931 -1.4997
23172SOL     OW72470  10.037   6.980   5.660  0.6970 -0.3020  1.1353
23172SOL    HW172471  10.046   7.072   5.637 -0.3460 -0.2873  0.7364
23172SOL    HW272472  10.095   6.934   5.598 -2.4387 -0.3112 -2.1328
23173SOL     OW72473   7.105   0.973   9.404  0.1080  0.1714 -0.2248
23173SOL    HW172474   7.046   1.049   9.405  0.0860  0.2309 -2.1321
23173SOL    HW272475   7.051   0.901   9.436 -0.0633  0.8006  0.9903
23174SOL     OW72476   0.976   8.568   3.831  0.0336 -0.1599  0.1209
23174SOL    HW172477   0.974   8.559   3.736  1.1098  1.6032 -0.1080
23174SOL    HW272478   0.961   8.661   3.847  2.0240 -0.0194  1.5435
23175SOL     OW72479  10.679   0.620   7.306  0.4786 -0.0441 -0.0679
23175SOL    HW172480  10.734   0.632   7.228 -0.8014 -1.1250 -1.2106
23175SOL    HW272481  10.732   0.569   7.366  0.7230 -1.1716 -1.1948
23176SOL     OW72482   4.658   3.315   2.053 -0.2398  0.5812 -0.0004
23176SOL    HW172483   4.624   3.340   2.139  1.5458 -0.3623  1.0306
23176SOL    HW272484   4.711   3.389   2.025  0.8463  0.0794  0.6795
23177SOL     OW72485   5.479   6.510   3.949 -0.1887 -1.2239 -0.0712
23177SOL    HW172486   5.429   6.441   3.994  0.8899 -2.3349 -0.5327
23177SOL    HW272487   5.450   6.505   3.858  0.7586 -1.8807 -0.3431
23178SOL     OW72488   4.684   4.005   7.775 -0.2903 -0.0147  0.4513
23178SOL    HW172489   4.615   3.984   7.837 -0.3684 -0.7312  0.1350
23178SOL    HW272490   4.639   4.042   7.700 -0.2788  0.0323  0.4676
23179SOL     OW72491   1.812   1.491   1.809 -0.0130  0.5392  0.1198
23179SOL    HW172492   1.791   1.502   1.717 -0.2078  1.4706  0.2642
23179SOL    HW272493   1.907   1.487   1.812 -0.0282 -0.9044 -0.2468
23180SOL     OW72494   0.259   0.931   1.631 -0.1761 -0.0109  0.2424
23180SOL    HW172495   0.274   0.979   1.549  0.3522 -0.3327  0.1490
23180SOL    HW272496   0.194   0.864   1.607  0.3390 -0.4229 -0.0463
23181SOL     OW72497   8.064   2.845   7.631  0.1306  0.1690 -0.3629
23181SOL    HW172498   8.154   2.824   7.606 -0.3255 -0.5286 -1.4726
23181SOL    HW272499   8.053   2.805   7.717  1.9414  3.1845  1.4587
23182SOL     OW72500   2.677   8.816   7.247  0.5247 -0.7109 -0.2047
23182SOL    HW172501   2.670   8.897   7.196  1.1031 -0.3464  0.2754
23182SOL    HW272502   2.765   8.819   7.284  0.4423 -1.4200  0.0634
23183SOL     OW72503   0.493   1.082   6.309 -0.4904 -0.2254 -0.3351
23183SOL    HW172504   0.494   1.021   6.383  0.4901  1.9981  1.6355
23183SOL    HW272505   0.580   1.120   6.309 -0.4532 -0.1697 -2.7397
23184SOL     OW72506   3.466   1.790   6.011  0.2868  0.0756  0.1523
23184SOL    HW172507   3.530   1.859   6.029  0.5691  0.2032 -1.2003
23184SOL    HW272508   3.506   1.711   6.046  0.6420  0.3590  0.3966
23185SOL     OW72509   6.106   2.093   9.643 -0.1671  0.2889  0.7190
23185SOL    HW172510   6.119   2.132   9.557 -0.2953  0.0891  0.6069
23185SOL    HW272511   6.015   2.065   9.643  0.1257 -0.7314  0.4883
23186SOL     OW72512   6.577   4.777   1.486 -0.1836 -0.1841  0.1449
23186SOL    HW172513   6.495   4.771   1.534  0.1654 -0.8989  0.6846
23186SOL    HW272514   6.617   4.690   1.495  1.7060  0.7776  1.8658
23187SOL     OW72515   8.203   6.071   5.066 -0.5506  0.0406  0.2893
23187SOL    HW172516   8.140   6.002   5.043 -1.5645  0.6309  1.1925
23187SOL    HW272517   8.160   6.120   5.136 -0.5480  2.5388 -1.3070
23188SOL     OW72518   9.312   5.406   0.568 -0.0943  0.5714 -0.2099
23188SOL    HW172519   9.376   5.457   0.617  0.3537  0.0052 -0.1927
23188SOL    HW272520   9.263   5.471   0.517  0.9267  0.9602 -0.7155
23189SOL     OW72521   6.021   4.493   4.134 -0.8171 -0.3101 -0.4836
23189SOL    HW172522   6.081   4.475   4.206 -0.2410  0.9611 -0.6175
23189SOL    HW272523   5.941   4.445   4.156 -0.1914 -0.9917  0.3347
23190SOL     OW72524   0.567   8.291   4.844  0.2748 -0.5633 -0.5111
23190SOL    HW172525   0.646   8.342   4.861  0.6859 -0.5022 -2.3663
23190SOL    HW272526   0.564   8.227   4.916  2.1247 -0.6894 -0.4823
23191SOL     OW72527   6.797   9.580   1.408  0.5209  0.5641 -0.5758
23191SOL    HW172528   6.849   9.628   1.473 -2.8670  3.3219  0.3541
23191SOL    HW272529   6.763   9.504   1.456  0.3043  1.0523  0.0497
23192SOL     OW72530  10.602   4.880   7.236  0.3629 -0.0895  0.1838
23192SOL    HW172531  10.552   4.807   7.201  0.3446  0.6672 -1.5081
23192SOL    HW272532  10.540   4.928   7.291  0.1082 -0.7949  0.5286
23193SOL     OW72533   6.255   6.705   4.955 -0.3123  0.5440 -0.3566
23193SOL    HW172534   6.328   6.670   4.904 -0.1914  1.8664 -1.1366
23193SOL    HW272535   6.263   6.800   4.947 -2.3420  0.7234 -0.7818
23194SOL     OW72536   4.194  10.198  10.561  0.1563 -0.2156 -0.6219
23194SOL    HW172537   4.270  10.169  10.611 -0.3522 -1.0979 -0.3439
23194SOL    HW272538   4.119  10.180  10.618 -0.3093  0.1634 -1.0997
23195SOL     OW72539  10.500   3.340  10.630 -0.7902  0.1462  0.2413
23195SOL    HW172540  10.535   3.430  10.633 -0.9693  0.1984  0.8591
23195SOL    HW272541  10.432   3.339  10.697  0.2078 -0.8721  1.2776
23196SOL     OW72542   0.360   3.448   9.269  0.0188 -0.0075 -0.1902
23196SOL    HW172543   0.343   3.361   9.306 -1.5643  0.0320 -0.7378
23196SOL    HW272544   0.432   3.483   9.321  0.9777 -1.8114 -0.2380
23197SOL     OW72545   6.503   1.264   2.669  0.2058  0.7523  0.1883
23197SOL    HW172546   6.431   1.275   2.607  0.8703 -0.0464 -0.7549
23197SOL    HW272547   6.464   1.281   2.755 -0.6625  2.1596 -0.4585
23198SOL     OW72548  10.396   8.679   6.964 -0.0235  0.1903 -0.6858
23198SOL    HW172549  10.457   8.614   6.929 -1.9807 -1.1409 -1.8150
23198SOL    HW272550  10.452   8.749   6.997  2.1118 -1.1817 -1.1772
23199SOL     OW72551   9.252   0.351   9.938 -0.2260 -0.1411  0.2774
23199SOL    HW172552   9.187   0.403   9.985  1.6010  1.7573  0.9099
23199SOL    HW272553   9.298   0.303  10.007  0.7253  0.5970  0.1808
23200SOL     OW72554   1.451   8.048   8.995  0.0851 -0.2000 -0.0651
23200SOL    HW172555   1.407   7.978   9.043  1.2162 -1.9028 -1.3906
23200SOL    HW272556   1.443   8.023   8.903  1.6206  0.7320 -0.4963
23201SOL     OW72557   6.359  10.019   2.273 -0.2623 -1.0311  0.1083
23201SOL    HW172558   6.422  10.073   2.320  1.4579 -1.8777 -1.0975
23201SOL    HW272559   6.279  10.071   2.269  0.9162  0.8378  0.1432
23202SOL     OW72560   5.695   3.205   9.519 -0.0574  0.5573  0.6748
23202SOL    HW172561   5.735   3.158   9.445 -0.8083  1.6185 -0.4601
23202SOL    HW272562   5.616   3.154   9.539  0.6443 -0.2763  1.4231
23203SOL     OW72563   0.873   5.476   5.776  0.3817  0.4700 -0.6170
23203SOL    HW172564   0.783   5.506   5.790  1.0662  1.7760  1.4567
23203SOL    HW272565   0.882   5.470   5.681 -1.5186  1.4735 -0.9192
23204SOL     OW72566   6.226   1.883   1.017 -0.3478 -0.4854 -0.3182
23204SOL    HW172567   6.243   1.967   0.976  0.1562 -0.5477 -0.2343
23204SOL    HW272568   6.215   1.904   1.110  3.4924 -0.9096  0.3983
23205SOL     OW72569   0.451   0.977   4.586  0.6827 -0.5152  0.1052
23205SOL    HW172570   0.403   1.058   4.602 -0.9770 -1.7060  1.6536
23205SOL    HW272571   0.397   0.930   4.522  0.0894 -1.5561  1.3210
23206SOL     OW72572   1.800   9.637   2.334  0.1265  0.0562 -0.1308
23206SOL    HW172573   1.717   9.594   2.318 -0.2014  0.9238 -0.8104
23206SOL    HW272574   1.814   9.628   2.429 -1.5539  1.3117  0.2759
23207SOL     OW72575   6.913   5.270   0.376 -0.3067 -0.0111  0.6192
23207SOL    HW172576   6.835   5.297   0.425 -0.3758 -0.2801  0.6575
23207SOL    HW272577   6.938   5.348   0.327 -0.8173 -0.0275  0.3220
23208SOL     OW72578   0.412   2.859   4.337 -0.4696 -0.1863 -0.1157
23208SOL    HW172579   0.427   2.924   4.268  0.3669  0.6103  0.7932
23208SOL    HW272580   0.494   2.809   4.340 -1.0929 -1.3076 -0.7918
23209SOL     OW72581   2.537   9.809   0.150 -0.2992 -0.0412  0.1224
23209SOL    HW172582   2.510   9.760   0.072  0.0015 -0.3540  0.2122
23209SOL    HW272583   2.611   9.861   0.121 -1.0165  0.8568 -0.1370
23210SOL     OW72584   7.472   6.934   8.585 -0.1542 -0.1939 -0.5244
23210SOL    HW172585   7.470   7.009   8.525 -1.3298 -0.0411 -0.3191
23210SOL    HW272586   7.402   6.951   8.648  2.2605  0.6375  2.1640
23211SOL     OW72587   3.160   4.425   5.186  0.1265 -0.0557  0.0135
23211SOL    HW172588   3.245   4.410   5.144  0.0731 -1.3650  0.3435
23211SOL    HW272589   3.181   4.477   5.264  0.5797 -0.0431 -0.1146
23212SOL     OW72590   8.807   1.820   2.156 -0.6732  0.3359  0.0728
23212SOL    HW172591   8.862   1.822   2.235 -1.1846 -0.0957  0.4477
23212SOL    HW272592   8.737   1.882   2.174 -0.1575  1.1051 -0.5260
23213SOL     OW72593   8.826   9.386   0.308 -0.1738 -0.1466  0.4204
23213SOL    HW172594   8.788   9.472   0.290 -1.7111 -0.5301  1.6398
23213SOL    HW272595   8.807   9.370   0.400 -1.0526 -2.3098 -0.0693
23214SOL     OW72596   8.295   5.471   6.216 -0.2174  0.0261  0.2754
23214SOL    HW172597   8.244   5.469   6.135 -0.3285  0.9412  0.3042
23214SOL    HW272598   8.290   5.382   6.250 -1.3498 -0.0419 -0.0027
23215SOL     OW72599   2.127   3.107   0.231  0.4678 -0.6016  0.0742
23215SOL    HW172600   2.086   3.045   0.171 -1.3253 -0.2414  0.8687
23215SOL    HW272601   2.072   3.105   0.309  2.4304 -0.6572  1.5345
23216SOL     OW72602   0.763   6.533  10.134  0.5558  0.2443  0.1469
23216SOL    HW172603   0.711   6.469  10.085  0.1013  0.7350 -0.0227
23216SOL    HW272604   0.854   6.509  10.116  0.4110 -0.9433  0.8598
23217SOL     OW72605   7.789   2.406   6.891  0.2288 -0.1435  0.4176
23217SOL    HW172606   7.780   2.435   6.800  2.1259 -0.0439  0.2222
23217SOL    HW272607   7.839   2.475   6.934  0.0674 -0.5809  1.3285
23218SOL     OW72608  10.263  10.558   8.232 -0.3763 -0.2737 -0.0507
23218SOL    HW172609  10.235  10.632   8.178 -1.0962  0.0066  0.6916
23218SOL    HW272610  10.238  10.481   8.181 -2.2591 -0.0350  0.4145
23219SOL     OW72611   3.447   3.841   5.740  0.3439  0.2480 -0.0797
23219SOL    HW172612   3.424   3.819   5.650  0.9459 -1.2523  0.1023
23219SOL    HW272613   3.363   3.858   5.782  0.0563  0.9591 -0.9135
23220SOL     OW72614   1.966   8.221   3.829  0.1538  0.1842 -0.1833
23220SOL    HW172615   2.013   8.275   3.894 -1.8978  1.2917  0.4755
23220SOL    HW272616   1.881   8.205   3.869 -0.5375 -0.6027 -1.8953
23221SOL     OW72617   2.703   8.709   5.848 -0.2534  0.3179  0.0715
23221SOL    HW172618   2.611   8.696   5.868 -0.3315  0.4227 -0.2216
23221SOL    HW272619   2.750   8.659   5.915 -0.5428 -1.8580 -1.2611
23222SOL     OW72620   8.279   4.604   7.971  0.2622 -0.2855 -0.4496
23222SOL    HW172621   8.203   4.554   8.002 -1.4264  1.9701 -0.6605
23222SOL    HW272622   8.325   4.630   8.051 -0.5285  0.2662 -0.1601
23223SOL     OW72623   2.661   9.005   8.873  0.8005 -0.6275 -0.0256
23223SOL    HW172624   2.702   9.088   8.849 -0.7327 -0.1134 -0.9877
23223SOL    HW272625   2.726   8.961   8.928  2.2062  0.5826 -0.6613
23224SOL     OW72626   5.577   3.247   8.406  0.3259  0.2617 -0.0122
23224SOL    HW172627   5.526   3.225   8.485  1.1195 -0.1075  0.4084
23224SOL    HW272628   5.548   3.184   8.340  0.4813 -0.1752  0.3297
23225SOL     OW72629   3.377   8.280   4.394  0.2836  0.5273 -0.4446
23225SOL    HW172630   3.422   8.204   4.358  0.7855 -0.0888  1.3676
23225SOL    HW272631   3.445   8.349   4.396  0.6158  0.1953  0.4065
23226SOL     OW72632   2.706   7.571  10.182 -0.2294 -0.5496  0.7096
23226SOL    HW172633   2.755   7.497  10.146  1.2099  1.0091 -0.7462
23226SOL    HW272634   2.773   7.637  10.200 -1.4934  0.5186  1.7063
23227SOL     OW72635   6.796   7.712   2.740  0.0400  0.1033 -0.2819
23227SOL    HW172636   6.843   7.792   2.763  1.3531 -0.7432  0.1030
23227SOL    HW272637   6.722   7.742   2.686  0.8449  1.5068 -0.6566
23228SOL     OW72638   7.694   3.029   5.481  0.0170  0.5255 -0.1158
23228SOL    HW172639   7.664   3.105   5.531 -1.9270 -0.1647 -0.1364
23228SOL    HW272640   7.615   2.994   5.440  0.8187 -1.5788 -0.0243
23229SOL     OW72641   3.599   5.810   5.466 -0.0881 -0.1677  0.6935
23229SOL    HW172642   3.527   5.793   5.406 -0.3443  1.6438  0.4378
23229SOL    HW272643   3.640   5.724   5.479 -2.6493 -1.3931  1.3780
23230SOL     OW72644   9.662   1.496   6.787  0.0341 -0.0827 -0.8062
23230SOL    HW172645   9.713   1.572   6.816 -0.5491  0.9851 -2.4725
23230SOL    HW272646   9.725   1.441   6.741  0.8404 -1.5165  1.8020
23231SOL     OW72647   3.862   1.085   0.157 -0.1062 -0.0205 -0.1871
23231SOL    HW172648   3.791   1.149   0.151 -0.1944 -0.1206 -0.2167
23231SOL    HW272649   3.869   1.065   0.250 -0.9883 -0.9819 -0.3093
23232SOL     OW72650   9.310   4.430  10.002 -0.5758  0.5754  0.0678
23232SOL    HW172651   9.289   4.344  10.039 -0.3856  0.5194  0.0433
23232SOL    HW272652   9.237   4.448   9.943 -1.1558  0.9010  0.8563
23233SOL     OW72653   4.458   2.365   3.167  0.2433  0.2356  0.1018
23233SOL    HW172654   4.404   2.305   3.116  1.3624  0.7470 -1.7505
23233SOL    HW272655   4.396   2.405   3.229 -1.1484 -0.4287 -0.8036
23234SOL     OW72656   4.427   0.573   6.628 -0.3346  0.0517 -0.0780
23234SOL    HW172657   4.411   0.479   6.626 -0.4877  0.0746 -2.0168
23234SOL    HW272658   4.517   0.583   6.599  0.1255  0.4509  1.4323
23235SOL     OW72659   2.710   1.885   3.684  0.5979 -0.5934 -0.0529
23235SOL    HW172660   2.716   1.963   3.740  1.1025 -1.0325  0.5188
23235SOL    HW272661   2.767   1.821   3.727 -0.2357 -1.4607 -0.2287
23236SOL     OW72662   4.561   7.905   4.854  0.0859  0.3268 -0.3245
23236SOL    HW172663   4.529   7.964   4.786 -0.7895 -0.4835 -0.6478
23236SOL    HW272664   4.655   7.919   4.856  0.1525  0.2972 -1.8076
23237SOL     OW72665   8.637   1.007  10.233  0.3287  0.4897  0.4459
23237SOL    HW172666   8.717   1.033  10.278  0.2848  2.0528 -0.3473
23237SOL    HW272667   8.589   0.955  10.299  1.8340 -0.2335  1.0164
23238SOL     OW72668   5.855   9.671   3.744  0.6427  0.8882  0.6180
23238SOL    HW172669   5.909   9.594   3.729 -0.2578  0.4287 -0.4842
23238SOL    HW272670   5.916   9.744   3.744  1.1881  0.5322 -1.8995
23239SOL     OW72671  10.388   1.960   0.402  0.2490  0.4333 -0.1049
23239SOL    HW172672  10.367   2.052   0.422  1.4694  0.4273  1.4281
23239SOL    HW272673  10.453   1.965   0.332  0.5569  0.7628  0.2001
23240SOL     OW72674   0.749   0.298   2.299 -0.6080 -0.1921  0.1709
23240SOL    HW172675   0.654   0.287   2.295 -0.8236  1.3315  0.5148
23240SOL    HW272676   0.770   0.353   2.224 -0.2402  0.8862  1.0347
23241SOL     OW72677   9.896   9.907  10.480  0.1076  0.0335  0.8613
23241SOL    HW172678   9.956   9.833  10.483 -0.3229 -0.3268  0.7581
23241SOL    HW272679   9.821   9.875  10.430  0.9331  1.3001 -1.3516
23242SOL     OW72680   9.631   6.089   2.850  0.4540 -0.0807 -0.0570
23242SOL    HW172681   9.595   6.004   2.826  0.2608 -0.0074 -0.0203
23242SOL    HW272682   9.556   6.149   2.849 -0.3729 -0.7399  4.4808
23243SOL     OW72683   9.687   2.642   4.204 -0.4771 -0.3619 -0.9304
23243SOL    HW172684   9.612   2.583   4.195  0.1384 -1.0260 -1.8675
23243SOL    HW272685   9.676   2.706   4.134 -0.2481 -0.3684 -0.9732
23244SOL     OW72686   7.387   1.921   3.305 -0.4103 -0.4019  0.4767
23244SOL    HW172687   7.378   1.850   3.242 -0.5975  1.1642 -1.3279
23244SOL    HW272688   7.479   1.948   3.299 -0.4116 -0.2732  0.9396
23245SOL     OW72689   2.137   5.392   6.549  0.2233 -0.5721 -0.9015
23245SOL    HW172690   2.110   5.387   6.641 -2.1489 -2.6654 -1.6076
23245SOL    HW272691   2.100   5.474   6.517  2.2471  0.8892  0.2614
23246SOL     OW72692   0.347   7.280   3.135 -0.4818 -0.0819  0.1480
23246SOL    HW172693   0.265   7.308   3.096  0.0067 -1.2422 -1.8492
23246SOL    HW272694   0.321   7.232   3.214 -1.4115  3.8260  2.4802
23247SOL     OW72695   5.972   7.093  10.644  0.6027  0.5740  0.1887
23247SOL    HW172696   5.917   7.102  10.722 -0.0188 -1.9365  0.1436
23247SOL    HW272697   5.917   7.125  10.573 -0.0260  0.0553  0.4245
23248SOL     OW72698  10.241   0.280   0.934  0.1994 -0.3720 -0.7418
23248SOL    HW172699  10.323   0.327   0.918  1.1602 -1.6072  0.2551
23248SOL    HW272700  10.254   0.195   0.891 -1.1588 -0.0472 -1.8181
23249SOL     OW72701   3.641   6.216   6.384 -0.1836  0.1364  0.7704
23249SOL    HW172702   3.557   6.218   6.428  0.3070  0.2785  1.7250
23249SOL    HW272703   3.620   6.208   6.291 -1.2164 -1.7849  1.1306
23250SOL     OW72704   1.677   4.523   4.431 -0.0010 -0.3040 -0.2009
23250SOL    HW172705   1.669   4.435   4.468  0.9201  0.3943  1.8338
23250SOL    HW272706   1.597   4.568   4.458 -0.3205 -0.4088 -0.9562
23251SOL     OW72707   0.917   3.176   7.101 -0.1455  0.3078 -0.1353
23251SOL    HW172708   0.932   3.088   7.066  1.6356 -0.6709  2.7216
23251SOL    HW272709   0.940   3.235   7.029 -3.0974 -1.4298 -2.7462
23252SOL     OW72710   2.336   1.251   9.722  0.4800 -0.0016 -0.2749
23252SOL    HW172711   2.251   1.237   9.764  0.5896 -0.1766 -0.1074
23252SOL    HW272712   2.332   1.197   9.643  0.8632 -0.9159  0.3197
23253SOL     OW72713   1.441   5.149   4.618  0.8635  0.1118  0.2854
23253SOL    HW172714   1.463   5.201   4.541 -0.2078 -0.9331 -0.7818
23253SOL    HW272715   1.388   5.076   4.583  0.8518 -0.7164  1.9315
23254SOL     OW72716   5.174   6.159   0.622  0.0104  0.1818 -0.0660
23254SOL    HW172717   5.119   6.080   0.621  1.1732 -0.6832 -1.8448
23254SOL    HW272718   5.152   6.203   0.704 -1.6473 -1.3026  0.3438
23255SOL     OW72719   7.855   3.276   1.591 -0.0206 -0.3534 -0.0209
23255SOL    HW172720   7.856   3.356   1.538  1.3107 -0.6622 -0.5085
23255SOL    HW272721   7.796   3.217   1.544  0.3675 -0.2719 -0.6192
23256SOL     OW72722   0.842   1.296   6.055  0.3414  0.3599  0.0284
23256SOL    HW172723   0.870   1.210   6.024  1.0021  0.9522 -1.0845
23256SOL    HW272724   0.803   1.279   6.140  2.8005 -0.7176  1.0338
23257SOL     OW72725   4.231   2.538   5.174  0.5092  0.2339  0.4089
23257SOL    HW172726   4.202   2.465   5.120 -0.3404  0.9173 -0.0855
23257SOL    HW272727   4.152   2.589   5.191  1.3551  2.1623 -0.9846
23258SOL     OW72728   4.220   6.297   6.591 -0.0883  0.5007 -0.9707
23258SOL    HW172729   4.302   6.293   6.640 -1.1268 -0.2036  0.7847
23258SOL    HW272730   4.229   6.229   6.524  1.6789  2.0326 -2.3936
23259SOL     OW72731   1.915   3.644   2.395  0.1606  0.7558 -0.2659
23259SOL    HW172732   1.850   3.664   2.328 -0.0228  0.4117 -0.1965
23259SOL    HW272733   1.976   3.584   2.352 -0.1293  0.2922 -0.0404
23260SOL     OW72734   7.594   1.766   8.602 -0.2179 -0.5074  0.0034
23260SOL    HW172735   7.680   1.733   8.630  0.1134  0.3591  0.0455
23260SOL    HW272736   7.545   1.779   8.683 -0.3839 -0.9749 -0.0188
23261SOL     OW72737   7.941   7.775   3.044  0.3347 -0.0109  0.4485
23261SOL    HW172738   7.923   7.847   3.105  0.2821  0.9437 -0.6650
23261SOL    HW272739   7.968   7.703   3.101 -1.2798  0.3247  1.7467
23262SOL     OW72740   2.022   8.072   9.016 -0.3171 -0.3760  0.2007
23262SOL    HW172741   2.100   8.101   9.065 -0.7493  0.2358  0.5349
23262SOL    HW272742   1.949   8.115   9.060 -1.4637 -4.6402  3.0100
23263SOL     OW72743  10.684   3.615   5.242 -0.0084  0.0769  0.2508
23263SOL    HW172744  10.642   3.701   5.242  0.0252  0.1094 -1.1461
23263SOL    HW272745  10.638   3.567   5.311 -1.7700  0.3847 -0.6439
23264SOL     OW72746   2.239   0.013   7.082 -0.2048 -0.3514 -0.2769
23264SOL    HW172747   2.193   0.087   7.121  1.4277  0.3648  0.3626
23264SOL    HW272748   2.200  -0.064   7.123  0.3120  0.3120  1.5357
23265SOL     OW72749  10.337   0.669  10.067  0.3565  0.7836 -0.5996
23265SOL    HW172750  10.274   0.654   9.996 -0.0462 -0.2925 -0.0510
23265SOL    HW272751  10.332   0.589  10.120  1.5550  1.0491 -0.0511
23266SOL     OW72752   8.079   8.763   3.502  0.1045  0.5483  0.2706
23266SOL    HW172753   8.057   8.699   3.569  1.6185  0.4630  0.7418
23266SOL    HW272754   8.049   8.724   3.420  1.2362 -0.9277  0.5127
23267SOL     OW72755   0.363   5.465   0.766 -0.2780 -0.5712 -0.4718
23267SOL    HW172756   0.275   5.441   0.736  0.1259 -1.6630 -0.8585
23267SOL    HW272757   0.369   5.559   0.751 -0.9059 -0.7030 -1.7412
23268SOL     OW72758   4.748   4.378   0.983 -0.0598 -0.2965  0.0190
23268SOL    HW172759   4.686   4.340   0.921  0.1716  0.1649 -0.5038
23268SOL    HW272760   4.700   4.449   1.026 -0.0451 -0.2558 -0.0322
23269SOL     OW72761   6.542   7.065   2.317 -0.2927 -0.0490  0.5140
23269SOL    HW172762   6.632   7.068   2.285 -0.5035  1.8014 -0.0005
23269SOL    HW272763   6.489   7.070   2.238 -0.8827 -1.4092  0.7931
23270SOL     OW72764   7.104   7.491   4.942 -0.4864  0.1793 -0.2383
23270SOL    HW172765   7.022   7.452   4.973  0.4712 -1.4547  0.3872
23270SOL    HW272766   7.138   7.429   4.879  0.4622  0.6492 -0.2098
23271SOL     OW72767   8.411   8.433   5.726 -0.0525  0.1118 -0.1254
23271SOL    HW172768   8.364   8.369   5.671 -0.0434  1.6646 -2.0286
23271SOL    HW272769   8.342   8.491   5.759  0.2501  0.9958 -1.0087
23272SOL     OW72770   7.658   3.681   0.079  0.0331  0.1497  0.5315
23272SOL    HW172771   7.661   3.585   0.077 -3.7074 -0.1017 -0.6228
23272SOL    HW272772   7.608   3.701   0.158 -3.2058  0.7586 -1.5021
23273SOL     OW72773   0.021   0.026   4.476  0.6577 -0.0135  0.5938
23273SOL    HW172774  -0.026   0.017   4.559  1.6856  0.9308  1.3057
23273SOL    HW272775   0.046  -0.064   4.454  0.3749 -0.2782  1.3087
23274SOL     OW72776   5.189  10.319   9.487  0.3136 -0.4286  0.1686
23274SOL    HW172777   5.277  10.331   9.524 -0.5071  0.3898  2.0508
23274SOL    HW272778   5.155  10.241   9.530  0.8633 -2.0934 -2.2376
23275SOL     OW72779   4.713   7.374   4.716 -0.0487  0.5317 -0.2655
23275SOL    HW172780   4.701   7.461   4.754 -1.1232 -0.5077  1.9999
23275SOL    HW272781   4.794   7.381   4.666 -0.8259  3.1761 -1.3513
23276SOL     OW72782   6.136   2.361  10.190 -0.3724  0.2005 -0.2626
23276SOL    HW172783   6.100   2.438  10.146  0.2343 -0.8643 -2.8249
23276SOL    HW272784   6.209   2.333  10.134 -0.3001 -1.9711  0.8053
23277SOL     OW72785   5.621   6.746   6.146  0.1582 -0.0302 -0.2165
23277SOL    HW172786   5.616   6.834   6.109 -0.9370  0.2502  0.5651
23277SOL    HW272787   5.686   6.752   6.216  0.4412  0.0313 -0.4837
23278SOL     OW72788   6.708   8.194   1.107  0.4921  0.4796  0.8497
23278SOL    HW172789   6.774   8.264   1.112  1.2078 -0.2710  2.7732
23278SOL    HW272790   6.749   8.119   1.148 -0.5717 -0.8779 -0.4604
23279SOL     OW72791   1.879   0.752   7.862 -0.4158  0.0615 -0.3252
23279SOL    HW172792   1.847   0.665   7.887 -0.0923 -0.1623 -0.6704
23279SOL    HW272793   1.943   0.774   7.930 -2.9753  1.5678  1.7483
23280SOL     OW72794   7.847   5.858   0.779 -0.3207 -0.0327 -0.2709
23280SOL    HW172795   7.795   5.851   0.860  0.3265  0.5517  0.2023
23280SOL    HW272796   7.849   5.951   0.759 -1.9816 -0.2934 -1.9897
23281SOL     OW72797  10.465   5.131   0.826 -0.0768 -0.4807 -0.2492
23281SOL    HW172798  10.491   5.103   0.738 -0.9241 -1.1136 -0.3154
23281SOL    HW272799  10.369   5.138   0.821 -0.0310  0.6637  0.2919
23282SOL     OW72800  10.226   9.123   3.535  0.0200  0.4294 -0.0254
23282SOL    HW172801  10.310   9.158   3.565 -0.4146  0.9591  0.6100
23282SOL    HW272802  10.249   9.047   3.481  0.8425 -0.5096  1.5836
23283SOL     OW72803   6.976  10.614   4.192  0.5863 -0.4278 -0.0648
23283SOL    HW172804   7.061  10.573   4.211  1.7694  0.9936 -2.0094
23283SOL    HW272805   6.978  10.631   4.098 -1.3552  0.7989  0.0722
23284SOL     OW72806   9.719   7.874   5.102  0.3675 -0.0276  0.5454
23284SOL    HW172807   9.736   7.787   5.066  1.8358 -0.1336  1.4042
23284SOL    HW272808   9.713   7.931   5.026 -1.7122 -0.9944 -0.1063
23285SOL     OW72809   7.834   6.946   9.312  0.1700 -0.5747 -0.1786
23285SOL    HW172810   7.756   6.986   9.273 -0.6590 -0.0248  1.9178
23285SOL    HW272811   7.839   6.860   9.270 -1.4539 -0.5418 -0.5394
23286SOL     OW72812   0.059  10.220   3.227 -0.2169 -0.1658 -0.0548
23286SOL    HW172813   0.097  10.247   3.311  1.6007  0.7366 -1.0958
23286SOL    HW272814   0.012  10.139   3.246  1.6253 -0.9373  1.5031
23287SOL     OW72815   4.740   9.285   9.779  0.1792 -0.3257  0.1037
23287SOL    HW172816   4.670   9.220   9.789  0.6834 -0.9414 -0.2686
23287SOL    HW272817   4.788   9.283   9.862  1.9832 -2.5976 -0.8640
23288SOL     OW72818   5.210   5.382   8.893 -0.9815 -0.2323 -0.4951
23288SOL    HW172819   5.208   5.287   8.905  1.9856 -0.4303 -0.8442
23288SOL    HW272820   5.180   5.396   8.803  1.8934 -1.2840 -1.7531
23289SOL     OW72821   5.179   5.249   8.227  0.1315 -0.4703 -0.0886
23289SOL    HW172822   5.092   5.287   8.239  0.2562 -0.5898  1.4704
23289SOL    HW272823   5.230   5.317   8.184  0.2335  1.0328  2.2668
23290SOL     OW72824   1.620   6.938   7.238 -0.4758 -0.3688 -0.1554
23290SOL    HW172825   1.576   6.915   7.320  1.2815  0.0178  0.9806
23290SOL    HW272826   1.603   7.032   7.228 -0.1796 -0.2821  0.1231
23291SOL     OW72827  10.250   8.724   5.967  0.3896  0.4092 -0.2751
23291SOL    HW172828  10.323   8.785   5.982  0.0716  0.5758  0.6412
23291SOL    HW272829  10.236   8.682   6.052 -0.0853 -0.1792 -0.6384
23292SOL     OW72830   9.563   0.633   2.651 -0.7779  0.5762 -0.1273
23292SOL    HW172831   9.657   0.618   2.667 -1.2760 -0.5714  2.2896
23292SOL    HW272832   9.551   0.726   2.666  0.0700  0.8782 -1.1761
23293SOL     OW72833   7.130   9.983   0.317  0.0280 -0.3199 -0.2836
23293SOL    HW172834   7.039  10.008   0.332  0.6783  2.0917  0.1179
23293SOL    HW272835   7.135   9.965   0.223 -1.4095 -3.2660  0.1139
23294SOL     OW72836   0.942   4.324   0.545 -0.1046  0.5747 -0.0114
23294SOL    HW172837   0.858   4.348   0.585 -0.8355 -1.3070 -0.2752
23294SOL    HW272838   0.951   4.230   0.563  1.3189  0.4651 -1.1061
23295SOL     OW72839   5.423   6.135   7.328 -0.5035 -0.4889  0.4582
23295SOL    HW172840   5.509   6.103   7.302  0.5132  0.4655  2.4389
23295SOL    HW272841   5.421   6.226   7.297 -2.1332 -1.3452 -2.3572
23296SOL     OW72842   3.586   2.494   9.008 -0.2114  0.0237  0.1228
23296SOL    HW172843   3.592   2.406   8.970  0.9587 -0.9637  2.3840
23296SOL    HW272844   3.501   2.495   9.053  0.2173 -0.3667  0.9676
23297SOL     OW72845   3.342   5.193   8.291 -0.0807  0.9556  0.2256
23297SOL    HW172846   3.328   5.212   8.384  2.0117  1.4272  0.5001
23297SOL    HW272847   3.401   5.118   8.291 -2.0699 -0.7234 -0.8064
23298SOL     OW72848   1.861  10.358   3.686 -0.5826 -0.0648  0.5300
23298SOL    HW172849   1.811  10.384   3.609 -1.3999  2.3671  1.7772
23298SOL    HW272850   1.829  10.270   3.707 -0.7194 -0.5609 -1.5438
23299SOL     OW72851  10.570   0.356   1.161 -0.2297  0.2592 -0.1151
23299SOL    HW172852  10.476   0.362   1.177 -0.2961  0.3296 -0.4986
23299SOL    HW272853  10.596   0.273   1.200 -0.7600 -0.5443 -1.3971
23300SOL     OW72854   3.346   4.765   8.162 -0.1828  0.4300 -0.3970
23300SOL    HW172855   3.319   4.818   8.087 -1.1187 -1.9971 -1.8991
23300SOL    HW272856   3.406   4.701   8.126  1.8903  1.1172  1.5840
23301SOL     OW72857   8.062  10.417   6.347  0.2608  0.2434 -0.0356
23301SOL    HW172858   7.986  10.359   6.355 -0.6067  1.2808 -0.4589
23301SOL    HW272859   8.130  10.362   6.308  0.9935 -1.7739  3.5803
23302SOL     OW72860   3.337  10.105   4.792 -0.5007  0.2465 -0.2478
23302SOL    HW172861   3.280  10.165   4.744 -0.6299  0.0685 -0.3188
23302SOL    HW272862   3.409  10.160   4.823 -1.3756  0.7341  0.9617
23303SOL     OW72863  10.218   8.885   5.217 -0.6886 -0.2803 -0.1735
23303SOL    HW172864  10.164   8.853   5.144  0.4484  2.9183 -2.6360
23303SOL    HW272865  10.302   8.841   5.205 -0.0045  1.3401 -1.8872
23304SOL     OW72866   7.197   3.352   8.008  0.2224  0.0710  0.6400
23304SOL    HW172867   7.223   3.260   7.995  0.2802  0.2849 -0.9471
23304SOL    HW272868   7.132   3.368   7.940  0.3985  1.2867  0.7443
23305SOL     OW72869   4.827   2.444   3.191  0.2387  0.6517 -0.4181
23305SOL    HW172870   4.761   2.458   3.260  0.4164  1.7980 -0.4527
23305SOL    HW272871   4.872   2.364   3.217 -1.1541 -0.1537 -0.3872
23306SOL     OW72872   6.663   3.301   1.695 -0.1537  0.5762 -0.8415
23306SOL    HW172873   6.742   3.257   1.662  0.7935  1.6445 -0.0570
23306SOL    HW272874   6.592   3.238   1.678  1.1101 -1.1555  0.0061
23307SOL     OW72875   6.084   5.950   7.959 -0.7783  0.2657 -0.4896
23307SOL    HW172876   6.172   5.953   7.921  0.4311 -0.2042  2.0290
23307SOL    HW272877   6.050   6.039   7.949 -0.3347  0.2825 -2.1216
23308SOL     OW72878   4.446   3.415   7.643 -0.0884  0.2599 -0.3696
23308SOL    HW172879   4.511   3.377   7.584 -1.2906 -0.9173 -1.0095
23308SOL    HW272880   4.490   3.419   7.728  0.1664 -2.6058 -0.2587
23309SOL     OW72881   3.957   3.731   6.897  0.4866 -0.3285  0.6361
23309SOL    HW172882   4.009   3.791   6.843  2.0587  0.2128  2.6578
23309SOL    HW272883   3.866   3.759   6.881  1.0933  1.7273  0.4756
23310SOL     OW72884   1.271  10.674   9.486 -1.1321 -0.3464  0.1384
23310SOL    HW172885   1.209  10.601   9.493  0.0550 -1.3371  0.9033
23310SOL    HW272886   1.350  10.634   9.450 -0.7708  0.7914 -0.3814
23311SOL     OW72887   5.881   8.889   6.016  0.1080  0.1720 -0.0205
23311SOL    HW172888   5.942   8.923   5.951 -1.4569  0.2569 -1.5329
23311SOL    HW272889   5.914   8.802   6.038  0.1875 -0.2403 -1.6502
23312SOL     OW72890   1.941   9.702   7.535  0.1837  0.1878 -0.2751
23312SOL    HW172891   1.857   9.691   7.580 -0.6193  3.7092 -0.5684
23312SOL    HW272892   2.004   9.657   7.590 -1.3527  0.8115  2.1841
23313SOL     OW72893   8.397   4.068   4.710 -0.0515 -0.0214  0.2569
23313SOL    HW172894   8.471   4.029   4.756 -0.1163 -0.9835 -0.4203
23313SOL    HW272895   8.426   4.075   4.619  0.1342  1.9976  0.4322
23314SOL     OW72896   3.512   0.220   5.332 -0.1195  0.4444 -0.1313
23314SOL    HW172897   3.479   0.133   5.310 -1.9686  1.2976 -0.9226
23314SOL    HW272898   3.436   0.266   5.367  1.1453  1.3451  1.5938
23315SOL     OW72899   5.830   4.853   2.520 -0.2191 -0.3994  0.3604
23315SOL    HW172900   5.763   4.872   2.454 -1.5929 -1.4625  1.3969
23315SOL    HW272901   5.814   4.915   2.590  0.2548 -0.2937  0.3810
23316SOL     OW72902   6.512  10.523   3.532 -0.1912 -0.2108  0.5516
23316SOL    HW172903   6.445  10.473   3.580 -1.7308  0.0021 -1.2354
23316SOL    HW272904   6.474  10.535   3.445  1.4709  1.4318 -0.0023
23317SOL     OW72905   7.239   8.526   5.939 -0.6630 -0.0001  0.2648
23317SOL    HW172906   7.225   8.576   6.019 -0.2161 -2.1773  1.7571
23317SOL    HW272907   7.206   8.439   5.958 -1.7202 -0.2660 -2.3778
23318SOL     OW72908   9.718   0.617   4.890 -0.0548  0.0345  0.4449
23318SOL    HW172909   9.669   0.559   4.831 -2.0970  0.7284  1.3565
23318SOL    HW272910   9.653   0.680   4.921  1.1241  0.2382  2.7301
23319SOL     OW72911   4.817  10.147   5.520  0.0021 -0.2245 -0.1092
23319SOL    HW172912   4.803  10.239   5.542 -0.5067  0.2054 -1.9883
23319SOL    HW272913   4.906  10.128   5.550  1.2908  1.7934 -2.2306
23320SOL     OW72914   2.429   2.698   2.347  0.1294  0.1508  0.5447
23320SOL    HW172915   2.439   2.651   2.264  2.3491 -0.5131  1.1083
23320SOL    HW272916   2.336   2.716   2.354 -0.4598 -2.0191 -0.8803
23321SOL     OW72917   9.396   7.913   9.211  0.2109  0.3417  0.4447
23321SOL    HW172918   9.413   7.920   9.305 -0.3253  3.4411  0.4224
23321SOL    HW272919   9.483   7.913   9.171  0.5041 -2.2904  0.8805
23322SOL     OW72920   6.246   7.290   6.540 -0.0314 -0.7474 -0.0106
23322SOL    HW172921   6.331   7.247   6.538  0.2026 -0.3949  1.2650
23322SOL    HW272922   6.240   7.328   6.628 -0.7941  0.6689 -0.6358
23323SOL     OW72923   2.859   1.649   6.166 -0.4085 -0.1055 -0.5517
23323SOL    HW172924   2.869   1.681   6.256 -0.5534 -0.8110 -0.2769
23323SOL    HW272925   2.766   1.630   6.158 -0.0985 -1.9041 -0.1973
23324SOL     OW72926   0.415   9.335  10.247  0.5838  0.1674 -0.2948
23324SOL    HW172927   0.502   9.375  10.249  0.2613  0.9592  2.4044
23324SOL    HW272928   0.355   9.409  10.257 -0.3937 -0.4594 -1.2518
23325SOL     OW72929   1.748   2.731   0.466  0.6095  0.1761  0.2429
23325SOL    HW172930   1.764   2.642   0.435 -1.1075 -0.5800  1.3463
23325SOL    HW272931   1.654   2.744   0.452  0.2663  0.7202  2.6935
23326SOL     OW72932   4.613  10.050   8.216 -0.1822 -0.1531 -0.1131
23326SOL    HW172933   4.698  10.007   8.202 -0.0906  0.4992 -1.8169
23326SOL    HW272934   4.618  10.129   8.162 -0.0205  2.5462  3.4556
23327SOL     OW72935   2.991   6.108   6.496 -0.1411  0.6038  0.0873
23327SOL    HW172936   2.932   6.068   6.560 -1.4077  1.3086 -0.5908
23327SOL    HW272937   3.016   6.037   6.438  0.7760  0.0205  1.1374
23328SOL     OW72938   4.722   8.915   3.957 -0.2511  0.4572 -0.1235
23328SOL    HW172939   4.704   8.837   3.905 -2.6849  0.7078  0.2411
23328SOL    HW272940   4.774   8.884   4.031 -1.1165 -0.8268 -0.0260
23329SOL     OW72941   1.404   9.029   9.502  0.6497 -0.4320 -0.1001
23329SOL    HW172942   1.363   9.082   9.434 -0.2108  0.2320  0.9074
23329SOL    HW272943   1.356   9.050   9.582  2.1622 -0.5649  0.8979
23330SOL     OW72944   8.284   8.888   5.629  0.1754  0.5419  0.1397
23330SOL    HW172945   8.207   8.935   5.598 -0.7624 -0.2359  1.1890
23330SOL    HW272946   8.357   8.949   5.616 -1.0238  2.4761  1.8104
23331SOL     OW72947   8.984  10.406   1.527 -0.8194 -0.1868 -0.0992
23331SOL    HW172948   9.006  10.481   1.472  1.3474 -0.6552  0.0582
23331SOL    HW272949   8.920  10.441   1.590  0.8671  1.8388  0.6287
23332SOL     OW72950   6.338   8.412   4.918 -0.2870  0.0181 -0.5096
23332SOL    HW172951   6.404   8.417   4.849 -0.3671 -0.9402 -0.6651
23332SOL    HW272952   6.388   8.415   4.999 -0.0082 -1.0645 -0.6280
23333SOL     OW72953   7.393   6.868   1.759  0.3317  0.0705 -0.3003
23333SOL    HW172954   7.442   6.887   1.679 -0.0341  1.0542 -0.3069
23333SOL    HW272955   7.324   6.934   1.761  1.0445  0.8161  1.4297
23334SOL     OW72956   1.740   2.888   2.371 -0.2136  0.0464 -0.1897
23334SOL    HW172957   1.780   2.811   2.411  0.5279 -0.7250 -2.2840
23334SOL    HW272958   1.696   2.855   2.293 -3.4881  1.1441  1.0036
23335SOL     OW72959   4.277   8.422   6.784 -0.3399 -0.0012  0.1994
23335SOL    HW172960   4.358   8.466   6.758 -0.6127  0.1197 -0.4616
23335SOL    HW272961   4.234   8.483   6.843 -0.0964  0.0610  0.3159
23336SOL     OW72962   1.236   6.903   2.623 -0.0006 -0.8994 -0.3236
23336SOL    HW172963   1.263   6.811   2.617  0.4924 -0.7556 -0.3969
23336SOL    HW272964   1.188   6.920   2.543  1.4260 -0.6210 -1.1574
23337SOL     OW72965   4.188   5.469   7.449  0.5037 -0.5147  0.0713
23337SOL    HW172966   4.178   5.562   7.470  0.5406  0.1352 -2.4644
23337SOL    HW272967   4.099   5.433   7.455  0.5876 -0.5123  1.7166
23338SOL     OW72968   2.708   4.089   6.922  0.1454  0.1623 -1.0789
23338SOL    HW172969   2.772   4.136   6.870  1.6054 -1.0700 -0.4815
23338SOL    HW272970   2.721   4.122   7.011  1.7897 -1.8443 -0.4878
23339SOL     OW72971   2.362   7.958   4.053  0.5254  0.6801 -0.4341
23339SOL    HW172972   2.398   8.046   4.042  1.1360  0.1455 -3.7279
23339SOL    HW272973   2.307   7.945   3.976  0.4298 -1.8015 -0.0068
23340SOL     OW72974   3.027   5.019   7.457 -0.0822  0.9168 -0.1857
23340SOL    HW172975   2.996   5.104   7.426  0.0945  1.0781  0.0749
23340SOL    HW272976   3.010   4.959   7.385 -0.7071  1.0668 -0.1656
23341SOL     OW72977   1.650   6.613   7.417 -0.1816 -0.0827 -0.6944
23341SOL    HW172978   1.684   6.679   7.478  1.0630 -0.2498 -1.1647
23341SOL    HW272979   1.586   6.660   7.364  0.2485  0.6033 -0.6210
23342SOL     OW72980   4.902   2.705   8.747 -0.7881  0.5221 -0.2551
23342SOL    HW172981   4.929   2.689   8.656 -1.4320 -1.6331 -0.1381
23342SOL    HW272982   4.812   2.737   8.739 -0.6612  0.8588 -0.3790
23343SOL     OW72983   2.591   7.973   6.404 -0.0880 -0.2327 -0.0846
23343SOL    HW172984   2.586   7.957   6.310 -1.0189 -2.1093  0.2467
23343SOL    HW272985   2.534   8.048   6.419 -2.2343 -1.6422 -0.6970
23344SOL     OW72986   1.042  10.227   6.737 -0.5744  0.2613  0.0405
23344SOL    HW172987   0.967  10.277   6.704 -0.0513  0.9760 -0.0850
23344SOL    HW272988   1.072  10.276   6.813  0.2277  0.3926 -0.3507
23345SOL     OW72989   6.766   7.259   9.106 -0.5005 -0.1476 -0.8336
23345SOL    HW172990   6.713   7.186   9.073  1.2340 -1.3802 -1.0575
23345SOL    HW272991   6.748   7.261   9.200  1.7236 -3.0360 -0.1746
23346SOL     OW72992   9.594   7.797   5.590  0.4771 -0.1380  0.0449
23346SOL    HW172993   9.672   7.742   5.580 -0.4374 -1.3199 -0.9774
23346SOL    HW272994   9.595   7.856   5.515  0.2606 -0.3374 -0.1181
23347SOL     OW72995   9.658   2.399   2.423 -0.1883 -0.4482 -0.0245
23347SOL    HW172996   9.664   2.306   2.444 -0.2146 -0.6578 -0.8870
23347SOL    HW272997   9.579   2.428   2.468 -1.1306 -1.2465 -1.0700
23348SOL     OW72998   8.256   2.375   8.723  0.2443 -0.0526  0.7210
23348SOL    HW172999   8.297   2.412   8.801 -0.0948  1.5648  0.1724
23348SOL    HW273000   8.307   2.409   8.650  1.6336 -2.9232  0.2280
23349SOL     OW73001   2.846   4.599   5.557  0.6865 -0.4146  0.0071
23349SOL    HW173002   2.788   4.531   5.592  0.3030 -0.2148 -0.2392
23349SOL    HW273003   2.851   4.581   5.463  3.5227 -2.3426  0.3863
23350SOL     OW73004  10.020   6.639   5.294 -0.0930  0.2017  0.0168
23350SOL    HW173005  10.068   6.583   5.355  0.4438 -1.6913 -2.0174
23350SOL    HW273006   9.929   6.608   5.300 -0.2335  0.6959  0.5453
23351SOL     OW73007   4.580   0.695  10.657 -0.4544 -0.1810 -0.7105
23351SOL    HW173008   4.630   0.768  10.620 -0.2157 -0.8580 -1.7782
23351SOL    HW273009   4.647   0.633  10.686 -0.6500  0.1766  0.5383
23352SOL     OW73010   3.876  10.274   2.260 -0.0260 -0.1815 -0.1253
23352SOL    HW173011   3.898  10.364   2.234  0.2260 -0.2970 -0.3220
23352SOL    HW273012   3.854  10.281   2.352 -0.2146  0.1186 -0.1905
23353SOL     OW73013   7.472   8.250   7.780  0.1717  0.2453  0.1036
23353SOL    HW173014   7.551   8.295   7.750  0.3122  0.4619  0.7868
23353SOL    HW273015   7.411   8.320   7.802  0.0742  0.0920  0.3293
23354SOL     OW73016   6.413   6.207   2.000  0.0861  0.1436 -0.1639
23354SOL    HW173017   6.384   6.230   2.088  0.4005  1.3954 -0.3719
23354SOL    HW273018   6.508   6.203   2.007  0.1136  0.2888 -0.4630
23355SOL     OW73019   1.758   5.159   7.846 -0.3097 -0.4132  0.3317
23355SOL    HW173020   1.787   5.115   7.925 -0.2425  1.3906  1.3680
23355SOL    HW273021   1.689   5.103   7.811 -0.1641 -1.3731  1.5220
23356SOL     OW73022   6.856   4.151   7.020 -0.5255  0.6412  0.2060
23356SOL    HW173023   6.845   4.241   7.052 -1.4410 -0.3902  3.0323
23356SOL    HW273024   6.804   4.148   6.940  0.4607  2.8966 -0.6207
23357SOL     OW73025   8.621   5.248   5.424 -0.0023 -0.6147 -0.8875
23357SOL    HW173026   8.540   5.294   5.401 -0.1884 -0.6840 -0.3826
23357SOL    HW273027   8.645   5.201   5.345 -0.0179  0.0532 -1.2944
23358SOL     OW73028   9.870   3.639   3.585 -0.1098  0.7799  0.4946
23358SOL    HW173029   9.909   3.701   3.645  1.6450  0.5510 -0.3491
23358SOL    HW273030   9.848   3.563   3.639  0.7518  0.8651  0.9840
23359SOL     OW73031   8.935   4.688  10.571  0.2016  0.4212 -0.2912
23359SOL    HW173032   8.973   4.763  10.526  0.4558 -0.0796 -0.9245
23359SOL    HW273033   9.001   4.619  10.564  0.2163  0.3012  0.7888
23360SOL     OW73034   7.390   7.460   6.952  0.0898 -0.5405 -0.8419
23360SOL    HW173035   7.373   7.381   6.900 -1.0494 -1.8781  1.4079
23360SOL    HW273036   7.315   7.466   7.011  0.8697  1.4469  0.0393
23361SOL     OW73037   5.561   3.435   9.563  0.3508 -0.0115 -0.5882
23361SOL    HW173038   5.595   3.445   9.652 -0.0401 -1.8389 -0.2055
23361SOL    HW273039   5.597   3.351   9.533 -2.3857 -1.1966 -0.8023
23362SOL     OW73040   6.577   2.096   4.665  0.0777 -0.6472  0.4049
23362SOL    HW173041   6.614   2.014   4.634  0.0307 -0.4105 -0.3168
23362SOL    HW273042   6.652   2.147   4.696  0.0049 -1.3067  1.7163
23363SOL     OW73043   7.921   3.728   4.207 -0.3301 -0.0109 -0.4555
23363SOL    HW173044   8.011   3.744   4.234 -0.2134  0.2948 -1.0064
23363SOL    HW273045   7.928   3.685   4.122 -0.6931 -0.7119 -0.1380
23364SOL     OW73046   4.244   8.622   3.478 -0.4137 -0.7407  0.4337
23364SOL    HW173047   4.200   8.693   3.430  0.3696 -0.2779  0.3871
23364SOL    HW273048   4.292   8.666   3.548  2.5863 -0.8260 -1.3877
23365SOL     OW73049   8.039   7.470   5.473 -0.2568 -0.0799  0.4590
23365SOL    HW173050   8.114   7.433   5.520  0.2812 -0.0823 -0.3828
23365SOL    HW273051   8.033   7.419   5.393 -2.8980 -1.9671  1.6809
23366SOL     OW73052   2.904   3.333   1.144 -0.2257  0.0061 -0.6192
23366SOL    HW173053   2.918   3.283   1.225  0.9951 -0.6410 -1.1952
23366SOL    HW273054   2.906   3.425   1.172  1.4801 -0.1611 -0.0538
23367SOL     OW73055   5.314   2.583   1.743 -0.3639  0.5958  0.1342
23367SOL    HW173056   5.399   2.576   1.787  0.2389  1.4781 -0.8461
23367SOL    HW273057   5.251   2.593   1.814  0.5770  1.8803  0.8323
23368SOL     OW73058   9.140   6.920   5.256 -0.5859 -0.1548  0.6196
23368SOL    HW173059   9.198   6.966   5.196  0.0116 -1.2747  0.3144
23368SOL    HW273060   9.196   6.891   5.327 -0.9101 -0.5616  0.7180
23369SOL     OW73061   2.519   6.401   3.967  0.1839 -0.4260 -0.5118
23369SOL    HW173062   2.551   6.376   4.053 -1.8078 -0.8771  0.1278
23369SOL    HW273063   2.592   6.381   3.908  2.3329  1.6855  1.2256
23370SOL     OW73064   8.418   5.962   2.854  0.4480  0.3836  0.9271
23370SOL    HW173065   8.387   5.994   2.939 -1.8744 -0.2787  0.3866
23370SOL    HW273066   8.461   6.038   2.814 -0.6258  1.4233  1.6711
23371SOL     OW73067   3.433   5.232   0.423  0.1134  0.0462  0.0108
23371SOL    HW173068   3.412   5.299   0.358 -0.5295 -0.7739 -0.6647
23371SOL    HW273069   3.434   5.278   0.507 -0.0516  0.9387 -0.4664
23372SOL     OW73070   5.196  10.378   5.045 -0.5233 -0.2730  0.0019
23372SOL    HW173071   5.270  10.439   5.047 -0.6560 -0.1175  0.3033
23372SOL    HW273072   5.143  10.407   4.972 -1.6391  1.2465  1.3290
23373SOL     OW73073   0.406   0.215   3.645 -0.0481  0.9084 -0.1867
23373SOL    HW173074   0.437   0.132   3.680  0.1276  1.6131  1.4342
23373SOL    HW273075   0.316   0.222   3.679  0.0273  1.4853 -0.1011
23374SOL     OW73076   3.593   6.820   9.601 -0.1661  0.2518  0.0647
23374SOL    HW173077   3.520   6.881   9.585 -1.0758 -0.2081  2.1927
23374SOL    HW273078   3.613   6.830   9.694  1.5778 -0.6632 -0.1782
23375SOL     OW73079   1.153   5.663  10.211 -0.2190  0.6357  0.0676
23375SOL    HW173080   1.104   5.651  10.292  1.1763 -0.9785  0.7327
23375SOL    HW273081   1.181   5.575  10.186  0.0935  1.1932 -1.7242
23376SOL     OW73082   1.352   3.426   5.250 -0.7092  0.3191 -0.0052
23376SOL    HW173083   1.411   3.350   5.245  1.3031  1.8688 -1.3761
23376SOL    HW273084   1.351   3.450   5.342  1.1187  0.4457  0.0108
23377SOL     OW73085   5.923   8.661   2.251 -0.4911  0.2144  0.4127
23377SOL    HW173086   5.920   8.663   2.346 -0.8164  1.0359  0.3886
23377SOL    HW273087   6.016   8.669   2.229 -0.5562  1.7994  0.6332
23378SOL     OW73088   4.881   7.541   9.029  0.4793 -0.2977 -0.3632
23378SOL    HW173089   4.819   7.565   9.099 -0.0398 -0.2894 -0.8176
23378SOL    HW273090   4.879   7.445   9.028  0.8461 -0.3106 -0.0538
23379SOL     OW73091   3.692   6.952   8.111 -0.5476 -0.1225  0.1957
23379SOL    HW173092   3.674   7.009   8.186 -0.3491 -1.6891  1.4735
23379SOL    HW273093   3.780   6.918   8.127 -0.0051  0.4306 -1.3874
23380SOL     OW73094   4.017   8.984   0.911 -0.1161 -0.3548 -0.2994
23380SOL    HW173095   4.080   9.055   0.895  0.1032 -0.0078  1.8069
23380SOL    HW273096   4.071   8.905   0.918 -0.3922 -0.8850 -3.0239
23381SOL     OW73097   4.397   5.537   4.199  0.1292  0.4422 -0.3074
23381SOL    HW173098   4.414   5.613   4.142  0.7946  1.2758  0.9723
23381SOL    HW273099   4.310   5.554   4.235  0.2602  0.5694 -0.0536
23382SOL     OW73100   0.117  10.692   9.568  0.4219 -0.1713 -0.2538
23382SOL    HW173101   0.052  10.742   9.519 -0.0390 -1.3717 -0.8915
23382SOL    HW273102   0.199  10.741   9.555 -0.0135  0.4205 -0.8622
23383SOL     OW73103   1.739   4.841   7.433 -0.1534  0.2530 -0.4165
23383SOL    HW173104   1.733   4.931   7.466  3.3701 -0.5818  3.4270
23383SOL    HW273105   1.670   4.794   7.480 -0.6244  0.5530 -0.7996
23384SOL     OW73106   9.368  10.485   1.034 -0.6807  0.0290 -0.6486
23384SOL    HW173107   9.452  10.489   1.080 -0.4611  0.9977 -1.1280
23384SOL    HW273108   9.391  10.479   0.941 -1.1120 -2.4180 -0.6829
23385SOL     OW73109   0.181   8.436   1.493 -0.1603 -0.4668 -0.0547
23385SOL    HW173110   0.143   8.512   1.536 -0.5420 -0.8578  0.3159
23385SOL    HW273111   0.114   8.368   1.501 -0.9728 -0.0912 -2.8142
23386SOL     OW73112   9.944   4.802   7.812 -0.1894 -0.5895  0.2165
23386SOL    HW173113   9.976   4.832   7.897 -1.0195 -1.3731  0.8278
23386SOL    HW273114   9.965   4.709   7.810  0.0263 -0.5345 -0.5440
23387SOL     OW73115   8.572   8.793   2.997 -0.3047 -0.6760  0.2589
23387SOL    HW173116   8.652   8.742   2.983  0.9768  1.1318  0.4969
23387SOL    HW273117   8.585   8.834   3.083 -1.2749  0.0125  0.0934
23388SOL     OW73118   4.852   9.243   2.482 -0.3625 -0.4178  0.3242
23388SOL    HW173119   4.804   9.189   2.545  2.0777 -1.2955  1.5823
23388SOL    HW273120   4.830   9.333   2.507 -0.9556 -0.7814  1.1793
23389SOL     OW73121   7.949   3.897  10.154 -0.5128 -0.0637 -0.4529
23389SOL    HW173122   8.032   3.884  10.107 -0.6046 -3.9271  0.1518
23389SOL    HW273123   7.929   3.990  10.142  3.7032  0.9764 -0.8897
23390SOL     OW73124   2.594   4.239   8.033  0.0056  0.0681  0.3314
23390SOL    HW173125   2.629   4.158   8.068  0.7718 -0.4402 -1.4791
23390SOL    HW273126   2.646   4.256   7.954 -0.4758  2.0453  0.3688
23391SOL     OW73127   4.821   1.937  10.140  0.0183  0.1430 -0.4338
23391SOL    HW173128   4.906   1.975  10.162 -0.0833  0.7712 -1.1095
23391SOL    HW273129   4.819   1.853  10.187  0.0265  1.1754  1.5180
23392SOL     OW73130   9.777   8.303   1.059  0.2866 -0.7581  0.3363
23392SOL    HW173131   9.844   8.314   1.126 -0.1039 -1.9955  0.9644
23392SOL    HW273132   9.694   8.308   1.108 -0.1758  1.7883 -0.5603
23393SOL     OW73133   6.171   8.966   9.467 -0.3257  0.1942 -0.1430
23393SOL    HW173134   6.101   8.929   9.413  0.7527 -0.4533 -1.1408
23393SOL    HW273135   6.170   8.914   9.547 -0.1282 -0.7183 -0.7149
23394SOL     OW73136   5.071   1.787   0.286  0.1856 -1.2121  0.0186
23394SOL    HW173137   5.127   1.717   0.255  1.0319  0.1918 -1.8256
23394SOL    HW273138   4.993   1.783   0.231 -0.0926 -1.1553  0.4001
23395SOL     OW73139   0.393   9.019   1.099 -0.3938  0.3539 -0.8267
23395SOL    HW173140   0.403   9.027   1.193  0.0261 -2.5917 -0.5478
23395SOL    HW273141   0.395   9.110   1.067  1.0489  1.3387  1.7968
23396SOL     OW73142   0.687   2.399   2.318  0.5286 -1.0665 -0.0006
23396SOL    HW173143   0.609   2.343   2.318 -0.2549 -0.0465  1.9991
23396SOL    HW273144   0.655   2.485   2.290  1.3154 -1.0613 -0.9412
23397SOL     OW73145   3.246  10.167   0.953  0.1513  0.0224 -0.3605
23397SOL    HW173146   3.186  10.096   0.975  0.3845 -0.4805 -1.2881
23397SOL    HW273147   3.246  10.168   0.857 -0.8141  2.0821 -0.3943
23398SOL     OW73148   0.963   1.878   3.638 -0.3198 -0.4161 -0.5359
23398SOL    HW173149   0.975   1.970   3.661  0.5299 -0.4538 -0.7711
23398SOL    HW273150   1.052   1.842   3.637 -0.5561 -1.0199 -1.3178
23399SOL     OW73151   3.486   6.882   3.049  0.0950 -0.3226 -0.0176
23399SOL    HW173152   3.529   6.798   3.031 -1.8445 -1.0388 -1.7392
23399SOL    HW273153   3.541   6.947   3.005 -0.0579 -1.1065 -1.4285
23400SOL     OW73154   9.726   4.400   9.277  0.3031  0.2072  0.1320
23400SOL    HW173155   9.664   4.440   9.215  0.2514  0.8879  0.6218
23400SOL    HW273156   9.688   4.314   9.295 -0.1742  0.3701 -0.0644
23401SOL     OW73157  10.361   8.368   6.426  0.3517 -0.1488  0.2923
23401SOL    HW173158  10.267   8.352   6.414  0.6588 -2.1703  0.1589
23401SOL    HW273159  10.381   8.331   6.512  1.0689  0.0604  0.2224
23402SOL     OW73160   4.238   1.209   6.176  0.2575 -0.2852  0.2138
23402SOL    HW173161   4.299   1.282   6.167  0.9913 -0.8594  0.4320
23402SOL    HW273162   4.269   1.162   6.254 -0.6035 -0.4574  0.4657
23403SOL     OW73163   2.900   3.028   2.626  0.7249  0.1766 -0.5831
23403SOL    HW173164   2.907   2.977   2.545  2.6345 -0.5595 -0.0189
23403SOL    HW273165   2.986   3.019   2.667  0.3340  1.9045  0.7301
23404SOL     OW73166   2.380   5.954   0.250  0.4570 -0.2402  0.5210
23404SOL    HW173167   2.364   6.028   0.308  1.6330 -0.4311  1.1238
23404SOL    HW273168   2.367   5.989   0.162  1.5975  0.8734  0.7617
23405SOL     OW73169   5.859   8.328   6.232  0.3170 -0.5013 -0.1439
23405SOL    HW173170   5.819   8.244   6.256 -0.4283  0.2571  1.4102
23405SOL    HW273171   5.921   8.346   6.303 -0.4114  0.8153  0.1976
23406SOL     OW73172   7.871   6.669   6.978  0.0236  0.1819  0.6236
23406SOL    HW173173   7.963   6.696   6.979 -0.3115  1.3754  0.9136
23406SOL    HW273174   7.875   6.574   6.976  1.2881  0.1691 -2.6131
23407SOL     OW73175   8.528   2.930   1.651  0.1328 -0.9162  0.0184
23407SOL    HW173176   8.460   2.947   1.716 -2.4622 -1.6558 -2.2782
23407SOL    HW273177   8.489   2.960   1.568  3.0072 -0.5778 -1.3302
23408SOL     OW73178   8.430   8.229   4.549  0.1109 -0.6079  0.7695
23408SOL    HW173179   8.488   8.158   4.577  0.1327 -0.7211  0.4374
23408SOL    HW273180   8.350   8.185   4.520 -0.7211 -0.3925  2.5607
23409SOL     OW73181   5.727   8.402   6.000  0.2956 -0.1188 -0.3010
23409SOL    HW173182   5.682   8.468   6.052 -0.1115 -0.3704 -0.3308
23409SOL    HW273183   5.789   8.362   6.060  0.3007  0.0508 -0.1913
23410SOL     OW73184  10.419   8.331   1.786 -0.0240 -0.1792  0.1217
23410SOL    HW173185  10.341   8.346   1.839  0.6179 -0.7207  1.2398
23410SOL    HW273186  10.486   8.304   1.848  1.2654  0.9197 -0.7278
23411SOL     OW73187   1.046   5.419   3.157 -0.5139 -0.5522 -0.0572
23411SOL    HW173188   1.033   5.487   3.092  0.6177  0.4744  0.7477
23411SOL    HW273189   0.976   5.433   3.221 -0.9794 -0.8939 -0.4807
23412SOL     OW73190   4.788  10.059   2.481 -0.6021  0.2791  0.4568
23412SOL    HW173191   4.814  10.089   2.568  0.0808  1.1612 -0.0258
23412SOL    HW273192   4.790   9.964   2.487  0.7787  0.3139  1.0486
23413SOL     OW73193   8.304   5.896   9.651 -0.1531 -0.3058  0.0018
23413SOL    HW173194   8.300   5.889   9.556  0.5193 -1.1045  0.0232
23413SOL    HW273195   8.355   5.975   9.667  1.0421 -0.9805 -0.3274
23414SOL     OW73196   2.961   7.040  10.189  0.7245 -0.0194  0.8187
23414SOL    HW173197   2.954   6.955  10.232  0.8719 -0.2183  0.4615
23414SOL    HW273198   2.945   7.021  10.096  1.7882  0.1621  0.5783
23415SOL     OW73199   4.314   1.974   8.725  0.0826 -0.1163  0.0492
23415SOL    HW173200   4.275   1.928   8.651 -0.0202  1.0407 -0.6308
23415SOL    HW273201   4.241   2.013   8.772  0.2869  0.7777 -0.3570
23416SOL     OW73202   0.697   0.739   1.659  0.5046  0.0708  0.4767
23416SOL    HW173203   0.742   0.818   1.689 -1.5268  1.0503  1.1465
23416SOL    HW273204   0.720   0.733   1.566  2.4001  0.1780  0.8870
23417SOL     OW73205   6.192   9.183   7.041  0.3189 -0.4145 -0.3345
23417SOL    HW173206   6.198   9.149   6.951 -0.9611  2.9592 -1.8414
23417SOL    HW273207   6.099   9.201   7.054  0.5460 -0.3912  1.5639
23418SOL     OW73208   3.543   5.005   0.294 -0.6825  0.8879 -0.4209
23418SOL    HW173209   3.638   5.011   0.287 -0.3658 -2.0273  0.1197
23418SOL    HW273210   3.517   5.082   0.344  1.4297  1.5483 -0.2548
23419SOL     OW73211   7.800   2.288   9.114  0.4194 -0.2489  0.1915
23419SOL    HW173212   7.709   2.300   9.142  0.3443  1.0232 -0.4901
23419SOL    HW273213   7.812   2.354   9.045  2.0040 -0.0446  0.6254
23420SOL     OW73214   7.509   9.095   7.694  0.3617  0.3900  0.0610
23420SOL    HW173215   7.540   9.148   7.621 -1.6145  1.0851 -0.3407
23420SOL    HW273216   7.456   9.027   7.653  0.8050 -0.3789  0.7400
23421SOL     OW73217   9.240   9.464   9.633 -0.5647  0.3500 -0.2164
23421SOL    HW173218   9.249   9.555   9.603  0.3571 -0.2519 -1.9413
23421SOL    HW273219   9.160   9.464   9.684 -0.6573  2.1156 -0.2821
23422SOL     OW73220   6.925   8.751   0.354  0.3079  0.1555 -0.4072
23422SOL    HW173221   6.874   8.820   0.395 -0.3240  0.1877 -1.2148
23422SOL    HW273222   6.876   8.729   0.275  0.5767 -1.1098 -0.2419
23423SOL     OW73223   4.294  10.350   6.921 -0.0651  0.3480  0.4537
23423SOL    HW173224   4.313  10.312   6.835  0.4084  1.2161  0.1559
23423SOL    HW273225   4.329  10.287   6.984  0.2308  0.0440 -0.0104
23424SOL     OW73226   9.952   9.505   1.693 -0.0900  0.4387  0.0072
23424SOL    HW173227   9.899   9.557   1.632 -0.5112  0.3660  0.3073
23424SOL    HW273228   9.953   9.418   1.653 -0.9793  0.2078  0.4682
23425SOL     OW73229   7.857   0.418   7.964 -0.4962 -0.1312  0.3335
23425SOL    HW173230   7.926   0.352   7.975 -0.5300 -0.4722 -1.2524
23425SOL    HW273231   7.790   0.374   7.912 -0.4324  1.2003 -0.9224
23426SOL     OW73232   6.875   5.421   2.610  0.2367 -0.3248  0.0129
23426SOL    HW173233   6.904   5.361   2.542 -0.6014 -1.4451  0.5999
23426SOL    HW273234   6.788   5.389   2.634 -0.5382  1.5710 -0.1432
23427SOL     OW73235   4.071   7.086   2.171  0.5508  0.1523  0.3503
23427SOL    HW173236   4.162   7.058   2.180 -0.1083 -1.7900  1.6386
23427SOL    HW273237   4.020   7.013   2.206 -1.4955  1.3984  0.1286
23428SOL     OW73238   8.705   9.113   1.187 -0.1140 -0.7316  0.3563
23428SOL    HW173239   8.729   9.021   1.202  0.3651 -0.5294  0.8649
23428SOL    HW273240   8.789   9.160   1.187 -0.1468 -0.5404 -1.8757
23429SOL     OW73241   6.043   5.784   9.402  0.5268  0.1347 -0.2840
23429SOL    HW173242   6.128   5.740   9.396  0.3157 -0.2403 -0.5323
23429SOL    HW273243   5.997   5.737   9.472 -0.2942 -1.0704 -1.5721
23430SOL     OW73244   4.110   7.130   1.331 -0.0193 -0.7117  0.0860
23430SOL    HW173245   4.154   7.123   1.416 -0.7494  0.2052  0.5575
23430SOL    HW273246   4.136   7.051   1.284  1.8464 -0.3784  0.4822
23431SOL     OW73247   9.899   4.299   1.177 -0.4529  0.2966  0.3612
23431SOL    HW173248   9.891   4.324   1.085 -0.4467 -0.7500  0.0600
23431SOL    HW273249   9.924   4.379   1.222  1.1566  0.4885 -0.7852
23432SOL     OW73250   3.745   3.807   9.193  0.7797  0.3065  0.2131
23432SOL    HW173251   3.680   3.872   9.218  1.2402  0.9753 -0.2820
23432SOL    HW273252   3.804   3.800   9.268  0.3834  0.0120  0.4972
23433SOL     OW73253   7.527   7.173   2.507 -0.5736  0.3333  0.3322
23433SOL    HW173254   7.546   7.241   2.442  0.1021 -0.0172  0.1473
23433SOL    HW273255   7.571   7.204   2.587 -0.4463  0.2148  0.3074
23434SOL     OW73256   3.405   1.157   1.302  0.1781  0.0573  0.2450
23434SOL    HW173257   3.394   1.065   1.281 -0.3369 -0.1364  1.2574
23434SOL    HW273258   3.427   1.199   1.219 -1.6136 -0.6528 -0.6486
23435SOL     OW73259   3.505   6.622   3.553  0.3461 -0.4258 -0.3786
23435SOL    HW173260   3.423   6.672   3.550  0.0443 -0.7655  1.0968
23435SOL    HW273261   3.572   6.688   3.571  0.1278 -0.3598  0.2352
23436SOL     OW73262   2.325   5.102   0.675 -0.2935 -0.4973  0.2394
23436SOL    HW173263   2.396   5.140   0.727 -1.2295 -0.2904  1.4120
23436SOL    HW273264   2.304   5.021   0.720 -2.1740  0.4413  1.1682
23437SOL     OW73265   6.897   5.696   9.046 -0.4905 -0.0082  0.6697
23437SOL    HW173266   6.823   5.701   8.985 -0.5241  1.5304  0.7759
23437SOL    HW273267   6.947   5.776   9.028  1.3097 -1.1304  0.4294
23438SOL     OW73268   9.755  10.580   2.095 -0.3197  0.0188 -0.2661
23438SOL    HW173269   9.802  10.504   2.061 -1.5587 -0.2250 -1.5203
23438SOL    HW273270   9.813  10.654   2.075 -0.8605 -0.1370 -2.7851
23439SOL     OW73271   4.768   9.678   9.986 -0.0271  0.2298  0.0319
23439SOL    HW173272   4.803   9.710  10.069 -0.6581  0.4867  0.1996
23439SOL    HW273273   4.823   9.720   9.920  1.8063 -1.5315  0.3422
23440SOL     OW73274   5.503   5.792   3.329 -0.2567 -0.1794  0.0657
23440SOL    HW173275   5.501   5.879   3.367 -0.8926 -0.1054 -0.1187
23440SOL    HW273276   5.429   5.791   3.267  0.0813 -0.6602 -0.3409
23441SOL     OW73277   5.581   8.939   4.443 -0.0607  0.1225 -0.2808
23441SOL    HW173278   5.617   9.027   4.452 -0.5870  0.3682 -0.5773
23441SOL    HW273279   5.548   8.918   4.531 -0.6615  0.5398 -0.4064
23442SOL     OW73280   8.209  10.317   0.109  0.6877 -0.1741  0.1566
23442SOL    HW173281   8.275  10.254   0.137  0.4888 -0.6354 -0.4006
23442SOL    HW273282   8.133  10.299   0.165  0.6844 -0.3275  0.1033
23443SOL     OW73283   2.083   2.051   9.698 -0.5375 -0.0905 -0.5777
23443SOL    HW173284   2.080   2.077   9.790  2.3010 -1.5368  0.0364
23443SOL    HW273285   2.053   2.129   9.650  0.5974  1.7047  1.4405
23444SOL     OW73286   2.222   5.213   7.438  0.1196  0.6777 -0.2123
23444SOL    HW173287   2.267   5.294   7.463 -0.4879  0.9500 -0.0016
23444SOL    HW273288   2.146   5.241   7.388  1.1260  0.1544 -2.1604
23445SOL     OW73289   6.162   4.090   6.357 -0.0580  0.2436  0.5940
23445SOL    HW173290   6.236   4.029   6.355  0.2044  0.5687 -0.4751
23445SOL    HW273291   6.203   4.177   6.359 -0.4181  0.4099  0.7975
23446SOL     OW73292   9.310   9.818   3.118  0.1737 -0.3921 -0.5964
23446SOL    HW173293   9.263   9.739   3.090 -1.7134 -0.3499  2.1097
23446SOL    HW273294   9.401   9.789   3.129  0.3051 -1.2171 -3.0844
23447SOL     OW73295   5.123   8.575   6.477  0.4404  0.1151  0.3153
23447SOL    HW173296   5.192   8.508   6.479  0.8855  0.5708  0.6929
23447SOL    HW273297   5.064   8.550   6.549  1.1567  0.6816  1.1225
23448SOL     OW73298   2.406   4.392   3.802 -0.0763 -0.1344  0.3239
23448SOL    HW173299   2.370   4.470   3.762  0.9809 -0.2817 -0.9939
23448SOL    HW273300   2.496   4.416   3.824  0.0432 -0.7666  0.5434
23449SOL     OW73301   5.906   1.607   5.158  0.4059 -0.8426 -0.3808
23449SOL    HW173302   5.865   1.549   5.222  0.5679  0.0790  0.5833
23449SOL    HW273303   5.922   1.688   5.206  0.6148 -0.1582 -1.5693
23450SOL     OW73304  10.263   6.039   9.761  0.1629  0.1936 -0.6797
23450SOL    HW173305  10.274   5.959   9.812  0.6635 -0.1923 -1.3740
23450SOL    HW273306  10.180   6.076   9.791  0.9128  0.4924  1.0986
23451SOL     OW73307   2.360  10.141   8.172  0.2565 -0.1210 -0.1052
23451SOL    HW173308   2.284  10.084   8.162 -2.5630  3.1205  0.7682
23451SOL    HW273309   2.360  10.165   8.265  1.3377  1.2125 -0.4111
23452SOL     OW73310   0.198   6.284   7.610  0.1557  0.3302  0.1671
23452SOL    HW173311   0.206   6.236   7.527 -0.6691 -2.5846  1.6438
23452SOL    HW273312   0.114   6.255   7.646  0.4646  1.5881  2.0199
23453SOL     OW73313   1.083   8.391   8.113 -0.1586 -0.1801 -0.2621
23453SOL    HW173314   1.101   8.484   8.128  0.6111 -0.1938 -1.0092
23453SOL    HW273315   1.150   8.345   8.164  1.1079 -0.2594 -1.9160
23454SOL     OW73316   4.383   3.205   8.593 -0.1566  0.2362 -0.2464
23454SOL    HW173317   4.463   3.217   8.541 -0.6082  1.0046 -0.8067
23454SOL    HW273318   4.388   3.116   8.626  0.7338  0.1378 -0.6200
23455SOL     OW73319   3.180   0.141  10.294  0.0302 -0.2309  0.0902
23455SOL    HW173320   3.216   0.219  10.252 -0.9703 -0.6256 -1.5630
23455SOL    HW273321   3.257   0.091  10.322  0.7688 -0.1126 -1.6105
23456SOL     OW73322   9.249   3.775   6.624 -0.2725  0.4131 -0.0266
23456SOL    HW173323   9.254   3.689   6.665 -0.1739  0.1923 -0.4862
23456SOL    HW273324   9.204   3.759   6.541  1.4873  0.4335 -1.0429
23457SOL     OW73325   4.967  10.248   7.154 -0.1979  0.1045 -0.5371
23457SOL    HW173326   4.955  10.339   7.180 -2.7192 -0.6298  1.2434
23457SOL    HW273327   4.987  10.252   7.061  2.2595  2.5398 -0.0206
23458SOL     OW73328   9.227   4.665   2.836 -0.1454 -0.0698  0.2039
23458SOL    HW173329   9.189   4.601   2.895  0.1858 -0.8901 -0.4496
23458SOL    HW273330   9.161   4.676   2.767  0.3142 -0.6610 -0.3434
23459SOL     OW73331   6.951   5.121   5.022  0.5592  0.4951 -0.0018
23459SOL    HW173332   6.958   5.153   4.932 -0.5416  0.4137 -0.1244
23459SOL    HW273333   6.940   5.026   5.013 -1.0038  0.6453  0.1412
23460SOL     OW73334   5.654   3.148   9.095 -0.0550  0.3091  0.4644
23460SOL    HW173335   5.702   3.157   9.177  1.3425 -0.2305 -0.2678
23460SOL    HW273336   5.701   3.081   9.047 -0.9692  0.4793 -0.7128
23461SOL     OW73337  10.076   9.236   5.790 -0.4198 -0.1155  0.1859
23461SOL    HW173338  10.006   9.184   5.828 -1.2422 -0.8154 -2.1362
23461SOL    HW273339  10.031   9.309   5.747  0.3569  0.0416 -0.3877
23462SOL     OW73340   2.200   4.702   5.437 -0.2340 -0.0910  0.0766
23462SOL    HW173341   2.158   4.695   5.351  0.3824  2.0624 -0.4746
23462SOL    HW273342   2.157   4.777   5.478 -1.6855 -2.0512  2.4255
23463SOL     OW73343   7.551   7.131   9.584 -0.0366  0.9405 -0.4116
23463SOL    HW173344   7.543   7.161   9.494  0.1329 -1.8242 -1.4447
23463SOL    HW273345   7.504   7.047   9.586 -0.6337  1.2357  2.2566
23464SOL     OW73346   4.510   5.887   5.046 -0.3630  0.1156  0.1473
23464SOL    HW173347   4.568   5.893   5.122 -0.9250  0.4058  0.5589
23464SOL    HW273348   4.488   5.795   5.039  0.3479 -0.0389 -0.1674
23465SOL     OW73349   6.868   5.802   0.656  0.4363  0.4854  0.5597
23465SOL    HW173350   6.859   5.868   0.724 -0.3192  0.7516  0.2161
23465SOL    HW273351   6.962   5.795   0.641  0.6407  0.1031  1.9295
23466SOL     OW73352   3.663   2.736   9.999 -0.6743 -0.2694 -0.1469
23466SOL    HW173353   3.585   2.742   9.944  0.1794 -0.7757 -1.4552
23466SOL    HW273354   3.736   2.733   9.937  0.3748 -0.0769  1.0406
23467SOL     OW73355   3.132   4.576   1.472 -0.3373  0.0694  0.1131
23467SOL    HW173356   3.209   4.519   1.467  0.5096  1.0155  1.5629
23467SOL    HW273357   3.102   4.584   1.382  1.3093 -0.2950 -0.5048
23468SOL     OW73358  10.039   3.731   9.448  0.1660 -0.2562  0.4987
23468SOL    HW173359   9.972   3.664   9.460 -0.2072 -0.1168 -0.7143
23468SOL    HW273360  10.045   3.744   9.353  1.4615  0.1875  0.6083
23469SOL     OW73361  10.504   3.643   1.423  0.2811  0.0374  0.3824
23469SOL    HW173362  10.472   3.665   1.335  0.9847 -1.2617 -0.2327
23469SOL    HW273363  10.426   3.618   1.472  0.0923 -1.2551 -0.5268
23470SOL     OW73364   4.844   6.684   3.372  0.0930 -0.2181  0.1833
23470SOL    HW173365   4.898   6.605   3.366  0.2882 -0.1083  0.4817
23470SOL    HW273366   4.874   6.728   3.451  0.8368  0.7962 -0.6341
23471SOL     OW73367   0.927  10.333   8.206 -0.4990  0.6166 -0.5719
23471SOL    HW173368   0.861  10.361   8.142 -2.2821 -0.1099  0.8596
23471SOL    HW273369   0.915  10.238   8.213  1.9092  0.1874 -1.5230
23472SOL     OW73370   1.404   7.772   6.248  0.2298  0.0481  0.1312
23472SOL    HW173371   1.385   7.702   6.310 -0.5204  0.6394  0.5839
23472SOL    HW273372   1.436   7.727   6.170 -0.7221 -0.8491  0.2342
23473SOL     OW73373   9.302   4.164   4.114  0.5196  0.1070 -0.1874
23473SOL    HW173374   9.384   4.207   4.135 -0.3910  0.9581  1.9659
23473SOL    HW273375   9.286   4.105   4.189 -0.8982  0.1033 -0.4572
23474SOL     OW73376   9.707  10.126   6.655 -0.1943 -0.0792  0.1137
23474SOL    HW173377   9.733  10.036   6.637  0.9665 -0.1363  1.8269
23474SOL    HW273378   9.767  10.179   6.601 -2.1270 -0.2585 -2.4162
23475SOL     OW73379   5.547   2.101   9.961 -0.9038  0.2120  0.4985
23475SOL    HW173380   5.567   2.178  10.015 -0.9806  0.4480  0.1963
23475SOL    HW273381   5.524   2.033  10.024  0.3593  0.0751  0.8279
23476SOL     OW73382   3.014   6.086   4.139 -0.2571 -0.0514  0.1334
23476SOL    HW173383   2.955   6.017   4.109  1.0261 -1.4951  0.8081
23476SOL    HW273384   3.078   6.041   4.193  0.6747  1.6756  0.5356
23477SOL     OW73385   5.517   3.693   9.868  0.1946 -0.9242  0.1221
23477SOL    HW173386   5.535   3.724   9.957  0.8269 -0.8548 -0.0301
23477SOL    HW273387   5.439   3.638   9.878 -0.3328 -0.1192  0.5576
23478SOL     OW73388   0.837   7.117   1.530  0.2709 -0.3013  0.1619
23478SOL    HW173389   0.916   7.161   1.499  0.1904  1.1604  1.8659
23478SOL    HW273390   0.867   7.030   1.555  0.8654 -0.5500 -1.2654
23479SOL     OW73391   9.548   5.687   2.905  0.4227  0.0457 -0.1483
23479SOL    HW173392   9.637   5.675   2.871 -0.0009  1.5691 -1.9755
23479SOL    HW273393   9.511   5.757   2.850 -1.1423  1.0146  1.9994
23480SOL     OW73394   6.326  10.238   1.756  0.2045 -0.1410  0.4103
23480SOL    HW173395   6.260  10.197   1.811  0.0547  1.9248  1.8855
23480SOL    HW273396   6.318  10.332   1.774  1.8958  0.3893 -1.2231
23481SOL     OW73397   4.268   0.531   0.030  0.6468  0.4668  0.0901
23481SOL    HW173398   4.301   0.559  -0.055  1.7161 -2.6577 -0.6672
23481SOL    HW273399   4.175   0.513   0.016  0.9378 -0.5590 -0.6156
23482SOL     OW73400  10.579   3.416   0.327 -0.4181 -0.6184 -0.2567
23482SOL    HW173401  10.513   3.479   0.357 -0.5996 -1.1788  0.5952
23482SOL    HW273402  10.528   3.347   0.285 -0.2639 -0.4577 -0.7132
23483SOL     OW73403   4.554   7.215   9.250 -0.2730 -0.7676  0.6034
23483SOL    HW173404   4.624   7.267   9.211 -0.4828 -0.3528  0.7772
23483SOL    HW273405   4.584   7.125   9.242  0.5270 -0.5601  1.1558
23484SOL     OW73406   3.684   1.562   5.425  0.2937 -0.2208 -0.0396
23484SOL    HW173407   3.589   1.566   5.430  0.0923 -2.8723 -0.2900
23484SOL    HW273408   3.707   1.609   5.345 -0.7602  0.5318  0.0817
23485SOL     OW73409   8.679   4.847   4.461 -0.2203  0.0827 -0.1938
23485SOL    HW173410   8.705   4.897   4.383  0.2423 -0.7586 -0.5998
23485SOL    HW273411   8.625   4.776   4.426 -0.2807 -0.1121  0.2878
23486SOL     OW73412   6.736   9.742   1.193  0.0536 -0.0090  0.2165
23486SOL    HW173413   6.739   9.729   1.288 -0.1827 -0.2054  0.1988
23486SOL    HW273414   6.662   9.689   1.164  0.4105 -0.3149 -0.1388
23487SOL     OW73415   3.973   5.994   0.670  0.3419  0.1480 -0.0517
23487SOL    HW173416   4.049   6.033   0.626  0.6423  0.4015  0.6633
23487SOL    HW273417   3.996   5.997   0.763  1.1972 -3.4801 -0.0061
23488SOL     OW73418   3.854   8.433   1.315 -0.2439  0.2145 -0.5701
23488SOL    HW173419   3.920   8.370   1.287  1.1931  0.4913  1.8885
23488SOL    HW273420   3.781   8.379   1.348  0.3982 -0.1691  0.2502
23489SOL     OW73421   3.885   9.386   0.960  0.2821  0.6132  0.4354
23489SOL    HW173422   3.824   9.318   0.987  1.1342 -0.4232 -0.1582
23489SOL    HW273423   3.867   9.400   0.867 -0.1389  1.4779  0.6401
23490SOL     OW73424   9.868   5.099   6.366 -0.0163  0.8915 -0.0177
23490SOL    HW173425   9.836   5.065   6.450  1.9769  0.1200  0.4901
23490SOL    HW273426   9.923   5.174   6.391  0.3072  0.8758 -0.6627
23491SOL     OW73427   8.963   0.334   3.677 -0.3717 -0.1536  0.5994
23491SOL    HW173428   8.934   0.336   3.586 -0.6526 -0.1909  0.6868
23491SOL    HW273429   8.916   0.407   3.718 -0.5655 -0.3968  0.8100
23492SOL     OW73430   6.163   5.104   7.115 -0.0707 -0.4159 -0.3826
23492SOL    HW173431   6.148   5.063   7.030 -0.3875 -2.7979  0.7415
23492SOL    HW273432   6.211   5.038   7.165 -2.1509 -0.1778  2.1310
23493SOL     OW73433   5.222  10.333   9.141  0.2416  0.3444 -0.1514
23493SOL    HW173434   5.284  10.320   9.212  0.6927 -1.7491 -0.8488
23493SOL    HW273435   5.250  10.415   9.100  0.8678  0.8267  1.1724
23494SOL     OW73436   5.962   8.466   5.749  0.2457  0.2747 -0.0459
23494SOL    HW173437   5.980   8.415   5.829  0.5632 -0.6301 -0.6806
23494SOL    HW273438   5.869   8.451   5.732  0.4393 -0.4832 -0.4838
23495SOL     OW73439  10.595   4.701   5.738 -0.3177 -0.2581  0.0719
23495SOL    HW173440  10.660   4.661   5.796  1.2830  0.4691 -1.1441
23495SOL    HW273441  10.538   4.628   5.712  0.5348 -1.0925  0.4872
23496SOL     OW73442   0.693   2.866   3.726 -0.0313 -0.2773  0.1024
23496SOL    HW173443   0.777   2.885   3.684 -0.1837  0.9740  0.3274
23496SOL    HW273444   0.665   2.782   3.687  0.1233  0.5231 -1.8415
23497SOL     OW73445   0.205   1.084   5.683 -0.8707 -0.0113  0.3428
23497SOL    HW173446   0.244   1.028   5.749 -1.3834 -0.5671  0.1800
23497SOL    HW273447   0.210   1.034   5.601 -0.2067  0.6832 -0.0573
23498SOL     OW73448   4.371   4.895   1.932  0.4658  0.6567  0.1575
23498SOL    HW173449   4.387   4.851   2.016  1.5438 -0.4931 -0.6195
23498SOL    HW273450   4.446   4.870   1.878 -0.8325  0.3478 -1.5676
23499SOL     OW73451   2.871   1.502   3.504  0.2765  0.0293  0.3497
23499SOL    HW173452   2.832   1.419   3.475  1.2082  0.1090 -1.2092
23499SOL    HW273453   2.918   1.480   3.584 -0.4213 -0.6883  0.5801
23500SOL     OW73454   1.989   0.705   4.977 -0.2696  0.3115  0.2459
23500SOL    HW173455   2.002   0.799   4.988 -0.5899  0.5444 -1.1800
23500SOL    HW273456   1.935   0.697   4.899  0.3204 -1.0846 -0.0505
23501SOL     OW73457   5.033   5.480   9.746  1.0312  0.2245  0.0167
23501SOL    HW173458   5.086   5.439   9.814 -0.3409 -0.6047  0.6291
23501SOL    HW273459   5.093   5.492   9.673  1.9076 -1.2704  0.4478
23502SOL     OW73460   1.347   3.061   9.079 -0.2798 -0.3519 -0.7150
23502SOL    HW173461   1.288   3.099   9.143  0.4296 -2.5578  1.4074
23502SOL    HW273462   1.409   3.131   9.059 -2.9591  1.7534 -2.3974
23503SOL     OW73463   0.359   2.353   3.878 -0.0001 -0.4186  0.1791
23503SOL    HW173464   0.306   2.416   3.928 -1.0343 -0.1198 -1.2431
23503SOL    HW273465   0.378   2.284   3.941 -0.6385  0.3004  1.2020
23504SOL     OW73466   0.683   8.714  10.391  0.1080 -0.4082  0.2556
23504SOL    HW173467   0.753   8.702  10.327 -0.0202 -0.5163  0.1330
23504SOL    HW273468   0.612   8.659  10.358 -0.1127 -0.1267  0.2613
23505SOL     OW73469   9.688   9.735   5.338 -0.0832  0.1972  0.2844
23505SOL    HW173470   9.613   9.704   5.388  0.2069 -0.4211  0.3468
23505SOL    HW273471   9.661   9.820   5.305 -0.5663  0.2735  0.8527
23506SOL     OW73472  10.342   1.545   5.743  0.1317 -0.7831 -0.7758
23506SOL    HW173473  10.328   1.606   5.670  0.6218 -0.8318 -0.9118
23506SOL    HW273474  10.265   1.488   5.741 -1.6389  1.3502  0.8844
23507SOL     OW73475   3.856  10.046   2.851 -0.2608  0.3973 -0.0229
23507SOL    HW173476   3.790  10.004   2.907  0.8710 -0.7101  0.5308
23507SOL    HW273477   3.826  10.029   2.762 -0.8210  0.0583  0.2262
23508SOL     OW73478   5.392  10.617   2.371  0.1484 -0.2695 -0.4245
23508SOL    HW173479   5.300  10.601   2.393 -0.2102  1.0566 -0.8947
23508SOL    HW273480   5.441  10.574   2.441 -0.8544 -0.1337  0.3851
23509SOL     OW73481   9.407   6.313   8.729 -0.2470 -0.3784 -0.1765
23509SOL    HW173482   9.427   6.231   8.774 -1.0596 -0.6023 -0.2122
23509SOL    HW273483   9.407   6.379   8.798  1.2840 -0.2347 -0.2689
23510SOL     OW73484   6.841   2.164   4.471  0.5019  0.0127 -0.2329
23510SOL    HW173485   6.793   2.173   4.554  2.0558  3.4735  0.4468
23510SOL    HW273486   6.778   2.123   4.412 -1.8509  0.5058  1.7469
23511SOL     OW73487   8.495   7.760   8.461  0.4438  0.3495  0.7592
23511SOL    HW173488   8.509   7.727   8.550  2.1453 -1.1707 -0.0262
23511SOL    HW273489   8.569   7.728   8.411 -0.4038  1.2968 -1.2136
23512SOL     OW73490   4.740   2.977   7.691  0.5329 -0.0411  0.0076
23512SOL    HW173491   4.708   2.975   7.781  2.4327  3.6108  0.9609
23512SOL    HW273492   4.669   3.015   7.640 -0.0811 -0.9353  0.1836
23513SOL     OW73493  10.123   9.194   3.180 -0.0003 -0.6655 -0.0227
23513SOL    HW173494  10.063   9.162   3.247 -1.4537  1.6074 -0.1429
23513SOL    HW273495  10.172   9.264   3.224 -0.4727  0.3682 -1.1155
23514SOL     OW73496   8.872   3.521   5.350 -0.2604  0.5458 -0.3075
23514SOL    HW173497   8.919   3.600   5.375 -0.3303  1.1341 -1.9320
23514SOL    HW273498   8.792   3.523   5.402 -1.2044  2.6136 -1.6977
23515SOL     OW73499   2.083   4.957   6.760  0.3164  0.1689  0.1377
23515SOL    HW173500   2.033   5.035   6.782  1.2217  1.2830 -1.5144
23515SOL    HW273501   2.162   4.963   6.814  0.6221  0.7044 -0.3513
23516SOL     OW73502   5.551   6.709   5.428 -0.0029  0.2403 -0.3400
23516SOL    HW173503   5.591   6.630   5.465  1.9018  0.8437 -0.9924
23516SOL    HW273504   5.590   6.716   5.341 -0.7102  1.5068 -0.5757
23517SOL     OW73505   9.002   2.012   3.833 -0.6301 -0.2265  0.0523
23517SOL    HW173506   9.096   2.019   3.849 -0.2063  2.9050 -2.8556
23517SOL    HW273507   8.964   2.082   3.885 -0.9633  0.4704 -1.1050
23518SOL     OW73508   0.243   4.286   3.594 -1.0285 -0.1742  0.6442
23518SOL    HW173509   0.204   4.327   3.672 -2.2449  0.4488 -0.2684
23518SOL    HW273510   0.232   4.192   3.609  0.8263 -0.1939  2.2600
23519SOL     OW73511   8.638   8.245   3.483 -0.0618  0.3754 -0.2338
23519SOL    HW173512   8.719   8.267   3.529 -0.2602  0.4830  0.0668
23519SOL    HW273513   8.651   8.279   3.395 -0.2659  1.4968  0.1582
23520SOL     OW73514   9.156   8.690   6.951  0.4466  0.3117  0.1633
23520SOL    HW173515   9.105   8.709   7.030  0.8573  1.7369  0.1039
23520SOL    HW273516   9.230   8.750   6.955  0.3023  0.6425 -1.4670
23521SOL     OW73517   0.375   7.491   6.361  0.3337 -0.6650  0.2137
23521SOL    HW173518   0.387   7.445   6.444  0.7248  2.1155  1.8320
23521SOL    HW273519   0.457   7.476   6.314  0.5061 -1.4611  0.7457
23522SOL     OW73520   2.445   3.571   7.172 -0.1619  0.3090 -0.0052
23522SOL    HW173521   2.391   3.632   7.223 -0.4675  0.5249 -0.5854
23522SOL    HW273522   2.438   3.602   7.082  2.5751  1.6283  0.1141
23523SOL     OW73523   8.912   3.987   8.358 -0.3905  0.0722 -0.0613
23523SOL    HW173524   8.983   3.939   8.316  0.1378  0.1150  0.7570
23523SOL    HW273525   8.863   3.920   8.405  0.6161  0.3512  1.4619
23524SOL     OW73526   6.491   0.920   8.564 -0.8784  0.3963 -0.3673
23524SOL    HW173527   6.413   0.970   8.541 -0.0481  1.0065 -1.9973
23524SOL    HW273528   6.483   0.839   8.513 -1.2671 -0.3248  0.7927
23525SOL     OW73529   2.162   4.946   5.310  0.0910 -0.0161 -0.4197
23525SOL    HW173530   2.251   4.983   5.312  0.4303 -0.8078  1.3056
23525SOL    HW273531   2.104   5.022   5.315  0.7460  0.4157  1.8167
23526SOL     OW73532   6.279   3.975   5.312 -0.1338 -0.3657  0.4387
23526SOL    HW173533   6.191   3.987   5.276  0.6600  1.7029 -0.9741
23526SOL    HW273534   6.323   3.919   5.249  0.1866  0.3277  0.0423
23527SOL     OW73535   4.460   6.905   7.888  0.5719  0.0859 -0.1091
23527SOL    HW173536   4.547   6.896   7.926  1.6673 -0.3254 -2.5034
23527SOL    HW273537   4.456   6.996   7.858 -0.2467  0.3919  0.8808
23528SOL     OW73538   6.805   0.045   5.882  0.1729 -0.2526  0.0850
23528SOL    HW173539   6.880   0.047   5.823  0.8060  0.0382  0.8820
23528SOL    HW273540   6.764   0.131   5.871 -1.4379 -1.1936 -2.0557
23529SOL     OW73541   8.651   0.800   4.004 -0.1936  0.1664 -0.1670
23529SOL    HW173542   8.737   0.836   4.023  0.7423 -1.2213 -1.5355
23529SOL    HW273543   8.661   0.706   4.014 -1.3415 -0.0760 -1.0535
23530SOL     OW73544   1.746   1.183   6.235  0.4218 -0.1909  0.5537
23530SOL    HW173545   1.749   1.159   6.142 -1.1754 -0.9766  0.6678
23530SOL    HW273546   1.664   1.231   6.244  1.1465  0.9291  1.3501
23531SOL     OW73547   7.330   0.600   1.013  0.7366 -0.2557  0.2686
23531SOL    HW173548   7.242   0.636   1.021  1.0644  0.8652 -0.8779
23531SOL    HW273549   7.344   0.591   0.918  1.4077 -1.5981  0.4567
23532SOL     OW73550   7.933   3.778   6.579  0.4604 -0.4394 -0.1943
23532SOL    HW173551   7.840   3.787   6.562  0.5402 -1.4504 -1.2529
23532SOL    HW273552   7.976   3.809   6.500  1.1304  1.7246  0.9274
23533SOL     OW73553   3.011   2.970   5.728  0.5003 -0.4166  0.0359
23533SOL    HW173554   2.945   3.004   5.789  0.1153 -1.6003  0.2932
23533SOL    HW273555   3.093   2.975   5.775  0.1656 -1.5844  0.7753
23534SOL     OW73556   5.098   0.379   8.506 -0.1196  0.8962  0.5274
23534SOL    HW173557   5.082   0.374   8.601 -0.3494  1.8599  0.5439
23534SOL    HW273558   5.087   0.289   8.476  1.4067  0.3007  1.6357
23535SOL     OW73559   9.849   9.320   2.184 -0.1663 -0.3229 -0.2838
23535SOL    HW173560   9.820   9.399   2.138  1.9187 -0.3002 -1.7088
23535SOL    HW273561   9.841   9.250   2.120  0.9570 -0.6600 -0.0896
23536SOL     OW73562   2.437   3.843   0.558 -0.3474  0.3380 -0.1387
23536SOL    HW173563   2.479   3.759   0.576 -1.3160 -0.5723 -1.8517
23536SOL    HW273564   2.377   3.856   0.632  1.1557  0.4947  1.1091
23537SOL     OW73565   3.474   6.892   7.381 -0.3831 -0.2500 -0.3915
23537SOL    HW173566   3.564   6.858   7.375 -0.3099 -0.2325  0.5655
23537SOL    HW273567   3.478   6.959   7.449 -1.3983 -1.1824  0.6292
23538SOL     OW73568   9.806   0.921   7.602 -0.0765  0.2194 -0.0002
23538SOL    HW173569   9.728   0.870   7.579 -1.4233  2.3938 -0.6038
23538SOL    HW273570   9.848   0.939   7.518 -1.3226  2.5725 -0.2106
23539SOL     OW73571   7.968   6.701   3.631 -0.0216 -0.3857 -0.2919
23539SOL    HW173572   7.967   6.612   3.665  0.0689  0.2595  1.5459
23539SOL    HW273573   8.060   6.728   3.637 -0.2811  0.3412  0.6683
23540SOL     OW73574   9.552   0.124   8.040 -0.5109  0.1444 -0.2156
23540SOL    HW173575   9.599   0.201   8.071  0.8338 -0.7485  0.0485
23540SOL    HW273576   9.590   0.051   8.090 -0.5805 -0.8968 -1.6201
23541SOL     OW73577   2.751   4.673   1.261 -0.4545 -0.0689 -0.3183
23541SOL    HW173578   2.799   4.671   1.344  0.0633  1.3509 -0.5512
23541SOL    HW273579   2.663   4.642   1.283 -0.3598  0.4040  0.7953
23542SOL     OW73580   4.251   6.008   9.648 -0.9562  0.2057  0.5867
23542SOL    HW173581   4.203   6.064   9.586  0.7714  1.2182  0.1150
23542SOL    HW273582   4.315   5.962   9.593 -0.6532 -0.3084  1.3624
23543SOL     OW73583   5.704   4.702   6.723  0.5045 -0.1010 -0.2747
23543SOL    HW173584   5.637   4.762   6.755  0.6096 -0.2765  0.2757
23543SOL    HW273585   5.654   4.631   6.683  0.3049 -0.8587  1.2398
23544SOL     OW73586   1.353   7.166   9.606 -0.5097  0.4952 -0.3132
23544SOL    HW173587   1.325   7.195   9.519  1.3733  1.8467 -0.5225
23544SOL    HW273588   1.358   7.246   9.658  0.4356 -0.0270  0.4235
23545SOL     OW73589   4.708   6.321  10.433  0.1655  0.0498  0.1173
23545SOL    HW173590   4.728   6.407  10.396  0.0135 -0.1472 -0.4279
23545SOL    HW273591   4.761   6.316  10.513  0.6900  0.3746 -0.2098
23546SOL     OW73592   4.248   1.403   7.353 -0.0542 -0.5397  0.1867
23546SOL    HW173593   4.220   1.491   7.382 -0.6515 -0.2074 -1.2897
23546SOL    HW273594   4.318   1.379   7.413  0.7957  1.3814  0.0266
23547SOL     OW73595   5.265   4.541   6.958 -0.8374 -0.4453 -0.4236
23547SOL    HW173596   5.286   4.616   7.015  0.0256  0.2806 -1.6432
23547SOL    HW273597   5.331   4.475   6.981  0.2858  0.3030 -1.3900
23548SOL     OW73598   8.147   8.629   6.005 -0.1463  0.3074  0.6128
23548SOL    HW173599   8.170   8.708   5.956 -1.0377  0.2628  0.0929
23548SOL    HW273600   8.052   8.625   6.001 -0.1330 -0.6434  0.8687
23549SOL     OW73601   6.847  10.502   6.032 -0.9895  0.5257 -0.0961
23549SOL    HW173602   6.936  10.469   6.015 -0.6814  0.9938  0.5888
23549SOL    HW273603   6.842  10.584   5.984 -1.4953 -0.1202 -1.1723
23550SOL     OW73604   8.827  10.271   5.935 -0.4153  0.1769  0.1441
23550SOL    HW173605   8.911  10.259   5.981 -1.1294 -1.2403  1.1900
23550SOL    HW273606   8.850  10.268   5.842  0.9716  2.2401  0.3624
23551SOL     OW73607   3.815  10.582   1.507 -0.3593 -0.2693 -0.0182
23551SOL    HW173608   3.799  10.597   1.600 -0.8515  2.0080 -0.4055
23551SOL    HW273609   3.850  10.665   1.475 -2.3476 -0.1833 -2.3035
23552SOL     OW73610   5.317   5.465   2.570 -0.1906  0.2207  0.6680
23552SOL    HW173611   5.296   5.394   2.509  1.4783 -1.7521  2.2381
23552SOL    HW273612   5.412   5.464   2.576 -0.2623 -0.0072  3.5612
23553SOL     OW73613   0.478   7.606   8.411 -0.6516 -0.4221  0.7545
23553SOL    HW173614   0.436   7.578   8.492 -0.6297 -1.3596  0.4571
23553SOL    HW273615   0.568   7.576   8.419  0.1177  1.8929  1.5466
23554SOL     OW73616   4.195   8.427   7.725 -0.1898  0.0473 -0.5281
23554SOL    HW173617   4.126   8.374   7.684  0.0218  1.0216 -2.2309
23554SOL    HW273618   4.175   8.424   7.818 -1.8928 -0.5834 -0.8752
23555SOL     OW73619   8.557   0.480   7.473 -0.4039  0.1588 -0.4795
23555SOL    HW173620   8.576   0.556   7.528 -1.0373 -0.8501  1.2127
23555SOL    HW273621   8.467   0.457   7.494 -1.0244  0.3194 -2.7184
23556SOL     OW73622   0.035   1.630   0.389 -0.3625  0.3822  0.9749
23556SOL    HW173623   0.129   1.623   0.371 -0.6700  0.0924 -0.6667
23556SOL    HW273624   0.028   1.699   0.455  1.0179  0.1966  1.3448
23557SOL     OW73625   4.217   7.925   5.405 -0.3672 -0.2698  0.1038
23557SOL    HW173626   4.225   7.841   5.450 -0.8535 -0.8441 -0.8507
23557SOL    HW273627   4.286   7.924   5.339  1.5079  1.3186  1.9195
23558SOL     OW73628   3.992   1.858   4.086  0.0064  0.6996  0.2353
23558SOL    HW173629   3.982   1.763   4.091 -0.0768  0.7701  1.6478
23558SOL    HW273630   4.082   1.871   4.054  0.0989  0.1577  0.2702
23559SOL     OW73631   7.489   0.243   1.616 -0.3631  0.0696  0.2204
23559SOL    HW173632   7.475   0.337   1.626 -0.4973  0.1509 -0.6302
23559SOL    HW273633   7.401   0.206   1.608 -0.3324 -0.1976  1.0441
23560SOL     OW73634   0.664   1.448   6.591 -0.2333  0.0813 -0.2197
23560SOL    HW173635   0.603   1.520   6.576 -0.9035 -0.6122 -0.9802
23560SOL    HW273636   0.751   1.485   6.575 -0.4119  1.1783  1.2285
23561SOL     OW73637   1.732   0.942   3.341 -0.2569 -0.2672  0.5158
23561SOL    HW173638   1.759   0.912   3.427  0.9266  1.2497  0.7254
23561SOL    HW273639   1.644   0.907   3.329 -0.4623 -0.4636  2.3656
23562SOL     OW73640   9.056   3.897   8.018  0.5815  0.0035  0.0675
23562SOL    HW173641   9.122   3.862   7.957  0.5658 -0.8604  0.5401
23562SOL    HW273642   9.087   3.872   8.104  0.2720  0.6817  0.3815
23563SOL     OW73643   7.051   6.700   4.681 -0.8408  0.1801 -0.4891
23563SOL    HW173644   7.115   6.705   4.752 -1.3150 -2.1424  0.2027
23563SOL    HW273645   7.044   6.789   4.649  3.5753  0.4762 -1.3840
23564SOL     OW73646   2.710   9.744   1.099 -0.7057  0.1835 -0.1006
23564SOL    HW173647   2.740   9.779   1.183 -1.9982 -1.6645  1.2048
23564SOL    HW273648   2.778   9.682   1.073 -1.2423 -0.7331  0.6289
23565SOL     OW73649   4.617  10.235   6.046 -0.2671 -0.2022  0.4192
23565SOL    HW173650   4.590  10.213   5.957  1.3897 -0.3207 -0.0868
23565SOL    HW273651   4.630  10.151   6.089 -1.5863 -0.1486  0.9704
23566SOL     OW73652   2.066   1.598   1.326 -0.5483  0.2524 -0.8585
23566SOL    HW173653   2.133   1.615   1.259  0.6380  0.6995  0.3805
23566SOL    HW273654   2.098   1.521   1.373 -0.3701  1.0615  0.3817
23567SOL     OW73655   3.794   6.622   3.729 -0.2930  0.3687  0.0715
23567SOL    HW173656   3.837   6.600   3.646 -0.5713  0.6806 -0.1595
23567SOL    HW273657   3.853   6.685   3.771 -0.1697  0.2395  0.0915
23568SOL     OW73658   2.973  10.018   8.306  0.5934 -0.0556 -0.0260
23568SOL    HW173659   2.902  10.042   8.246  0.2325 -2.4483 -0.6795
23568SOL    HW273660   2.933  10.017   8.392 -0.2688 -1.4480 -0.3948
23569SOL     OW73661   2.214   3.180   7.786 -0.3074 -0.1301  0.1649
23569SOL    HW173662   2.241   3.178   7.694 -0.5969  0.8568  0.0444
23569SOL    HW273663   2.175   3.267   7.797  1.4557  0.5344  1.6982
23570SOL     OW73664   5.973   0.102   0.070  0.7125  0.0268  0.0075
23570SOL    HW173665   5.955   0.101   0.165 -1.5991  0.8895 -0.3516
23570SOL    HW273666   5.888   0.082   0.030  0.8563  2.6853 -1.9116
23571SOL     OW73667   6.381   3.700   6.231  0.1334 -0.4508 -0.3279
23571SOL    HW173668   6.437   3.631   6.264  1.2102  0.3442 -0.4392
23571SOL    HW273669   6.384   3.690   6.136  0.7560  0.0920 -0.3704
23572SOL     OW73670   5.202   7.757   1.828  0.2287 -0.2125  0.0621
23572SOL    HW173671   5.220   7.826   1.891 -2.7956 -0.3870  1.2724
23572SOL    HW273672   5.161   7.687   1.879 -0.9646 -0.9947 -1.8401
23573SOL     OW73673   1.573   8.814   3.913 -0.3378 -0.0185  0.2411
23573SOL    HW173674   1.643   8.879   3.919 -0.9299  0.9234 -2.0067
23573SOL    HW273675   1.575   8.769   3.997  0.4082  2.6058  1.7435
23574SOL     OW73676   6.829   1.020   6.682  0.2143  0.0258 -0.0711
23574SOL    HW173677   6.795   1.105   6.655  0.6905 -0.0179 -0.8532
23574SOL    HW273678   6.789   0.957   6.622 -0.2404 -0.3337  0.5861
23575SOL     OW73679   6.006   4.337   9.751  0.2029  0.5399 -0.1109
23575SOL    HW173680   5.994   4.415   9.697 -1.6858  0.5893  0.3098
23575SOL    HW273681   5.965   4.266   9.701  2.5442 -0.4070 -0.8345
23576SOL     OW73682   9.864   2.825   3.279 -0.2069 -1.0758  0.3298
23576SOL    HW173683   9.899   2.780   3.356 -0.7802 -0.5142  0.9382
23576SOL    HW273684   9.916   2.905   3.272 -0.8557 -0.5960  0.8004
23577SOL     OW73685   5.428   7.079   1.796 -0.0897  0.2021  0.2964
23577SOL    HW173686   5.356   7.023   1.767  0.1435 -0.3839  0.8368
23577SOL    HW273687   5.422   7.157   1.740 -0.3924 -0.3762 -0.4970
23578SOL     OW73688   5.097   8.798   8.310 -0.0831  0.0416 -0.2118
23578SOL    HW173689   5.016   8.757   8.341  1.0223 -3.3492 -1.3553
23578SOL    HW273690   5.077   8.826   8.221  0.5080 -3.0204 -1.4301
23579SOL     OW73691   2.298   4.153   1.449  0.1183 -0.5701 -0.3017
23579SOL    HW173692   2.380   4.199   1.471 -0.0433 -0.3593 -0.1405
23579SOL    HW273693   2.294   4.156   1.354 -0.8815  1.5013 -0.2489
23580SOL     OW73694   0.923  10.281   8.531  0.0576 -0.5110  0.1345
23580SOL    HW173695   0.999  10.240   8.490  1.3940  0.8368  1.1497
23580SOL    HW273696   0.903  10.224   8.606 -0.4179 -1.2659 -0.5546
23581SOL     OW73697   8.142   9.695   8.348  0.7346 -0.3080 -0.0354
23581SOL    HW173698   8.118   9.615   8.394 -0.8937  0.5788  0.7512
23581SOL    HW273699   8.236   9.703   8.361  0.9060 -2.0182 -0.0393
23582SOL     OW73700   5.713   6.693   2.239 -0.0698 -0.2791  0.4352
23582SOL    HW173701   5.775   6.766   2.238 -0.0924 -0.2590  0.4675
23582SOL    HW273702   5.651   6.712   2.169 -1.0175  0.5579  1.4591
23583SOL     OW73703   1.778  10.085   2.033  0.2452 -0.4893  0.8076
23583SOL    HW173704   1.691  10.125   2.035  0.1965 -0.4126 -1.1998
23583SOL    HW273705   1.770  10.009   2.090 -1.2779 -0.7071  0.3536
23584SOL     OW73706   9.752   8.591   7.994 -0.3135 -0.3276  0.6287
23584SOL    HW173707   9.835   8.574   8.040  0.3305  0.1668 -0.3311
23584SOL    HW273708   9.711   8.662   8.044  0.2345 -0.0115  0.6353
23585SOL     OW73709   2.988   4.239   4.029  0.3632 -0.6399  0.6165
23585SOL    HW173710   3.008   4.295   3.954  0.9342 -2.2873 -0.5272
23585SOL    HW273711   3.068   4.240   4.081  0.8807 -1.4363 -0.1273
23586SOL     OW73712   1.177   3.944   2.665  0.2776 -0.2363 -0.6352
23586SOL    HW173713   1.261   3.980   2.696 -0.1893  1.8807 -1.6117
23586SOL    HW273714   1.141   3.899   2.741  1.4617  0.4518  0.3799
23587SOL     OW73715   8.638   0.518   6.961 -0.0502 -0.2226  0.3498
23587SOL    HW173716   8.555   0.561   6.939 -0.1719 -0.0638  1.0880
23587SOL    HW273717   8.647   0.530   7.056  1.2776  0.5807  0.1551
23588SOL     OW73718  10.422   1.969   8.650  0.7202  0.8063  0.1076
23588SOL    HW173719  10.485   2.027   8.608  1.6547 -1.0635 -1.2129
23588SOL    HW273720  10.338   2.016   8.643  1.5760  2.3911 -0.0316
23589SOL     OW73721   8.499   6.195   7.015 -0.2821  0.1326 -0.0714
23589SOL    HW173722   8.536   6.107   7.015 -0.1046  0.2042  0.6636
23589SOL    HW273723   8.540   6.239   7.089 -2.8324 -0.2221  1.6652
23590SOL     OW73724  10.067   6.485   4.784  0.0714 -0.3613  0.1598
23590SOL    HW173725  10.040   6.570   4.818 -2.2964 -0.9600 -0.0260
23590SOL    HW273726  10.073   6.429   4.862 -3.1042 -1.1485 -0.0044
23591SOL     OW73727   9.269   0.072  10.449  0.4769  0.2506  1.0771
23591SOL    HW173728   9.235  -0.009  10.486  1.6753 -0.2159  1.2221
23591SOL    HW273729   9.192   0.119  10.417 -0.2503 -0.8544  1.1584
23592SOL     OW73730   9.791   0.460   3.103  0.1940  0.5714  0.5968
23592SOL    HW173731   9.858   0.453   3.171 -0.4408  2.5252  1.4974
23592SOL    HW273732   9.826   0.524   3.041 -0.4743  0.9914  0.6414
23593SOL     OW73733   0.966   8.795   6.201  0.3438 -0.2410  0.6297
23593SOL    HW173734   0.896   8.769   6.141  0.5425 -2.1229  1.1592
23593SOL    HW273735   1.037   8.733   6.183  1.5922  1.1115  0.6837
23594SOL     OW73736   9.090   2.123   9.935 -0.0479 -0.0837 -0.1490
23594SOL    HW173737   9.011   2.174   9.950  0.8350  0.9521  1.1872
23594SOL    HW273738   9.135   2.122  10.020  1.5034 -0.4214 -0.9349
23595SOL     OW73739   8.745   7.805   9.837  0.0495  0.5832  0.1263
23595SOL    HW173740   8.784   7.770   9.757  1.3746  1.1469  0.5069
23595SOL    HW273741   8.784   7.752   9.907  0.2279  1.2363  0.5228
23596SOL     OW73742   0.962   4.293   6.853 -0.1145  0.5303 -0.2374
23596SOL    HW173743   0.957   4.332   6.766  0.9787  1.0550 -0.0840
23596SOL    HW273744   1.027   4.346   6.900  2.4104 -2.1199 -0.4052
23597SOL     OW73745   1.490   3.512   0.331 -0.0778 -0.1573  0.5536
23597SOL    HW173746   1.433   3.587   0.313  0.0298  0.2306  1.7258
23597SOL    HW273747   1.461   3.445   0.270 -0.7906  0.5399  0.1047
23598SOL     OW73748   4.814   8.176   6.860 -0.3789  0.6280  0.5912
23598SOL    HW173749   4.772   8.091   6.844 -0.8428  1.2254 -1.7208
23598SOL    HW273750   4.895   8.154   6.906  0.2369 -1.2390 -1.2284
23599SOL     OW73751   1.187   7.415   8.649 -0.4788 -0.0120 -0.1605
23599SOL    HW173752   1.219   7.325   8.638  0.3740  0.4606 -1.9921
23599SOL    HW273753   1.161   7.442   8.561 -0.0693  1.7715  0.2306
23600SOL     OW73754   2.126   6.210  10.059 -0.0354 -0.0593  0.1233
23600SOL    HW173755   2.203   6.169  10.018  0.3980  0.2111  0.6499
23600SOL    HW273756   2.105   6.283  10.002 -0.7890 -0.9719 -0.8025
23601SOL     OW73757   9.038   1.987   6.894 -0.5229 -0.0534 -0.3255
23601SOL    HW173758   9.098   1.921   6.930 -0.7566 -1.2969 -2.0740
23601SOL    HW273759   9.066   2.069   6.934  1.6249 -0.7626 -0.2442
23602SOL     OW73760   4.087   2.213   4.077  0.0402 -0.3822 -0.4500
23602SOL    HW173761   4.183   2.213   4.076  0.0766  1.5048  0.2241
23602SOL    HW273762   4.062   2.226   3.985  0.4932  1.3337 -0.3596
23603SOL     OW73763   3.615   4.259   5.561 -0.5358 -0.4410 -0.3991
23603SOL    HW173764   3.672   4.197   5.606  0.9967  1.1553 -0.0279
23603SOL    HW273765   3.604   4.332   5.622  2.2764  2.1798 -2.6943
23604SOL     OW73766  10.242   7.210   7.939  0.5164  0.2789  0.0107
23604SOL    HW173767  10.288   7.141   7.890 -1.8439  0.4358 -2.6686
23604SOL    HW273768  10.214   7.272   7.872 -1.9118  1.1411  1.7050
23605SOL     OW73769   2.194   8.593   1.029  0.1052  0.0794 -0.7244
23605SOL    HW173770   2.170   8.643   0.951 -0.0905 -0.5479 -1.0827
23605SOL    HW273771   2.131   8.521   1.031  1.2362 -0.9637 -1.0356
23606SOL     OW73772   8.454   1.297   1.139  0.3280 -0.4552  0.3316
23606SOL    HW173773   8.433   1.305   1.232  1.0678  0.0420  0.4672
23606SOL    HW273774   8.450   1.203   1.121  2.3022 -0.8027  1.3960
23607SOL     OW73775   3.725   2.012   7.540  0.1044  0.8109  0.1108
23607SOL    HW173776   3.802   1.980   7.587 -1.6201 -1.1509  1.8104
23607SOL    HW273777   3.746   2.102   7.516  2.2333  0.8910  2.0284
23608SOL     OW73778   4.892   4.365   9.595 -0.1343  0.4440  0.2293
23608SOL    HW173779   4.921   4.456   9.606 -0.2980  0.7424 -1.5610
23608SOL    HW273780   4.848   4.364   9.510  0.6592 -1.5151 -0.2036
23609SOL     OW73781   9.903   2.178   0.229 -0.1488 -0.9844  0.3074
23609SOL    HW173782   9.956   2.231   0.170  0.1460 -1.9336 -0.3083
23609SOL    HW273783   9.862   2.241   0.288 -1.2314  0.0938 -1.5034
23610SOL     OW73784   9.262   8.921   1.280 -0.0490 -0.0937 -0.0502
23610SOL    HW173785   9.296   8.848   1.332  1.0898  0.4873  0.0345
23610SOL    HW273786   9.335   8.947   1.225 -0.8622  0.1226 -1.0485
23611SOL     OW73787   8.704   8.147   4.543 -0.6116  0.3008  0.0157
23611SOL    HW173788   8.670   8.235   4.560  1.3792  1.0664  0.2468
23611SOL    HW273789   8.793   8.148   4.579 -0.1183 -1.4158 -1.0531
23612SOL     OW73790   4.531   2.252   9.307  0.3489  0.5427 -0.2999
23612SOL    HW173791   4.557   2.201   9.385 -0.5523  0.9055  0.2579
23612SOL    HW273792   4.492   2.187   9.248 -2.0486  0.6952  0.9691
23613SOL     OW73793   1.047   6.262   2.064 -0.4020 -0.2928  0.1524
23613SOL    HW173794   1.089   6.231   1.985 -3.2330 -1.2640 -1.0967
23613SOL    HW273795   1.045   6.186   2.122  0.3848  0.0259  0.6156
23614SOL     OW73796   4.269   4.573   9.096 -0.2726 -0.0536 -0.2167
23614SOL    HW173797   4.223   4.584   9.179  0.7676  0.5981  0.2892
23614SOL    HW273798   4.340   4.636   9.099  1.2156 -1.6321 -0.5817
23615SOL     OW73799   0.909   1.542   3.720  0.4613  0.2630  0.3433
23615SOL    HW173800   1.001   1.547   3.746  0.3606  0.9661  0.5854
23615SOL    HW273801   0.862   1.581   3.793 -0.0482 -0.2655  0.3002
23616SOL     OW73802   1.968   1.399   2.641  0.6984 -0.0397 -0.0497
23616SOL    HW173803   1.933   1.372   2.557  0.7749 -0.1371 -0.0502
23616SOL    HW273804   1.891   1.411   2.697  0.6961 -0.9383  0.1527
23617SOL     OW73805   7.427   9.375   5.104  0.5779  0.7379 -0.2711
23617SOL    HW173806   7.342   9.338   5.128  0.3902  2.0261  1.2130
23617SOL    HW273807   7.442   9.344   5.015 -0.5217 -1.1150  0.1370
23618SOL     OW73808   0.376   2.513   2.084  0.5253  0.1872 -0.0220
23618SOL    HW173809   0.417   2.575   2.145  0.4612 -0.4036  0.6296
23618SOL    HW273810   0.449   2.477   2.034  0.5108  1.2043 -0.8141
23619SOL     OW73811   9.072   4.341   0.968  0.0703  0.4221  0.7358
23619SOL    HW173812   9.138   4.277   0.943  1.1870  1.6704  0.3671
23619SOL    HW273813   9.119   4.403   1.025 -0.6336  1.5886  0.0951
23620SOL     OW73814  10.547  10.237   2.026  0.0479  0.3606 -0.1579
23620SOL    HW173815  10.614  10.294   2.063  0.0187  0.0037  0.4528
23620SOL    HW273816  10.552  10.156   2.077 -0.2836  0.0179 -0.6508
23621SOL     OW73817   7.066  10.137   6.725 -0.5016 -0.4130  0.3249
23621SOL    HW173818   7.133  10.095   6.670  0.1035  0.5618  0.2873
23621SOL    HW273819   6.983  10.101   6.695 -0.0167 -1.3716  0.1191
23622SOL     OW73820   5.442   6.206   4.169  0.3724 -0.6168 -0.3598
23622SOL    HW173821   5.525   6.246   4.146 -0.6365  1.3206 -0.8103
23622SOL    HW273822   5.466   6.123   4.211  2.4877 -0.3015 -0.8532
23623SOL     OW73823   9.470   3.130   5.529 -0.2643 -1.0056 -0.2405
23623SOL    HW173824   9.529   3.114   5.456 -0.7114  1.1836 -1.1681
23623SOL    HW273825   9.385   3.099   5.500 -1.2342  2.8352 -2.2155
23624SOL     OW73826   3.485   1.850   4.394 -0.0187 -0.0478 -0.4682
23624SOL    HW173827   3.572   1.835   4.431  0.0626  0.0671 -0.6138
23624SOL    HW273828   3.425   1.812   4.458  0.1265  0.0792 -0.2579
23625SOL     OW73829   8.967  10.648   7.729  0.3050 -0.0804 -0.2660
23625SOL    HW173830   8.895  10.712   7.732  2.4945  2.5494  0.3563
23625SOL    HW273831   9.017  10.664   7.809  1.0671 -2.5462 -0.1684
23626SOL     OW73832   8.906   5.418   8.352 -0.0187 -0.1789  0.7250
23626SOL    HW173833   8.857   5.494   8.382 -0.7087 -0.0575 -0.5840
23626SOL    HW273834   8.838   5.354   8.331  0.5286 -0.9718  1.3125
23627SOL     OW73835   1.226   1.685   1.856  0.3794  0.2769 -0.7175
23627SOL    HW173836   1.222   1.737   1.776 -0.5504  0.7228 -0.3942
23627SOL    HW273837   1.149   1.627   1.851  0.4155  0.1817 -0.2410
23628SOL     OW73838   0.638   9.526   1.109  0.3375  0.0962 -0.2908
23628SOL    HW173839   0.560   9.516   1.056 -0.1109  0.5746  0.2716
23628SOL    HW273840   0.711   9.509   1.049 -0.1716  0.2842 -0.9645
23629SOL     OW73841  10.096   7.878   8.272 -0.2264 -0.5778  0.0219
23629SOL    HW173842  10.169   7.887   8.211 -0.0847  0.2874  0.2985
23629SOL    HW273843  10.137   7.867   8.357 -0.3619  1.7639  0.4461
23630SOL     OW73844   6.810  10.595   2.611  0.0576  0.5457 -0.0676
23630SOL    HW173845   6.868  10.559   2.678  1.5152 -1.0400 -2.0356
23630SOL    HW273846   6.791  10.684   2.640  1.4964  0.2702  1.8809
23631SOL     OW73847   6.644   0.901   4.316  0.0717 -0.1231 -0.0734
23631SOL    HW173848   6.698   0.913   4.239  0.0825 -1.1371 -0.2318
23631SOL    HW273849   6.554   0.894   4.282  0.0018  0.1101  0.0615
23632SOL     OW73850   5.191   4.213   6.868 -0.1482  0.4230  0.0360
23632SOL    HW173851   5.237   4.137   6.833 -1.7976 -0.8627  0.5440
23632SOL    HW273852   5.116   4.225   6.809 -1.3178  0.0326  1.3702
23633SOL     OW73853   8.309   7.301   2.524  0.1889 -0.4531  0.4161
23633SOL    HW173854   8.296   7.395   2.533 -0.8433 -0.5538  0.0991
23633SOL    HW273855   8.391   7.293   2.475  0.8886  0.2443  1.4472
23634SOL     OW73856   5.435   3.656   0.174 -0.1023  0.0738 -0.3917
23634SOL    HW173857   5.346   3.622   0.180  0.1110 -0.3028  3.1832
23634SOL    HW273858   5.426   3.750   0.193  0.3237 -0.3354  2.2876
23635SOL     OW73859   1.288   1.400   5.525  0.5552 -0.1742  0.1576
23635SOL    HW173860   1.348   1.416   5.598  3.2677  1.2408 -2.1693
23635SOL    HW273861   1.325   1.325   5.480 -0.3526 -0.2479 -0.4892
23636SOL     OW73862   1.559   7.143   5.869 -0.2558 -0.8263  0.1046
23636SOL    HW173863   1.614   7.089   5.812  0.0857 -0.0162 -0.3495
23636SOL    HW273864   1.497   7.185   5.810 -1.1504 -1.4681  0.5749
23637SOL     OW73865  10.202   5.092   3.476  0.0839  0.2159 -0.1539
23637SOL    HW173866  10.144   5.087   3.400  0.7312  0.5557 -0.6839
23637SOL    HW273867  10.181   5.176   3.517  1.0823  0.9478 -1.0926
23638SOL     OW73868   7.230   9.477   4.658  0.1128 -0.4958  0.0075
23638SOL    HW173869   7.147   9.429   4.656 -0.8284  1.0014 -2.6594
23638SOL    HW273870   7.255   9.485   4.566  3.3455 -0.9762  0.7246
23639SOL     OW73871   1.227   9.459   5.519  0.1670  0.2955 -0.3759
23639SOL    HW173872   1.262   9.384   5.567  0.8401  0.6773 -0.2626
23639SOL    HW273873   1.160   9.495   5.578  1.5253  1.2298  0.6544
23640SOL     OW73874   8.210   3.109   9.638  0.0454  0.6986 -0.1974
23640SOL    HW173875   8.157   3.149   9.708  0.3651 -1.5075  1.4166
23640SOL    HW273876   8.168   3.025   9.621  0.9418  0.4859 -1.5002
23641SOL     OW73877   6.053   8.458   9.606  0.6624 -0.1615 -0.3880
23641SOL    HW173878   5.998   8.388   9.640 -1.3671  0.8037 -1.4958
23641SOL    HW273879   6.121   8.470   9.673 -1.2862 -0.4690  1.7744
23642SOL     OW73880   0.599   2.179   8.674  0.5017 -0.1993  0.2053
23642SOL    HW173881   0.673   2.164   8.615  0.9556  0.8382  0.4769
23642SOL    HW273882   0.526   2.133   8.634  0.7112  0.7520 -1.3548
23643SOL     OW73883   5.934   4.744   4.037 -0.1937 -0.4737  0.1738
23643SOL    HW173884   5.862   4.707   3.987 -0.5879 -0.0368  0.4200
23643SOL    HW273885   5.969   4.669   4.086  0.3110 -0.9483 -0.8636
23644SOL     OW73886   7.688   5.105   5.110 -0.4840 -0.5452  0.2306
23644SOL    HW173887   7.661   5.150   5.190 -1.6097 -2.7730  1.1855
23644SOL    HW273888   7.617   5.043   5.091 -0.1294 -0.2790 -2.3768
23645SOL     OW73889  10.207   0.751   3.147 -0.0807 -0.4518 -0.4045
23645SOL    HW173890  10.228   0.815   3.079  0.4243  0.9885  1.0558
23645SOL    HW273891  10.126   0.782   3.187  1.2165  0.4885  1.6687
23646SOL     OW73892   3.393   4.526   4.034  0.0604  0.2531 -0.2557
23646SOL    HW173893   3.356   4.613   4.050 -2.6784 -0.9426  0.5346
23646SOL    HW273894   3.453   4.512   4.107 -2.1230  0.2091  1.6812
23647SOL     OW73895   8.676   5.762  10.367  0.2097  0.2011 -0.4059
23647SOL    HW173896   8.627   5.736  10.446  1.3974 -1.6236 -0.2247
23647SOL    HW273897   8.760   5.793  10.400  0.9131 -1.0704 -0.9679
23648SOL     OW73898   3.878   9.772   9.304  0.5718  0.3988 -0.6686
23648SOL    HW173899   3.910   9.860   9.289 -0.0758  1.1810  2.0931
23648SOL    HW273900   3.939   9.734   9.367 -0.5710 -0.2007  0.1090
23649SOL     OW73901  10.460   9.876   1.968 -0.1660  0.2233 -0.0246
23649SOL    HW173902  10.388   9.892   1.907  0.1556 -0.9258 -0.7365
23649SOL    HW273903  10.477   9.782   1.961  2.9362  0.7780 -1.6314
23650SOL     OW73904   6.807   4.528   4.357 -0.3428  0.3197  0.5011
23650SOL    HW173905   6.793   4.593   4.288  1.9247  0.8139  0.4303
23650SOL    HW273906   6.752   4.558   4.429  0.1724  1.9747  0.2469
23651SOL     OW73907   7.098   4.327   5.271 -0.1168 -0.4233  0.1763
23651SOL    HW173908   7.125   4.237   5.248 -0.7001 -0.4445 -0.4478
23651SOL    HW273909   7.138   4.342   5.357  1.2182 -0.7466 -0.3524
23652SOL     OW73910   5.199   8.815   7.489  0.0482 -0.3484  0.1364
23652SOL    HW173911   5.151   8.834   7.569 -0.6744  0.2290 -0.4254
23652SOL    HW273912   5.190   8.894   7.435  1.5338 -0.2554 -0.0354
23653SOL     OW73913   0.745   3.596   4.697  0.2318 -0.0858 -0.0889
23653SOL    HW173914   0.662   3.565   4.660 -0.8774  1.1420  1.2178
23653SOL    HW273915   0.760   3.538   4.772  1.8856 -1.8608 -1.7160
23654SOL     OW73916  10.023   1.008   3.820 -0.1961 -0.0373 -0.6690
23654SOL    HW173917   9.954   1.047   3.874  1.2850  0.7821  0.7023
23654SOL    HW273918  10.056   0.935   3.872 -0.2000 -0.6144 -1.4512
23655SOL     OW73919   9.115   1.691   3.341  0.4089  0.2824 -0.5293
23655SOL    HW173920   9.091   1.748   3.414  1.4527 -0.3725  0.3492
23655SOL    HW273921   9.108   1.748   3.264  0.9854  1.4913  0.2692
23656SOL     OW73922   9.436   5.869   9.378  0.1885  0.3467  0.0054
23656SOL    HW173923   9.366   5.825   9.330  1.8795 -2.0768 -0.3909
23656SOL    HW273924   9.391   5.915   9.449 -1.7110 -2.7808  1.0072
23657SOL     OW73925   9.213   5.678   1.385 -0.2407  0.1193 -0.4529
23657SOL    HW173926   9.148   5.670   1.454  0.6431 -1.0681  0.2812
23657SOL    HW273927   9.181   5.621   1.315 -0.6411  0.5682 -0.6440
23658SOL     OW73928   6.948   6.559  10.042  0.3981  0.6187 -0.6960
23658SOL    HW173929   6.857   6.556  10.070  0.2406  2.2437 -0.9528
23658SOL    HW273930   6.944   6.572   9.947  0.8991  0.7192 -0.7075
23659SOL     OW73931   7.872   6.864   9.557 -0.3435  0.1211  0.0335
23659SOL    HW173932   7.963   6.894   9.557 -0.8759  1.8823 -0.1196
23659SOL    HW273933   7.838   6.891   9.471 -0.9662 -0.6677  0.0234
23660SOL     OW73934   8.145   8.675   4.833 -0.0998 -0.0765  0.2977
23660SOL    HW173935   8.192   8.701   4.912  0.3200 -0.7408  0.2690
23660SOL    HW273936   8.160   8.581   4.825 -0.0423  0.0005 -0.6299
23661SOL     OW73937   2.615   4.367   2.659  0.0138 -0.4326 -0.6587
23661SOL    HW173938   2.709   4.352   2.664  0.0858 -0.3186 -1.5545
23661SOL    HW273939   2.594   4.413   2.741  0.4827 -1.6652  0.1870
23662SOL     OW73940   9.676   9.961   5.750  0.3834 -0.2310  0.1118
23662SOL    HW173941   9.725  10.043   5.759  2.4381 -1.2048 -1.4177
23662SOL    HW273942   9.688   9.917   5.835  3.0672 -0.8327 -0.4658
23663SOL     OW73943   1.371   5.483   5.496  0.2468 -0.1603 -0.0295
23663SOL    HW173944   1.276   5.479   5.489  0.3154 -0.7640 -0.8959
23663SOL    HW273945   1.398   5.540   5.424  0.4933  0.8134  0.8124
23664SOL     OW73946   3.550   6.339   3.583 -0.2340 -0.4676  0.3036
23664SOL    HW173947   3.561   6.421   3.534 -0.7982 -0.4142  0.2583
23664SOL    HW273948   3.476   6.357   3.642  0.1894 -0.6606  0.9015
23665SOL     OW73949   6.533   1.731   4.150 -0.1862  0.2386  0.1794
23665SOL    HW173950   6.523   1.712   4.243  0.4280 -0.8388  0.0560
23665SOL    HW273951   6.628   1.726   4.135 -0.2825  0.3467 -0.5012
23666SOL     OW73952   5.445  10.071   9.254 -0.3397  0.2962 -0.3791
23666SOL    HW173953   5.474  10.004   9.316 -1.3931  1.0412  0.9783
23666SOL    HW273954   5.355  10.047   9.233 -0.0111  0.0804 -1.6199
23667SOL     OW73955   6.541   8.244   3.972 -0.3543  0.2711 -0.0473
23667SOL    HW173956   6.574   8.209   3.889 -0.8992 -0.9622  0.2478
23667SOL    HW273957   6.526   8.337   3.954 -0.7846 -0.0478 -1.4258
23668SOL     OW73958   7.612  10.099   2.519 -0.0911  1.1393  0.1105
23668SOL    HW173959   7.583  10.177   2.472  0.7793  1.9243  0.8490
23668SOL    HW273960   7.671  10.132   2.587  2.1848 -0.3123 -1.0235
23669SOL     OW73961   7.373   7.698  10.545 -0.0066 -0.0069  0.0098
23669SOL    HW173962   7.378   7.652  10.461 -1.8208 -0.6381  0.2027
23669SOL    HW273963   7.286   7.739  10.545 -0.4126 -0.7481  1.9203
23670SOL     OW73964   9.185   2.581   8.565  0.1815 -0.1735  0.4755
23670SOL    HW173965   9.096   2.581   8.600  0.1363 -0.1663  0.3615
23670SOL    HW273966   9.186   2.510   8.501 -0.8305  2.0360 -2.2310
23671SOL     OW73967   1.239   1.152   9.872  0.3814  0.2083 -0.1966
23671SOL    HW173968   1.297   1.084   9.837  0.2892  0.2982 -0.5315
23671SOL    HW273969   1.288   1.233   9.862  0.6070  0.1613  0.4696
23672SOL     OW73970   5.801   5.321   8.662  0.7867 -0.5509  0.1949
23672SOL    HW173971   5.841   5.237   8.641  0.0777 -1.1200  1.0226
23672SOL    HW273972   5.735   5.300   8.728 -1.4535  0.2047 -1.6653
23673SOL     OW73973   6.681   2.365   5.028  0.3041  0.1382  0.6822
23673SOL    HW173974   6.748   2.431   5.013  2.1639 -1.6525  0.7373
23673SOL    HW273975   6.599   2.414   5.028  1.5534  2.3552  0.2424
23674SOL     OW73976   3.831   1.568   4.663 -0.1751 -0.6614 -0.2536
23674SOL    HW173977   3.863   1.510   4.732  1.6789  0.3613 -0.1794
23674SOL    HW273978   3.761   1.618   4.704 -2.3849 -3.3190 -0.5548
23675SOL     OW73979   4.063   8.379   8.749 -0.6855 -0.9121 -0.2675
23675SOL    HW173980   4.072   8.468   8.783 -0.0449 -1.0865  0.0277
23675SOL    HW273981   4.027   8.329   8.822 -4.1822 -0.2666 -1.3575
23676SOL     OW73982  10.628   6.245   5.382 -0.1556  0.5748  0.1135
23676SOL    HW173983  10.545   6.209   5.414 -2.2266  2.9926 -2.1099
23676SOL    HW273984  10.643   6.201   5.299 -0.8510  2.1563 -0.9067
23677SOL     OW73985   8.318   1.007  10.262  0.1263  0.2445  0.1538
23677SOL    HW173986   8.262   1.036  10.189  0.1579 -0.0439  0.0110
23677SOL    HW273987   8.394   0.969  10.219 -0.2306 -0.6893  0.3138
23678SOL     OW73988   6.298   6.167   8.978 -0.5403 -0.1924  0.2491
23678SOL    HW173989   6.371   6.172   8.917 -0.4275  0.6232  0.4315
23678SOL    HW273990   6.239   6.102   8.941  0.1973 -0.7304  0.0104
23679SOL     OW73991   9.533   4.245   7.381  0.6669  0.3218  0.5210
23679SOL    HW173992   9.575   4.228   7.296  0.4962  1.2815  0.2198
23679SOL    HW273993   9.499   4.335   7.372  0.8504  0.5174  1.6923
23680SOL     OW73994   5.547   7.843   1.970  0.0617 -0.6930 -0.8840
23680SOL    HW173995   5.594   7.765   1.938 -0.0951 -0.1925 -2.4084
23680SOL    HW273996   5.499   7.811   2.047  2.3447 -1.3726  0.3748
23681SOL     OW73997   4.188   7.861   1.612 -0.0908 -0.1126 -0.1666
23681SOL    HW173998   4.123   7.915   1.658  0.3709  2.3252 -2.1774
23681SOL    HW273999   4.227   7.808   1.682 -3.5608 -1.1058  1.2634
23682SOL     OW74000   5.688   3.126   2.529  0.8741  0.2566 -0.0289
23682SOL    HW174001   5.766   3.169   2.494  1.6491 -1.1966 -0.1616
23682SOL    HW274002   5.660   3.182   2.601  1.8983  0.9241 -0.1310
23683SOL     OW74003  10.513   9.555   7.419  0.1232 -0.1269 -0.4212
23683SOL    HW174004  10.474   9.641   7.410 -0.3942  0.0889  2.7338
23683SOL    HW274005  10.439   9.496   7.434  0.5074 -1.0756 -2.0264
23684SOL     OW74006   3.138   8.190   5.038  0.1390  0.1930  0.3179
23684SOL    HW174007   3.157   8.113   5.091  1.5854  1.1784  1.3356
23684SOL    HW274008   3.072   8.161   4.975  0.3002 -1.7261  0.9678
23685SOL     OW74009   6.595   7.737   1.364  0.0765 -0.5098  0.2978
23685SOL    HW174010   6.607   7.823   1.405 -2.2387  0.1457 -0.2931
23685SOL    HW274011   6.607   7.675   1.436 -1.3360  0.4836  1.4416
23686SOL     OW74012   7.532   3.195   3.549  0.2060 -0.0419  0.0839
23686SOL    HW174013   7.508   3.127   3.487  1.7143 -1.2545  0.7657
23686SOL    HW274014   7.454   3.207   3.602 -0.4968 -0.3089 -0.8616
23687SOL     OW74015   1.375   0.364   6.892 -0.6392  0.1159 -0.5806
23687SOL    HW174016   1.354   0.447   6.849  0.2108 -0.3571 -1.9708
23687SOL    HW274017   1.470   0.356   6.883 -0.8402 -1.5875 -1.5802
23688SOL     OW74018   0.971   9.641   2.432 -0.4644 -0.0145 -0.1441
23688SOL    HW174019   1.015   9.563   2.464  0.5116  0.2774 -0.7227
23688SOL    HW274020   1.010   9.657   2.346 -2.4939 -0.3745 -1.1969
23689SOL     OW74021   0.785   5.486  10.537  0.0671  0.0557 -0.1690
23689SOL    HW174022   0.873   5.523  10.532  0.5056 -0.9976 -0.8161
23689SOL    HW274023   0.778   5.451  10.626  0.3902 -0.0636 -0.1905
23690SOL     OW74024   5.022   4.316   5.482 -0.0598  0.0938  0.3989
23690SOL    HW174025   4.962   4.390   5.480 -1.2464 -0.8112  1.1171
23690SOL    HW274026   5.071   4.322   5.400 -1.1002  0.8742 -0.1787
23691SOL     OW74027   8.476   6.032   1.269  0.0588  0.0689 -0.1911
23691SOL    HW174028   8.387   6.043   1.301  0.1350  1.0985 -0.3227
23691SOL    HW274029   8.466   6.010   1.177 -0.0210  2.3693 -0.7747
23692SOL     OW74030   8.611   4.926   6.186 -0.6031 -0.8350  0.4218
23692SOL    HW174031   8.661   4.985   6.130 -2.4788  1.7997  1.3227
23692SOL    HW274032   8.640   4.948   6.275 -2.4223 -0.0716  0.8754
23693SOL     OW74033   9.198   5.963   3.204  0.1717 -0.0748 -0.0444
23693SOL    HW174034   9.252   6.033   3.242 -2.1530  2.2345 -0.6783
23693SOL    HW274035   9.241   5.941   3.122  0.0334  2.0580 -0.7685
23694SOL     OW74036   4.161   2.944   8.392  0.5178 -0.6966  0.5593
23694SOL    HW174037   4.148   2.906   8.479 -1.2115 -3.0064 -0.5796
23694SOL    HW274038   4.080   2.993   8.375  0.4001 -1.1029 -0.1057
23695SOL     OW74039   8.026   0.982   4.278 -0.8708  0.3958  0.0035
23695SOL    HW174040   8.029   0.970   4.183 -2.1136  0.3129 -0.0520
23695SOL    HW274041   8.046   1.075   4.291 -2.1837  0.7827 -0.4961
23696SOL     OW74042   6.162   5.282   5.387  0.3607 -1.1725 -0.4729
23696SOL    HW174043   6.114   5.285   5.469 -0.8128  2.3785 -1.1028
23696SOL    HW274044   6.120   5.212   5.337 -2.3590 -0.0706  0.1078
23697SOL     OW74045   6.770   6.589  10.633  0.7323  0.0204  0.3540
23697SOL    HW174046   6.775   6.507  10.584 -0.3249  0.1749 -0.0330
23697SOL    HW274047   6.779   6.657  10.566  0.4671  0.2243  0.5214
23698SOL     OW74048  10.278   8.593   6.235  0.4668 -0.5068 -0.1318
23698SOL    HW174049  10.196   8.634   6.262  0.4031 -0.6434 -0.1195
23698SOL    HW274050  10.302   8.536   6.308  1.2143  0.4627  0.4118
23699SOL     OW74051   7.569   3.782   7.837 -0.2880  0.8227  0.1159
23699SOL    HW174052   7.490   3.830   7.813 -0.6184 -0.6317 -1.9941
23699SOL    HW274053   7.539   3.693   7.858  0.4397  1.1084  2.7604
23700SOL     OW74054   1.061   9.864   8.683  0.2723  0.2374 -0.6727
23700SOL    HW174055   1.024   9.780   8.654  0.2516  0.4808 -1.3841
23700SOL    HW274056   1.125   9.840   8.750 -1.2880 -0.1748  0.7329
23701SOL     OW74057   2.296   5.780   5.699  0.2600 -0.2331  0.5640
23701SOL    HW174058   2.355   5.840   5.653  0.8665 -1.1847  0.0742
23701SOL    HW274059   2.258   5.833   5.769  0.7247  0.7414  0.0967
23702SOL     OW74060   4.698   4.977   7.221  0.0490  0.0519  0.0813
23702SOL    HW174061   4.687   5.033   7.144 -0.8513  1.1922  0.9994
23702SOL    HW274062   4.777   5.011   7.265  1.0283 -1.1058 -0.7272
23703SOL     OW74063   8.220   8.503   2.390  0.0464  0.1792 -0.0852
23703SOL    HW174064   8.190   8.509   2.300  1.1029  0.3884 -0.4437
23703SOL    HW274065   8.305   8.547   2.390  0.7558 -1.1178  0.6936
23704SOL     OW74066   6.066  10.449   7.898  0.1939  0.5848  0.0014
23704SOL    HW174067   6.025  10.523   7.943 -0.6450 -0.0794  0.3788
23704SOL    HW274068   6.019  10.373   7.932  0.7241 -0.0770 -0.7261
23705SOL     OW74069   9.573   0.316   0.805 -0.6912  0.1763  0.3757
23705SOL    HW174070   9.546   0.243   0.750 -2.2422  0.4411  0.7354
23705SOL    HW274071   9.602   0.275   0.887 -1.3385 -0.0559  0.4930
23706SOL     OW74072   2.321   4.220   9.416  0.2278  0.0577 -0.6745
23706SOL    HW174073   2.286   4.298   9.373 -0.7544  0.4367  0.7589
23706SOL    HW274074   2.260   4.201   9.487  2.9172  0.8207  2.0606
23707SOL     OW74075  10.608   0.066   1.795 -0.1643 -0.1778 -0.0581
23707SOL    HW174076  10.645   0.067   1.883 -0.1399 -1.0948 -0.0489
23707SOL    HW274077  10.552   0.144   1.792 -1.6319 -1.1238  1.4114
23708SOL     OW74078   7.826   7.633   6.136  0.2185 -0.0992 -0.0036
23708SOL    HW174079   7.788   7.699   6.079  1.1597  0.1844 -0.3202
23708SOL    HW274080   7.873   7.683   6.203 -0.3492 -0.4346  0.6521
23709SOL     OW74081   1.943   5.167  10.260  0.1805  0.0279 -0.1459
23709SOL    HW174082   1.869   5.214  10.298  0.8806  0.8672  0.2295
23709SOL    HW274083   1.927   5.075  10.281 -0.1748  0.3205  0.9243
23710SOL     OW74084   7.112   8.743   7.017  0.4454 -0.2752 -0.8974
23710SOL    HW174085   7.081   8.700   6.937 -1.2043  0.1398 -0.5045
23710SOL    HW274086   7.059   8.822   7.024  3.6829  2.2047 -1.8667
23711SOL     OW74087   4.446   3.168   7.883 -0.0098 -0.6004  0.0759
23711SOL    HW174088   4.361   3.180   7.924  0.3953  0.2121  0.7082
23711SOL    HW274089   4.492   3.250   7.897  1.7962 -1.8264  1.9897
23712SOL     OW74090   6.549   7.868  10.444 -0.4767 -0.2656  0.2340
23712SOL    HW174091   6.530   7.815  10.367 -0.1111 -0.1097  0.0347
23712SOL    HW274092   6.481   7.844  10.507 -0.5319 -0.6973  0.0142
23713SOL     OW74093   4.581   3.426   2.291 -0.0072 -0.2280 -0.4426
23713SOL    HW174094   4.614   3.515   2.284 -1.0480  0.0519 -2.2408
23713SOL    HW274095   4.548   3.420   2.381 -0.2772  1.3370 -0.4090
23714SOL     OW74096   8.178   5.188   6.556 -0.0764  0.0329 -0.3344
23714SOL    HW174097   8.241   5.261   6.561 -2.4755  2.2809 -0.6985
23714SOL    HW274098   8.127   5.195   6.636 -0.7470 -0.8905 -0.6711
23715SOL     OW74099   3.258   3.768   0.991  0.1497  0.6503 -0.7903
23715SOL    HW174100   3.249   3.860   1.017  0.4174  0.8871 -1.5126
23715SOL    HW274101   3.179   3.750   0.940 -0.8462 -0.0924  0.9315
23716SOL     OW74102   7.059   3.921   4.318  0.2160  0.1665  0.5632
23716SOL    HW174103   7.064   3.852   4.252 -0.9343  2.8638 -2.6723
23716SOL    HW274104   6.981   3.900   4.369 -1.2662 -0.0475 -1.6435
23717SOL     OW74105   4.242   8.784   4.766  0.2005  0.9111 -0.0504
23717SOL    HW174106   4.267   8.846   4.698 -0.9396  0.5360 -0.8445
23717SOL    HW274107   4.322   8.771   4.817  0.9533  1.5729 -1.0204
23718SOL     OW74108   3.640   2.477   3.899 -0.0538  0.0215 -0.1418
23718SOL    HW174109   3.581   2.441   3.966 -0.5708 -1.4192 -1.3225
23718SOL    HW274110   3.623   2.424   3.821 -0.3492  2.4014 -1.8175
23719SOL     OW74111   2.117   6.541   7.929 -0.0168  0.5609  0.0192
23719SOL    HW174112   2.186   6.570   7.989 -2.2591  3.4545  1.4457
23719SOL    HW274113   2.102   6.449   7.954  0.6354  1.0155  2.3951
23720SOL     OW74114   4.215   0.506   9.219  0.6685 -0.0390 -0.2522
23720SOL    HW174115   4.214   0.601   9.231 -0.5699  0.1117 -1.4566
23720SOL    HW274116   4.252   0.473   9.301  0.8658  1.4511  0.2948
23721SOL     OW74117   7.298   1.511   9.066  0.4025 -0.0202  0.9239
23721SOL    HW174118   7.217   1.471   9.099  0.8528  0.3388  2.5968
23721SOL    HW274119   7.349   1.437   9.033 -0.2745 -0.3541  0.6151
23722SOL     OW74120   4.584   6.276   8.931 -0.4674 -0.5227 -0.0536
23722SOL    HW174121   4.626   6.254   9.015 -0.0092  0.8678  0.1108
23722SOL    HW274122   4.655   6.274   8.867 -0.6886 -0.9176 -0.2899
23723SOL     OW74123   6.639   8.239   5.457 -0.4574  0.1833  0.1312
23723SOL    HW174124   6.599   8.201   5.536 -0.0380  0.1370  0.3229
23723SOL    HW274125   6.731   8.214   5.463 -0.5927 -0.5974 -0.8334
23724SOL     OW74126   8.749   6.210   9.945 -0.1081 -0.5363 -0.6326
23724SOL    HW174127   8.790   6.134   9.903  2.8853  0.4505  0.3096
23724SOL    HW274128   8.771   6.284   9.888  1.6954  0.3945  1.1631
23725SOL     OW74129   8.529   9.688   9.274  0.9643 -0.2540 -1.0630
23725SOL    HW174130   8.541   9.611   9.330  1.2365  0.2846 -0.3692
23725SOL    HW274131   8.440   9.718   9.292  1.6012  0.8969  0.3551
23726SOL     OW74132   8.860   8.225   2.229 -0.0088 -0.0395  0.3751
23726SOL    HW174133   8.888   8.219   2.138 -0.2465  0.9472  0.2203
23726SOL    HW274134   8.809   8.146   2.245 -0.3259 -0.0110 -0.4826
23727SOL     OW74135   5.150   2.880   4.470  0.9470 -0.2605 -0.4553
23727SOL    HW174136   5.134   2.942   4.399  1.8260 -1.0328 -1.3635
23727SOL    HW274137   5.244   2.861   4.465  0.7563 -1.4198 -0.0148
23728SOL     OW74138   8.928  10.233   3.709 -0.5580 -0.3998 -0.1651
23728SOL    HW174139   8.898  10.143   3.701 -0.3493 -0.7850  2.3429
23728SOL    HW274140   8.853  10.280   3.745 -0.5670  0.3659 -1.1633
23729SOL     OW74141   7.347   9.464   6.454 -0.5007  0.3588 -0.0454
23729SOL    HW174142   7.280   9.439   6.390  0.9919 -0.1326 -1.4865
23729SOL    HW274143   7.329   9.556   6.472  0.0454  1.0661 -2.5894
23730SOL     OW74144   4.880   4.622   6.027 -0.0941  0.0820  0.3587
23730SOL    HW174145   4.962   4.669   6.041 -1.5138  2.6414  0.7149
23730SOL    HW274146   4.836   4.624   6.112 -1.4848  0.7825 -0.3401
23731SOL     OW74147   0.490   5.879   1.884 -0.3638  0.1672 -0.2028
23731SOL    HW174148   0.547   5.837   1.820  0.2149 -0.3455  0.6343
23731SOL    HW274149   0.416   5.819   1.894 -0.5477  0.3367 -0.5168
23732SOL     OW74150   2.497   1.317   2.463 -0.0157  0.5206 -0.4304
23732SOL    HW174151   2.536   1.351   2.543 -0.5489  2.1146 -0.8084
23732SOL    HW274152   2.431   1.383   2.439 -1.5784 -1.1263 -0.8520
23733SOL     OW74153   4.060   5.348   1.914  0.1403  0.3282  0.0366
23733SOL    HW174154   4.119   5.289   1.962 -0.6515  0.7665  1.6148
23733SOL    HW274155   4.045   5.421   1.975 -1.0752  0.8143 -0.8139
23734SOL     OW74156   3.653   9.170   6.295 -0.0242 -0.0779 -0.1613
23734SOL    HW174157   3.710   9.128   6.230  1.7380  0.0936  1.2143
23734SOL    HW274158   3.583   9.107   6.310  1.9628 -2.1064  1.0555
23735SOL     OW74159   3.416   9.995   9.060  0.0078  0.6322  0.2311
23735SOL    HW174160   3.370  10.046   9.127 -2.4160 -0.1080 -0.7630
23735SOL    HW274161   3.413   9.905   9.093 -0.6234  0.3583 -0.5356
23736SOL     OW74162  10.618  10.555  10.694  0.5181 -0.0630  0.0189
23736SOL    HW174163  10.647  10.580  10.607 -0.8662  1.0228 -0.1603
23736SOL    HW274164  10.691  10.504  10.730  0.8026 -1.2115 -2.0485
23737SOL     OW74165   4.895   7.590   6.068  0.4067  0.4763 -0.2032
23737SOL    HW174166   4.929   7.624   5.985  0.6857  0.8608  0.0642
23737SOL    HW274167   4.966   7.602   6.130  1.7843 -3.5691 -0.7287
23738SOL     OW74168   8.076   3.560   1.032 -0.0467  0.6950 -0.2221
23738SOL    HW174169   8.124   3.510   0.966 -0.9281  1.5146 -1.5468
23738SOL    HW274170   8.143   3.611   1.077  1.0249 -2.2142  1.7918
23739SOL     OW74171   7.958   5.103   3.528  0.0914 -0.0093 -0.3324
23739SOL    HW174172   8.053   5.117   3.535  0.1646 -0.5881 -0.1355
23739SOL    HW274173   7.926   5.107   3.618 -0.1941  0.9595 -0.4588
23740SOL     OW74174   5.035   2.298   3.915 -0.1941  0.2808 -0.1300
23740SOL    HW174175   4.948   2.262   3.929 -0.0000 -0.6718 -1.2178
23740SOL    HW274176   5.036   2.379   3.966 -2.2798  1.1831 -1.4134
23741SOL     OW74177   7.645   1.522   5.885 -0.8515  0.0933  0.1219
23741SOL    HW174178   7.627   1.525   5.791 -1.2045  2.7267  0.1999
23741SOL    HW274179   7.713   1.589   5.898 -0.1796 -0.8351  1.6350
23742SOL     OW74180   8.516   9.606  10.336 -0.1302 -0.1524  0.8464
23742SOL    HW174181   8.510   9.672  10.404 -0.1506  1.0361 -0.2768
23742SOL    HW274182   8.434   9.614  10.286  1.1447  1.1737 -1.1933
23743SOL     OW74183   9.052   8.867   2.457  0.4897  0.0670 -0.2459
23743SOL    HW174184   9.044   8.932   2.527 -0.3694 -2.0250  1.7556
23743SOL    HW274185   9.140   8.831   2.467 -0.1521 -1.3228  0.8993
23744SOL     OW74186   1.447   3.490   8.290 -0.1070 -0.2488 -0.9107
23744SOL    HW174187   1.505   3.514   8.362  0.4232  0.2892 -1.5019
23744SOL    HW274188   1.420   3.574   8.253  0.3172 -0.5240 -1.8745
23745SOL     OW74189   5.620   8.336   7.834  0.0738 -0.3812 -0.3976
23745SOL    HW174190   5.651   8.255   7.794  1.7992  0.4290 -0.7999
23745SOL    HW274191   5.691   8.362   7.892 -0.9368  0.2730  0.5710
23746SOL     OW74192   2.455   0.545   5.014 -0.5836 -0.1652 -0.1101
23746SOL    HW174193   2.481   0.587   4.932  0.2303 -1.2047 -0.4111
23746SOL    HW274194   2.426   0.617   5.070  0.9494  0.8255 -0.5365
23747SOL     OW74195   9.013   9.455   7.343 -0.2917 -0.0559 -0.1479
23747SOL    HW174196   9.104   9.427   7.343 -1.1286 -3.1953 -0.3634
23747SOL    HW274197   8.990   9.459   7.436  0.1817  1.3579 -0.0699
23748SOL     OW74198   4.932   6.577   6.065  0.0523 -0.0621  0.0139
23748SOL    HW174199   4.854   6.564   6.011 -0.2998  0.9527  0.2558
23748SOL    HW274200   4.984   6.498   6.052 -1.4212 -1.1527  0.5572
23749SOL     OW74201   9.603   0.879   5.274  0.3803 -0.1806  0.5898
23749SOL    HW174202   9.699   0.876   5.279  0.6315  2.6446 -0.3534
23749SOL    HW274203   9.585   0.896   5.181 -0.9116  0.8150  0.9939
23750SOL     OW74204   0.168   7.445   6.205  0.3650  0.3475  0.3414
23750SOL    HW174205   0.095   7.497   6.240  0.7175  2.1335 -1.4381
23750SOL    HW274206   0.242   7.470   6.260  0.1108  0.1771  0.7720
23751SOL     OW74207  10.237   5.204   4.547 -0.1879 -0.6164 -0.2632
23751SOL    HW174208  10.174   5.250   4.491 -0.3925 -0.3648  0.1667
23751SOL    HW274209  10.204   5.113   4.549 -0.4192 -0.5332 -0.2132
23752SOL     OW74210   9.081   6.051   2.166  0.0589 -0.1507 -0.0605
23752SOL    HW174211   9.152   6.049   2.103  0.1918  0.4131  0.0632
23752SOL    HW274212   9.023   5.978   2.141  0.0908  0.0901 -0.8415
23753SOL     OW74213   7.648   9.625   4.287  0.2144 -0.4661  0.2132
23753SOL    HW174214   7.580   9.571   4.248 -1.4187  2.0772 -0.7541
23753SOL    HW274215   7.728   9.600   4.240 -1.0890  0.1826 -2.5892
23754SOL     OW74216   6.027   8.976   8.286 -0.0007 -0.3495  0.5616
23754SOL    HW174217   5.983   8.940   8.363 -0.6537 -0.2673  0.2338
23754SOL    HW274218   6.038   9.069   8.306 -1.1523 -0.1098  0.1098
23755SOL     OW74219   7.215   3.663   8.722 -0.0092 -0.2252  0.5392
23755SOL    HW174220   7.228   3.755   8.700  3.0819 -0.6796 -0.0150
23755SOL    HW274221   7.177   3.624   8.643  0.4494  0.2246  0.0908
23756SOL     OW74222   1.172   7.936   9.548  0.6274  0.1156  0.1424
23756SOL    HW174223   1.173   7.972   9.637 -0.9129 -0.7062  0.5352
23756SOL    HW274224   1.260   7.902   9.534  1.3868  1.7477  0.6964
23757SOL     OW74225   4.336   4.683   1.733  0.2786 -0.3378 -0.1731
23757SOL    HW174226   4.398   4.704   1.803  0.3769 -1.3706  0.0739
23757SOL    HW274227   4.251   4.677   1.778  0.4862 -1.9820  0.0776
23758SOL     OW74228   4.723   6.751   2.007 -0.2696  0.4038  0.4521
23758SOL    HW174229   4.668   6.778   2.080  0.0257 -1.7179  1.5436
23758SOL    HW274230   4.662   6.714   1.943 -0.3859  0.8647  0.2943
23759SOL     OW74231   1.282   5.675   3.453  0.0290  0.0286 -0.4373
23759SOL    HW174232   1.353   5.658   3.391  0.9568  2.4473 -0.1674
23759SOL    HW274233   1.325   5.717   3.527 -1.2618 -1.5072  1.2814
23760SOL     OW74234   0.372   2.175   3.676  0.9695  0.1886  0.1152
23760SOL    HW174235   0.369   2.232   3.752  0.3163  1.9409 -1.1599
23760SOL    HW274236   0.385   2.234   3.602  0.0604 -1.2917 -1.3042
23761SOL     OW74237   9.538   7.227   6.400 -0.4584 -0.6017 -0.4290
23761SOL    HW174238   9.559   7.212   6.492 -2.4765  1.4481  0.4775
23761SOL    HW274239   9.460   7.174   6.385  0.3985 -1.6552 -1.2692
23762SOL     OW74240   4.787   9.513   1.588 -0.7754  0.2977  0.4019
23762SOL    HW174241   4.711   9.569   1.576 -0.6471  0.5460  0.7280
23762SOL    HW274242   4.854   9.551   1.531 -0.4902  0.8627  1.0893
23763SOL     OW74243   9.325   6.565   6.332  0.0417 -0.1590 -0.0447
23763SOL    HW174244   9.281   6.595   6.253 -0.1477  0.2803  0.2283
23763SOL    HW274245   9.264   6.584   6.403  1.1288  1.5380  0.4811
23764SOL     OW74246   3.509   3.869   7.416 -0.4604 -0.0631 -0.3315
23764SOL    HW174247   3.534   3.958   7.389  1.6027 -0.5078 -0.0093
23764SOL    HW274248   3.467   3.882   7.501  0.4709  0.5501  0.0528
23765SOL     OW74249   6.734   5.086   3.599  0.0635  0.2752  0.6044
23765SOL    HW174250   6.700   5.062   3.512 -0.2806  0.4876  0.6773
23765SOL    HW274251   6.693   5.023   3.658 -1.2281  1.2979  0.8629
23766SOL     OW74252  10.116   8.426   7.345  0.4542 -0.1865 -0.7089
23766SOL    HW174253  10.164   8.508   7.358  0.5268 -0.3248 -0.0589
23766SOL    HW274254  10.176   8.369   7.298  0.7313 -0.1671 -0.3830
23767SOL     OW74255  10.549   1.819   7.824  0.3332  0.8635  0.7107
23767SOL    HW174256  10.514   1.834   7.736  0.2569  0.2306  0.6269
23767SOL    HW274257  10.642   1.803   7.811  0.1690 -0.1100  0.6382
23768SOL     OW74258   2.625   2.160   0.208 -0.2164 -0.0187  0.2541
23768SOL    HW174259   2.676   2.148   0.288  0.4702 -0.7392 -0.2778
23768SOL    HW274260   2.540   2.121   0.228 -0.2045  0.2199  0.7841
23769SOL     OW74261   7.956   5.364   3.085  0.1675 -0.5700 -0.1530
23769SOL    HW174262   7.989   5.378   2.996  0.9844 -1.5038 -0.0103
23769SOL    HW274263   8.035   5.354   3.139 -0.2344  1.7993  1.0312
23770SOL     OW74264   2.342   8.624   3.150  0.4348 -0.5444 -0.0844
23770SOL    HW174265   2.282   8.587   3.085  0.4489 -1.5697  0.4590
23770SOL    HW274266   2.307   8.711   3.168 -0.6022 -0.9237 -0.1630
23771SOL     OW74267   7.605   6.464   5.558  0.0714 -0.2187  0.1624
23771SOL    HW174268   7.632   6.500   5.643 -0.8948  0.4474  0.2021
23771SOL    HW274269   7.517   6.499   5.544 -0.3913 -1.5609 -0.4105
23772SOL     OW74270   5.883   1.491   9.953  0.0555  0.0042  0.2346
23772SOL    HW174271   5.826   1.458   9.884  2.1575  0.6353 -1.9448
23772SOL    HW274272   5.856   1.581   9.966  0.8961  0.4982 -1.2454
23773SOL     OW74273   7.479   3.176   4.257  0.4783 -0.6415  0.2531
23773SOL    HW174274   7.574   3.185   4.266  0.7635  2.2717 -3.3403
23773SOL    HW274275   7.468   3.100   4.199  0.7338 -0.3156 -0.2337
23774SOL     OW74276   6.167   3.608   0.139 -0.5125 -0.0372  0.1478
23774SOL    HW174277   6.121   3.674   0.088  1.1084  1.5900  0.6801
23774SOL    HW274278   6.220   3.658   0.201  2.6028 -1.7012 -0.9453
23775SOL     OW74279   9.724   2.217   9.687 -0.3941  0.5597 -0.1242
23775SOL    HW174280   9.687   2.168   9.760  0.4976 -1.2150 -0.8102
23775SOL    HW274281   9.815   2.235   9.713 -1.1262  3.3769  0.8169
23776SOL     OW74282   8.887   4.939   9.126 -0.4634  0.1180  0.6090
23776SOL    HW174283   8.955   4.972   9.185 -0.7791  1.7450  0.0883
23776SOL    HW274284   8.810   4.993   9.145 -1.1400 -0.6200  0.0426
23777SOL     OW74285   5.443   2.561  10.387  0.5700  0.1025 -0.0810
23777SOL    HW174286   5.495   2.639  10.368  0.1238  0.3150 -0.4637
23777SOL    HW274287   5.435   2.560  10.482  0.4645  0.6060 -0.0821
23778SOL     OW74288   5.384   1.048   3.163  0.1641 -0.7160 -0.4460
23778SOL    HW174289   5.367   1.112   3.232 -1.0470 -0.8388 -0.6232
23778SOL    HW274290   5.381   1.099   3.082  2.0597 -0.4787 -0.4201
23779SOL     OW74291   7.333   3.719   1.521 -0.0939 -0.7427  0.3411
23779SOL    HW174292   7.340   3.742   1.613  1.1406  1.0099 -0.1519
23779SOL    HW274293   7.320   3.624   1.521  2.5510 -1.2092  2.2391
23780SOL     OW74294   3.034   4.020   6.670  0.1598 -0.3941  0.1450
23780SOL    HW174295   3.123   4.012   6.636  0.2395 -0.9562  0.4554
23780SOL    HW274296   2.982   3.962   6.615  0.3510 -1.5695  1.1356
23781SOL     OW74297   7.985   4.270   8.338 -0.3247  0.6845 -0.1161
23781SOL    HW174298   8.053   4.235   8.395 -0.1846 -1.3181 -1.4447
23781SOL    HW274299   7.904   4.233   8.373 -0.4349  0.8230 -0.2243
23782SOL     OW74300   6.118   8.248   5.560 -0.3819  0.2782  0.1136
23782SOL    HW174301   6.175   8.178   5.592  0.2612  0.7231 -0.0425
23782SOL    HW274302   6.029   8.218   5.582 -0.0463 -0.0538  1.0698
23783SOL     OW74303   4.788  10.674   6.062 -0.7137 -0.0348 -0.0905
23783SOL    HW174304   4.728  10.604   6.089 -0.7936 -0.2818 -0.8820
23783SOL    HW274305   4.740  10.755   6.079 -0.8682 -0.1920  0.2387
23784SOL     OW74306   7.415   1.881   5.855 -0.3976 -0.4041  0.5373
23784SOL    HW174307   7.410   1.798   5.902  1.0702 -0.6494  0.2883
23784SOL    HW274308   7.496   1.922   5.886  0.5318 -0.5000 -1.6563
23785SOL     OW74309   6.009   4.861   2.294  0.0292 -0.4982 -0.2194
23785SOL    HW174310   6.041   4.805   2.364 -0.7027 -0.8371 -0.1413
23785SOL    HW274311   5.927   4.819   2.266 -2.6515  2.4661  2.3444
23786SOL     OW74312   0.102   2.793   9.150 -0.4226 -0.4601  0.1315
23786SOL    HW174313   0.084   2.859   9.083  0.0717  1.7934  2.0856
23786SOL    HW274314   0.192   2.766   9.134 -1.0134 -1.6514 -1.4254
23787SOL     OW74315   2.893   1.119   1.051  0.4431 -0.4079  0.3416
23787SOL    HW174316   2.836   1.043   1.064 -0.9920  0.5739 -0.0139
23787SOL    HW274317   2.843   1.177   0.994  0.7754  1.5791  1.9608
23788SOL     OW74318   5.068   0.493   0.340 -0.2020  0.9031  0.5743
23788SOL    HW174319   4.999   0.553   0.313 -1.7163 -1.4864 -1.2238
23788SOL    HW274320   5.024   0.409   0.352  2.1585 -0.3853  0.8211
23789SOL     OW74321  10.324   3.127   7.705 -0.2762 -0.1168 -0.2536
23789SOL    HW174322  10.231   3.115   7.686 -0.8028  0.2865  1.7772
23789SOL    HW274323  10.369   3.067   7.646 -1.9227 -1.3158 -0.3492
23790SOL     OW74324  10.565   8.770   6.488  0.6505 -0.3679 -0.2185
23790SOL    HW174325  10.581   8.832   6.559 -1.2908  1.4997 -1.3113
23790SOL    HW274326  10.564   8.823   6.409  1.2089 -2.1675 -1.4966
23791SOL     OW74327   4.188   6.658   4.462 -0.3772 -0.5850  0.8219
23791SOL    HW174328   4.201   6.564   4.448  1.1838 -0.3366  0.3940
23791SOL    HW274329   4.109   6.679   4.413 -1.7413 -1.9747  2.3319
23792SOL     OW74330   1.849   2.794   4.558  0.1829 -0.5269  0.1730
23792SOL    HW174331   1.901   2.727   4.513  1.0805  0.3470 -0.1293
23792SOL    HW274332   1.904   2.873   4.554 -0.6431  0.0976  0.9518
23793SOL     OW74333   5.215   7.464   9.397  0.7683  0.5147 -0.3139
23793SOL    HW174334   5.179   7.410   9.326 -0.1736  0.2736  0.3274
23793SOL    HW274335   5.143   7.520   9.423  1.0649  0.5052  0.5469
23794SOL     OW74336   0.440   6.682   6.025 -0.2843  0.7197 -0.5390
23794SOL    HW174337   0.382   6.614   5.992 -0.2231  1.0467 -1.3365
23794SOL    HW274338   0.431   6.677   6.120  0.8503 -1.3742 -0.4940
23795SOL     OW74339   8.952   1.479   2.550 -0.5570  0.0998 -0.0519
23795SOL    HW174340   9.026   1.424   2.524 -0.2402  1.3934 -2.1656
23795SOL    HW274341   8.890   1.471   2.478 -0.4074  2.5635 -0.5456
23796SOL     OW74342   9.368   5.731   5.907 -0.3342  0.3632  0.3342
23796SOL    HW174343   9.456   5.741   5.943  1.0909  0.3532 -2.7581
23796SOL    HW274344   9.322   5.811   5.932  1.5783  1.7824 -0.4160
23797SOL     OW74345   7.212   2.123   4.649 -0.0079  0.3278 -0.0185
23797SOL    HW174346   7.175   2.210   4.661  0.0446  0.2702  0.6151
23797SOL    HW274347   7.147   2.075   4.597  0.2053  0.8990 -0.8381
23798SOL     OW74348   8.363   5.536   9.765 -0.0453 -0.3889 -0.1403
23798SOL    HW174349   8.372   5.584   9.848 -0.3903  2.0424 -1.4162
23798SOL    HW274350   8.302   5.466   9.785  0.2205 -0.1375  1.7769
23799SOL     OW74351   1.516   4.531   4.005  0.1059  0.1218 -0.4592
23799SOL    HW174352   1.549   4.531   3.915 -1.5938 -0.9239 -1.1438
23799SOL    HW274353   1.528   4.441   4.035 -1.7354 -0.2324 -0.6402
23800SOL     OW74354   5.281   3.940   6.258  0.3550 -0.2359 -0.1526
23800SOL    HW174355   5.239   3.903   6.335 -1.3544 -0.7038 -1.2568
23800SOL    HW274356   5.353   3.879   6.238 -0.3345 -1.1160  0.0043
23801SOL     OW74357   4.489   5.851   2.200 -0.0702  0.1762 -0.0056
23801SOL    HW174358   4.485   5.778   2.262 -0.1346 -0.0722 -0.2988
23801SOL    HW274359   4.552   5.911   2.238  0.5145 -0.3576 -0.0991
23802SOL     OW74360   4.954   3.749   6.107 -0.2159  0.0240  0.0280
23802SOL    HW174361   4.954   3.826   6.051 -1.2360 -0.9477 -1.3713
23802SOL    HW274362   4.877   3.699   6.080 -0.2971 -0.8736  1.7755
23803SOL     OW74363   2.581   4.723   4.966  0.0039  0.4141 -0.3472
23803SOL    HW174364   2.649   4.788   4.949 -0.2940  0.5225 -1.1697
23803SOL    HW274365   2.576   4.717   5.061  1.5342  0.0088 -0.2758
23804SOL     OW74366   8.868   2.308   3.933  0.1603 -0.8788  0.2090
23804SOL    HW174367   8.922   2.251   3.987  1.1599  0.5624  0.7920
23804SOL    HW274368   8.929   2.374   3.900 -1.1249  0.4525  0.3940
23805SOL     OW74369   9.035   9.016   8.685  0.2896  0.2830 -0.5124
23805SOL    HW174370   9.009   8.925   8.671 -0.6250  0.4767 -0.1375
23805SOL    HW274371   9.109   9.011   8.745 -0.8819 -0.1482  0.9625
23806SOL     OW74372   7.204   6.505   3.873 -0.0676 -0.2437 -0.2938
23806SOL    HW174373   7.262   6.579   3.856  0.4488 -0.9547 -1.8121
23806SOL    HW274374   7.149   6.499   3.794 -0.8656 -0.7984  0.2870
23807SOL     OW74375   3.775   5.818   6.452  0.0512  0.6800 -0.0472
23807SOL    HW174376   3.778   5.907   6.488 -0.9884  0.0609  1.6832
23807SOL    HW274377   3.801   5.762   6.525 -0.7425 -0.5412 -0.6651
23808SOL     OW74378   6.801   2.405   1.755  0.3678  0.2490  0.4768
23808SOL    HW174379   6.741   2.478   1.736  1.0456  0.3049 -1.7604
23808SOL    HW274380   6.845   2.430   1.836 -0.3555  1.6932  0.4560
23809SOL     OW74381   9.731  10.057   7.265 -0.0560 -0.8495  0.1604
23809SOL    HW174382   9.713  10.095   7.179  0.0833  1.5168  1.1194
23809SOL    HW274383   9.663   9.990   7.275 -2.9873  1.8115 -0.0449
23810SOL     OW74384   6.668   2.517   7.031  0.6604  0.3221 -0.5313
23810SOL    HW174385   6.615   2.597   7.033  0.0089 -0.0988 -0.3975
23810SOL    HW274386   6.660   2.481   7.119  0.2075 -0.3544 -0.8423
23811SOL     OW74387   3.425   3.639   1.756 -0.6218 -0.3489 -0.2676
23811SOL    HW174388   3.355   3.635   1.821  0.6428  1.2294  1.3011
23811SOL    HW274389   3.455   3.730   1.758  1.8171 -1.0574 -0.4328
23812SOL     OW74390   0.783   1.261   6.919  0.7707 -0.1504  0.0777
23812SOL    HW174391   0.793   1.192   6.985  2.2983 -0.0397 -0.0077
23812SOL    HW274392   0.855   1.321   6.936 -0.5414  1.4766  0.1751
23813SOL     OW74393   1.767   7.960   8.081 -0.8954 -0.1708  0.4061
23813SOL    HW174394   1.695   7.993   8.028 -0.2935 -1.5043 -1.3575
23813SOL    HW274395   1.810   8.038   8.116 -1.1537  0.7919 -1.3575
23814SOL     OW74396   4.155   2.078   9.435 -0.2295  0.4945 -0.1495
23814SOL    HW174397   4.120   2.117   9.515 -2.3641 -2.1703  0.3699
23814SOL    HW274398   4.093   2.104   9.367 -1.7175 -1.7420  0.2137
23815SOL     OW74399   9.541   4.003   3.369  0.2083  0.0347  0.0021
23815SOL    HW174400   9.558   4.078   3.426  3.5242 -0.4858 -0.0870
23815SOL    HW274401   9.568   3.927   3.422 -1.5207 -0.9705 -0.4858
23816SOL     OW74402   5.366   0.567   5.933  0.3330 -0.2816  0.1058
23816SOL    HW174403   5.346   0.501   5.868 -2.8784  1.4620 -0.9220
23816SOL    HW274404   5.389   0.518   6.012 -0.3508 -2.5396 -1.0309
23817SOL     OW74405   0.385   9.909   7.602  0.2987  0.3109  0.5481
23817SOL    HW174406   0.410   9.818   7.616 -1.2790 -0.0894  1.0132
23817SOL    HW274407   0.345   9.909   7.515  2.3460  1.0666 -0.4658
23818SOL     OW74408   3.932   9.546   6.964  0.3215 -0.9070  0.0155
23818SOL    HW174409   3.885   9.471   6.999  0.4164 -0.6204  0.7738
23818SOL    HW274410   3.867   9.594   6.912 -0.1013 -0.7732  0.6606
23819SOL     OW74411   3.461   3.073   7.230 -0.4408 -0.3674  0.1955
23819SOL    HW174412   3.521   3.081   7.305  0.1272 -1.3062 -0.1534
23819SOL    HW274413   3.377   3.103   7.264 -0.3558 -1.4402  1.4256
23820SOL     OW74414   8.257   6.329   6.149  0.1771 -0.6228 -0.1030
23820SOL    HW174415   8.210   6.291   6.075  0.0021 -1.3359  0.3624
23820SOL    HW274416   8.234   6.422   6.148  0.9175 -0.4264 -1.4975
23821SOL     OW74417   4.020   0.966   7.398 -0.0465 -0.2753 -0.2393
23821SOL    HW174418   4.010   1.052   7.356  0.5697 -0.9201 -1.7536
23821SOL    HW274419   4.025   0.987   7.492 -0.0149  1.3297 -0.5575
23822SOL     OW74420   0.132   6.184   8.994 -0.1933 -0.3819  0.0374
23822SOL    HW174421   0.189   6.118   9.035  1.9270  0.9245 -0.6313
23822SOL    HW274422   0.158   6.267   9.035 -0.5831  0.4561 -1.3488
23823SOL     OW74423   0.430   0.319   3.037  0.1378  0.0496 -0.5611
23823SOL    HW174424   0.495   0.252   3.060  0.5698  0.7303  0.2691
23823SOL    HW274425   0.383   0.282   2.963 -0.0908 -1.4726  0.3011
23824SOL     OW74426   0.762   4.532   5.035  0.0675  0.8862 -0.3328
23824SOL    HW174427   0.679   4.579   5.043  0.9285  2.2480  1.1193
23824SOL    HW274428   0.828   4.601   5.033  1.3869 -0.2185  1.8047
23825SOL     OW74429   6.056  10.574   0.559 -0.2360 -0.1496 -0.3111
23825SOL    HW174430   6.132  10.631   0.574 -0.6495  0.3410 -0.0311
23825SOL    HW274431   6.018  10.607   0.477 -0.7969  0.3550  0.1377
23826SOL     OW74432   2.490   6.246   7.451 -0.2821 -0.4557  0.5048
23826SOL    HW174433   2.408   6.213   7.488 -1.1843  2.3204  1.2867
23826SOL    HW274434   2.462   6.309   7.384  1.2281 -0.1872  0.1042
23827SOL     OW74435   6.171   6.368   8.666 -0.0142  0.2975  0.1495
23827SOL    HW174436   6.149   6.424   8.740 -0.2647 -0.5663  0.7464
23827SOL    HW274437   6.149   6.421   8.589  0.0860  1.1440  0.6845
23828SOL     OW74438   7.017   7.635   5.498  0.3385  0.4138  0.2127
23828SOL    HW174439   7.055   7.632   5.585 -0.4872  1.6615  0.6414
23828SOL    HW274440   7.058   7.711   5.456  0.0952  0.3361 -0.1725
23829SOL     OW74441   2.904   7.604   0.575 -0.7298  0.3150 -0.3285
23829SOL    HW174442   2.972   7.578   0.513 -1.3844 -2.2827 -0.0531
23829SOL    HW274443   2.829   7.628   0.520 -0.8338 -0.5686 -0.5841
23830SOL     OW74444   3.269   6.616   1.974 -0.1384  0.1497 -0.4415
23830SOL    HW174445   3.347   6.652   2.015 -0.2152 -0.3219  0.1302
23830SOL    HW274446   3.248   6.677   1.903  0.1315  0.8482  0.0766
23831SOL     OW74447   4.044   4.929   7.828  0.4035  0.8169 -0.0719
23831SOL    HW174448   4.080   4.840   7.829 -0.4415  0.4565 -0.3878
23831SOL    HW274449   4.088   4.974   7.899 -0.2880 -0.3226  1.1117
23832SOL     OW74450   0.578   7.061   7.885 -0.3059 -0.0984 -0.0742
23832SOL    HW174451   0.595   7.086   7.794  1.4091 -0.0685  0.2279
23832SOL    HW274452   0.619   6.975   7.894 -0.0437  0.1136  0.8175
23833SOL     OW74453   7.284   9.145   0.698 -0.4481 -0.1781  0.3764
23833SOL    HW174454   7.213   9.195   0.736 -0.1013 -0.6651  1.7436
23833SOL    HW274455   7.362   9.199   0.710 -0.6529  0.7287 -1.8687
23834SOL     OW74456  10.243   3.905   9.899  0.0974 -0.1049 -0.5953
23834SOL    HW174457  10.257   3.903   9.994 -0.3628  0.7221 -0.4989
23834SOL    HW274458  10.295   3.980   9.869  0.9446 -0.8805 -1.1331
23835SOL     OW74459   1.170   7.937   4.824  0.1775 -0.5080  0.1933
23835SOL    HW174460   1.236   7.902   4.882 -0.0707  0.6554  1.2266
23835SOL    HW274461   1.132   7.861   4.780  1.8145 -1.2214 -0.0237
23836SOL     OW74462   2.364   1.520   6.812  0.0837  0.2029 -0.3436
23836SOL    HW174463   2.393   1.439   6.769 -1.8342 -0.5361 -0.3685
23836SOL    HW274464   2.437   1.544   6.868  0.2389 -2.3566  0.7236
23837SOL     OW74465   2.753   5.238   4.294  0.8692 -0.4606 -0.2712
23837SOL    HW174466   2.683   5.299   4.314  0.3376 -0.8243 -0.9922
23837SOL    HW274467   2.710   5.166   4.247  1.7411 -0.6236 -0.8395
23838SOL     OW74468   8.927   8.807   8.885 -0.3033 -0.8534 -0.1838
23838SOL    HW174469   8.844   8.846   8.859 -0.5624 -2.1715 -1.5052
23838SOL    HW274470   8.971   8.787   8.801  2.2982  1.6864  0.4154
23839SOL     OW74471   7.120   3.687   2.635  0.0873 -0.3431 -0.0094
23839SOL    HW174472   7.052   3.752   2.618 -1.5870 -2.7954 -4.0498
23839SOL    HW274473   7.082   3.629   2.701 -0.1111  0.3831  0.5273
23840SOL     OW74474   8.700   4.888   3.111 -0.7342  0.4162 -0.9513
23840SOL    HW174475   8.718   4.797   3.134  0.2011  0.1938 -2.3746
23840SOL    HW274476   8.740   4.939   3.181 -0.9770 -0.2665 -0.3093
23841SOL     OW74477   7.990   3.605   0.605  0.6333  0.3745  0.0803
23841SOL    HW174478   7.992   3.510   0.618 -2.6796  0.1956  0.0964
23841SOL    HW274479   8.042   3.619   0.526  2.6916 -1.1752  1.0496
23842SOL     OW74480   3.539   1.075  10.550 -0.1876 -0.4679  0.0164
23842SOL    HW174481   3.501   1.162  10.559 -0.9249 -0.8741  1.0646
23842SOL    HW274482   3.584   1.076  10.466  1.7372  1.6564  0.9800
23843SOL     OW74483   7.088   7.120   9.173 -0.4704  0.0115  0.1654
23843SOL    HW174484   7.090   7.200   9.120  1.4117 -0.9483 -1.3449
23843SOL    HW274485   7.062   7.051   9.112 -1.2572 -0.6771  1.2500
23844SOL     OW74486   8.224   3.643   4.174  0.1819 -0.5504  0.3864
23844SOL    HW174487   8.205   3.565   4.226  0.0877 -0.2590  0.7921
23844SOL    HW274488   8.178   3.628   4.091 -2.8191  0.5943  1.7000
23845SOL     OW74489   7.472  10.119   6.054 -0.3779  0.0657 -0.0471
23845SOL    HW174490   7.447  10.039   6.100 -0.6481  1.5003  2.4724
23845SOL    HW274491   7.568  10.113   6.045 -0.5712 -1.4126 -1.7835
23846SOL     OW74492   5.016   9.651   1.939 -0.4485  0.1564  0.5549
23846SOL    HW174493   5.066   9.579   1.901  1.5154  1.3574  0.7335
23846SOL    HW274494   4.928   9.615   1.952  0.0449 -1.6836 -0.8409
23847SOL     OW74495  10.403   7.385   1.470  0.4302 -0.2622 -0.2810
23847SOL    HW174496  10.454   7.445   1.415  0.7457  0.0783  0.3776
23847SOL    HW274497  10.323   7.368   1.419 -0.2079  1.6359  0.0152
23848SOL     OW74498   7.360   2.849   3.510 -0.5028  0.7191  0.5917
23848SOL    HW174499   7.436   2.905   3.497  0.7333 -1.1871 -1.0911
23848SOL    HW274500   7.395   2.760   3.502 -2.6185 -0.2570  1.6080
23849SOL     OW74501   0.077   8.940   6.897  0.0228  0.6245  0.3254
23849SOL    HW174502   0.112   9.029   6.900 -0.6261  0.8799  0.5216
23849SOL    HW274503   0.147   8.886   6.935 -0.4324  1.3368  2.3343
23850SOL     OW74504  10.577   9.980   9.134 -0.6381 -0.5765 -0.7916
23850SOL    HW174505  10.482   9.973   9.136 -0.5373 -2.9327 -0.7157
23850SOL    HW274506  10.605   9.965   9.224 -0.1985  0.6140 -0.7152
23851SOL     OW74507   4.224   8.536   5.827 -0.3645 -0.4678  0.0615
23851SOL    HW174508   4.167   8.492   5.764  0.5357 -0.2596 -0.9396
23851SOL    HW274509   4.274   8.464   5.867  0.4402 -0.4771 -0.8980
23852SOL     OW74510   8.167   2.154   5.338 -0.0234 -0.5718 -0.5609
23852SOL    HW174511   8.085   2.124   5.299 -0.7005  0.3472  0.1043
23852SOL    HW274512   8.225   2.077   5.334 -0.2556 -0.6998 -2.7462
23853SOL     OW74513   9.520   1.703   7.073 -0.1976  0.0510  0.2202
23853SOL    HW174514   9.477   1.725   6.990  1.8694 -0.0076 -0.9308
23853SOL    HW274515   9.449   1.669   7.128 -2.5179  4.1663  0.1666
23854SOL     OW74516   9.160   8.483   3.180 -0.2834 -0.2603  0.1351
23854SOL    HW174517   9.098   8.518   3.243 -1.4991  1.3221 -1.8422
23854SOL    HW274518   9.107   8.452   3.107  1.0274 -2.6948  0.0995
23855SOL     OW74519   0.386   5.422   6.477  0.3880  0.3875 -0.3591
23855SOL    HW174520   0.452   5.456   6.537 -0.6497 -0.8106  1.5885
23855SOL    HW274521   0.307   5.413   6.531 -1.0080  0.5341 -2.2721
23856SOL     OW74522   6.959   5.012   3.440 -0.2708  0.5821  0.2264
23856SOL    HW174523   6.935   4.924   3.411 -2.0622  1.7172 -2.0263
23856SOL    HW274524   6.886   5.040   3.496 -0.0903  0.9244  0.2957
23857SOL     OW74525  10.206   8.303   3.042 -0.6788  0.2550  0.0462
23857SOL    HW174526  10.260   8.374   3.006  0.2439 -0.2654  0.3657
23857SOL    HW274527  10.239   8.292   3.131 -2.0157  0.6092  0.6066
23858SOL     OW74528   0.618   1.570   3.082 -0.0691 -0.0003 -0.4734
23858SOL    HW174529   0.706   1.555   3.119 -0.5809 -2.9929 -0.1477
23858SOL    HW274530   0.591   1.655   3.117  2.1444  0.3590  0.5588
23859SOL     OW74531   4.614   4.130   6.996  0.1902  0.0491 -0.3207
23859SOL    HW174532   4.581   4.045   6.967 -0.3215 -0.0690  0.5859
23859SOL    HW274533   4.565   4.193   6.943 -0.3157 -0.1822 -0.1390
23860SOL     OW74534   4.697   5.562   4.591 -0.8244 -0.4303 -0.0807
23860SOL    HW174535   4.783   5.520   4.598 -0.7781 -0.2447  0.5358
23860SOL    HW274536   4.649   5.508   4.530 -1.1829 -2.1004  1.5942
23861SOL     OW74537   4.731   0.560   2.254 -0.0266  0.4167  0.1656
23861SOL    HW174538   4.743   0.622   2.182  0.0586 -2.1518 -2.1872
23861SOL    HW274539   4.804   0.499   2.246  0.3403  0.3878  2.8956
23862SOL     OW74540   5.197   7.472   7.254  0.6258 -0.0615 -0.2103
23862SOL    HW174541   5.140   7.429   7.317 -0.0338 -0.6651 -1.1911
23862SOL    HW274542   5.234   7.547   7.302  0.2759 -0.5956  0.9248
23863SOL     OW74543   6.504   5.881   8.997  0.5491 -0.5666 -0.0368
23863SOL    HW174544   6.513   5.815   8.928  1.8444 -0.3917 -0.0557
23863SOL    HW274545   6.528   5.963   8.955  3.3761 -0.7245  1.0526
23864SOL     OW74546   1.354   7.640   2.216 -0.2794 -0.3162 -0.2928
23864SOL    HW174547   1.368   7.551   2.184 -1.4227 -0.2100 -1.1453
23864SOL    HW274548   1.355   7.694   2.137 -0.4213  0.3205  0.1315
23865SOL     OW74549   1.866   3.664   3.692 -0.1803 -0.7566  0.4732
23865SOL    HW174550   1.902   3.654   3.604  0.3516 -1.8805  0.8035
23865SOL    HW274551   1.775   3.687   3.678  0.6123  2.2424 -0.3873
23866SOL     OW74552   0.786   1.670   7.983  0.3488  0.1762 -0.0424
23866SOL    HW174553   0.693   1.648   7.985  0.6686 -1.2673  0.9183
23866SOL    HW274554   0.814   1.664   8.075  0.7655  3.6963  0.1714
23867SOL     OW74555   0.273   3.604   9.079 -0.5970  0.5209  0.0817
23867SOL    HW174556   0.178   3.594   9.080 -0.4766 -0.9417 -0.1480
23867SOL    HW274557   0.304   3.551   9.152  0.1433 -0.6716 -1.0621
23868SOL     OW74558   6.377   8.907   2.525  0.1286 -0.4247 -0.0182
23868SOL    HW174559   6.424   8.893   2.607 -2.2070 -0.4578  1.4015
23868SOL    HW274560   6.350   8.820   2.497  0.9477 -0.4193 -0.8883
23869SOL     OW74561   6.185   7.125  10.008  0.6379  0.1769 -0.0675
23869SOL    HW174562   6.270   7.143   9.968 -0.1107  1.9843 -0.9596
23869SOL    HW274563   6.182   7.180  10.086  0.8347 -0.9970  0.8036
23870SOL     OW74564   7.114   7.960   4.147 -0.2469  0.6135 -0.7484
23870SOL    HW174565   7.129   8.013   4.069 -2.2885  3.6023  0.7003
23870SOL    HW274566   7.028   7.920   4.133 -0.4297  0.8085 -0.2008
23871SOL     OW74567   5.693   3.663   1.747  0.3038  0.4158 -0.0004
23871SOL    HW174568   5.640   3.725   1.798  0.4785 -0.6682  1.5771
23871SOL    HW274569   5.637   3.586   1.739  0.5792  0.2917 -0.8180
23872SOL     OW74570   6.305   8.135   9.431  0.0857  0.6073  0.6461
23872SOL    HW174571   6.316   8.169   9.520  0.5231  0.0890  0.7956
23872SOL    HW274572   6.217   8.162   9.405 -0.1097  0.6114  1.3001
23873SOL     OW74573   0.873   5.533   4.621  0.1992  0.2102  0.1298
23873SOL    HW174574   0.932   5.524   4.546 -0.8308 -0.9137 -0.5877
23873SOL    HW274575   0.846   5.443   4.641  0.3163  0.5064  1.7479
23874SOL     OW74576   1.302   9.826   8.857 -0.1312 -0.0533  0.5771
23874SOL    HW174577   1.337   9.795   8.940  0.0472 -0.9747  0.1718
23874SOL    HW274578   1.352   9.779   8.790 -1.0411 -0.1939 -0.0299
23875SOL     OW74579   5.500   2.614   7.231 -0.5533 -0.8058  0.2338
23875SOL    HW174580   5.499   2.519   7.245 -0.7313 -0.5102  2.6732
23875SOL    HW274581   5.590   2.634   7.209 -0.8496 -1.6966 -2.0699
23876SOL     OW74582   3.061   1.962   3.870 -0.0598  0.1605 -0.1417
23876SOL    HW174583   2.969   1.935   3.871 -0.0641  0.0771  1.6516
23876SOL    HW274584   3.068   2.023   3.797 -1.4973 -0.0090 -0.4457
23877SOL     OW74585   8.212   2.673   5.744  0.2721 -0.0479 -0.5892
23877SOL    HW174586   8.139   2.612   5.752  0.0225  0.0873 -1.7076
23877SOL    HW274587   8.288   2.625   5.777 -0.3125 -0.1745  0.6394
23878SOL     OW74588   8.256   6.718   5.803  0.4908  0.3505 -0.3156
23878SOL    HW174589   8.298   6.672   5.731  0.4812 -0.4502  0.1832
23878SOL    HW274590   8.197   6.780   5.760 -0.8458 -1.3261 -1.0352
23879SOL     OW74591   6.900   0.252   3.740 -0.1253 -0.2329  0.2103
23879SOL    HW174592   6.827   0.189   3.735 -0.9675  0.5762  1.6429
23879SOL    HW274593   6.863   0.334   3.706  0.4412 -0.0723 -0.0250
23880SOL     OW74594   1.757   1.288   4.193 -0.4349  0.3361 -0.4545
23880SOL    HW174595   1.736   1.357   4.256  2.3018 -1.2029  2.4659
23880SOL    HW274596   1.839   1.317   4.153 -0.8462  0.1308 -1.4768
23881SOL     OW74597   4.179   4.114   1.474  0.1678  0.7366 -0.2293
23881SOL    HW174598   4.133   4.070   1.545  3.0648  1.1978  2.1294
23881SOL    HW274599   4.192   4.047   1.407 -0.6216 -0.3436  0.6784
23882SOL     OW74600   8.092   2.128   0.632 -0.4881  0.4091 -0.2767
23882SOL    HW174601   8.184   2.132   0.607 -0.3943 -0.1107 -0.0138
23882SOL    HW274602   8.045   2.162   0.555 -0.1634 -0.6415 -0.9628
23883SOL     OW74603   9.875   7.704  10.247 -0.1595 -0.0074 -0.3612
23883SOL    HW174604   9.853   7.796  10.235 -2.0147 -0.1662  1.3513
23883SOL    HW274605   9.947   7.705  10.310 -0.3240  0.2578 -0.1778
23884SOL     OW74606   7.518   3.883   8.388 -0.2751  0.4028 -0.0239
23884SOL    HW174607   7.509   3.925   8.302  0.3739  0.7164  0.0588
23884SOL    HW274608   7.477   3.797   8.376  1.3109 -0.2505 -1.1653
23885SOL     OW74609   4.092   2.431   1.552 -0.3794  0.5411 -0.0705
23885SOL    HW174610   4.089   2.474   1.637 -0.6538  0.8270 -0.2280
23885SOL    HW274611   4.042   2.350   1.564  0.3404  0.1410  0.2924
23886SOL     OW74612   7.403   7.335   7.249 -0.3210  0.2632  0.0015
23886SOL    HW174613   7.361   7.421   7.257 -0.7487 -0.0506  1.3645
23886SOL    HW274614   7.338   7.281   7.204 -0.0086  0.6715 -0.9548
23887SOL     OW74615   3.277  10.221   5.734 -0.3409  0.1212  0.1539
23887SOL    HW174616   3.322  10.171   5.802 -2.4622 -0.9997  0.8325
23887SOL    HW274617   3.314  10.189   5.651  1.9859  1.2162  0.7094
23888SOL     OW74618   6.673   7.862   9.554 -0.0718  0.0585 -0.5313
23888SOL    HW174619   6.620   7.941   9.569 -0.0498  0.2624 -1.5176
23888SOL    HW274620   6.734   7.860   9.628 -2.3555 -0.9702  1.4911
23889SOL     OW74621   7.210   7.792   9.507  0.3398  0.4747  0.0314
23889SOL    HW174622   7.287   7.771   9.454  1.4719  0.0268  1.7547
23889SOL    HW274623   7.177   7.706   9.535  0.0102  0.7152  0.3837
23890SOL     OW74624   0.514   9.897   6.097  0.2548 -0.0571 -0.0650
23890SOL    HW174625   0.558   9.819   6.064  0.7889  0.7855 -1.4131
23890SOL    HW274626   0.544   9.905   6.187  2.2419  0.0232 -0.6894
23891SOL     OW74627   7.729   3.301   8.345  0.3302 -0.3945 -0.0535
23891SOL    HW174628   7.674   3.355   8.289  0.7650  0.3409  0.2046
23891SOL    HW274629   7.731   3.348   8.429  2.0238  0.0704 -0.3157
23892SOL     OW74630   4.930   4.192   8.144 -0.1982 -0.0483  0.8546
23892SOL    HW174631   5.011   4.141   8.151  1.2871  2.2322  1.2107
23892SOL    HW274632   4.904   4.182   8.052  2.6246  2.0553 -0.3469
23893SOL     OW74633   3.777   1.737   8.244 -0.0317 -0.4602 -0.4974
23893SOL    HW174634   3.716   1.677   8.286  0.6752 -2.6893 -2.4088
23893SOL    HW274635   3.863   1.695   8.256  0.5647  0.4450 -1.4319
23894SOL     OW74636   8.787   4.040   9.475 -0.4182 -0.3266 -0.5334
23894SOL    HW174637   8.811   3.948   9.470  1.5165 -0.0044  1.1528
23894SOL    HW274638   8.712   4.050   9.417  0.2628 -2.6397 -1.9013
23895SOL     OW74639   3.922   8.568   2.315  0.4899  0.2225  0.1627
23895SOL    HW174640   3.955   8.551   2.403  0.6665 -0.3456 -0.0106
23895SOL    HW274641   3.993   8.541   2.256  0.4602  0.8055 -0.1503
23896SOL     OW74642   8.972   4.269   3.031 -0.3822 -0.1135 -0.0137
23896SOL    HW174643   8.937   4.357   3.019  1.2642  0.9528  2.3268
23896SOL    HW274644   8.966   4.252   3.125 -2.1659 -3.2483 -0.5303
23897SOL     OW74645   9.808   3.855  10.272  0.9491 -0.0236  0.0662
23897SOL    HW174646   9.866   3.922  10.307 -1.2712  1.0335  2.0340
23897SOL    HW274647   9.761   3.898  10.201  0.5828  0.0486  0.3478
23898SOL     OW74648   8.818   1.520   4.314  0.1866 -0.1638  0.2033
23898SOL    HW174649   8.725   1.501   4.326  0.1971 -1.6338 -1.5013
23898SOL    HW274650   8.820   1.599   4.261 -0.1903 -1.1124 -1.2909
23899SOL     OW74651   9.867   1.456   0.814 -0.0873 -0.2003  0.1196
23899SOL    HW174652   9.792   1.502   0.851 -1.1780 -1.6381 -0.1887
23899SOL    HW274653   9.837   1.428   0.727  1.0336 -0.2394 -0.2636
23900SOL     OW74654   9.913   4.631   2.546 -0.1943  0.5189 -0.3068
23900SOL    HW174655   9.935   4.677   2.465 -0.5055 -0.3746 -0.9180
23900SOL    HW274656   9.822   4.602   2.533 -0.0149 -0.2359  0.0698
23901SOL     OW74657   1.287   9.034   6.142  0.6036 -0.3527 -0.4324
23901SOL    HW174658   1.291   9.043   6.237  0.3942  0.9976 -0.5261
23901SOL    HW274659   1.281   8.940   6.126 -1.5599 -0.5284  0.9944
23902SOL     OW74660   8.821   8.864   6.300 -0.6560  0.2224  0.4868
23902SOL    HW174661   8.751   8.800   6.309  0.0388 -0.5304  0.6016
23902SOL    HW274662   8.863   8.843   6.216 -0.3995  0.4985  0.5424
23903SOL     OW74663   5.618   2.465   3.099 -0.3202 -0.5245  0.0482
23903SOL    HW174664   5.643   2.488   3.010 -0.0510 -1.2368 -0.0704
23903SOL    HW274665   5.614   2.548   3.145  2.5895 -0.3383  0.1682
23904SOL     OW74666   1.537   5.440   1.826  0.0532 -0.0828 -0.4635
23904SOL    HW174667   1.571   5.392   1.751 -0.1886  0.8916 -1.2095
23904SOL    HW274668   1.598   5.420   1.897  0.5624 -0.6116 -1.0423
23905SOL     OW74669   9.057   9.326   3.098  0.3377 -0.0851  0.0895
23905SOL    HW174670   9.140   9.372   3.109 -0.1954  0.8944  0.0591
23905SOL    HW274671   9.000   9.363   3.165 -0.3705 -0.0715 -0.5137
23906SOL     OW74672   9.340   5.479   5.846 -0.4721  0.3966  0.2623
23906SOL    HW174673   9.275   5.455   5.912 -2.3077  1.0568 -1.2076
23906SOL    HW274674   9.354   5.573   5.859 -3.1290  1.2552 -2.0168
23907SOL     OW74675   3.034   3.598   6.460  0.5130  0.0276 -0.0010
23907SOL    HW174676   3.038   3.578   6.367 -1.2395 -0.1221 -0.0758
23907SOL    HW274677   3.102   3.543   6.499  1.0771 -0.1219 -1.1490
23908SOL     OW74678   9.509   4.875   6.670 -0.8099  0.5759  0.0494
23908SOL    HW174679   9.593   4.918   6.680 -0.0270 -0.4328 -1.6228
23908SOL    HW274680   9.505   4.852   6.577 -2.1531 -0.9555  0.4348
23909SOL     OW74681   6.228   1.424   4.480  0.0780 -0.1539 -0.4766
23909SOL    HW174682   6.204   1.375   4.558 -0.3554 -0.6708 -0.9250
23909SOL    HW274683   6.178   1.505   4.485  1.7374  0.8531  0.9045
23910SOL     OW74684   1.408   4.377   6.009 -0.2658 -0.3846  0.3564
23910SOL    HW174685   1.465   4.316   6.057 -0.0603 -0.7038 -0.2889
23910SOL    HW274686   1.458   4.458   6.004  0.2564 -0.7460 -0.4436
23911SOL     OW74687   8.955   8.811   6.075 -0.3205  0.3061 -0.3316
23911SOL    HW174688   8.917   8.751   6.010 -2.1923  1.6280 -0.5344
23911SOL    HW274689   8.993   8.882   6.022 -0.8028  0.7928 -0.0345
23912SOL     OW74690   2.430  10.336   4.617  0.8108 -0.8024 -0.1646
23912SOL    HW174691   2.366  10.335   4.547 -0.7450 -0.8178  1.2028
23912SOL    HW274692   2.379  10.329   4.698  2.6106 -2.3428  0.9454
23913SOL     OW74693   7.178   6.577   7.009 -0.2341 -0.1987 -0.1004
23913SOL    HW174694   7.141   6.627   7.081 -0.2207 -0.1057 -0.1571
23913SOL    HW274695   7.103   6.558   6.952  0.0738  1.6177 -1.1880
23914SOL     OW74696   1.168   1.162   4.494  0.3038 -0.3307 -0.7624
23914SOL    HW174697   1.124   1.159   4.579 -0.3693 -0.8803 -1.1281
23914SOL    HW274698   1.215   1.246   4.496  0.4334 -0.4059  0.2112
23915SOL     OW74699   6.153   3.793   1.233  0.7539 -0.1537  0.5952
23915SOL    HW174700   6.239   3.830   1.253  0.0866  0.8394  1.7344
23915SOL    HW274701   6.094   3.868   1.230 -0.7159 -1.0532  3.3377
23916SOL     OW74702   8.015   1.217  10.390  0.3072  0.0922 -0.1446
23916SOL    HW174703   8.102   1.239  10.358  1.0210 -1.0439  0.9161
23916SOL    HW274704   8.011   1.254  10.478 -0.1926 -0.0564 -0.1002
23917SOL     OW74705   7.162   1.790   5.358 -0.4254 -0.3200  0.0839
23917SOL    HW174706   7.113   1.797   5.277 -1.0267  0.2397  0.4842
23917SOL    HW274707   7.133   1.865   5.410 -0.4674 -0.9760  1.0360
23918SOL     OW74708   1.496   4.715   6.670 -0.0279 -0.4249  0.5863
23918SOL    HW174709   1.523   4.635   6.715 -0.2361 -0.5862  0.4293
23918SOL    HW274710   1.565   4.732   6.606 -0.1830 -0.7090  0.3416
23919SOL     OW74711   3.496   5.452   8.468 -0.3460  0.2387  0.1737
23919SOL    HW174712   3.532   5.407   8.391  0.2681 -0.1590  0.6827
23919SOL    HW274713   3.570   5.457   8.529 -1.6164 -2.4744  2.1193
23920SOL     OW74714   4.365   5.382  10.085  0.3816 -0.6771  0.9382
23920SOL    HW174715   4.420   5.460  10.078  2.8329 -2.3690 -0.4788
23920SOL    HW274716   4.319   5.392  10.168  1.4583  1.7426  1.3240
23921SOL     OW74717   2.236   5.211   4.608 -0.0787 -0.8718 -0.5133
23921SOL    HW174718   2.322   5.245   4.581  0.0693 -0.9820 -0.1908
23921SOL    HW274719   2.255   5.158   4.685 -0.4824 -0.6211 -0.2360
23922SOL     OW74720   3.782   4.089   9.006 -0.2988  0.1739 -0.6797
23922SOL    HW174721   3.826   4.107   9.089 -0.1576 -0.6259 -0.5794
23922SOL    HW274722   3.853   4.065   8.946 -0.4063  0.6930 -1.0232
23923SOL     OW74723   9.323   9.996   8.200  0.7287 -0.4676  0.4139
23923SOL    HW174724   9.235  10.033   8.207  1.0353  0.4047 -0.2234
23923SOL    HW274725   9.308   9.904   8.181 -0.0630 -0.1833 -0.4428
23924SOL     OW74726   4.597   5.013  10.666  0.3035  0.1071 -0.6878
23924SOL    HW174727   4.685   4.991  10.635 -0.0851 -0.2882 -1.5578
23924SOL    HW274728   4.568   5.084  10.609  0.3124  0.7098  0.0417
23925SOL     OW74729   7.432   8.243   1.867 -0.1949  0.2846 -0.2880
23925SOL    HW174730   7.514   8.269   1.908 -0.6782  1.8718 -0.2263
23925SOL    HW274731   7.402   8.168   1.918 -0.2787  1.5713  1.6810
23926SOL     OW74732   9.003  10.517   9.483  0.4452 -0.2115  0.0307
23926SOL    HW174733   8.979  10.438   9.434 -0.8273  0.1496  0.0256
23926SOL    HW274734   8.994  10.492   9.575  0.0068 -0.0764  0.0288
23927SOL     OW74735   9.460  10.137   3.543 -0.4115  0.4178  0.2171
23927SOL    HW174736   9.503  10.215   3.509  0.1864  0.0883  0.2015
23927SOL    HW274737   9.417  10.099   3.466 -0.5504  0.6285  0.1891
23928SOL     OW74738   3.959   7.050   9.369  0.5214 -0.8609  0.0833
23928SOL    HW174739   4.043   7.083   9.336  0.8469  1.3665  2.7353
23928SOL    HW274740   3.924   6.997   9.297  2.3349  1.3643 -2.6630
23929SOL     OW74741  10.408   6.994   9.307  0.3683  0.5374 -0.0112
23929SOL    HW174742  10.316   7.001   9.283  0.3802 -0.0415 -0.2587
23929SOL    HW274743  10.410   7.012   9.401  0.1868  1.8412 -0.2427
23930SOL     OW74744   1.830   9.044   2.388 -0.4620  0.8778 -0.0773
23930SOL    HW174745   1.822   9.112   2.321  1.0820  1.0670 -0.0936
23930SOL    HW274746   1.880   8.974   2.346 -2.3397 -0.4753 -0.1766
23931SOL     OW74747   6.857   8.098   5.521 -0.3370 -0.2157  0.1966
23931SOL    HW174748   6.818   8.013   5.541 -1.6854 -0.2657 -2.2896
23931SOL    HW274749   6.938   8.078   5.476 -0.5776 -0.1968 -0.2496
23932SOL     OW74750   0.994   9.836   0.934  0.3768  0.0948  0.2618
23932SOL    HW174751   1.001   9.870   1.023 -1.9524 -0.6536  0.8281
23932SOL    HW274752   0.999   9.741   0.945  1.0007  0.0339 -0.5271
23933SOL     OW74753   5.532   8.559   0.599 -0.2762 -0.1040 -0.2157
23933SOL    HW174754   5.461   8.553   0.663 -0.2866 -0.4308 -0.2538
23933SOL    HW274755   5.487   8.555   0.514 -0.2033 -0.4800 -0.2399
23934SOL     OW74756   8.326   3.275   0.527  0.4638 -0.0674  0.1195
23934SOL    HW174757   8.331   3.183   0.551  0.5109  0.5599  2.7756
23934SOL    HW274758   8.361   3.278   0.438  1.6485 -2.4296  0.4237
23935SOL     OW74759   9.388   9.847   6.421  0.2042 -0.2798  0.2538
23935SOL    HW174760   9.326   9.896   6.475  1.4086  0.4747  1.0068
23935SOL    HW274761   9.445   9.803   6.484  1.7493  0.7599 -0.3391
23936SOL     OW74762   3.851   9.778   5.285 -0.0398 -0.2241  0.0192
23936SOL    HW174763   3.842   9.696   5.334  1.3328  0.0777  0.8457
23936SOL    HW274764   3.927   9.764   5.229 -0.5200  0.0691 -0.7115
23937SOL     OW74765   6.952   9.913   6.208  0.6257 -0.0633  0.3583
23937SOL    HW174766   7.044   9.896   6.229  0.4819 -0.1690  0.9017
23937SOL    HW274767   6.950   9.917   6.112  1.0172 -1.0958  0.2964
23938SOL     OW74768   2.859   7.235   7.422 -1.0857 -0.0170 -0.1433
23938SOL    HW174769   2.868   7.215   7.329 -1.3066  1.0483 -0.4060
23938SOL    HW274770   2.790   7.301   7.425 -1.2271 -0.1959  0.8047
23939SOL     OW74771   3.009  10.416   1.371  2.0571 -0.3277 -0.2037
23939SOL    HW174772   3.076  10.352   1.346  0.6437 -1.2807 -1.7672
23939SOL    HW274773   2.934  10.363   1.398 -0.0973  0.4093 -4.0010
23940SOL     OW74774   2.773   8.719   2.637  0.2432 -0.0005  0.2214
23940SOL    HW174775   2.727   8.802   2.647 -0.8129 -0.7176  1.5964
23940SOL    HW274776   2.864   8.744   2.617 -0.2426  1.4491 -0.2607
23941SOL     OW74777   7.577   4.255   1.786  0.1715 -0.0103 -0.4520
23941SOL    HW174778   7.509   4.268   1.852  1.2147  0.9575  0.4842
23941SOL    HW274779   7.568   4.330   1.727  1.4572  1.0628  0.6511
23942SOL     OW74780  10.304   4.767   4.852  0.2289  0.3355  0.2782
23942SOL    HW174781  10.325   4.833   4.786 -1.3736 -0.2356 -0.8471
23942SOL    HW274782  10.216   4.789   4.881  0.2772 -0.4151  1.0238
23943SOL     OW74783   1.456   3.898   0.089 -0.0037 -0.0902 -0.0003
23943SOL    HW174784   1.497   3.979   0.120  0.7769  0.2190 -1.7128
23943SOL    HW274785   1.362   3.915   0.096  0.1496  0.8540 -0.0487
23944SOL     OW74786   1.706   8.033   5.372 -0.2270 -0.5075 -0.2698
23944SOL    HW174787   1.618   8.064   5.389  0.1808  0.4848  0.1196
23944SOL    HW274788   1.763   8.095   5.418  0.7709  0.1430 -2.2609
23945SOL     OW74789   4.042   9.997   3.524 -0.2488 -0.0262 -0.2736
23945SOL    HW174790   4.121  10.051   3.519  0.5533 -1.1229  0.2308
23945SOL    HW274791   3.977  10.054   3.564  0.8841  0.2669  1.2471
23946SOL     OW74792   0.686   5.160   2.781  0.3174  0.3197  0.6998
23946SOL    HW174793   0.620   5.192   2.718 -0.7448 -1.0529  1.0780
23946SOL    HW274794   0.734   5.092   2.733  0.9867  0.8034  0.6706
23947SOL     OW74795   6.442   1.697   0.494  0.2006  0.4177 -0.7571
23947SOL    HW174796   6.532   1.710   0.525  0.3974 -1.1028 -0.6240
23947SOL    HW274797   6.390   1.754   0.551  1.2195  2.8255 -2.0821
23948SOL     OW74798   1.746   3.910   7.684 -0.1951  0.1575 -0.0777
23948SOL    HW174799   1.761   3.985   7.626  0.9588  0.1091  0.1416
23948SOL    HW274800   1.667   3.933   7.733 -0.0124  1.1122 -0.2109
23949SOL     OW74801   4.267   5.865   8.405 -0.1078 -0.9196 -0.3195
23949SOL    HW174802   4.354   5.829   8.391  0.3052 -0.1733  0.2385
23949SOL    HW274803   4.207   5.793   8.385  0.6463 -1.5342 -0.4011
23950SOL     OW74804   9.212   2.728   1.088 -0.6373 -0.0748  0.2223
23950SOL    HW174805   9.179   2.675   1.161  1.3208 -1.0114  0.5079
23950SOL    HW274806   9.182   2.683   1.010  0.2364 -1.1440  0.4724
23951SOL     OW74807   8.148   3.817   2.759 -0.5173  0.1132 -0.4410
23951SOL    HW174808   8.084   3.819   2.688 -0.3228 -1.9160 -0.7225
23951SOL    HW274809   8.120   3.745   2.815  1.0723 -0.3400 -0.1640
23952SOL     OW74810   0.583   4.027   3.978 -0.1570  0.5123  0.0759
23952SOL    HW174811   0.516   4.094   3.991  0.6183  0.9657  1.9848
23952SOL    HW274812   0.630   4.056   3.900 -1.2533  0.9437 -0.4611
23953SOL     OW74813   9.668   3.252   7.882 -0.4717  0.1992 -0.0244
23953SOL    HW174814   9.696   3.333   7.925  0.4594  0.6974 -1.4646
23953SOL    HW274815   9.573   3.250   7.893 -0.3187  0.5810  1.5266
23954SOL     OW74816  10.265   6.392   8.861 -0.0601 -0.2306  0.2577
23954SOL    HW174817  10.339   6.351   8.817 -0.7040 -0.6307 -0.4712
23954SOL    HW274818  10.253   6.341   8.941  0.6827  0.0737  0.5724
23955SOL     OW74819   4.399   3.298   9.080  0.0502 -0.2355 -0.5702
23955SOL    HW174820   4.431   3.218   9.121 -0.3551  0.1293  0.4817
23955SOL    HW274821   4.314   3.273   9.043  0.6087 -0.6757 -1.5977
23956SOL     OW74822   3.238   6.819   7.303 -0.2517  0.1733  0.3411
23956SOL    HW174823   3.233   6.805   7.208  0.9020  0.7556  0.1696
23956SOL    HW274824   3.330   6.842   7.318 -0.8194  1.9513  1.3357
23957SOL     OW74825   0.743   4.218   3.021 -0.2214  0.5818  0.5298
23957SOL    HW174826   0.818   4.183   2.972  0.0611  1.3533  0.4041
23957SOL    HW274827   0.713   4.293   2.969 -1.3108  0.0755  0.3925
23958SOL     OW74828   1.315   6.461   2.244 -0.3277  0.3242  0.1413
23958SOL    HW174829   1.231   6.480   2.203  0.7894 -0.6375 -2.8066
23958SOL    HW274830   1.379   6.509   2.192  1.1316 -0.3588  1.2290
23959SOL     OW74831   3.063   5.231   0.106 -0.2074 -0.2502 -0.3944
23959SOL    HW174832   3.122   5.282   0.050 -0.1967 -1.0151 -1.0883
23959SOL    HW274833   3.058   5.283   0.187  0.3294  0.5165 -0.8284
23960SOL     OW74834   6.844   2.506  10.561  0.3319  0.0665  0.2265
23960SOL    HW174835   6.813   2.419  10.586  0.1102  0.3003  0.7858
23960SOL    HW274836   6.765   2.553  10.535  0.4672  0.0594 -0.1967
23961SOL     OW74837  10.312   4.485   3.714  0.1118 -0.4845  0.0265
23961SOL    HW174838  10.329   4.574   3.683  0.7808 -0.4635  0.4314
23961SOL    HW274839  10.243   4.495   3.779  0.4820 -0.1999  0.3825
23962SOL     OW74840  10.070  10.570   5.675  0.7350 -0.3772 -0.1831
23962SOL    HW174841  10.014  10.623   5.618 -0.6842  0.7521  2.0718
23962SOL    HW274842  10.099  10.630   5.743  0.4722 -2.0912  1.5499
23963SOL     OW74843  10.528   3.281   0.582  0.3553 -0.5770 -0.8144
23963SOL    HW174844  10.546   3.195   0.620  0.1933 -0.4199 -0.3761
23963SOL    HW274845  10.610   3.306   0.540  1.2272  0.1209  1.1485
23964SOL     OW74846   5.620   3.569   5.934 -0.5298 -0.1007 -0.5100
23964SOL    HW174847   5.536   3.614   5.922 -0.3488  1.0081  1.7565
23964SOL    HW274848   5.596   3.481   5.961 -0.9881  0.2925  0.4071
23965SOL     OW74849  10.491   8.247   9.007  0.9339 -0.9719  0.3438
23965SOL    HW174850  10.428   8.242   8.935  2.0445  1.8867 -0.9515
23965SOL    HW274851  10.440   8.276   9.082  0.3041 -0.9525 -0.0874
23966SOL     OW74852   7.932   9.296   6.565  0.8553  0.0900  0.2793
23966SOL    HW174853   7.958   9.252   6.646  2.1723  0.2797 -0.0147
23966SOL    HW274854   7.871   9.364   6.593  2.1139  0.8547  1.2645
23967SOL     OW74855   3.597   7.244   7.198  0.4241 -0.0374  0.1949
23967SOL    HW174856   3.648   7.270   7.275 -0.4047  0.3966  0.6130
23967SOL    HW274857   3.508   7.275   7.217 -0.3368 -2.0458  0.1314
23968SOL     OW74858   5.378   7.207   8.546 -0.6705 -0.0095 -0.8499
23968SOL    HW174859   5.440   7.279   8.548  1.8891 -2.0900  0.8406
23968SOL    HW274860   5.348   7.198   8.637 -2.1940 -0.1423 -1.3268
23969SOL     OW74861   6.208   8.589  10.552 -0.2310  1.0606  0.2132
23969SOL    HW174862   6.269   8.541  10.496 -1.1947  1.4084 -1.2083
23969SOL    HW274863   6.136   8.612  10.493 -1.0155  1.9572  1.4869
23970SOL     OW74864   6.972   5.930   0.138  0.0755  0.0523 -0.0500
23970SOL    HW174865   6.924   5.925   0.056 -0.0531  1.1019 -0.0601
23970SOL    HW274866   7.048   5.986   0.118  0.5817 -0.4941  0.3009
23971SOL     OW74867   1.208   4.041   0.721  0.2068  0.1400  0.3102
23971SOL    HW174868   1.154   4.032   0.800 -0.2286  0.1700  0.0184
23971SOL    HW274869   1.244   4.130   0.726 -0.7776  0.5705 -0.1226
23972SOL     OW74870   8.685   1.896   8.508 -0.1680 -0.1696 -0.2252
23972SOL    HW174871   8.772   1.865   8.533  0.1328  3.6257  5.1827
23972SOL    HW274872   8.695   1.924   8.417  4.1747 -0.2972  0.0060
23973SOL     OW74873   0.497   3.472   8.966  0.2014  0.4017  0.5801
23973SOL    HW174874   0.414   3.495   9.007 -0.7088  0.2944 -1.1329
23973SOL    HW274875   0.529   3.555   8.928  0.2649  0.2038  0.1944
23974SOL     OW74876   0.256   1.775   6.993 -0.0335 -0.3064  0.2910
23974SOL    HW174877   0.343   1.812   7.010 -0.3597 -0.1404  1.7161
23974SOL    HW274878   0.211   1.842   6.943  0.3842 -0.0485  0.2527
23975SOL     OW74879   1.624   3.583   0.952 -0.1196  0.2475 -0.8989
23975SOL    HW174880   1.713   3.552   0.968  0.2878  0.5717 -2.3829
23975SOL    HW274881   1.570   3.503   0.952  0.4378 -0.1389 -1.6156
23976SOL     OW74882   5.448   3.465   5.339  0.2864  0.0290 -0.1738
23976SOL    HW174883   5.447   3.499   5.250 -0.0648  0.9096  0.1544
23976SOL    HW274884   5.519   3.400   5.339  1.2460  1.0369 -0.7358
23977SOL     OW74885   3.367   2.474   5.599  0.2076 -0.0854  0.1198
23977SOL    HW174886   3.407   2.454   5.515 -1.4701  1.4643 -1.1162
23977SOL    HW274887   3.274   2.485   5.580 -0.2997 -0.1616  2.2712
23978SOL     OW74888   1.281   7.346   8.025 -0.2713  0.5920  0.0134
23978SOL    HW174889   1.262   7.332   7.933  1.5022  2.7920 -0.7956
23978SOL    HW274890   1.219   7.414   8.053 -1.0522 -0.3305  0.5795
23979SOL     OW74891   3.772   0.617   0.212  0.0448 -0.4186 -0.5271
23979SOL    HW174892   3.681   0.601   0.237 -0.7105  2.4068 -1.1029
23979SOL    HW274893   3.811   0.660   0.288 -0.7390  3.2533 -1.9868
23980SOL     OW74894   6.490   4.249   6.469  0.5020 -0.3569 -0.2171
23980SOL    HW174895   6.408   4.255   6.419  1.0847  1.8456 -1.0513
23980SOL    HW274896   6.500   4.156   6.488 -1.9400 -0.7488 -0.5139
23981SOL     OW74897   5.955   2.231  10.355  0.4417 -0.1158  0.5872
23981SOL    HW174898   6.009   2.268  10.286  1.2675 -0.9482  0.7661
23981SOL    HW274899   5.962   2.137  10.344  0.9765 -0.2819  2.0878
23982SOL     OW74900   2.140   3.636   3.029 -0.3274 -0.2447  0.2998
23982SOL    HW174901   2.229   3.642   2.995  0.3635  1.9539  2.2427
23982SOL    HW274902   2.119   3.543   3.022  1.7704 -0.6934 -1.0257
23983SOL     OW74903   8.746   2.520   7.648  0.8193  0.1087 -0.0388
23983SOL    HW174904   8.689   2.499   7.722 -0.2158  0.4935 -0.7113
23983SOL    HW274905   8.788   2.603   7.673 -0.4883  0.9095 -0.3938
23984SOL     OW74906   6.338   7.587   2.710  0.1509 -0.0740 -0.5721
23984SOL    HW174907   6.276   7.554   2.645  1.5260 -4.0110 -0.1686
23984SOL    HW274908   6.284   7.637   2.772 -2.0183 -0.5634 -1.9671
23985SOL     OW74909   6.863  10.354   1.234  0.5799 -0.4084  0.3369
23985SOL    HW174910   6.800  10.283   1.230 -0.0423  0.1834 -2.3411
23985SOL    HW274911   6.948  10.313   1.214  0.5113 -0.6854  0.6137
23986SOL     OW74912   7.301   1.305  10.136  0.3990 -0.2008 -0.6109
23986SOL    HW174913   7.341   1.373  10.081 -1.1058  0.9023 -0.3855
23986SOL    HW274914   7.317   1.334  10.226 -2.0416  1.0449 -0.4937
23987SOL     OW74915   2.059   8.189   6.456  0.5137 -0.0393 -0.1720
23987SOL    HW174916   2.051   8.256   6.524  0.5170 -1.4209  1.2589
23987SOL    HW274917   2.010   8.224   6.382 -0.4012  1.0609  0.9072
23988SOL     OW74918   6.086   9.821   5.024  0.3690  0.2116 -0.6495
23988SOL    HW174919   6.120   9.896   5.073  2.2203 -0.9278 -0.0697
23988SOL    HW274920   6.045   9.766   5.091  1.2320 -0.4418 -0.6297
23989SOL     OW74921   5.934   2.612   6.947 -0.1680  0.3546 -0.4628
23989SOL    HW174922   6.027   2.593   6.939 -0.1216  0.9908 -1.7634
23989SOL    HW274923   5.928   2.707   6.939 -1.1149  0.1623 -3.5203
23990SOL     OW74924   6.380   9.400  10.158  0.7119  0.2354 -0.1030
23990SOL    HW174925   6.294   9.438  10.173  0.5462 -0.0871 -0.2322
23990SOL    HW274926   6.419   9.394  10.245 -1.3968 -4.3987  0.8386
23991SOL     OW74927   5.339   8.718   4.274 -0.5894  0.3180 -0.0032
23991SOL    HW174928   5.326   8.812   4.265 -0.8311  0.3429  0.5751
23991SOL    HW274929   5.400   8.709   4.348 -0.7675  0.0108  0.1086
23992SOL     OW74930   3.628   2.630   6.731 -0.0247 -0.0812  0.5386
23992SOL    HW174931   3.649   2.578   6.808  0.6067  0.1612  0.5370
23992SOL    HW274932   3.577   2.571   6.675 -0.3189 -0.3177  1.0463
23993SOL     OW74933   7.711   4.757   3.634  0.5281  0.0516  0.5088
23993SOL    HW174934   7.799   4.776   3.666 -0.1147  1.1614  1.7285
23993SOL    HW274935   7.653   4.788   3.704 -0.8986  1.2440 -1.1314
23994SOL     OW74936   3.497   5.989   7.785  0.0284  0.1113 -0.0487
23994SOL    HW174937   3.469   5.906   7.748 -0.9392  0.9693 -1.3301
23994SOL    HW274938   3.531   5.967   7.872 -1.1745 -1.4714  0.0591
23995SOL     OW74939   2.979   2.701   8.102 -0.2688  0.4665  0.0311
23995SOL    HW174940   3.038   2.649   8.047 -0.4682  1.4319 -1.1320
23995SOL    HW274941   3.028   2.781   8.120 -1.4503  1.5983 -1.5495
23996SOL     OW74942   9.761   6.508   8.623 -0.1456  0.3428 -0.4264
23996SOL    HW174943   9.844   6.531   8.666  0.3809 -2.5762  0.4085
23996SOL    HW274944   9.752   6.572   8.553  3.1662  0.4419 -0.9511
23997SOL     OW74945   3.085   2.199   8.333 -0.3008  0.0741  0.4936
23997SOL    HW174946   3.036   2.163   8.260  3.0912 -1.8562 -1.0568
23997SOL    HW274947   3.099   2.291   8.309 -3.8348  1.0555  1.5487
23998SOL     OW74948   3.706   3.989   2.350  0.0039 -0.2247  0.2070
23998SOL    HW174949   3.696   3.957   2.440 -0.0859  0.5447  0.4786
23998SOL    HW274950   3.661   3.924   2.296  0.9510 -1.2436  0.6115
23999SOL     OW74951   4.109   7.367   8.410  0.7832 -0.0812  0.1357
23999SOL    HW174952   4.094   7.299   8.476  0.7470 -0.7982 -0.5980
23999SOL    HW274953   4.129   7.319   8.330 -1.2487  0.7070 -0.9281
24000SOL     OW74954   1.861   4.781   1.230 -0.1340 -0.0268 -0.1421
24000SOL    HW174955   1.956   4.791   1.228 -0.2822  1.6729  0.2370
24000SOL    HW274956   1.841   4.729   1.152  1.1452 -0.9490  0.1102
24001SOL     OW74957  10.299   6.377   5.212  0.5551 -0.1331 -0.0276
24001SOL    HW174958  10.290   6.311   5.281 -1.0738 -0.8243 -0.8321
24001SOL    HW274959  10.310   6.325   5.132  0.2267  0.5906 -0.5512
24002SOL     OW74960  10.158  10.286   7.481  0.5744 -0.2028  0.0568
24002SOL    HW174961  10.193  10.227   7.414  0.6830  0.9601 -0.9274
24002SOL    HW274962  10.194  10.252   7.563  0.6511 -1.4869 -0.4889
24003SOL     OW74963   1.093   2.439   1.721 -0.3236 -0.2817 -0.0828
24003SOL    HW174964   1.183   2.472   1.731 -0.1507 -0.9147  0.5714
24003SOL    HW274965   1.061   2.429   1.811 -1.4765  1.0308 -0.3214
24004SOL     OW74966   7.930   3.239   4.002  0.0382 -0.1779 -0.3338
24004SOL    HW174967   7.908   3.286   3.921  0.3425 -0.7434 -0.7577
24004SOL    HW274968   7.924   3.146   3.977  2.3384 -0.3797 -0.3430
24005SOL     OW74969   6.624   3.650   9.060  0.2663 -0.3154  0.4914
24005SOL    HW174970   6.586   3.657   9.148  0.5773 -2.0912  0.8050
24005SOL    HW274971   6.704   3.702   9.064  0.3889 -0.5550  1.3497
24006SOL     OW74972   5.745   6.562  10.511  0.2137  0.1828 -0.1767
24006SOL    HW174973   5.838   6.583  10.516  0.5198 -1.1695  0.1286
24006SOL    HW274974   5.727   6.512  10.591 -0.8392  0.6412 -0.1079
24007SOL     OW74975  10.144   1.616   9.231  0.0351 -0.6348 -0.2422
24007SOL    HW174976  10.173   1.531   9.264  1.1735 -1.2577 -2.5925
24007SOL    HW274977  10.224   1.669   9.228 -0.3648 -0.0275 -0.3220
24008SOL     OW74978   4.673   5.893  10.175  0.6198 -0.3441 -0.9272
24008SOL    HW174979   4.716   5.978  10.179 -1.3929  0.6935  0.2539
24008SOL    HW274980   4.678   5.859  10.264 -0.8819 -0.2085 -0.7541
24009SOL     OW74981   6.573   4.197   0.543 -0.4988 -0.8456  0.3033
24009SOL    HW174982   6.613   4.284   0.537 -0.8009 -0.5104  2.3943
24009SOL    HW274983   6.523   4.188   0.462  0.0516  0.6688 -0.2386
24010SOL     OW74984   1.377   6.127   9.759  0.4438  0.5799 -0.7768
24010SOL    HW174985   1.453   6.154   9.810  0.2808 -1.8284  0.9193
24010SOL    HW274986   1.406   6.048   9.713 -0.5123  0.6774 -1.5849
24011SOL     OW74987   4.213   2.960   2.651 -0.2145  0.2779  0.3401
24011SOL    HW174988   4.245   2.882   2.605 -1.6537  0.0619 -0.3467
24011SOL    HW274989   4.249   3.033   2.601  2.4760  0.1663  1.8982
24012SOL     OW74990   1.826   4.097   8.376 -0.0439  0.8355 -0.5930
24012SOL    HW174991   1.786   4.051   8.448  0.2344  0.3748 -0.7290
24012SOL    HW274992   1.817   4.190   8.398 -0.3932  0.7091 -0.2088
24013SOL     OW74993   7.150   6.755   1.837  0.0557  0.4344 -0.3846
24013SOL    HW174994   7.222   6.801   1.795  1.5265 -1.1290  0.2925
24013SOL    HW274995   7.131   6.682   1.779 -0.0091  0.0340  0.1329
24014SOL     OW74996   1.497   0.242   0.646 -0.0666  0.1990  0.3852
24014SOL    HW174997   1.573   0.189   0.621 -0.4650 -0.9236  1.4765
24014SOL    HW274998   1.494   0.235   0.741 -1.1448  0.7987  0.4021
24015SOL     OW74999   1.630   4.124   5.269 -0.0937  0.3203  0.1572
24015SOL    HW175000   1.599   4.124   5.179  0.2098  2.3155 -0.0109
24015SOL    HW275001   1.557   4.162   5.319 -1.0258 -2.5105  1.1273
24016SOL     OW75002   1.520   1.604   3.249  0.0508  0.0999  0.2139
24016SOL    HW175003   1.436   1.639   3.218 -0.8810 -2.0360  0.1727
24016SOL    HW275004   1.520   1.624   3.342 -1.0120 -0.7579  0.4254
24017SOL     OW75005   6.305   2.761   4.286  0.1325  0.5968  0.6764
24017SOL    HW175006   6.286   2.832   4.225  0.9513  1.0669  0.9594
24017SOL    HW275007   6.229   2.702   4.278  0.4574  0.3564 -1.1862
24018SOL     OW75008   6.487   1.918   9.845 -0.0326 -0.0899  0.4831
24018SOL    HW175009   6.565   1.969   9.823  0.5864 -0.5081  1.6332
24018SOL    HW275010   6.416   1.982   9.847 -0.2253 -0.0279 -2.8423
24019SOL     OW75011   6.170   9.101   6.767  0.3461  0.7261  0.4701
24019SOL    HW175012   6.248   9.102   6.711  0.2122  0.0250  0.2538
24019SOL    HW275013   6.100   9.070   6.709  0.4452 -1.2195  1.3069
24020SOL     OW75014   6.589   9.534   2.638 -0.3715 -0.0341  0.0121
24020SOL    HW175015   6.539   9.533   2.719  0.8188 -1.3015  0.7745
24020SOL    HW275016   6.574   9.448   2.598  0.2623  0.0106 -0.3402
24021SOL     OW75017   4.225   7.018   0.903  0.2292 -0.2053  0.6563
24021SOL    HW175018   4.213   7.106   0.867 -1.3295 -0.8830 -0.6164
24021SOL    HW275019   4.139   6.993   0.936  0.2473 -1.8088 -0.3905
24022SOL     OW75020   1.756   6.664   0.377 -0.1620 -0.2160  1.1508
24022SOL    HW175021   1.840   6.668   0.422  1.4295 -1.6272 -1.4537
24022SOL    HW275022   1.760   6.736   0.313 -0.4179 -0.9670  0.2688
24023SOL     OW75023  10.499   0.531   2.233 -0.2530  0.6572  0.2319
24023SOL    HW175024  10.567   0.507   2.169 -0.9987  0.8539 -0.6635
24023SOL    HW275025  10.541   0.595   2.290  0.1876  1.1173 -0.5871
24024SOL     OW75026   2.455   2.378   0.904  0.5975 -0.1003  0.5319
24024SOL    HW175027   2.496   2.424   0.831  0.6745 -0.7413  0.1659
24024SOL    HW275028   2.450   2.444   0.974  2.4519 -0.0658  0.6737
24025SOL     OW75029   1.209   2.944   5.536 -0.1708  0.5202  0.0883
24025SOL    HW175030   1.167   2.872   5.582  0.6746  0.4222  0.7131
24025SOL    HW275031   1.245   2.904   5.456 -1.5329  0.6713 -0.6415
24026SOL     OW75032   7.611   4.264   4.002 -0.3013 -0.1077 -0.1246
24026SOL    HW175033   7.542   4.330   4.004 -0.6443 -0.4728  0.5856
24026SOL    HW275034   7.688   4.311   3.971 -0.7311  0.4362 -0.3897
24027SOL     OW75035   4.708   8.253  10.377  0.4977  0.7562 -0.1028
24027SOL    HW175036   4.694   8.166  10.340 -1.2226  0.3941  1.2752
24027SOL    HW275037   4.773   8.239  10.446 -1.4387  0.0371  1.6835
24028SOL     OW75038   4.314   6.226   0.339  0.5633  0.4654 -0.3896
24028SOL    HW175039   4.280   6.183   0.260 -0.9100 -0.1515  0.5195
24028SOL    HW275040   4.304   6.320   0.322 -3.1988  0.3866  0.3089
24029SOL     OW75041   2.223   1.513   7.617 -0.1221 -0.6875  0.2267
24029SOL    HW175042   2.282   1.454   7.570 -0.6077 -1.3246  0.3976
24029SOL    HW275043   2.244   1.498   7.709 -0.2861 -0.6313  0.2725
24030SOL     OW75044   1.517   4.175   0.199  0.0233 -0.4013 -0.0663
24030SOL    HW175045   1.423   4.193   0.196  0.2627  1.0130  0.2504
24030SOL    HW275046   1.549   4.201   0.112  0.6113  2.2519  0.8822
24031SOL     OW75047   1.262   3.268   4.542 -0.8106  0.3168 -0.1509
24031SOL    HW175048   1.232   3.329   4.475 -0.3012  0.2906 -0.4006
24031SOL    HW275049   1.255   3.182   4.500  0.8694  0.4050 -0.6951
24032SOL     OW75050   1.333   0.876   2.983  0.2464  0.0161 -0.0664
24032SOL    HW175051   1.242   0.853   3.004  0.0465  0.5356 -0.3637
24032SOL    HW275052   1.361   0.808   2.922  0.4271 -0.7888  0.8835
24033SOL     OW75053   2.477   3.615   0.744  0.3235  0.6396 -0.4054
24033SOL    HW175054   2.382   3.606   0.746  0.0174  2.4159 -2.5627
24033SOL    HW275055   2.497   3.677   0.815 -0.2661  1.1229 -0.6557
24034SOL     OW75056   9.468   5.837   0.548  0.3609 -0.0214  0.2733
24034SOL    HW175057   9.442   5.917   0.593 -0.1121 -0.0225  0.0053
24034SOL    HW275058   9.461   5.769   0.615 -1.4550 -0.2188 -0.0708
24035SOL     OW75059   4.306  10.048  10.154 -0.6283  0.3939  0.6397
24035SOL    HW175060   4.390  10.025  10.195 -0.8382  1.0624  1.4623
24035SOL    HW275061   4.315  10.016  10.064 -0.0216 -0.8048  1.0878
24036SOL     OW75062   5.061   3.537   1.957  0.1288 -0.4455  0.2108
24036SOL    HW175063   5.031   3.492   2.035 -2.6823  0.9854  0.1031
24036SOL    HW275064   5.105   3.470   1.905 -1.1533 -2.2939  1.4048
24037SOL     OW75065   5.167   8.843   7.080 -0.3617  1.0271  0.6831
24037SOL    HW175066   5.160   8.893   6.998 -0.4382  0.5849  0.4193
24037SOL    HW275067   5.100   8.882   7.136 -1.0301  0.6452  0.1696
24038SOL     OW75068  10.279   6.431   8.451 -0.2152 -0.3433  0.1756
24038SOL    HW175069  10.374   6.423   8.444 -0.3015 -0.4622 -1.0916
24038SOL    HW275070  10.247   6.341   8.450 -0.5252 -0.3369 -3.2166
24039SOL     OW75071   9.602   2.803   6.257  0.4434  0.0083  0.3129
24039SOL    HW175072   9.593   2.877   6.317  0.5757 -0.0712  0.4310
24039SOL    HW275073   9.519   2.756   6.265  0.2420  0.3048  0.0187
24040SOL     OW75074   3.869   7.189   6.892  0.3670  0.0607 -0.4635
24040SOL    HW175075   3.919   7.263   6.857  0.0047  0.3749 -0.3302
24040SOL    HW275076   3.927   7.150   6.957 -0.2862  1.6651  1.1983
24041SOL     OW75077   7.093   8.564   9.381 -0.5260 -0.3320  0.0834
24041SOL    HW175078   7.184   8.569   9.354 -0.7458 -2.5058 -1.2925
24041SOL    HW275079   7.049   8.635   9.334  0.4056  0.6823  0.7018
24042SOL     OW75080   8.382   9.708   5.219 -0.0001 -0.2558  0.3554
24042SOL    HW175081   8.373   9.656   5.299  1.2573 -0.2707  0.5136
24042SOL    HW275082   8.473   9.695   5.192 -0.6350 -0.9891 -1.6016
24043SOL     OW75083   5.868   8.219   3.501 -0.2718 -0.2882 -0.0306
24043SOL    HW175084   5.949   8.202   3.454  0.5830  0.1577  1.2397
24043SOL    HW275085   5.812   8.264   3.437 -0.6466 -3.0667 -1.8195
24044SOL     OW75086   7.418   2.904   0.189  0.6296 -0.1739 -0.1611
24044SOL    HW175087   7.348   2.838   0.183 -0.0488  0.5080  0.1311
24044SOL    HW275088   7.431   2.933   0.099 -0.0915  0.3338 -0.1067
24045SOL     OW75089   9.972   7.418   4.925 -0.2061 -0.6997 -0.5706
24045SOL    HW175090   9.909   7.376   4.983 -1.3042  0.7046 -0.6789
24045SOL    HW275091   9.922   7.440   4.847  0.5706 -0.1493 -0.9319
24046SOL     OW75092   7.733   4.636  10.346 -0.4236 -0.3304  0.1868
24046SOL    HW175093   7.679   4.564  10.313 -0.9570  0.7705 -1.5218
24046SOL    HW275094   7.690   4.715  10.312  0.6450  0.7493  1.2412
24047SOL     OW75095   7.085   7.587   1.305 -0.6109  0.2806  0.0470
24047SOL    HW175096   7.146   7.563   1.235  0.3098  1.8385  0.2701
24047SOL    HW275097   7.022   7.645   1.263  0.4697  1.9527  0.6430
24048SOL     OW75098   9.740   5.035   4.224 -0.1788 -0.0959 -0.1761
24048SOL    HW175099   9.813   5.087   4.193  0.8529 -1.2129  0.3230
24048SOL    HW275100   9.681   5.099   4.264 -0.4699  1.0760 -2.3173
24049SOL     OW75101   9.489   0.327   6.847 -0.2428  0.1842  0.6881
24049SOL    HW175102   9.480   0.232   6.856  0.1483  0.1216  0.4271
24049SOL    HW275103   9.583   0.342   6.842 -0.1535  0.7849  2.9664
24050SOL     OW75104   8.620   5.140   5.176 -0.2111 -0.1470 -0.2176
24050SOL    HW175105   8.690   5.193   5.139 -0.2483 -1.1071 -1.7727
24050SOL    HW275106   8.620   5.060   5.123 -0.9422 -1.1852  1.2670
24051SOL     OW75107   9.730   4.953   3.010  0.6531 -0.0498  0.0896
24051SOL    HW175108   9.822   4.958   2.985  0.2071  0.2402 -1.6635
24051SOL    HW275109   9.697   4.876   2.964  0.1595 -0.5808  1.2839
24052SOL     OW75110   6.658   6.771   9.687  0.1782 -0.3896 -0.1501
24052SOL    HW175111   6.639   6.826   9.763 -2.1268 -0.6232 -0.4699
24052SOL    HW275112   6.665   6.834   9.614  0.8168 -0.2868 -0.0035
24053SOL     OW75113   7.913   1.199   6.009 -0.6028  0.0092 -0.1276
24053SOL    HW175114   7.934   1.258   5.936 -1.2413 -0.5908 -0.7991
24053SOL    HW275115   7.909   1.112   5.970 -1.9230 -0.2018  0.4248
24054SOL     OW75116   7.738   8.131   3.682 -0.3370 -0.6655 -0.4839
24054SOL    HW175117   7.818   8.080   3.696  0.5910  0.5461 -1.1467
24054SOL    HW275118   7.733   8.142   3.587 -0.8208 -0.0020 -0.3898
24055SOL     OW75119   7.868   8.933   8.105 -0.3200  0.0161 -0.4847
24055SOL    HW175120   7.845   8.927   8.012 -1.7311 -0.3693 -0.1454
24055SOL    HW275121   7.830   8.854   8.144 -1.8123  1.2732  0.7817
24056SOL     OW75122   3.087   8.893   5.537  0.7982 -0.1693 -0.3241
24056SOL    HW175123   3.087   8.973   5.590  0.5947 -0.5731  0.2897
24056SOL    HW275124   2.997   8.861   5.543  0.6926 -0.0446 -1.1839
24057SOL     OW75125   9.022   4.644   8.837  0.2414  1.3311  0.1048
24057SOL    HW175126   9.019   4.711   8.904 -0.6208  0.9044  0.5022
24057SOL    HW275127   9.093   4.586   8.863  0.7717  1.8959 -0.0653
24058SOL     OW75128   5.018   9.071   4.014 -0.0347  0.0182  0.1365
24058SOL    HW175129   5.040   9.082   3.921 -1.1493 -0.6393 -0.2225
24058SOL    HW275130   4.996   8.978   4.022 -1.3156  0.3623  0.7556
24059SOL     OW75131   0.298   1.938   1.201 -0.1250 -0.0773  0.5356
24059SOL    HW175132   0.350   1.925   1.121 -0.0719  0.5686  0.4622
24059SOL    HW275133   0.342   2.009   1.247 -0.5279 -0.0141  0.8267
24060SOL     OW75134   7.045   2.338   4.519 -0.0416 -0.0470 -0.2347
24060SOL    HW175135   7.077   2.301   4.436  1.9663  0.0443  0.4261
24060SOL    HW275136   6.957   2.302   4.530  0.4171 -1.6603 -1.4387
24061SOL     OW75137   7.003   2.360   5.124  0.5392  0.4127 -0.7910
24061SOL    HW175138   7.012   2.290   5.060  1.6082 -1.1931  1.0143
24061SOL    HW275139   6.959   2.320   5.199  0.8460  1.7608  0.1615
24062SOL     OW75140   4.226   0.265   6.212  0.2733 -0.2423  0.0950
24062SOL    HW175141   4.153   0.210   6.241 -0.4329  1.0650  0.9267
24062SOL    HW275142   4.303   0.209   6.221 -0.5615 -1.5206 -0.3994
24063SOL     OW75143   3.107   1.685  10.530  0.2332 -0.0638 -0.1734
24063SOL    HW175144   3.020   1.668  10.494 -1.5192 -3.8919  4.7236
24063SOL    HW275145   3.099   1.769  10.575 -1.5673 -1.0345  1.4483
24064SOL     OW75146   7.911   6.831  10.476  0.6481  0.0177 -0.0958
24064SOL    HW175147   7.978   6.895  10.501  2.1235 -1.7035  0.6465
24064SOL    HW275148   7.954   6.776  10.411  0.1956 -1.5074  0.8393
24065SOL     OW75149   4.229   2.471   2.160  0.1085 -0.5197 -0.4098
24065SOL    HW175150   4.244   2.442   2.250  0.3510  1.8059  0.3770
24065SOL    HW275151   4.305   2.525   2.140  1.2976 -2.9241 -2.9843
24066SOL     OW75152   0.976   7.999   7.024  0.4535  0.1901 -0.2234
24066SOL    HW175153   1.037   7.931   7.052  0.8430  0.4415 -0.4607
24066SOL    HW275154   0.920   7.956   6.959 -1.8854 -1.0545  2.3778
24067SOL     OW75155   6.405   2.033   4.056 -0.7417 -0.2575 -0.8917
24067SOL    HW175156   6.476   2.089   4.088 -0.1783 -0.8943 -0.9919
24067SOL    HW275157   6.395   1.967   4.125 -0.8624 -0.4905 -1.1328
24068SOL     OW75158   8.078   1.943  10.187  0.0936 -0.9280  0.1604
24068SOL    HW175159   8.031   1.889  10.251 -0.6538 -0.0868  0.3243
24068SOL    HW275160   8.171   1.923  10.204 -0.1546 -2.1883  0.1877
24069SOL     OW75161  10.094   0.160   0.198 -0.4247 -0.0723  0.6807
24069SOL    HW175162  10.131   0.111   0.125 -0.5766 -1.1689  1.3182
24069SOL    HW275163  10.000   0.163   0.181 -0.3127  0.9577  0.1027
24070SOL     OW75164   2.287   9.107   6.812  0.2391  0.9692  0.0512
24070SOL    HW175165   2.292   9.029   6.757  0.8210  0.2439  1.1042
24070SOL    HW275166   2.221   9.162   6.769 -1.1943 -0.6768  0.0277
24071SOL     OW75167   7.888   7.230   2.208  0.1502  0.6310  0.0968
24071SOL    HW175168   7.977   7.247   2.240 -0.2380  1.3580  0.8194
24071SOL    HW275169   7.842   7.196   2.284  0.0782 -0.7675 -0.5497
24072SOL     OW75170   2.644   0.036   0.396 -0.3892  0.6807  0.3449
24072SOL    HW175171   2.717   0.012   0.339 -1.1170  1.6381 -1.0476
24072SOL    HW275172   2.568  -0.007   0.357 -0.6001 -0.3617  1.8216
24073SOL     OW75173   4.525  10.422   8.270  0.3633 -0.4450 -0.0069
24073SOL    HW175174   4.575  10.384   8.199  0.4322  0.5208 -0.4930
24073SOL    HW275175   4.435  10.425   8.237  0.3664 -0.1563  0.0072
24074SOL     OW75176   2.678   7.370   8.217  0.2100 -0.5288 -0.2032
24074SOL    HW175177   2.770   7.361   8.195 -0.0359 -2.5032 -0.6318
24074SOL    HW275178   2.643   7.430   8.152  1.7068  2.7149  1.7259
24075SOL     OW75179   6.333   0.923   5.300  0.2869 -0.5702  0.0438
24075SOL    HW175180   6.250   0.933   5.254  1.1226  2.4094 -1.0358
24075SOL    HW275181   6.393   0.888   5.234  0.5446 -0.0892  0.0213
24076SOL     OW75182   4.297   0.673   7.541  0.3261 -0.2877 -0.1560
24076SOL    HW175183   4.359   0.711   7.479  3.2838 -2.8762  0.9081
24076SOL    HW275184   4.292   0.736   7.613 -0.1398  0.9889 -1.2655
24077SOL     OW75185   7.942   5.860   4.444 -0.4862 -0.4567  0.2442
24077SOL    HW175186   8.015   5.799   4.448  0.1321  0.2689  3.4332
24077SOL    HW275187   7.951   5.905   4.360  1.7281 -1.5483 -0.1570
24078SOL     OW75188   0.217   0.859   0.298  0.1053 -0.1117 -0.1927
24078SOL    HW175189   0.222   0.834   0.391  1.3233  1.1740  0.1279
24078SOL    HW275190   0.307   0.880   0.274 -0.2144 -0.3094 -1.6565
24079SOL     OW75191   0.680   5.907   1.669 -0.2721  0.0197  0.1683
24079SOL    HW175192   0.737   5.935   1.741 -1.4420 -0.0670  1.1685
24079SOL    HW275193   0.720   5.826   1.636  0.4306  0.2137  0.5323
24080SOL     OW75194   1.040   8.248   7.088 -0.0242 -0.0601  0.2673
24080SOL    HW175195   1.024   8.156   7.071  0.6749 -0.0969 -0.2385
24080SOL    HW275196   1.093   8.278   7.014  1.0905  0.3538  1.1913
24081SOL     OW75197   8.446   2.344   4.303  0.5415 -0.6226 -0.3291
24081SOL    HW175198   8.539   2.332   4.285  0.0926 -1.4424 -2.3124
24081SOL    HW275199   8.420   2.263   4.348  0.6374 -0.7161 -0.4403
24082SOL     OW75200   7.519   2.046   2.904 -0.7757  0.4591 -0.6556
24082SOL    HW175201   7.530   2.097   2.984 -0.2109  0.9718 -1.0516
24082SOL    HW275202   7.426   2.024   2.903 -0.2509 -2.8130  2.0721
24083SOL     OW75203   3.672   7.592   6.981 -0.4140 -0.3825  0.5378
24083SOL    HW175204   3.617   7.637   7.044  1.0685  2.0046  0.2613
24083SOL    HW275205   3.760   7.593   7.020  0.3173  0.1705 -1.0183
24084SOL     OW75206   8.794   7.225   3.328 -1.0047 -0.1287  0.2928
24084SOL    HW175207   8.738   7.236   3.405 -1.1900 -0.4398  0.2069
24084SOL    HW275208   8.754   7.281   3.262 -1.0343 -0.1119  0.3244
24085SOL     OW75209   8.157   2.300   9.455 -0.1032  0.6101 -0.3596
24085SOL    HW175210   8.068   2.276   9.483  0.3792  1.7482  2.4295
24085SOL    HW275211   8.142   2.362   9.383 -1.5175 -0.3737 -0.9643
24086SOL     OW75212   4.310   1.147   2.547  0.6753 -0.1883 -0.0138
24086SOL    HW175213   4.248   1.158   2.619  0.4175 -1.2103 -0.0575
24086SOL    HW275214   4.378   1.213   2.563  0.3908 -0.1028  0.9179
24087SOL     OW75215   7.378  10.120   7.090  0.1558 -0.5047  0.0593
24087SOL    HW175216   7.459  10.144   7.044 -0.8343  1.8628 -0.6128
24087SOL    HW275217   7.308  10.148   7.031 -1.1661  0.3588  1.9442
24088SOL     OW75218   2.235   9.396   3.286  0.1427 -0.1578 -0.1241
24088SOL    HW175219   2.272   9.310   3.302  0.5978 -0.7092 -3.3370
24088SOL    HW275220   2.177   9.384   3.211 -1.3803  1.9889  0.5852
24089SOL     OW75221   5.419   9.498   1.098 -0.2751 -0.1537 -0.1099
24089SOL    HW175222   5.383   9.419   1.138  0.1149 -0.6113 -0.6521
24089SOL    HW275223   5.508   9.473   1.072 -0.0208  0.5735  0.0487
24090SOL     OW75224   2.819   3.528   8.196 -0.4820  0.4481  0.2215
24090SOL    HW175225   2.791   3.445   8.235 -3.0191  0.1813 -1.9111
24090SOL    HW275226   2.911   3.536   8.222 -0.6583 -2.0847  2.0287
24091SOL     OW75227   0.362   1.448   2.535  0.5112  0.6499 -0.6894
24091SOL    HW175228   0.310   1.515   2.492  0.7180  1.8388  0.8174
24091SOL    HW275229   0.301   1.406   2.596 -0.1378 -1.9054 -2.8895
24092SOL     OW75230   3.774   7.918   7.315 -0.2654 -0.0270 -0.2216
24092SOL    HW175231   3.706   7.872   7.267 -3.0995  1.8215  1.7296
24092SOL    HW275232   3.797   7.992   7.259 -0.1237 -0.4247 -0.7000
24093SOL     OW75233   1.657   2.357   4.141  0.1355 -0.7310  0.4426
24093SOL    HW175234   1.737   2.305   4.146  0.9080  0.3928 -0.0350
24093SOL    HW275235   1.679   2.440   4.183 -0.1657  0.3146 -1.3757
24094SOL     OW75236   9.006   6.855   2.586  0.3370  0.2238 -0.2264
24094SOL    HW175237   9.087   6.827   2.544  1.2314 -1.4994  2.3872
24094SOL    HW275238   9.027   6.856   2.679 -2.8882 -1.3120  0.6596
24095SOL     OW75239   1.114   6.750  10.627  0.1214  0.0735  0.2858
24095SOL    HW175240   1.045   6.722  10.567 -1.4183  1.2762  1.4000
24095SOL    HW275241   1.077   6.825  10.673  1.8036  0.1341  1.6663
24096SOL     OW75242   0.742   6.570   9.324  0.6967 -0.2950 -0.6984
24096SOL    HW175243   0.815   6.508   9.316 -0.0161 -1.4527  1.0852
24096SOL    HW275244   0.679   6.541   9.258  0.9395 -0.6195 -0.7909
24097SOL     OW75245   1.942   6.063   1.850 -0.1381 -0.2004 -0.1745
24097SOL    HW175246   1.958   5.968   1.850 -0.9745 -0.3446 -0.1216
24097SOL    HW275247   1.990   6.095   1.927  1.0526 -0.4134 -0.7966
24098SOL     OW75248   5.179   4.084   2.494  0.0506  0.2917 -0.4009
24098SOL    HW175249   5.140   4.033   2.423  0.9740 -2.3007  0.8102
24098SOL    HW275250   5.106   4.105   2.552 -0.8643  3.1546 -2.3574
24099SOL     OW75251   7.998   5.403   9.451 -0.2276 -0.5148  0.1684
24099SOL    HW175252   7.947   5.390   9.371 -0.1873 -1.3697  0.2705
24099SOL    HW275253   8.082   5.438   9.421 -0.0232 -1.3118 -0.2244
24100SOL     OW75254   1.044   5.995   0.600  0.3654  0.3378 -0.1704
24100SOL    HW175255   1.129   5.999   0.556 -0.1865  3.5912 -1.2522
24100SOL    HW275256   1.033   6.082   0.638 -2.5200  0.0902 -0.1726
24101SOL     OW75257   6.247   6.799   5.334 -0.5362 -0.1172  0.1369
24101SOL    HW175258   6.305   6.838   5.269 -1.5866  1.8576  0.3055
24101SOL    HW275259   6.270   6.843   5.416 -0.7215 -0.9781  0.6541
24102SOL     OW75260   5.168   0.342   2.378 -0.3995  0.0429 -0.3292
24102SOL    HW175261   5.221   0.300   2.445 -0.0510 -1.4249 -1.4569
24102SOL    HW275262   5.203   0.430   2.371  0.5310 -0.2561  0.3976
24103SOL     OW75263   4.437   1.395   2.601 -0.4568 -1.1719  0.4499
24103SOL    HW175264   4.474   1.462   2.543  1.6471 -1.7915  0.9830
24103SOL    HW275265   4.391   1.445   2.668 -2.7357 -0.4366 -1.5094
24104SOL     OW75266   1.582   1.366  10.408 -0.0156  0.2210  0.3203
24104SOL    HW175267   1.604   1.309  10.482  2.5474  0.1874 -0.3633
24104SOL    HW275268   1.511   1.320  10.363 -0.2209 -0.7822  1.6029
24105SOL     OW75269   1.903   9.163   3.505  0.2370  0.3421 -0.1112
24105SOL    HW175270   1.996   9.138   3.504 -0.5783 -3.5178 -2.6937
24105SOL    HW275271   1.872   9.141   3.417 -3.4858 -0.0801  1.1566
24106SOL     OW75272   4.657   6.394   4.281 -0.2200 -0.3063 -0.0163
24106SOL    HW175273   4.581   6.368   4.229  0.9412 -1.8267 -1.0922
24106SOL    HW275274   4.704   6.455   4.225  1.1923 -2.1761 -1.0082
24107SOL     OW75275   2.987   6.429   8.001  0.4473  0.1010  0.3107
24107SOL    HW175276   2.925   6.426   7.929  1.7412 -0.8254 -0.8266
24107SOL    HW275277   3.016   6.520   8.004  0.7764  0.0405 -0.7093
24108SOL     OW75278   9.241   9.803   0.320 -0.1336 -0.2941 -0.0468
24108SOL    HW175279   9.321   9.846   0.288  1.5554 -0.4160  3.4996
24108SOL    HW275280   9.202   9.866   0.379 -0.9379 -1.4046  0.6383
24109SOL     OW75281   5.541   9.338   8.247 -0.1570  0.4345  0.0025
24109SOL    HW175282   5.545   9.245   8.265 -0.4219  0.2530 -0.8163
24109SOL    HW275283   5.536   9.344   8.151  2.5453  1.3712 -0.1754
24110SOL     OW75284   2.809   1.300   7.821 -0.4646  0.4262  0.0487
24110SOL    HW175285   2.752   1.226   7.842 -1.2659  1.4241  1.4964
24110SOL    HW275286   2.891   1.281   7.868  0.6141 -1.1322 -2.2302
24111SOL     OW75287  10.338   4.694   2.782 -0.6189 -0.0625 -0.4912
24111SOL    HW175288  10.309   4.603   2.780  0.2037 -0.3287 -1.0442
24111SOL    HW275289  10.335   4.719   2.874 -5.3265  0.8819 -0.6483
24112SOL     OW75290   1.641   2.193   1.040 -0.0816  0.4239  0.5106
24112SOL    HW175291   1.567   2.251   1.025 -0.6935  0.1179  2.1825
24112SOL    HW275292   1.602   2.107   1.059  0.7833 -0.3480 -0.9912
24113SOL     OW75293   6.448   6.974   7.720 -0.1004 -0.1103 -0.1896
24113SOL    HW175294   6.439   7.063   7.685  2.3427 -0.2682 -1.3990
24113SOL    HW275295   6.426   6.918   7.645  1.4345 -0.4794 -0.3831
24114SOL     OW75296   3.671   2.702   2.045  0.5139 -0.0962 -0.1414
24114SOL    HW175297   3.663   2.616   2.088  1.0657  0.4253  1.0457
24114SOL    HW275298   3.753   2.696   1.996  1.2147  0.1698  0.9701
24115SOL     OW75299   9.345   5.976   8.421  0.2399 -0.2576 -0.2823
24115SOL    HW175300   9.320   5.890   8.387 -0.1522  0.3137 -1.4971
24115SOL    HW275301   9.273   6.033   8.397 -0.8942 -0.0856  3.0065
24116SOL     OW75302   8.672  10.106   3.127 -0.1853  0.1855 -0.0575
24116SOL    HW175303   8.701  10.052   3.201  0.7129  0.3365 -0.2895
24116SOL    HW275304   8.721  10.188   3.137  3.3943 -1.2777 -3.1808
24117SOL     OW75305   3.896   4.945   1.107 -0.1636 -0.3603  0.0128
24117SOL    HW175306   3.935   4.885   1.043 -2.7060 -1.1980 -0.8491
24117SOL    HW275307   3.878   4.890   1.183  0.7002  0.1248  0.5845
24118SOL     OW75308   7.162   9.752   8.701  0.3068  0.3225  0.5924
24118SOL    HW175309   7.156   9.667   8.743 -0.7629 -0.1907 -0.5607
24118SOL    HW275310   7.252   9.757   8.668  0.3604 -0.3724  0.6352
24119SOL     OW75311   3.478   1.929   8.812  0.0669  0.0369 -0.3513
24119SOL    HW175312   3.552   1.893   8.860 -0.5487 -1.0195 -0.1542
24119SOL    HW275313   3.497   1.910   8.720 -0.4454 -1.2377 -0.2226
24120SOL     OW75314   3.549  10.409   5.449  0.0664  0.1194 -0.2514
24120SOL    HW175315   3.555  10.489   5.396  1.9144 -1.8396 -3.3059
24120SOL    HW275316   3.625  10.357   5.422 -1.2801 -2.8783  1.3014
24121SOL     OW75317   3.626  10.399   4.433  0.2839 -0.3797  0.4775
24121SOL    HW175318   3.698  10.440   4.480  0.8383  1.1849 -1.5681
24121SOL    HW275319   3.613  10.315   4.477 -0.0085  1.3508  4.0239
24122SOL     OW75320   1.661   6.346   7.559  0.1600  0.3132 -0.0371
24122SOL    HW175321   1.672   6.434   7.524 -1.1277 -0.1057 -1.5829
24122SOL    HW275322   1.750   6.316   7.578  0.6826  1.5399 -0.5097
24123SOL     OW75323   9.429   4.920   6.116  0.4024  0.1721  0.0733
24123SOL    HW175324   9.520   4.943   6.135  0.4243  1.5437 -1.4621
24123SOL    HW275325   9.433   4.874   6.032 -0.0583 -2.4611  1.3727
24124SOL     OW75326   9.068   8.340   6.054 -0.0718 -0.2935 -0.0867
24124SOL    HW175327   8.999   8.386   6.102  1.2511  0.1889  1.4814
24124SOL    HW275328   9.045   8.248   6.060 -1.3103 -0.0513 -0.8415
24125SOL     OW75329   8.778   8.852   1.240 -0.3639 -0.2607  0.0689
24125SOL    HW175330   8.813   8.785   1.299  0.2954  0.3661  0.3999
24125SOL    HW275331   8.816   8.832   1.155 -0.3355 -0.4323  0.1224
24126SOL     OW75332   5.584  10.093   7.132 -0.0866 -0.1806  0.1516
24126SOL    HW175333   5.573  10.106   7.038 -0.6177  0.1265  0.2559
24126SOL    HW275334   5.612  10.179   7.164  0.0355 -0.2700  0.2851
24127SOL     OW75335   9.081   5.518   9.822  0.0523 -0.0680 -0.0639
24127SOL    HW175336   8.999   5.478   9.792 -0.1958 -0.6153  1.3080
24127SOL    HW275337   9.146   5.447   9.817  0.2279  0.1006 -0.2139
24128SOL     OW75338   2.232   8.625   6.787 -0.3153  0.5013  0.1052
24128SOL    HW175339   2.271   8.694   6.841 -0.5681  0.3408  0.4915
24128SOL    HW275340   2.303   8.563   6.771  0.0527  1.0961 -0.6649
24129SOL     OW75341   2.203   8.347   2.487  0.2258  0.7462 -0.2268
24129SOL    HW175342   2.216   8.411   2.556  0.6780  1.3193 -0.8277
24129SOL    HW275343   2.279   8.359   2.429  0.6059 -0.6962 -0.0612
24130SOL     OW75344   9.361   5.749   8.809  0.2515 -0.2814  0.2873
24130SOL    HW175345   9.451   5.718   8.826  0.3281 -0.4176 -0.3455
24130SOL    HW275346   9.319   5.675   8.765 -0.0855 -0.1051  0.3126
24131SOL     OW75347   4.778   7.686   7.474 -0.5253  0.5967  0.4538
24131SOL    HW175348   4.748   7.774   7.496  0.0612  0.7805  0.5525
24131SOL    HW275349   4.853   7.701   7.415  0.2438  0.2044  1.3029
24132SOL     OW75350   4.076   4.920   3.898 -0.3665  0.2688  0.2113
24132SOL    HW175351   4.067   5.013   3.919  0.2001  0.7005 -1.3231
24132SOL    HW275352   4.170   4.903   3.909 -0.2258  0.2593 -0.8808
24133SOL     OW75353   0.948   2.188   7.856 -0.0920 -0.1394  0.1553
24133SOL    HW175354   1.038   2.157   7.854  0.3429  1.0847 -0.4711
24133SOL    HW275355   0.914   2.168   7.769 -0.1147  0.2332  0.0747
24134SOL     OW75356   0.823   3.429  10.601  0.2227  0.1715  0.2080
24134SOL    HW175357   0.740   3.412  10.556 -0.7293  2.7163  0.8587
24134SOL    HW275358   0.800   3.437  10.693  1.4297 -0.3635  0.5847
24135SOL     OW75359   5.878   7.447   1.226  0.7675 -0.2063  0.5177
24135SOL    HW175360   5.921   7.396   1.157  2.8875  1.4626  0.4992
24135SOL    HW275361   5.867   7.385   1.298  2.1050 -1.0213  0.0589
24136SOL     OW75362   5.152   5.876   5.286  0.0406  0.0158 -0.7546
24136SOL    HW175363   5.137   5.810   5.353 -0.9261  0.0655 -0.8935
24136SOL    HW275364   5.072   5.873   5.233  0.6513  0.2045 -1.7004
24137SOL     OW75365   5.582   6.233   1.979  0.1634 -0.0094 -0.8866
24137SOL    HW175366   5.526   6.278   2.042  1.1546  0.1874 -0.1214
24137SOL    HW275367   5.638   6.302   1.942  0.4292 -0.3179 -1.0748
24138SOL     OW75368   6.771   0.847   7.393  0.5162 -0.0453  0.0983
24138SOL    HW175369   6.710   0.921   7.391  0.6455  0.0467 -0.9067
24138SOL    HW275370   6.721   0.776   7.433  0.8016  0.9168  2.3139
24139SOL     OW75371   3.491   4.678   5.594 -0.0431  0.0449 -0.1994
24139SOL    HW175372   3.496   4.615   5.665  0.9686 -0.7693 -0.9752
24139SOL    HW275373   3.419   4.736   5.619 -0.6595 -1.0967  0.7701
24140SOL     OW75374   3.269   1.215   5.715 -0.0735  0.3271 -0.3864
24140SOL    HW175375   3.360   1.190   5.700  0.1836  0.1601  1.2727
24140SOL    HW275376   3.274   1.294   5.768 -0.9131  0.6404 -0.7528
24141SOL     OW75377   4.941   4.094   4.621 -0.6196 -0.1982  0.2586
24141SOL    HW175378   4.996   4.023   4.654 -0.8147 -0.9724 -1.0423
24141SOL    HW275379   4.853   4.071   4.650 -0.2949  1.2621  2.7200
24142SOL     OW75380   7.822   8.832   1.507 -0.2806  0.5551  0.1869
24142SOL    HW175381   7.819   8.808   1.600  1.1957  1.3380  0.4648
24142SOL    HW275382   7.862   8.756   1.464 -0.7880  0.2696  0.2177
24143SOL     OW75383   2.002   2.024   3.132  0.1739 -0.0254  0.4295
24143SOL    HW175384   1.945   2.069   3.194 -0.7046  1.2586 -1.2386
24143SOL    HW275385   2.042   1.953   3.183  1.2146  2.2769  3.0398
24144SOL     OW75386   7.375   6.141   9.176 -0.4881  0.6163  0.6003
24144SOL    HW175387   7.284   6.124   9.198 -0.6494  0.8838  0.1370
24144SOL    HW275388   7.373   6.176   9.087  0.0095  1.2050  0.8076
24145SOL     OW75389   4.873   5.843   7.938  0.3784 -0.3216  0.1137
24145SOL    HW175390   4.964   5.829   7.962 -0.3309 -4.2883  1.1823
24145SOL    HW275391   4.873   5.851   7.843  1.8211 -0.1538  0.1165
24146SOL     OW75392   0.225   1.732   3.089  0.0791  0.0490 -0.6903
24146SOL    HW175393   0.319   1.718   3.080  0.0022 -2.1337  0.9046
24146SOL    HW275394   0.201   1.788   3.015  3.0152  2.9559  0.3198
24147SOL     OW75395  10.529   6.155   4.400 -0.1512  0.2928  0.1957
24147SOL    HW175396  10.614   6.152   4.443  0.7100  0.7685 -1.3957
24147SOL    HW275397  10.474   6.097   4.453  1.4100 -0.8087  0.7157
24148SOL     OW75398   7.478   8.258   0.293 -0.2789  0.4286 -0.1442
24148SOL    HW175399   7.410   8.261   0.360  0.2493 -2.6730  0.7171
24148SOL    HW275400   7.544   8.320   0.323 -0.3053 -0.5049  2.0125
24149SOL     OW75401   7.871   7.386   6.210  0.3580 -0.0814 -0.0570
24149SOL    HW175402   7.962   7.359   6.195 -0.0548 -1.4430 -0.2407
24149SOL    HW275403   7.870   7.479   6.190  1.4747 -0.2815 -1.1654
24150SOL     OW75404  10.295   8.193   8.358  0.2943 -0.0321 -0.2223
24150SOL    HW175405  10.379   8.151   8.379  0.5313  0.0651 -0.9553
24150SOL    HW275406  10.255   8.135   8.293 -0.3305 -0.2143  0.3097
24151SOL     OW75407   6.754  10.124   5.867 -0.3887 -0.4191 -0.8981
24151SOL    HW175408   6.724  10.034   5.860  0.0771 -0.6720  0.0590
24151SOL    HW275409   6.832  10.128   5.812  0.0316 -0.8235 -0.3465
24152SOL     OW75410   9.035   5.240   7.525  0.0319 -0.1571  0.1368
24152SOL    HW175411   8.984   5.160   7.535  0.4457 -0.5558 -0.7847
24152SOL    HW275412   8.970   5.310   7.517 -0.3452 -0.4847  0.3472
24153SOL     OW75413   5.019   3.087   3.856  0.2469 -0.7330 -0.6391
24153SOL    HW175414   5.062   3.006   3.882  0.2302 -0.8652 -1.0114
24153SOL    HW275415   4.926   3.067   3.858  0.2868 -1.3120 -2.5497
24154SOL     OW75416   8.684   9.867   6.777 -0.4421  0.3239 -0.1825
24154SOL    HW175417   8.675   9.925   6.701  0.6069 -0.6280 -1.0518
24154SOL    HW275418   8.732   9.791   6.745  0.5899  0.1727  1.5842
24155SOL     OW75419   6.392   6.723   0.966 -0.3787 -0.2097 -0.1260
24155SOL    HW175420   6.365   6.798   0.913  0.1966 -0.8385 -1.3482
24155SOL    HW275421   6.312   6.670   0.974 -0.6646  0.2831  0.3271
24156SOL     OW75422  10.163   0.099   1.852  0.9037  0.4745  0.5943
24156SOL    HW175423  10.221   0.045   1.904 -0.0656 -0.8174  0.3954
24156SOL    HW275424  10.201   0.098   1.764 -0.1483 -1.6349  0.0927
24157SOL     OW75425   7.811   0.726   6.634 -0.1531  0.4937 -0.0317
24157SOL    HW175426   7.900   0.691   6.632 -0.8777 -1.4363 -0.8475
24157SOL    HW275427   7.815   0.796   6.699  1.7196 -0.2238  0.7138
24158SOL     OW75428   7.413   5.557   8.767 -0.3413  0.3125  0.1444
24158SOL    HW175429   7.472   5.561   8.691 -0.5702  2.6999  0.0131
24158SOL    HW275430   7.458   5.607   8.834  0.4676 -2.8132  2.1557
24159SOL     OW75431   1.519   2.450   6.920  0.1734 -0.0847  0.5658
24159SOL    HW175432   1.609   2.451   6.952  0.0963  2.6217  0.9325
24159SOL    HW275433   1.486   2.538   6.940 -2.3075 -0.7676 -0.2490
24160SOL     OW75434   6.135   5.331   9.020 -0.4719  0.0139  0.4364
24160SOL    HW175435   6.040   5.324   9.030 -0.2615 -2.9430  1.1809
24160SOL    HW275436   6.166   5.241   9.013  2.6405  0.5902  3.7589
24161SOL     OW75437   8.449   8.884   6.327 -0.0540 -0.2793  0.8581
24161SOL    HW175438   8.519   8.819   6.335 -1.1896 -1.7795 -0.7339
24161SOL    HW275439   8.369   8.832   6.320 -0.9635  1.2498 -0.8707
24162SOL     OW75440   0.396   3.737   1.492 -0.0770 -0.4278  0.0792
24162SOL    HW175441   0.489   3.716   1.504 -0.0199  0.6139  1.8359
24162SOL    HW275442   0.360   3.661   1.447  1.6887 -0.6934 -0.9894
24163SOL     OW75443  10.688   8.050   5.616  0.0253 -0.0324 -0.2561
24163SOL    HW175444  10.673   7.961   5.584  2.1569 -0.2260 -0.9134
24163SOL    HW275445  10.626   8.104   5.567 -1.2445 -1.1197  0.0969
24164SOL     OW75446  10.366   6.910   3.209  0.3205 -0.2924  0.3528
24164SOL    HW175447  10.340   7.001   3.193 -0.8008 -0.4417  1.2170
24164SOL    HW275448  10.286   6.859   3.196  0.8050 -1.1035  0.4353
24165SOL     OW75449   9.492   5.972   6.568 -0.2243  0.0501  0.0633
24165SOL    HW175450   9.472   6.056   6.610  0.2768 -0.1451  0.7152
24165SOL    HW275451   9.561   5.935   6.623  0.0807 -0.4481 -0.6569
24166SOL     OW75452   0.666   9.704   2.030  0.3684 -0.1868 -0.1642
24166SOL    HW175453   0.699   9.689   2.118  1.6412 -0.2458 -0.6240
24166SOL    HW275454   0.635   9.795   2.031  0.5004 -0.1435  0.3037
24167SOL     OW75455   4.064   8.591   4.131  0.2922 -0.4820  0.0291
24167SOL    HW175456   4.157   8.575   4.115  0.3545 -0.6919  0.5676
24167SOL    HW275457   4.049   8.556   4.219 -0.5777 -1.6108 -0.5428
24168SOL     OW75458   3.462   6.053  10.287 -0.1508  0.8526 -0.6330
24168SOL    HW175459   3.522   6.121  10.256  1.2299  0.5163  1.1274
24168SOL    HW275460   3.429   6.086  10.371 -0.4897 -0.0709 -0.3871
24169SOL     OW75461   4.882   5.947   3.046 -0.0652  0.1711  0.0729
24169SOL    HW175462   4.860   6.018   2.987  1.1877  0.5944  0.0710
24169SOL    HW275463   4.978   5.952   3.055 -0.0356 -1.0190  0.6918
24170SOL     OW75464  10.072   4.169   2.223  0.1423  0.8963 -0.3134
24170SOL    HW175465  10.152   4.193   2.175  0.1095  1.1221 -0.2553
24170SOL    HW275466  10.049   4.083   2.189  2.5320 -0.9335  2.2819
24171SOL     OW75467   1.659   3.166   3.893  0.0254 -0.0986  0.3630
24171SOL    HW175468   1.650   3.259   3.915 -0.3829  0.4626 -1.9251
24171SOL    HW275469   1.752   3.147   3.906  0.0266  0.4767  1.3222
24172SOL     OW75470   3.409   8.684   9.557 -0.0866 -0.4374  0.0893
24172SOL    HW175471   3.481   8.748   9.565 -0.5980  0.0180  1.3565
24172SOL    HW275472   3.452   8.604   9.528  0.8704 -0.0369  0.3361
24173SOL     OW75473  10.068   6.282   1.403  0.4166  0.4516 -0.5297
24173SOL    HW175474  10.034   6.340   1.335 -1.8761 -0.7209 -0.5028
24173SOL    HW275475   9.994   6.225   1.425  1.8526 -0.9096  1.1228
24174SOL     OW75476   5.748   7.679   0.939 -0.4438 -0.2723 -0.5748
24174SOL    HW175477   5.828   7.731   0.948 -2.1244  2.4477 -0.0747
24174SOL    HW275478   5.761   7.627   0.859  2.1827 -0.7217  0.0751
24175SOL     OW75479   7.468   0.215   0.353 -0.1898  0.2577 -0.7301
24175SOL    HW175480   7.562   0.208   0.370 -0.4978 -1.3083  0.6342
24175SOL    HW275481   7.448   0.144   0.293 -0.7131 -0.3198  0.1013
24176SOL     OW75482   2.843   0.296   7.760  0.1825  0.5013 -0.0670
24176SOL    HW175483   2.837   0.381   7.716  0.5773 -0.0506 -1.2433
24176SOL    HW275484   2.785   0.239   7.709  1.7022 -0.5002 -0.7664
24177SOL     OW75485   3.849   4.718   2.149 -0.0733  0.2541 -0.0736
24177SOL    HW175486   3.942   4.698   2.159 -0.0267 -0.5400 -1.7101
24177SOL    HW275487   3.805   4.633   2.153 -0.6028  0.5007 -0.4274
24178SOL     OW75488   2.104   9.320   3.882  0.1436 -0.8497 -0.5561
24178SOL    HW175489   2.122   9.319   3.976  0.6054 -0.2766 -0.6332
24178SOL    HW275490   2.009   9.310   3.875  0.0563 -0.4447 -0.0054
24179SOL     OW75491   7.505   7.997   0.367  0.3807 -0.5784  0.5809
24179SOL    HW175492   7.509   8.079   0.318  1.0954  0.7110  2.6592
24179SOL    HW275493   7.503   7.929   0.300  0.7399  1.0888 -1.2104
24180SOL     OW75494   4.067   4.837   6.137  1.0316 -0.4749 -0.1168
24180SOL    HW175495   4.099   4.914   6.091  0.8433 -0.6665 -0.5789
24180SOL    HW275496   4.074   4.766   6.072  2.2998 -1.1018  0.6510
24181SOL     OW75497   7.227   8.499   0.352  0.6034 -0.4658 -0.4695
24181SOL    HW175498   7.247   8.417   0.398  1.2722  0.2299  0.5088
24181SOL    HW275499   7.136   8.517   0.375  0.7568 -0.4244  0.1097
24182SOL     OW75500   8.722   7.832   7.515  0.1067  0.2985 -0.3821
24182SOL    HW175501   8.787   7.762   7.512 -0.4904 -0.2773 -0.0910
24182SOL    HW275502   8.769   7.907   7.551  0.5075 -0.2235  0.1950
24183SOL     OW75503  10.264   0.099   8.954  1.4312  0.3162 -0.2285
24183SOL    HW175504  10.237   0.094   9.046  2.8728  2.5899  0.4174
24183SOL    HW275505  10.349   0.057   8.951  1.5604  0.5863 -0.4358
24184SOL     OW75506   7.549   8.550   1.837  0.5672 -0.0519 -0.5989
24184SOL    HW175507   7.634   8.508   1.851  0.6779 -0.4036 -2.1209
24184SOL    HW275508   7.486   8.479   1.844  0.4364  0.1204  0.0262
24185SOL     OW75509   7.310   5.441   1.362 -0.6413  0.1364  0.2722
24185SOL    HW175510   7.334   5.375   1.427  3.2961  0.8879 -0.1939
24185SOL    HW275511   7.363   5.420   1.285 -1.7972  1.9122 -1.0895
24186SOL     OW75512   7.532  10.248   4.475  0.6833  0.0310 -0.2148
24186SOL    HW175513   7.500  10.274   4.388  1.2581 -0.7353 -0.6617
24186SOL    HW275514   7.590  10.174   4.458  1.2708  0.2546  0.7726
24187SOL     OW75515   3.029   2.489   0.348 -0.1885  0.1797 -0.1900
24187SOL    HW175516   3.022   2.579   0.381 -1.7298  0.3856 -0.9989
24187SOL    HW275517   3.064   2.499   0.259  0.4443 -0.1048  0.0169
24188SOL     OW75518   5.717   0.261   2.370 -0.1348  0.3381 -0.2156
24188SOL    HW175519   5.627   0.295   2.370 -0.1135  0.3970 -0.3276
24188SOL    HW275520   5.723   0.210   2.450 -0.4609 -0.1566 -0.4955
24189SOL     OW75521   5.568  10.627   2.158 -0.0252 -0.3558  0.8318
24189SOL    HW175522   5.500  10.621   2.224 -0.6201  0.7660  0.3494
24189SOL    HW275523   5.579  10.721   2.143  1.4080 -0.5207  0.6688
24190SOL     OW75524   3.550   9.914   1.155  0.2693 -0.3217 -0.3003
24190SOL    HW175525   3.620   9.979   1.164 -0.2976  0.2620  0.0128
24190SOL    HW275526   3.590   9.832   1.184  0.6919  0.0970  0.3464
24191SOL     OW75527   3.367   3.007   5.383 -0.0656 -0.0983  0.6186
24191SOL    HW175528   3.382   2.931   5.440 -1.2941 -0.8688 -0.0538
24191SOL    HW275529   3.280   3.039   5.409 -0.7904 -0.6604 -1.0135
24192SOL     OW75530   7.466   4.761   4.757  0.2539  0.2209 -0.5342
24192SOL    HW175531   7.472   4.724   4.669  1.4931  0.3368 -0.5130
24192SOL    HW275532   7.509   4.697   4.813 -0.1825  0.3345 -0.0647
24193SOL     OW75533   5.669   1.062   5.787 -0.3612 -0.1758  0.8358
24193SOL    HW175534   5.693   0.992   5.727  2.4419  0.2100  1.3357
24193SOL    HW275535   5.739   1.063   5.852 -1.9869  1.0381  2.6815
24194SOL     OW75536   0.194   2.292   6.772 -0.5302  0.0619  0.2130
24194SOL    HW175537   0.151   2.243   6.702  0.1541 -1.3007  0.7123
24194SOL    HW275538   0.233   2.367   6.727  1.3396 -1.6573 -1.2257
24195SOL     OW75539   1.686   1.392   2.040 -0.5989 -0.0606 -0.4287
24195SOL    HW175540   1.712   1.450   1.968 -3.2146  2.6219  0.5849
24195SOL    HW275541   1.658   1.312   1.997  0.7971  0.2759 -2.1096
24196SOL     OW75542   7.102   2.320   4.813  0.2378  0.3186 -0.2124
24196SOL    HW175543   7.162   2.394   4.823 -0.4476  0.8086  0.3965
24196SOL    HW275544   7.100   2.280   4.899 -0.2608  0.2663 -0.2494
24197SOL     OW75545   4.159   5.892   8.892  0.3940  0.4326  0.0603
24197SOL    HW175546   4.237   5.942   8.867  0.6570  0.2365  0.4708
24197SOL    HW275547   4.188   5.801   8.894 -0.2730  0.1588 -1.4202
24198SOL     OW75548   2.635   6.864   6.034 -0.2627 -0.2296 -0.5496
24198SOL    HW175549   2.721   6.841   5.999 -1.0432 -0.1576 -2.6521
24198SOL    HW275550   2.603   6.783   6.074  0.6501 -0.3366 -0.0184
24199SOL     OW75551   1.337   9.808   3.280 -0.0265 -0.6944  0.0697
24199SOL    HW175552   1.312   9.863   3.206 -1.6513 -1.3094  0.1007
24199SOL    HW275553   1.255   9.793   3.327  0.8049 -1.1176  1.4472
24200SOL     OW75554   4.896   8.848  10.355 -0.1862 -0.1799 -0.1855
24200SOL    HW175555   4.979   8.823  10.395  0.1316  1.3984  0.2082
24200SOL    HW275556   4.915   8.856  10.262  0.2679  0.7514 -0.0207
24201SOL     OW75557   8.690   3.968   7.912  0.2058 -0.5675  0.1952
24201SOL    HW175558   8.765   3.924   7.873  0.7743 -0.5454  1.2324
24201SOL    HW275559   8.727   4.019   7.984 -1.0071 -1.9132  1.8389
24202SOL     OW75560   6.600   6.241   8.483  0.5317 -0.5276  0.4136
24202SOL    HW175561   6.519   6.249   8.534  1.0705  0.9984  1.0915
24202SOL    HW275562   6.633   6.330   8.476  0.4461 -0.6170 -2.7389
24203SOL     OW75563   9.055   8.295   7.139  0.2667  0.7495 -0.5749
24203SOL    HW175564   9.049   8.371   7.082  1.4838  0.0213 -1.7294
24203SOL    HW275565   9.035   8.329   7.226 -0.9854  2.0136 -1.3135
24204SOL     OW75566   2.970   1.089   2.768  0.5440  0.6480  0.1894
24204SOL    HW175567   3.042   1.053   2.717  0.6086  0.6235  0.2967
24204SOL    HW275568   3.013   1.135   2.840  0.4747  1.2382 -0.1386
24205SOL     OW75569   1.700   6.658   9.159 -0.0906  0.6246 -0.4504
24205SOL    HW175570   1.737   6.671   9.072 -0.0644  0.1384 -0.5127
24205SOL    HW275571   1.742   6.579   9.192  0.9815  1.5862  0.5837
24206SOL     OW75572   0.984  10.556   1.207  0.0310 -0.0051  0.3295
24206SOL    HW175573   0.956  10.508   1.129  0.3776  0.7057 -0.2388
24206SOL    HW275574   0.904  10.590   1.245 -0.1675 -0.6052  0.4477
24207SOL     OW75575   8.350   6.052  10.509 -0.0387  0.1158 -0.7081
24207SOL    HW175576   8.319   6.067  10.419 -1.3384 -0.2020 -0.3349
24207SOL    HW275577   8.353   5.956  10.517  1.2410  0.1343 -0.7806
24208SOL     OW75578   4.604   9.933  10.203  0.3449  0.2864 -0.6875
24208SOL    HW175579   4.660   9.935  10.125 -0.0108 -0.0027 -0.9515
24208SOL    HW275580   4.659   9.970  10.273  0.2157  1.8065 -1.3548
24209SOL     OW75581   7.099   7.718  10.531 -0.1351  0.1084  0.1068
24209SOL    HW175582   7.035   7.786  10.512  0.4067  0.9283  1.1093
24209SOL    HW275583   7.051   7.653  10.582 -0.5239  0.0026 -0.3929
24210SOL     OW75584   1.213   1.862   1.075  0.1045  0.4024 -0.0976
24210SOL    HW175585   1.155   1.788   1.088  0.5447 -0.1140 -0.9942
24210SOL    HW275586   1.169   1.916   1.009  1.4236 -0.8980 -2.1375
24211SOL     OW75587   9.401   0.017   5.488  0.0398 -0.9326  0.1496
24211SOL    HW175588   9.308   0.003   5.506  0.2019 -0.4057  1.5356
24211SOL    HW275589   9.433  -0.068   5.458 -1.2117 -0.7195 -2.0477
24212SOL     OW75590  10.158   9.894   9.367  0.3925  0.3863 -0.1316
24212SOL    HW175591  10.147   9.869   9.459  1.9110  2.1526  0.5810
24212SOL    HW275592  10.122   9.820   9.318 -0.9942 -0.3505  1.8633
24213SOL     OW75593   2.275   8.576   0.696 -0.4043 -0.3427  0.1637
24213SOL    HW175594   2.209   8.629   0.742 -1.0526  0.3543 -1.4940
24213SOL    HW275595   2.290   8.622   0.614  2.2772 -0.4221  0.5250
24214SOL     OW75596   8.064  10.016   3.346 -0.2425 -0.6753  0.1878
24214SOL    HW175597   8.011   9.950   3.301 -0.4396 -0.2486 -0.2154
24214SOL    HW275598   8.042  10.006   3.439 -0.6973 -0.7956  0.0685
24215SOL     OW75599   7.897   4.300   4.473 -0.5360  0.5042  0.4544
24215SOL    HW175600   7.844   4.364   4.520  0.0015  2.2273 -1.1622
24215SOL    HW275601   7.917   4.342   4.389  1.6078 -0.9382  0.1531
24216SOL     OW75602   7.642   1.937   8.374 -0.4042 -0.8620 -0.4181
24216SOL    HW175603   7.665   1.879   8.447 -0.3663 -0.2302  0.0868
24216SOL    HW275604   7.702   2.011   8.383 -0.9292 -0.4037 -0.6232
24217SOL     OW75605   7.476   2.511   9.844 -0.0208 -0.3424  0.0240
24217SOL    HW175606   7.383   2.492   9.835 -0.2889  1.2223 -0.8753
24217SOL    HW275607   7.511   2.503   9.755  0.3551  0.7536  0.0630
24218SOL     OW75608   2.383   7.513   4.099 -0.0140 -0.6715  0.1457
24218SOL    HW175609   2.463   7.497   4.049 -0.1772 -0.3930 -0.2116
24218SOL    HW275610   2.405   7.583   4.159  0.1311 -0.8828  0.3389
24219SOL     OW75611   5.100   5.405   6.505  0.0805  0.0660  0.4806
24219SOL    HW175612   5.113   5.344   6.433  2.0483  0.4211  0.4916
24219SOL    HW275613   5.080   5.489   6.462 -0.2756 -0.0576  0.4020
24220SOL     OW75614   8.358   2.830   9.094 -0.3427  0.1561 -0.0613
24220SOL    HW175615   8.300   2.900   9.062 -1.2503 -0.6463 -0.2074
24220SOL    HW275616   8.311   2.793   9.169 -0.2656 -0.8405 -0.4912
24221SOL     OW75617   5.865   8.143   0.439 -0.0170  0.3871  0.2529
24221SOL    HW175618   5.906   8.169   0.357  0.1681 -1.7283 -0.3865
24221SOL    HW275619   5.774   8.123   0.416  0.3547 -1.4787  0.2367
24222SOL     OW75620   1.859   7.316   8.720 -0.5148  0.1821  0.2123
24222SOL    HW175621   1.943   7.294   8.760  0.4062  0.8627 -1.2445
24222SOL    HW275622   1.807   7.236   8.729 -0.0696  0.0511  1.9578
24223SOL     OW75623   7.840   2.531   0.183  0.7509  0.3951  0.1354
24223SOL    HW175624   7.806   2.443   0.201  0.2352  0.6828  0.6091
24223SOL    HW275625   7.843   2.573   0.268  0.7878  0.9105 -0.1202
24224SOL     OW75626  10.062   9.942   1.981 -0.0013  0.1678  0.8551
24224SOL    HW175627  10.039   9.869   2.039 -1.4909  0.2624  0.4247
24224SOL    HW275628  10.026  10.020   2.025  1.5338  0.6599  1.2890
24225SOL     OW75629   9.694   1.100   5.742  0.8039  0.9338 -0.3122
24225SOL    HW175630   9.644   1.110   5.661 -0.6518  1.1552  0.5715
24225SOL    HW275631   9.720   1.189   5.766 -0.8872  1.1877  0.7160
24226SOL     OW75632   7.486   9.055   6.975  0.1150  0.3026 -0.0912
24226SOL    HW175633   7.580   9.061   6.994  0.0177  2.0802 -0.0140
24226SOL    HW275634   7.476   8.969   6.934  1.5464 -0.4810  1.0726
24227SOL     OW75635  10.401   5.659   7.061  0.0378  0.1918 -0.2985
24227SOL    HW175636  10.310   5.632   7.051 -0.4327  1.6247 -0.1982
24227SOL    HW275637  10.441   5.591   7.115 -1.6042  0.7134  1.7208
24228SOL     OW75638   6.332   9.675   5.015  0.0230 -0.3141  0.1723
24228SOL    HW175639   6.313   9.581   5.005  2.3719 -0.6808 -1.6821
24228SOL    HW275640   6.251   9.718   4.986 -0.6068 -1.7609 -0.3653
24229SOL     OW75641   6.138   4.599   5.279  0.4949  0.6305  0.4989
24229SOL    HW175642   6.103   4.602   5.368  0.0401  2.7268  0.3124
24229SOL    HW275643   6.231   4.616   5.289  0.6491 -0.2819  0.6508
24230SOL     OW75644   9.552   5.692   9.909  0.5436  0.3663  0.2100
24230SOL    HW175645   9.608   5.716   9.836  0.0730  2.1532  0.3754
24230SOL    HW275646   9.477   5.649   9.869  1.1969 -0.4611 -0.1605
24231SOL     OW75647   0.949   5.968   8.536  0.0817  0.3859  0.1665
24231SOL    HW175648   0.954   6.012   8.621 -0.2030 -1.3923  1.1505
24231SOL    HW275649   0.895   5.891   8.552  2.6151 -1.7545 -0.8130
24232SOL     OW75650   6.531   8.226   9.276  0.6318  0.8049  0.3605
24232SOL    HW175651   6.529   8.259   9.186  0.5297  0.6122  0.2911
24232SOL    HW275652   6.438   8.223   9.302  0.6500  0.6883  0.4091
24233SOL     OW75653   4.149   2.320   0.700  0.4088  0.7624  0.1401
24233SOL    HW175654   4.076   2.317   0.639  0.9720  0.6535 -0.5344
24233SOL    HW275655   4.160   2.413   0.721 -0.3747  0.7197  0.8112
24234SOL     OW75656   8.807   1.556   9.268 -0.2044 -0.1583  0.6725
24234SOL    HW175657   8.831   1.647   9.248  0.4430 -0.2378  1.0785
24234SOL    HW275658   8.711   1.557   9.271 -0.2592  0.2433 -0.5965
24235SOL     OW75659   0.872   6.374   8.416  0.7096  0.8874 -0.3578
24235SOL    HW175660   0.908   6.287   8.401  1.7600  1.2473 -0.0438
24235SOL    HW275661   0.854   6.408   8.329 -1.8930 -0.4817 -0.4455
24236SOL     OW75662   9.282   0.075   8.524  0.9603 -0.4815 -0.1380
24236SOL    HW175663   9.247   0.116   8.604 -0.5948 -1.0239 -0.4967
24236SOL    HW275664   9.316   0.148   8.473 -0.3004  0.1912 -0.0589
24237SOL     OW75665   0.078   5.726   8.591 -0.3067  0.0263  0.2550
24237SOL    HW175666   0.090   5.649   8.535 -2.8837  0.0652 -0.4876
24237SOL    HW275667   0.094   5.801   8.534 -1.5762  0.0492 -0.0968
24238SOL     OW75668   3.665   7.799   2.806 -0.1484  0.0973  0.4916
24238SOL    HW175669   3.598   7.761   2.749  1.3600 -1.7805 -0.1377
24238SOL    HW275670   3.624   7.800   2.893 -1.8469  1.3460 -0.2615
24239SOL     OW75671  10.405   2.883   7.939  0.0327  0.2423 -0.6475
24239SOL    HW175672  10.367   2.921   8.018  0.1861  1.1959 -1.0244
24239SOL    HW275673  10.343   2.905   7.870  0.1828 -0.1021 -0.8927
24240SOL     OW75674   4.878   0.657   6.334 -0.2877  1.0816 -0.1812
24240SOL    HW175675   4.930   0.726   6.294  1.3274 -0.7695 -1.4833
24240SOL    HW275676   4.897   0.579   6.282  0.2329 -1.0152  2.8421
24241SOL     OW75677   5.391   2.206   8.698  0.2883  0.7765 -0.9412
24241SOL    HW175678   5.367   2.283   8.749 -0.4064  0.2085 -0.3933
24241SOL    HW275679   5.358   2.225   8.610  0.0986  1.0922 -0.8042
24242SOL     OW75680   4.425   7.378   8.201 -0.4318  0.1932  0.2235
24242SOL    HW175681   4.455   7.303   8.251 -0.2442  1.5691  2.3034
24242SOL    HW275682   4.330   7.367   8.194 -0.7544  0.8991  2.6453
24243SOL     OW75683   3.727   4.105   1.890 -0.5653 -0.4766 -0.1664
24243SOL    HW175684   3.650   4.159   1.874 -0.8464 -1.0148 -0.6578
24243SOL    HW275685   3.780   4.157   1.950  0.1477  1.2539 -2.1763
24244SOL     OW75686   1.672   8.394   2.450  0.6047  0.1349  0.1629
24244SOL    HW175687   1.684   8.351   2.534 -0.3196 -2.0145 -0.7157
24244SOL    HW275688   1.607   8.340   2.405  1.1101  1.1805 -1.9531
24245SOL     OW75689   9.961   8.638   2.305  0.8700 -0.0229 -0.4515
24245SOL    HW175690  10.007   8.653   2.388 -0.4440 -1.4206  0.5812
24245SOL    HW275691   9.937   8.546   2.307 -0.2154  0.1968 -1.8701
24246SOL     OW75692   6.510   1.451  10.027 -0.7783  0.5318 -0.2440
24246SOL    HW175693   6.469   1.374  10.066  2.0337 -1.0663 -0.1775
24246SOL    HW275694   6.589   1.465  10.079  0.9227  0.8958 -2.7553
24247SOL     OW75695   6.720   9.043   4.811  0.1973 -0.1193 -0.4940
24247SOL    HW175696   6.782   9.048   4.883 -1.0825  1.1087  0.5803
24247SOL    HW275697   6.765   9.083   4.737 -0.3040  3.8806  1.0850
24248SOL     OW75698   1.708   1.033   0.696  0.2823  0.8985  0.1425
24248SOL    HW175699   1.641   0.965   0.694  0.7226  0.3351  2.2693
24248SOL    HW275700   1.779   0.998   0.643  0.4522 -0.2951  1.0969
24249SOL     OW75701   9.479  10.055   1.113 -0.2288  0.0207 -0.1234
24249SOL    HW175702   9.424   9.992   1.159 -0.9347  0.5600 -0.2144
24249SOL    HW275703   9.424  10.088   1.042  0.4441  0.0711 -0.6306
24250SOL     OW75704   1.128   0.256   6.805  0.1634  0.4809 -0.0686
24250SOL    HW175705   1.139   0.308   6.726  2.4144  0.2937  0.0697
24250SOL    HW275706   1.177   0.303   6.872  0.2575 -0.5861  0.6400
24251SOL     OW75707   3.775   7.966   5.337  0.0376 -0.0335 -0.0367
24251SOL    HW175708   3.686   7.948   5.366  0.4541 -0.6217  0.9293
24251SOL    HW275709   3.791   7.902   5.267 -0.7303  0.9322 -1.1229
24252SOL     OW75710   2.929  10.429   9.688  0.3903 -0.0050 -0.0051
24252SOL    HW175711   2.965  10.397   9.770  0.8635 -0.6183 -0.4413
24252SOL    HW275712   3.004  10.429   9.628 -0.3424 -1.4475 -0.9746
24253SOL     OW75713   2.586   5.554   3.915  0.2998 -0.1789 -0.3901
24253SOL    HW175714   2.552   5.597   3.994  1.1836 -0.2685  0.0553
24253SOL    HW275715   2.556   5.608   3.843 -0.5521 -0.1104 -0.0032
24254SOL     OW75716   7.858   2.110   3.913 -0.7131 -0.1648  0.0599
24254SOL    HW175717   7.811   2.029   3.893  0.2383 -0.2796 -1.8925
24254SOL    HW275718   7.949   2.084   3.923 -0.4004  0.6380 -0.5464
24255SOL     OW75719   9.523   8.399   8.379  0.0783 -0.2429  0.1448
24255SOL    HW175720   9.488   8.441   8.300  0.0228 -3.3681 -1.6775
24255SOL    HW275721   9.447   8.358   8.420  0.5226 -1.0734  0.1625
24256SOL     OW75722   4.521   4.517   0.234  0.1012 -0.2027 -0.9065
24256SOL    HW175723   4.604   4.481   0.264  0.3048  0.3444 -0.8022
24256SOL    HW275724   4.468   4.441   0.213 -0.2964 -0.6785  1.4660
24257SOL     OW75725   0.933   0.030   5.847  0.2879  0.5329  0.1270
24257SOL    HW175726   0.945   0.123   5.865 -2.1404  1.9486 -4.0247
24257SOL    HW275727   0.981   0.014   5.766  0.7621 -1.9232  0.8050
24258SOL     OW75728   8.898   8.182   4.863 -0.3515  0.6953  0.1018
24258SOL    HW175729   8.898   8.224   4.949 -0.3026  0.4392  0.2281
24258SOL    HW275730   8.971   8.223   4.816 -0.5281  1.0067  0.0959
24259SOL     OW75731   5.551   5.319   8.066  0.1778 -0.0696  0.5690
24259SOL    HW175732   5.603   5.379   8.120  0.0706 -0.1873  0.8055
24259SOL    HW275733   5.590   5.233   8.082  0.8127  0.0345 -0.3502
24260SOL     OW75734   2.405   3.192   4.658  0.1271 -0.1462  0.0552
24260SOL    HW175735   2.489   3.238   4.661  0.7782 -1.2802 -0.1819
24260SOL    HW275736   2.403   3.140   4.738 -1.4155  1.6016  1.2319
24261SOL     OW75737   9.736   6.417   1.156  0.3736  0.3130 -0.4301
24261SOL    HW175738   9.831   6.424   1.158  0.5260 -1.4064  0.8567
24261SOL    HW275739   9.718   6.356   1.085  0.2622  0.3824 -0.4616
24262SOL     OW75740   2.869   4.852   1.658 -0.2260 -0.5644  0.0548
24262SOL    HW175741   2.820   4.922   1.615 -0.4201 -0.7109  0.0398
24262SOL    HW275742   2.926   4.898   1.720  1.2325 -0.2078 -1.4743
24263SOL     OW75743   0.002  10.469   2.081  0.4643  0.2310  0.0743
24263SOL    HW175744   0.069  10.535   2.098  0.5581  0.5614 -1.5099
24263SOL    HW275745  -0.074  10.519   2.051  0.7260 -0.3922 -1.7199
24264SOL     OW75746   7.138   5.673   1.369  0.3433 -0.7588 -0.3418
24264SOL    HW175747   7.167   5.715   1.449  0.8720 -1.6010 -0.0746
24264SOL    HW275748   7.177   5.585   1.373 -1.9702 -1.8534 -0.1056
24265SOL     OW75749   4.432   3.846   3.124  0.1355  0.1963 -0.0873
24265SOL    HW175750   4.510   3.900   3.125 -0.3791  0.9729 -0.7496
24265SOL    HW275751   4.388   3.866   3.207  0.1640  0.4797 -0.1392
24266SOL     OW75752  10.302   4.499   7.532  0.1099 -0.5492  0.1202
24266SOL    HW175753  10.222   4.548   7.515  0.6208  0.3028  0.0840
24266SOL    HW275754  10.274   4.408   7.545 -0.8172 -0.3098 -0.1898
24267SOL     OW75755   9.292   5.649   3.793 -0.2543 -0.6664  0.0362
24267SOL    HW175756   9.324   5.703   3.865 -1.7549 -0.5605  0.6726
24267SOL    HW275757   9.272   5.712   3.724  0.6231 -0.7069 -0.2625
24268SOL     OW75758   8.134   2.394   3.195 -0.5611 -0.2843 -0.4609
24268SOL    HW175759   8.102   2.481   3.220 -0.1148  0.3106 -1.8690
24268SOL    HW275760   8.196   2.411   3.125  0.7466 -1.6383  0.3209
24269SOL     OW75761   3.356   5.326   3.964  0.5332  0.3149 -0.5046
24269SOL    HW175762   3.445   5.290   3.964 -0.0527 -1.3102  1.6315
24269SOL    HW275763   3.365   5.414   4.000  0.8825 -1.3441  4.0050
24270SOL     OW75764   1.723   0.254   3.159 -0.4919  0.5387  0.0942
24270SOL    HW175765   1.650   0.197   3.135 -1.1735  0.8789  1.2891
24270SOL    HW275766   1.717   0.262   3.254  0.9075  0.8469  0.1718
24271SOL     OW75767   8.426   6.601   5.467  0.3795 -0.0606 -0.0186
24271SOL    HW175768   8.347   6.604   5.413  1.4299 -0.7393 -1.6738
24271SOL    HW275769   8.476   6.678   5.440 -0.2277  1.1151  1.9574
24272SOL     OW75770   8.455   8.694   1.604 -0.4528  0.0475  0.2578
24272SOL    HW175771   8.393   8.699   1.532  1.1712  0.5992 -1.1665
24272SOL    HW275772   8.530   8.746   1.575  0.4335 -0.0605  2.1794
24273SOL     OW75773   8.314  10.589   5.707  0.1504  0.1903 -0.1363
24273SOL    HW175774   8.239  10.584   5.767 -0.5551  1.7333 -0.8448
24273SOL    HW275775   8.343  10.498   5.698 -1.2416 -0.3668  0.6296
24274SOL     OW75776   3.316   0.006   8.336 -0.2011  0.3587  0.3365
24274SOL    HW175777   3.275  -0.018   8.253 -0.4105 -1.2657  0.8617
24274SOL    HW275778   3.405   0.032   8.312 -0.5980  0.9900 -0.4987
24275SOL     OW75779   2.166   4.319   0.732  0.0310  0.0526 -0.0407
24275SOL    HW175780   2.242   4.298   0.678  0.5051 -0.9814  0.9844
24275SOL    HW275781   2.177   4.411   0.755  0.5288  0.1350 -0.5943
24276SOL     OW75782   7.337   3.963   4.289  0.3729  0.0528  0.2427
24276SOL    HW175783   7.283   3.886   4.273  1.5655 -0.3291 -2.7271
24276SOL    HW275784   7.276   4.030   4.319 -0.8110 -1.7874  2.1902
24277SOL     OW75785   5.228   1.298   5.725  0.0987  0.0948  0.4795
24277SOL    HW175786   5.164   1.229   5.738  0.3877 -0.6539 -1.6001
24277SOL    HW275787   5.177   1.379   5.723 -0.8274 -0.4780 -0.9993
24278SOL     OW75788   6.362   0.114   9.281 -0.2262  0.1425 -0.3332
24278SOL    HW175789   6.321   0.069   9.207 -0.3681 -0.0680 -0.1279
24278SOL    HW275790   6.368   0.047   9.349  2.4964 -0.4998 -1.0912
24279SOL     OW75791   4.799   9.476   8.870  0.6173  0.2697  0.4102
24279SOL    HW175792   4.748   9.557   8.868  1.3895  0.7930 -2.4618
24279SOL    HW275793   4.758   9.424   8.939 -1.7525  1.9223  0.3702
24280SOL     OW75794   0.406   9.446   0.258 -0.7545  0.0197  0.0183
24280SOL    HW175795   0.360   9.497   0.191 -0.0700  0.5398 -0.0622
24280SOL    HW275796   0.379   9.486   0.341  1.0821  1.6637 -0.1055
24281SOL     OW75797  10.352   2.073   6.134 -0.3667 -0.6615 -0.1279
24281SOL    HW175798  10.421   2.103   6.193  0.2839 -1.3646 -0.5124
24281SOL    HW275799  10.389   1.994   6.093 -0.9561 -0.4024 -1.1758
24282SOL     OW75800   1.691   6.369   2.456  0.0460 -0.5797  0.3897
24282SOL    HW175801   1.622   6.431   2.478 -1.4049 -1.7773 -0.5099
24282SOL    HW275802   1.697   6.312   2.533  0.0879 -0.4064  0.5132
24283SOL     OW75803  10.025   8.886  10.428  0.1488  0.3858  0.6731
24283SOL    HW175804  10.081   8.814  10.400 -0.8368 -0.5591  1.0215
24283SOL    HW275805  10.037   8.954  10.362 -0.1527 -0.7600 -0.6043
24284SOL     OW75806   7.878   4.438   4.769 -0.7922  0.1867  0.1365
24284SOL    HW175807   7.862   4.532   4.766 -2.5866 -0.1269 -1.8517
24284SOL    HW275808   7.918   4.424   4.856 -1.6280  2.5754  0.9914
24285SOL     OW75809   3.796   4.321   7.621 -0.1511  0.4574 -0.3090
24285SOL    HW175810   3.821   4.329   7.713 -0.2280 -2.2457  0.0514
24285SOL    HW275811   3.701   4.313   7.622 -0.0050 -2.0636 -0.2790
24286SOL     OW75812  10.311   9.077   5.768 -0.5939 -0.1171  0.0527
24286SOL    HW175813  10.374   9.148   5.778 -0.8335  0.0964  0.0704
24286SOL    HW275814  10.226   9.120   5.775 -0.7931 -0.7959  3.1976
24287SOL     OW75815   6.003   1.516   4.928  0.0504  0.0920 -0.0550
24287SOL    HW175816   5.998   1.546   5.019 -1.3980 -1.0561  0.2942
24287SOL    HW275817   5.947   1.438   4.926 -0.4047  0.4173 -2.0677
24288SOL     OW75818   3.434   3.859   2.801 -0.0364 -0.3376  0.3795
24288SOL    HW175819   3.446   3.833   2.892 -0.7674 -0.8776  0.3380
24288SOL    HW275820   3.498   3.807   2.753  1.2079  0.8565  0.6945
24289SOL     OW75821   5.750   0.680   7.856 -0.5156 -0.2598 -0.0091
24289SOL    HW175822   5.659   0.706   7.842 -0.8921 -0.6660  1.4758
24289SOL    HW275823   5.754   0.590   7.824 -0.7488 -0.3774  0.2835
24290SOL     OW75824   4.459   7.857   4.399 -0.1145  0.1414 -0.1969
24290SOL    HW175825   4.435   7.781   4.452  0.1560  0.5437  0.5295
24290SOL    HW275826   4.505   7.822   4.323 -0.0453 -0.4169  0.1030
24291SOL     OW75827   2.732   9.728   3.505 -0.1830  0.7736 -0.3827
24291SOL    HW175828   2.772   9.655   3.459 -0.7054 -1.0175  1.8103
24291SOL    HW275829   2.801   9.761   3.563 -0.7744 -0.0473  0.8525
24292SOL     OW75830   9.691   8.324   9.791 -0.0801  0.3142 -0.1803
24292SOL    HW175831   9.613   8.269   9.786 -0.4170  0.7336  0.2982
24292SOL    HW275832   9.764   8.263   9.786 -0.4178 -0.4099  2.2827
24293SOL     OW75833   1.957   6.391   2.285 -0.1909 -0.3464 -0.0928
24293SOL    HW175834   1.979   6.426   2.372 -0.7562 -0.9975  0.3324
24293SOL    HW275835   1.862   6.376   2.289 -0.3463  0.2915 -1.0842
24294SOL     OW75836   1.773   8.743   1.582 -0.5219 -0.1002 -0.4573
24294SOL    HW175837   1.810   8.658   1.559 -0.9361 -0.4785  0.2504
24294SOL    HW275838   1.702   8.756   1.520  0.3982  0.3641 -1.4473
24295SOL     OW75839   4.725   2.440   9.082  0.4018 -0.2089 -0.2431
24295SOL    HW175840   4.632   2.450   9.106 -0.0046  1.3597 -2.1711
24295SOL    HW275841   4.773   2.476   9.157 -0.5922  0.1051  0.2671
24296SOL     OW75842   2.000   9.304   5.568  0.2196 -0.1541  0.2767
24296SOL    HW175843   1.954   9.299   5.484 -0.0423 -1.6070  0.4820
24296SOL    HW275844   2.013   9.398   5.583  1.6745  0.0769 -2.1170
24297SOL     OW75845   3.379   9.283   7.375  0.1624 -0.2581  0.6428
24297SOL    HW175846   3.316   9.284   7.302 -0.9000  2.3418  1.4588
24297SOL    HW275847   3.359   9.363   7.424  3.7861  0.3871  1.2920
24298SOL     OW75848   1.139   8.104   9.159 -0.1418 -0.2088  0.2912
24298SOL    HW175849   1.066   8.125   9.217 -1.1774 -2.0549 -0.2437
24298SOL    HW275850   1.214   8.150   9.197 -1.1227 -0.0291  2.1295
24299SOL     OW75851   6.071   2.034   3.031 -0.2496  0.1836  0.1191
24299SOL    HW175852   6.147   2.061   3.083 -0.0982  0.3849 -0.2106
24299SOL    HW275853   6.063   1.940   3.049 -1.1577  0.5235  1.7543
24300SOL     OW75854   9.266   6.845   2.889 -0.0722  0.3447  0.1398
24300SOL    HW175855   9.332   6.835   2.820  1.1603  0.6822  1.2275
24300SOL    HW275856   9.306   6.804   2.966 -0.9716  0.9224  0.9268
24301SOL     OW75857   4.160   9.563   5.970  0.2942  0.1791 -0.3629
24301SOL    HW175858   4.236   9.537   5.917  0.3767  2.3502 -1.3975
24301SOL    HW275859   4.193   9.634   6.025 -0.4033 -0.4966  0.9805
24302SOL     OW75860   1.524   3.341   0.948  0.1350  0.4386  0.8431
24302SOL    HW175861   1.580   3.289   0.890  0.8520  0.8528  1.1434
24302SOL    HW275862   1.478   3.276   1.001  1.2219  0.0959  1.4059
24303SOL     OW75863  10.626   2.157   1.329 -0.9305 -0.5741  0.0037
24303SOL    HW175864  10.610   2.079   1.274  0.6270 -0.7551 -0.2520
24303SOL    HW275865  10.559   2.219   1.302 -0.9274 -1.0920 -1.2812
24304SOL     OW75866   1.111   3.353   5.159  0.2659 -0.3443 -0.1757
24304SOL    HW175867   1.197   3.390   5.178  0.5164 -1.8418  1.9344
24304SOL    HW275868   1.128   3.260   5.142 -0.8166 -0.4155 -0.9713
24305SOL     OW75869   1.732   4.280   6.423 -0.5960  0.5112  0.2268
24305SOL    HW175870   1.765   4.313   6.340 -1.2995 -0.5900 -0.5023
24305SOL    HW275871   1.796   4.215   6.451  0.0047  1.3617  0.9262
24306SOL     OW75872   4.930   8.579   8.522 -0.1031 -0.4277 -0.2046
24306SOL    HW175873   4.842   8.574   8.485 -1.2909  2.2002  1.9706
24306SOL    HW275874   4.922   8.540   8.609  0.1594  2.0753  1.0256
24307SOL     OW75875   5.288   0.361   9.226  0.3963  0.0443 -0.2535
24307SOL    HW175876   5.233   0.435   9.249  0.6075  0.9025 -2.2936
24307SOL    HW275877   5.276   0.298   9.298 -1.0946  1.3310  0.6739
24308SOL     OW75878   4.323   3.947   1.933 -0.1326 -0.3150  0.4044
24308SOL    HW175879   4.281   3.995   2.004  1.2630 -0.6525  1.4951
24308SOL    HW275880   4.265   3.959   1.858 -0.2475  2.3596  0.8419
24309SOL     OW75881   2.501   3.985  10.618  0.2474 -0.5957 -0.7151
24309SOL    HW175882   2.538   4.069  10.592 -3.5445  1.4005 -0.3009
24309SOL    HW275883   2.497   3.935  10.536  0.4127  0.5267 -1.4351
24310SOL     OW75884  10.110   1.872   4.485  0.3758  0.0627  0.7094
24310SOL    HW175885  10.078   1.904   4.401  2.8574 -0.5903 -0.5772
24310SOL    HW275886  10.032   1.869   4.541 -1.1395  1.6454 -1.1732
24311SOL     OW75887   0.200   5.196   3.202 -0.3559  0.2052 -0.2702
24311SOL    HW175888   0.153   5.143   3.138  0.0493 -0.0755 -0.3399
24311SOL    HW275889   0.206   5.282   3.162  0.6837 -0.1936 -1.0148
24312SOL     OW75890   8.239   1.407   2.655 -0.1611 -0.3243 -0.1163
24312SOL    HW175891   8.174   1.477   2.662  0.2703  0.0089  0.6834
24312SOL    HW275892   8.258   1.401   2.561 -0.0155  0.7948 -0.1719
24313SOL     OW75893   9.044   5.312   8.561 -0.2500  0.2977 -0.5283
24313SOL    HW175894   9.037   5.347   8.473 -1.9432  1.4499  0.0223
24313SOL    HW275895   8.955   5.313   8.595  0.0220 -2.1622  0.4597
24314SOL     OW75896   8.195  10.591  10.039  0.0749 -0.6339 -0.3613
24314SOL    HW175897   8.103  10.576  10.056 -0.3712  1.0619 -1.0843
24314SOL    HW275898   8.239  10.575  10.123 -1.2138  1.0572  0.7061
24315SOL     OW75899   6.122   3.411   4.042 -0.4120 -0.3080 -0.0609
24315SOL    HW175900   6.100   3.371   4.127 -1.1224  1.0934  0.4548
24315SOL    HW275901   6.037   3.433   4.004 -0.0576  0.7630 -0.2747
24316SOL     OW75902  10.572   0.704   0.916  0.1959  0.0321  1.1264
24316SOL    HW175903  10.544   0.690   0.825 -0.4494  0.4094  1.2560
24316SOL    HW275904  10.625   0.784   0.912  0.3344 -0.0632  1.0505
24317SOL     OW75905   9.257   4.302   4.609  0.0901 -0.3676  0.1711
24317SOL    HW175906   9.341   4.259   4.626 -1.0915 -2.8797  0.2501
24317SOL    HW275907   9.262   4.330   4.518  1.1330 -0.1776  0.2765
24318SOL     OW75908   3.131   2.076   8.986 -0.3217  0.0411 -0.0336
24318SOL    HW175909   3.038   2.059   9.005 -0.6045  2.3293  0.9073
24318SOL    HW275910   3.169   1.989   8.976 -1.8135 -1.1242  3.1634
24319SOL     OW75911   0.627   0.926   3.645 -0.3869  0.2351 -0.9166
24319SOL    HW175912   0.674   0.960   3.569  1.0921 -2.4971 -1.3533
24319SOL    HW275913   0.635   0.995   3.711  2.8958  0.6335 -1.5384
24320SOL     OW75914   4.782   8.211   8.082  0.0940  0.5560  0.1854
24320SOL    HW175915   4.834   8.273   8.132  1.7482 -0.8375  0.3048
24320SOL    HW275916   4.833   8.130   8.085 -2.4316 -1.1263  0.9145
24321SOL     OW75917   6.259   2.064   9.906  0.0364  0.4231 -0.1639
24321SOL    HW175918   6.223   1.979   9.934  1.2771 -0.0430  0.0598
24321SOL    HW275919   6.214   2.082   9.824 -0.0623 -0.5740 -0.3448
24322SOL     OW75920  10.440   6.483   4.516 -0.5645  0.4743  0.1714
24322SOL    HW175921  10.371   6.417   4.528 -0.8340  0.5249 -0.9873
24322SOL    HW275922  10.430   6.542   4.591 -1.2412 -0.0044  0.4674
24323SOL     OW75923   5.531   4.359   1.378 -0.2235  0.0240  0.1899
24323SOL    HW175924   5.611   4.382   1.330  0.6895  1.0073  2.0820
24323SOL    HW275925   5.480   4.440   1.379 -0.7341 -0.2899 -0.0245
24324SOL     OW75926   4.184   8.625   9.905  0.5941 -0.3201  0.3013
24324SOL    HW175927   4.145   8.558   9.960  0.7515 -0.6852 -0.0297
24324SOL    HW275928   4.276   8.630   9.933  0.5218 -0.0691  0.4944
24325SOL     OW75929   3.435   8.894   2.475  0.7348 -0.4789  0.1671
24325SOL    HW175930   3.443   8.920   2.383  0.8357  1.4189  0.6791
24325SOL    HW275931   3.495   8.819   2.483  1.7223  0.1334 -1.0150
24326SOL     OW75932   0.872   4.944  10.203 -0.1728  0.4715 -0.1673
24326SOL    HW175933   0.838   4.886  10.270  0.8054  0.3840  0.2740
24326SOL    HW275934   0.861   4.896  10.121  0.2931 -0.1900  0.1536
24327SOL     OW75935   1.785   4.294   5.596 -0.0497  0.5153  0.5339
24327SOL    HW175936   1.831   4.252   5.524 -0.1505  1.3192 -0.0142
24327SOL    HW275937   1.839   4.370   5.618 -0.8618  1.2291  0.1667
24328SOL     OW75938   7.570   3.189   2.438 -0.7136  0.6017  1.1066
24328SOL    HW175939   7.510   3.261   2.417  0.6841  1.7209  0.7790
24328SOL    HW275940   7.517   3.128   2.489 -1.9555  1.8551  1.3880
24329SOL     OW75941   2.906   7.410   3.604 -0.1158  0.3783 -0.1085
24329SOL    HW175942   2.839   7.459   3.555 -0.4044 -0.2047 -0.3166
24329SOL    HW275943   2.891   7.319   3.579  0.4986  0.1970  0.1667
24330SOL     OW75944   7.397   6.141   9.489  0.4580 -0.5613 -0.3158
24330SOL    HW175945   7.458   6.196   9.537  0.9326 -0.7968 -0.6400
24330SOL    HW275946   7.425   6.147   9.398 -1.1346  0.8004 -0.7635
24331SOL     OW75947   7.915   8.594   3.964  0.1719  0.2969 -0.1504
24331SOL    HW175948   7.855   8.583   4.037  0.1362 -1.8975 -0.4582
24331SOL    HW275949   7.883   8.672   3.918 -2.0071 -0.4071  0.0949
24332SOL     OW75950   2.790   2.497   7.075 -0.3746  0.4454  0.4721
24332SOL    HW175951   2.714   2.498   7.133 -0.6437  0.0988  0.1196
24332SOL    HW275952   2.771   2.431   7.009  0.1176  0.5384  0.2272
24333SOL     OW75953   3.851   9.231   7.511 -0.6288  0.9323  0.7691
24333SOL    HW175954   3.759   9.205   7.506 -0.2458 -0.3822 -0.2273
24333SOL    HW275955   3.874   9.218   7.603 -0.7677 -1.4046  0.5476
24334SOL     OW75956   1.501   5.793   6.340  0.2638  0.0163 -0.3380
24334SOL    HW175957   1.532   5.818   6.428 -0.0461 -1.4891  0.2322
24334SOL    HW275958   1.505   5.697   6.340 -1.0273 -0.0632 -1.5013
24335SOL     OW75959  10.338   4.189   8.197 -0.0925  0.0937 -0.0549
24335SOL    HW175960  10.352   4.124   8.266  0.3519  1.3999  1.1194
24335SOL    HW275961  10.401   4.165   8.129  2.3073  1.0547  1.6824
24336SOL     OW75962  10.323   9.926   9.123  0.1824  0.1499  0.2806
24336SOL    HW175963  10.271   9.891   9.195  2.5930 -4.2995  0.1930
24336SOL    HW275964  10.289   9.881   9.045  1.8865 -0.2145 -0.2888
24337SOL     OW75965   2.338   5.608   7.120  0.2337  0.0136 -0.5767
24337SOL    HW175966   2.283   5.537   7.153  0.9694 -0.8234 -1.1002
24337SOL    HW275967   2.308   5.621   7.030  0.4899 -0.0263 -0.6676
24338SOL     OW75968   8.339   7.152  10.406 -0.4726  0.1132 -0.4710
24338SOL    HW175969   8.289   7.233  10.394 -1.2485 -0.4560 -1.1462
24338SOL    HW275970   8.389   7.142  10.325 -0.3843 -0.0944 -0.3922
24339SOL     OW75971   1.198   8.396   7.879  0.8109  0.0988  0.3552
24339SOL    HW175972   1.145   8.389   7.958 -1.7784  0.5433 -1.2288
24339SOL    HW275973   1.242   8.311   7.871  0.3276 -0.2949  1.7105
24340SOL     OW75974   7.977  10.221   1.410  0.2015 -0.3341 -0.1568
24340SOL    HW175975   7.888  10.223   1.376  0.1649 -1.1686 -0.1302
24340SOL    HW275976   7.992  10.129   1.432  1.3975 -0.3614 -1.0164
24341SOL     OW75977   5.761   2.485  10.615  0.1490 -0.0364  0.0325
24341SOL    HW175978   5.751   2.428  10.691  0.2823 -1.3672 -0.9143
24341SOL    HW275979   5.850   2.518  10.621  0.6016 -1.1880 -0.2476
24342SOL     OW75980   4.300   3.634   8.428  0.5192 -0.3501 -0.5455
24342SOL    HW175981   4.275   3.713   8.476  0.7610 -1.4198  1.4477
24342SOL    HW275982   4.356   3.665   8.357 -1.9991  1.5665 -1.8301
24343SOL     OW75983   1.639   0.221   2.846  0.1376  0.4326  0.3872
24343SOL    HW175984   1.583   0.297   2.864  1.6818  1.8516 -0.5163
24343SOL    HW275985   1.578   0.152   2.820 -1.3614  1.1576  1.8040
24344SOL     OW75986   9.327   7.534   1.278 -0.6331  0.1999 -0.4699
24344SOL    HW175987   9.344   7.551   1.185  0.5743 -0.1690 -0.3281
24344SOL    HW275988   9.381   7.458   1.299 -0.1246  0.8887  0.7938
24345SOL     OW75989   6.102   9.148   2.353 -0.0004  0.2838 -0.0435
24345SOL    HW175990   6.189   9.161   2.390 -0.2647 -0.2218  0.8070
24345SOL    HW275991   6.098   9.207   2.277  1.1436  0.1496 -0.2161
24346SOL     OW75992   2.273   2.831   3.159 -0.3521  0.0219 -0.6664
24346SOL    HW175993   2.216   2.888   3.107  0.6224  0.3115 -1.4569
24346SOL    HW275994   2.329   2.788   3.094 -0.8799 -1.6396 -0.0589
24347SOL     OW75995   5.141   4.632   8.891 -0.5246  0.4945 -0.1437
24347SOL    HW175996   5.144   4.721   8.854  0.5009  0.7525  0.5363
24347SOL    HW275997   5.161   4.575   8.817  0.0974  0.9170 -0.3069
24348SOL     OW75998   4.044  10.118   2.431  0.1052  0.0683  0.1778
24348SOL    HW175999   4.024  10.155   2.345  1.7482  0.4109 -0.0849
24348SOL    HW276000   4.100  10.183   2.473 -0.2642 -0.3243  1.3283
24349SOL     OW76001   9.300   4.238   3.866  0.5064  0.3892  0.7639
24349SOL    HW176002   9.292   4.202   3.954  0.8422  0.0485  0.6600
24349SOL    HW276003   9.342   4.323   3.878  1.3878 -0.0465  0.8640
24350SOL     OW76004   4.361   3.530   2.119 -0.4124 -0.2030 -0.2603
24350SOL    HW176005   4.413   3.601   2.081 -1.9089 -0.0322 -2.1534
24350SOL    HW276006   4.425   3.470   2.157  0.9100  2.0114  1.2372
24351SOL     OW76007   6.869   8.899   7.299 -0.2793 -0.4439  0.6652
24351SOL    HW176008   6.957   8.933   7.316 -0.0755  1.1431 -2.7908
24351SOL    HW276009   6.812   8.954   7.352  0.7022 -1.5157  2.9828
24352SOL     OW76010   3.578   3.173   8.591  0.2494  0.2429 -0.4617
24352SOL    HW176011   3.654   3.200   8.539  1.7685  0.3106  1.6211
24352SOL    HW276012   3.616   3.114   8.657 -1.7194 -0.5891 -0.0166
24353SOL     OW76013   8.830   3.501   9.454  0.0068 -0.0353  0.2314
24353SOL    HW176014   8.788   3.464   9.531 -0.1962 -2.1401 -0.8402
24353SOL    HW276015   8.800   3.447   9.381 -0.1291  2.1236 -1.4218
24354SOL     OW76016   7.394   3.101   3.314  0.1689  0.1659  0.0537
24354SOL    HW176017   7.310   3.145   3.301 -0.2497 -0.5386  0.3361
24354SOL    HW276018   7.411   3.058   3.230  1.1384  1.7647 -0.6158
24355SOL     OW76019   3.772   3.004   2.919 -0.5538  0.5546 -0.3560
24355SOL    HW176020   3.857   3.044   2.905 -0.5191  0.3548 -0.7321
24355SOL    HW276021   3.748   3.027   3.009 -0.2252  0.8324 -0.3421
24356SOL     OW76022   1.643   3.207   8.343 -0.5305  0.0513  0.8648
24356SOL    HW176023   1.717   3.208   8.403 -0.1003  0.8774  0.3422
24356SOL    HW276024   1.606   3.295   8.349 -1.4184 -0.3334  1.0571
24357SOL     OW76025   5.904   5.362   2.843 -0.8480  0.1688  0.2048
24357SOL    HW176026   5.895   5.455   2.862  1.2865  0.2129  1.3230
24357SOL    HW276027   5.977   5.356   2.781  0.4891 -0.8236  1.7657
24358SOL     OW76028   4.814   8.596   0.819  0.1499  0.7184  0.0253
24358SOL    HW176029   4.805   8.640   0.903  0.7327 -0.3046  0.6353
24358SOL    HW276030   4.828   8.504   0.841 -0.3716  0.3180 -1.2058
24359SOL     OW76031   6.734   1.624   3.467 -0.5597 -0.2040 -0.8635
24359SOL    HW176032   6.725   1.552   3.531 -1.9639 -2.2626 -3.1810
24359SOL    HW276033   6.649   1.668   3.470 -0.2372  0.4081 -0.5606
24360SOL     OW76034   5.313   4.103   4.066 -0.0180 -0.3454  0.0315
24360SOL    HW176035   5.268   4.171   4.015 -1.1840 -1.1710 -0.0951
24360SOL    HW276036   5.316   4.028   4.006  0.8639 -0.5425  0.3180
24361SOL     OW76037   2.563   6.454   3.637 -0.0759  0.4706 -0.3020
24361SOL    HW176038   2.481   6.499   3.613  0.1359  1.2345  0.3488
24361SOL    HW276039   2.594   6.501   3.714 -0.4252 -1.5244  1.1311
24362SOL     OW76040   8.718   7.192   5.677  0.4373 -0.3059 -0.6993
24362SOL    HW176041   8.627   7.220   5.670  0.3450 -0.5299 -0.4181
24362SOL    HW276042   8.714   7.109   5.725  0.5971 -1.3807 -2.4312
24363SOL     OW76043   4.191   7.784   1.315 -0.4192  0.1270  0.1419
24363SOL    HW176044   4.214   7.799   1.407 -0.5939 -0.6621  0.3215
24363SOL    HW276045   4.135   7.706   1.317  1.3535 -1.2391 -0.8366
24364SOL     OW76046   7.363   0.651   0.690  0.2705  0.5537 -0.1745
24364SOL    HW176047   7.293   0.705   0.652 -1.6624 -1.0500  0.8894
24364SOL    HW276048   7.371   0.576   0.631  0.5007  0.3129  0.1593
24365SOL     OW76049   6.190   9.155  10.497  0.0138 -0.5198 -1.1731
24365SOL    HW176050   6.238   9.228  10.536 -0.7720 -1.1554  1.1894
24365SOL    HW276051   6.251   9.081  10.502  0.0929 -0.4888 -1.6536
24366SOL     OW76052   5.010   4.425   3.382 -0.1012 -0.0729  0.6928
24366SOL    HW176053   5.021   4.436   3.476  2.0873  0.2486  0.4643
24366SOL    HW276054   5.088   4.376   3.355  0.1305  1.2413 -1.1605
24367SOL     OW76055   5.074   7.250   1.447 -0.4273  0.1852 -0.1594
24367SOL    HW176056   4.999   7.191   1.457  1.9335 -2.7713  1.7989
24367SOL    HW276057   5.128   7.209   1.380  0.9605  0.4326  0.7608
24368SOL     OW76058   9.885   9.354   3.076 -0.0728  0.2750 -0.2702
24368SOL    HW176059   9.954   9.294   3.106  0.4769  1.2355  0.4401
24368SOL    HW276060   9.879   9.338   2.982 -0.4677 -1.4257  0.0186
24369SOL     OW76061   8.596   4.343   2.458 -0.4410  0.2172  0.1704
24369SOL    HW176062   8.578   4.250   2.470 -1.4318  0.5520  1.5884
24369SOL    HW276063   8.690   4.352   2.472 -0.1065 -0.7435 -1.3276
24370SOL     OW76064   3.026   5.316   7.665 -0.4718 -0.6296 -0.7400
24370SOL    HW176065   3.048   5.289   7.576 -0.0848  0.4075 -0.9725
24370SOL    HW276066   2.964   5.388   7.654 -0.2683 -0.3621 -0.1698
24371SOL     OW76067   1.602   6.124   0.862 -0.3445  0.2676 -0.2423
24371SOL    HW176068   1.555   6.206   0.845  0.0440  0.8076  1.1582
24371SOL    HW276069   1.537   6.066   0.901 -1.2295 -0.9646 -3.2298
24372SOL     OW76070   5.782   9.393   8.377  0.1455 -0.5066 -0.3152
24372SOL    HW176071   5.704   9.365   8.328 -0.4948  2.0157 -0.8615
24372SOL    HW276072   5.748   9.418   8.463  0.8521 -2.1682  0.4978
24373SOL     OW76073   6.264   7.578  10.072 -0.3404 -0.0316 -0.3249
24373SOL    HW176074   6.342   7.619  10.109 -1.0704  1.2240 -0.1242
24373SOL    HW276075   6.204   7.569  10.146 -0.4679 -0.8492 -0.5086
24374SOL     OW76076   7.670   1.902   3.902  0.1658 -0.3879 -0.0966
24374SOL    HW176077   7.617   1.877   3.826 -0.5857  0.0215  0.2769
24374SOL    HW276078   7.655   1.832   3.966 -0.4574  0.0565  0.2540
24375SOL     OW76079   7.284   0.445   2.683 -0.4732  0.2919  0.3420
24375SOL    HW176080   7.232   0.524   2.700 -2.9023 -1.2408  0.4778
24375SOL    HW276081   7.224   0.386   2.638  0.8345 -2.0104  1.4437
24376SOL     OW76082   7.714   9.545   4.010 -0.0814 -0.1331  0.3441
24376SOL    HW176083   7.768   9.506   4.078  0.1599 -0.1378  0.1479
24376SOL    HW276084   7.624   9.527   4.038  0.0205 -0.3173  0.5524
24377SOL     OW76085   5.418   2.803   4.446  0.5150  0.2910 -0.2667
24377SOL    HW176086   5.490   2.788   4.385 -1.6357 -3.0783 -2.2657
24377SOL    HW276087   5.448   2.763   4.528  1.5955  0.5755 -0.5041
24378SOL     OW76088   7.099   3.155   2.285 -0.1344 -0.0046 -0.0048
24378SOL    HW176089   7.191   3.174   2.263 -0.7536  1.7216 -1.2997
24378SOL    HW276090   7.060   3.125   2.203 -0.9722  0.2521  0.2920
24379SOL     OW76091   8.529   4.859   3.502  0.1492 -0.2927 -0.0528
24379SOL    HW176092   8.587   4.794   3.541  1.3571 -0.2243 -1.6449
24379SOL    HW276093   8.468   4.808   3.449  1.1291 -0.1790 -1.3432
24380SOL     OW76094   4.766   5.881   1.986  0.5406 -0.3544  0.7934
24380SOL    HW176095   4.835   5.943   2.011  0.9204  0.6209 -2.2757
24380SOL    HW276096   4.813   5.802   1.959  0.2279 -0.9029  1.8145
24381SOL     OW76097   9.293   9.958   4.841 -0.1203  0.2036 -0.0074
24381SOL    HW176098   9.248   9.985   4.761  1.0139  1.2844 -0.3070
24381SOL    HW276099   9.306   9.863   4.830  1.7004  0.6001 -2.0187
24382SOL     OW76100   5.207   2.428  10.361 -0.0172  0.3411 -0.4037
24382SOL    HW176101   5.289   2.475  10.373  0.5259 -0.6492 -0.2405
24382SOL    HW276102   5.231   2.344  10.323 -0.7552 -0.7371  1.3769
24383SOL     OW76103  10.005   5.769  10.399 -0.2985 -0.3097 -0.8403
24383SOL    HW176104   9.949   5.734  10.468  0.2281 -0.1136 -0.2973
24383SOL    HW276105  10.043   5.693  10.356  1.8195 -0.4985  1.1327
24384SOL     OW76106   0.749   8.551   3.561  0.8039 -0.3985 -0.4879
24384SOL    HW176107   0.764   8.514   3.474 -0.0719  0.5507 -1.0783
24384SOL    HW276108   0.806   8.628   3.564 -2.7747  2.6370 -2.3530
24385SOL     OW76109   4.277   6.410   6.916 -0.0920  0.0992 -0.3407
24385SOL    HW176110   4.316   6.400   6.829  2.4597 -1.0363  0.8342
24385SOL    HW276111   4.256   6.321   6.943 -4.1171  0.6649 -1.0383
24386SOL     OW76112   6.064   3.279   8.444 -0.0019  0.1001 -0.0993
24386SOL    HW176113   6.028   3.196   8.472 -1.1481  0.8783  0.8244
24386SOL    HW276114   5.988   3.330   8.414  0.3077  1.6770  1.6105
24387SOL     OW76115   6.348   5.336   6.664  0.3097 -0.3108 -0.1720
24387SOL    HW176116   6.438   5.327   6.695  1.1037  2.1622 -1.4504
24387SOL    HW276117   6.329   5.429   6.672 -0.6729 -0.0792 -3.6160
24388SOL     OW76118   3.321   7.907   4.935  0.7849  0.1030 -0.0558
24388SOL    HW176119   3.336   7.869   4.849 -2.6375 -0.5869 -0.4982
24388SOL    HW276120   3.358   7.995   4.929  1.4937 -0.2813 -1.8786
24389SOL     OW76121   3.635   2.831   9.597  0.0508 -1.0044  0.4635
24389SOL    HW176122   3.550   2.872   9.584 -0.2560 -2.1406 -1.6273
24389SOL    HW276123   3.685   2.853   9.518  0.9081 -2.1707  0.6453
24390SOL     OW76124   8.076   0.660   8.530  0.0143  0.1499  0.0933
24390SOL    HW176125   8.113   0.745   8.555  0.6634 -0.2246  0.4565
24390SOL    HW276126   8.003   0.681   8.473  0.6928  0.9337 -0.5117
24391SOL     OW76127   1.938   6.429   4.249 -0.6676 -0.2795 -0.2966
24391SOL    HW176128   1.860   6.440   4.194  0.1648  0.0552 -1.4480
24391SOL    HW276129   1.943   6.334   4.265 -1.0466 -0.3530 -0.6099
24392SOL     OW76130   6.858   0.264   2.106 -0.1874  0.0506  0.3604
24392SOL    HW176131   6.896   0.182   2.075 -1.2317 -0.1531 -0.4079
24392SOL    HW276132   6.933   0.323   2.114  0.3021 -0.3106 -1.2421
24393SOL     OW76133   2.643   1.135   3.557 -0.0360 -0.2041  0.5872
24393SOL    HW176134   2.714   1.173   3.505  1.9765 -2.8843  1.1359
24393SOL    HW276135   2.605   1.210   3.604  1.3648  1.5590 -0.9397
24394SOL     OW76136   2.055   7.210   2.556 -0.7921 -0.5177 -0.5056
24394SOL    HW176137   2.023   7.132   2.601 -0.4562 -0.0364  0.5957
24394SOL    HW276138   2.039   7.281   2.617 -0.3855  0.1663 -1.1850
24395SOL     OW76139   3.589   8.877   8.066  0.0479 -0.7487  0.0912
24395SOL    HW176140   3.677   8.914   8.057 -0.5331  0.8238  0.5407
24395SOL    HW276141   3.558   8.911   8.150 -1.3871 -0.4491 -0.5474
24396SOL     OW76142   9.956   9.805   5.366 -0.4865 -0.0046  0.1033
24396SOL    HW176143   9.941   9.889   5.410 -1.0646  0.2612 -0.5801
24396SOL    HW276144   9.873   9.786   5.322  0.1232 -0.1826 -0.9933
24397SOL     OW76145   2.406   9.162   2.984  0.4997  0.4019  0.1241
24397SOL    HW176146   2.318   9.132   3.006  0.6212  1.3799  2.1898
24397SOL    HW276147   2.456   9.082   2.967 -0.2757 -0.2956  1.0311
24398SOL     OW76148   9.054   1.036   3.549 -0.2559 -0.4347  0.8311
24398SOL    HW176149   9.134   1.032   3.497 -1.0456  0.4872 -0.4945
24398SOL    HW276150   9.001   0.962   3.518 -1.4968  1.1550 -1.0621
24399SOL     OW76151   1.854   7.083   6.000  0.6904 -0.3809 -0.3168
24399SOL    HW176152   1.932   7.078   5.944 -0.0462 -0.1453 -1.4077
24399SOL    HW276153   1.781   7.068   5.940 -0.1291 -0.1772  0.6056
24400SOL     OW76154   3.344  10.228   9.229  0.2887  0.5443  0.0052
24400SOL    HW176155   3.310  10.175   9.302 -0.3368  0.7015 -0.1639
24400SOL    HW276156   3.267  10.273   9.195  0.9364  2.3530  0.7644
24401SOL     OW76157   4.867   7.761   9.901  0.1447  0.7948 -0.0142
24401SOL    HW176158   4.906   7.676   9.880 -0.5362  0.8104 -1.5119
24401SOL    HW276159   4.774   7.740   9.916 -0.5258  1.4918 -2.6424
24402SOL     OW76160   2.000   2.471   0.756 -0.7976 -0.4519 -0.7549
24402SOL    HW176161   2.088   2.433   0.759  0.1139  1.4397 -1.6342
24402SOL    HW276162   1.941   2.397   0.767  0.8984 -1.5169  2.4265
24403SOL     OW76163   1.738   2.613   9.644 -0.7898 -0.3060 -0.5376
24403SOL    HW176164   1.765   2.681   9.582 -0.8171  0.1874 -0.0193
24403SOL    HW276165   1.649   2.590   9.618 -1.7408  1.6339  0.7483
24404SOL     OW76166   9.268   2.408   4.773  0.0207  0.0269 -0.1347
24404SOL    HW176167   9.300   2.354   4.845  0.3247 -0.5464 -0.6956
24404SOL    HW276168   9.197   2.459   4.811 -0.3078 -0.8097  0.3877
24405SOL     OW76169   1.302   0.203   2.285 -0.4482  0.3004  0.8116
24405SOL    HW176170   1.291   0.271   2.218  2.8918  0.2168 -0.0220
24405SOL    HW276171   1.318   0.251   2.366 -0.8575  0.4523  0.8045
24406SOL     OW76172   7.915   8.357   9.964  0.6000 -0.2261 -0.9501
24406SOL    HW176173   7.828   8.317   9.960  1.4859 -2.2354 -1.4011
24406SOL    HW276174   7.898   8.451   9.968 -1.5947 -0.5905 -0.2936
24407SOL     OW76175   4.024   8.115   5.797  0.3692 -0.0436  0.5303
24407SOL    HW176176   4.044   8.099   5.705 -1.1714 -0.7695  0.2885
24407SOL    HW276177   3.929   8.130   5.798  0.1015 -1.5212  2.1685
24408SOL     OW76178   3.913   1.699   7.288 -0.3571  0.6828 -0.3716
24408SOL    HW176179   3.872   1.674   7.370  1.4529 -0.7946  0.1489
24408SOL    HW276180   3.842   1.700   7.224 -1.3562 -0.8972  0.6647
24409SOL     OW76181   8.561   5.851   0.021 -0.5687  0.1686 -0.3768
24409SOL    HW176182   8.655   5.858   0.041 -0.1415 -0.3388 -2.0469
24409SOL    HW276183   8.522   5.814   0.100  0.8359 -0.7700 -0.0882
24410SOL     OW76184  10.248   8.871   8.308  1.0482  0.2776 -0.0859
24410SOL    HW176185  10.294   8.815   8.370  0.4591 -1.0191 -0.7885
24410SOL    HW276186  10.275   8.960   8.332  0.3740 -0.1152  2.3907
24411SOL     OW76187   0.905   6.885   6.395  0.7767 -0.4399 -0.8095
24411SOL    HW176188   0.934   6.831   6.322  1.2923 -0.8830 -0.2829
24411SOL    HW276189   0.884   6.823   6.464 -1.7660 -0.1777 -1.2532
24412SOL     OW76190   6.014   9.832   9.755  0.0295 -0.2182 -1.0351
24412SOL    HW176191   6.088   9.885   9.726 -0.7639  1.2383 -0.5062
24412SOL    HW276192   5.943   9.855   9.696 -0.5508 -0.0718 -0.2930
24413SOL     OW76193   4.039   0.093   6.727  0.0503  0.0235  0.0832
24413SOL    HW176194   3.967   0.151   6.702  0.1576 -0.0601 -0.4198
24413SOL    HW276195   4.076   0.063   6.644  0.6990  0.1070  0.3363
24414SOL     OW76196   4.700   0.981   3.566 -0.0892 -0.6657 -0.0109
24414SOL    HW176197   4.793   0.998   3.582  0.0304  1.1806 -2.0517
24414SOL    HW276198   4.654   1.035   3.630  0.2135 -1.6515  1.0626
24415SOL     OW76199   5.780   2.823   0.553 -0.0029  0.0540  0.1149
24415SOL    HW176200   5.804   2.914   0.540 -0.6050  0.0651 -1.0219
24415SOL    HW276201   5.686   2.819   0.535 -0.0152 -0.7570  0.3056
24416SOL     OW76202   3.076   5.613   5.956 -0.1603 -0.4745  0.8647
24416SOL    HW176203   3.085   5.657   6.040  0.5310  0.8534  0.1259
24416SOL    HW276204   3.165   5.582   5.936  0.4411  1.9806 -0.7827
24417SOL     OW76205   8.817   2.080   6.564 -0.2198 -0.1319 -0.0218
24417SOL    HW176206   8.863   2.039   6.491  0.1941 -0.9011  0.6507
24417SOL    HW276207   8.801   2.008   6.625  1.6416  0.8892  1.7997
24418SOL     OW76208   6.529   8.555   5.710 -0.1348 -0.0931 -0.1188
24418SOL    HW176209   6.534   8.634   5.764 -0.3242  0.2724 -0.6285
24418SOL    HW276210   6.436   8.534   5.705 -0.0524 -0.5847  0.3466
24419SOL     OW76211   3.482   0.065   1.256  0.1609 -0.6565  0.5928
24419SOL    HW176212   3.391   0.075   1.228  0.4624  0.6844  0.0294
24419SOL    HW276213   3.482  -0.016   1.308 -1.6584  0.0786  1.8692
24420SOL     OW76214   5.780   6.813   0.813 -0.7884 -0.0408 -0.4172
24420SOL    HW176215   5.778   6.717   0.810  0.6090 -0.0723 -2.1181
24420SOL    HW276216   5.729   6.841   0.738 -0.0545  0.5085 -0.7224
24421SOL     OW76217   8.660   8.242   6.596 -0.3157 -0.1822  0.4508
24421SOL    HW176218   8.610   8.177   6.548  0.5672  1.5753 -3.1910
24421SOL    HW276219   8.751   8.214   6.587  0.4511  2.7201 -3.8208
24422SOL     OW76220   9.655   6.147   5.635 -0.0229  0.4993  0.0765
24422SOL    HW176221   9.710   6.113   5.564  0.6497  1.6738  0.0085
24422SOL    HW276222   9.603   6.216   5.593 -1.3607 -0.4047  0.2084
24423SOL     OW76223   7.817   6.483   4.922 -0.2925 -0.4274 -0.0532
24423SOL    HW176224   7.847   6.500   5.011 -2.2135 -0.1997  0.5922
24423SOL    HW276225   7.896   6.492   4.868  0.6604  0.7402  1.4573
24424SOL     OW76226   5.497   1.875   5.945  1.0839 -0.2608  0.3667
24424SOL    HW176227   5.554   1.939   5.902  2.3121 -0.7140  1.2610
24424SOL    HW276228   5.411   1.918   5.948  1.9480  1.5332  1.2478
24425SOL     OW76229   7.975   2.727   1.457 -0.2375 -0.1891  1.0175
24425SOL    HW176230   8.014   2.784   1.523 -1.4964  1.6468  0.2573
24425SOL    HW276231   7.928   2.786   1.398 -0.8196 -1.9399 -0.3817
24426SOL     OW76232   3.608   8.354   1.696  1.0400 -0.5372  0.0599
24426SOL    HW176233   3.691   8.362   1.649  0.6607 -1.4993 -0.8191
24426SOL    HW276234   3.567   8.276   1.659 -2.0678  1.9810 -2.5028
24427SOL     OW76235   8.777   9.105   9.954  0.0698  0.7017 -0.1697
24427SOL    HW176236   8.735   9.021   9.937 -1.9618  1.8702 -1.2747
24427SOL    HW276237   8.776   9.114  10.050 -1.3359  0.2390 -0.1230
24428SOL     OW76238   8.752   8.665   6.897 -0.3007  0.3190  0.1883
24428SOL    HW176239   8.807   8.618   6.833 -0.0964  2.1735 -1.0987
24428SOL    HW276240   8.700   8.597   6.939 -0.2775 -1.0357 -1.8139
24429SOL     OW76241   2.295   0.261   8.140  1.0652  0.1367 -0.2802
24429SOL    HW176242   2.312   0.324   8.210  0.2420  0.5033 -0.4003
24429SOL    HW276243   2.227   0.302   8.087 -0.8790 -1.6363  0.6977
24430SOL     OW76244   4.293   7.038   2.610 -0.1343 -0.3327  0.4435
24430SOL    HW176245   4.298   6.942   2.602  2.4818 -0.7175  3.8928
24430SOL    HW276246   4.228   7.053   2.679 -0.5033  0.3971 -0.0551
24431SOL     OW76247   6.948   9.024   7.644 -0.0050  0.3886 -0.1965
24431SOL    HW176248   6.972   8.943   7.598 -0.8005 -0.5127  0.9372
24431SOL    HW276249   6.923   8.996   7.732 -1.7486  1.6857 -0.2296
24432SOL     OW76250   6.654   6.368   9.000 -0.3672 -0.0159 -0.2214
24432SOL    HW176251   6.741   6.329   9.003 -0.5363 -0.3294  1.2094
24432SOL    HW276252   6.604   6.308   8.944  0.2272 -0.0278 -0.7526
24433SOL     OW76253   7.198   1.740   1.710  0.2157 -0.2314  0.1001
24433SOL    HW176254   7.119   1.699   1.673 -0.1700 -0.8833  1.5276
24433SOL    HW276255   7.270   1.699   1.664 -0.2484 -0.9028 -0.0499
24434SOL     OW76256   0.726   8.793   5.655  0.7338 -0.0149  0.5503
24434SOL    HW176257   0.638   8.760   5.675  0.5930  0.5735  0.8944
24434SOL    HW276258   0.712   8.865   5.594  1.1115 -1.3013 -1.1725
24435SOL     OW76259   9.268   6.077   4.789 -0.1891 -0.4121 -0.7946
24435SOL    HW176260   9.230   6.165   4.792 -0.7686 -0.6718 -0.3752
24435SOL    HW276261   9.193   6.018   4.785  0.0344 -1.0388  2.0256
24436SOL     OW76262   4.198   6.222   8.217 -0.3538  0.4286 -0.0501
24436SOL    HW176263   4.278   6.172   8.204 -0.6182 -0.1941  0.6810
24436SOL    HW276264   4.143   6.199   8.143 -1.4089 -2.2318  1.4434
24437SOL     OW76265   7.064   5.692   4.752 -0.1005 -0.9682  0.2876
24437SOL    HW176266   7.122   5.766   4.736 -1.3167  0.6833  2.8704
24437SOL    HW276267   7.106   5.643   4.822 -0.6564 -1.0833  0.5480
24438SOL     OW76268   3.028   6.400   1.281  0.2945  0.5038 -0.2126
24438SOL    HW176269   2.945   6.356   1.301 -0.0101  1.0010 -0.3707
24438SOL    HW276270   3.085   6.329   1.251  0.2716 -0.0097  0.9204
24439SOL     OW76271   4.595   6.733   9.778 -0.1763  0.6187  0.3392
24439SOL    HW176272   4.536   6.736   9.703  1.3744  0.5328 -0.9486
24439SOL    HW276273   4.580   6.646   9.816 -1.3048  0.8337  0.4242
24440SOL     OW76274   5.480   4.160   1.092  0.5567 -0.1551 -0.1566
24440SOL    HW176275   5.461   4.066   1.101  1.3970 -0.2967  0.1750
24440SOL    HW276276   5.553   4.176   1.151 -0.7230  1.0835  1.1510
24441SOL     OW76277   5.690  10.231   2.061  0.4032  0.2732 -0.1465
24441SOL    HW176278   5.602  10.261   2.085  0.7883  1.6067 -0.3274
24441SOL    HW276279   5.720  10.294   1.996  1.2421 -0.5663 -0.6034
24442SOL     OW76280   2.528   1.917   5.217 -0.0454 -0.1468  0.1760
24442SOL    HW176281   2.536   1.903   5.312  1.2554 -0.1929  0.0686
24442SOL    HW276282   2.437   1.943   5.205 -0.2302 -0.1443  1.4451
24443SOL     OW76283   4.753   3.907   2.440 -0.0908 -0.4794  0.1902
24443SOL    HW176284   4.751   3.975   2.372 -0.6955  1.9179  2.4577
24443SOL    HW276285   4.749   3.955   2.522  0.5060 -3.2667  1.9781
24444SOL     OW76286   0.454   2.324   9.434  0.0790 -0.4846  0.7867
24444SOL    HW176287   0.393   2.383   9.476  1.2133  0.3033  1.3641
24444SOL    HW276288   0.433   2.331   9.340 -0.5577 -0.0686  0.9538
24445SOL     OW76289   2.478   4.512   9.368 -0.2819  0.5971 -0.3548
24445SOL    HW176290   2.565   4.496   9.332 -0.7255 -0.1593 -1.1229
24445SOL    HW276291   2.483   4.480   9.458 -0.0969 -0.5339 -0.7606
24446SOL     OW76292   2.660   1.294   6.107 -0.4839  0.3934 -0.0064
24446SOL    HW176293   2.607   1.345   6.046 -1.0634 -2.0887 -1.7324
24446SOL    HW276294   2.597   1.239   6.154 -0.0109  2.0110  2.7155
24447SOL     OW76295   3.592   3.470   3.692 -0.5816 -0.3202 -0.0072
24447SOL    HW176296   3.529   3.429   3.752 -0.7306  0.5375  0.4393
24447SOL    HW276297   3.543   3.483   3.611 -0.9489  0.2421  0.3013
24448SOL     OW76298   0.336   0.269   0.470  0.3085 -0.0415 -0.2206
24448SOL    HW176299   0.277   0.264   0.395  1.5287 -0.8929 -1.1667
24448SOL    HW276300   0.363   0.361   0.473 -1.9875  0.6898  1.0329
24449SOL     OW76301   0.351   7.045   1.786  0.0818 -0.3182 -0.2593
24449SOL    HW176302   0.354   7.105   1.712  0.1418  0.3356  0.2657
24449SOL    HW276303   0.361   7.101   1.863  0.0823 -0.9932  0.2418
24450SOL     OW76304  10.204   3.579   0.255 -0.1552 -0.5365 -0.1374
24450SOL    HW176305  10.264   3.570   0.329  2.2100 -1.1814 -2.0053
24450SOL    HW276306  10.234   3.657   0.209  0.2141 -1.6373 -1.8707
24451SOL     OW76307   8.019  10.293   2.439  0.6787 -0.5765  0.4126
24451SOL    HW176308   7.972  10.334   2.366  1.2955 -0.4144  0.0973
24451SOL    HW276309   7.985  10.338   2.517  1.8310  1.0650  0.0249
24452SOL     OW76310   5.500   6.423   1.112 -0.0137  0.2372 -0.3010
24452SOL    HW176311   5.409   6.422   1.142 -0.2517 -0.8045 -0.9988
24452SOL    HW276312   5.517   6.333   1.085  1.1528  0.4769 -0.4220
24453SOL     OW76313   8.907   0.691   8.184  0.2463  0.0546  0.2587
24453SOL    HW176314   8.897   0.627   8.255 -0.5171  1.4874  1.4980
24453SOL    HW276315   8.997   0.677   8.153 -0.5925 -3.2131 -1.1875
24454SOL     OW76316   2.710   4.787   2.554  0.4298  0.1864 -0.1455
24454SOL    HW176317   2.791   4.818   2.595  0.7099 -0.1254 -0.4536
24454SOL    HW276318   2.656   4.756   2.626  0.8441 -0.1969  0.0031
24455SOL     OW76319   3.276   4.688   9.267 -0.0477  0.0964  0.1052
24455SOL    HW176320   3.253   4.712   9.357 -1.7605 -0.7121 -0.0843
24455SOL    HW276321   3.201   4.639   9.235 -1.2190  3.5263 -3.0669
24456SOL     OW76322   2.761   1.008   8.490  0.4183 -0.3564  0.4771
24456SOL    HW176323   2.797   0.998   8.578  1.5190  0.6237  0.1592
24456SOL    HW276324   2.822   1.066   8.445  0.6089 -1.8698 -1.3594
24457SOL     OW76325   5.181   7.067   7.133 -0.3059  0.3874  0.2718
24457SOL    HW176326   5.150   6.977   7.122 -1.4879  0.7503  0.4623
24457SOL    HW276327   5.232   7.085   7.054 -0.7077 -0.2002 -0.1256
24458SOL     OW76328   2.801   2.546   1.758  0.2120  0.0090  0.7087
24458SOL    HW176329   2.845   2.626   1.729 -0.7481 -0.2125 -1.5583
24458SOL    HW276330   2.709   2.571   1.762 -0.0814 -0.9388  0.0730
24459SOL     OW76331   2.742   7.824   3.706  0.0523  0.4452 -0.1856
24459SOL    HW176332   2.761   7.917   3.717 -2.7862  0.9615  1.3457
24459SOL    HW276333   2.717   7.816   3.614 -2.2799  1.8468  0.2466
24460SOL     OW76334   4.893   7.422   2.015 -0.1617 -0.1785  0.3173
24460SOL    HW176335   4.824   7.431   2.081 -0.5529 -1.2790  0.0882
24460SOL    HW276336   4.927   7.510   2.004 -1.2412  0.3192  0.7648
24461SOL     OW76337   9.627  10.580   4.946 -0.4294 -0.4972  0.4208
24461SOL    HW176338   9.544  10.573   4.993 -0.0513 -2.3948  0.8652
24461SOL    HW276339   9.693  10.580   5.014 -0.0237  0.6948  0.0510
24462SOL     OW76340   1.810   9.655   1.851  0.6008  0.1180 -0.2160
24462SOL    HW176341   1.861   9.637   1.773  0.2276 -0.6065 -0.3007
24462SOL    HW276342   1.863   9.717   1.901  0.2892  1.5953 -1.6182
24463SOL     OW76343   9.720   0.002   5.493  0.3259 -0.4987  0.0682
24463SOL    HW176344   9.691  -0.086   5.516 -1.4808 -0.2896 -1.1710
24463SOL    HW276345   9.691   0.057   5.566  3.1329 -1.0917  1.7927
24464SOL     OW76346   7.474   7.784   8.894  0.1154  0.0614  0.1413
24464SOL    HW176347   7.562   7.818   8.881  0.6169 -0.4041  1.9722
24464SOL    HW276348   7.450   7.812   8.982 -0.3575 -2.2851  0.8452
24465SOL     OW76349   0.550  10.423   3.839  0.1749  0.1719 -0.3502
24465SOL    HW176350   0.476  10.365   3.857 -0.4715  0.7506 -1.0823
24465SOL    HW276351   0.627  10.373   3.866 -0.4180 -0.7667 -0.3601
24466SOL     OW76352   1.987   8.612   0.143  0.1096 -0.1349  0.3964
24466SOL    HW176353   1.893   8.605   0.161  0.2626 -1.7985  0.7732
24466SOL    HW276354   2.023   8.652   0.222 -0.0140 -1.7139  1.3038
24467SOL     OW76355   0.249   8.767   5.769  0.0871 -0.2747  0.1665
24467SOL    HW176356   0.276   8.780   5.678 -2.7897  2.3246 -0.4630
24467SOL    HW276357   0.154   8.758   5.765 -0.1525  0.0873  2.9430
24468SOL     OW76358   0.351   3.642   2.930 -0.0714  0.0071  0.3001
24468SOL    HW176359   0.337   3.669   2.839  1.0894  2.0032  0.6565
24468SOL    HW276360   0.377   3.550   2.924  0.5154  0.2504 -1.4342
24469SOL     OW76361   4.919   5.345   9.102 -0.0614 -0.1114 -0.3868
24469SOL    HW176362   4.996   5.306   9.143  0.5150  1.0549 -0.3375
24469SOL    HW276363   4.954   5.413   9.043 -1.0102 -0.0529 -0.9028
24470SOL     OW76364   0.850   9.880   1.866 -0.0884 -0.0315  0.1013
24470SOL    HW176365   0.774   9.824   1.850 -1.7555  1.9193  0.6667
24470SOL    HW276366   0.828   9.928   1.946  2.3496 -0.3124  1.0253
24471SOL     OW76367   3.008   3.813   3.178 -0.4408 -0.0352  0.3918
24471SOL    HW176368   3.015   3.814   3.274 -1.2736 -0.4401  0.4659
24471SOL    HW276369   2.960   3.894   3.157 -0.3430  0.0052  0.3254
24472SOL     OW76370   2.801   0.208  10.427 -0.5346 -0.0256  0.1812
24472SOL    HW176371   2.819   0.164  10.344 -0.5926 -0.5435  0.4408
24472SOL    HW276372   2.784   0.299  10.403 -1.9548 -0.4434 -0.5382
24473SOL     OW76373   3.167   1.306   9.431  0.2829  0.3144  0.3751
24473SOL    HW176374   3.255   1.269   9.432  0.1011 -0.1745  2.3478
24473SOL    HW276375   3.166   1.363   9.354  2.6600  1.1176  0.8458
24474SOL     OW76376   6.296   2.914   1.097 -0.8001 -0.5824  0.0205
24474SOL    HW176377   6.377   2.934   1.143 -0.7399  0.6925 -0.6164
24474SOL    HW276378   6.234   2.891   1.167 -0.4482  0.4177  0.6766
24475SOL     OW76379   3.332   7.710   6.618  0.2105  0.3916 -0.3330
24475SOL    HW176380   3.256   7.768   6.630 -0.2276 -0.2231 -0.1020
24475SOL    HW276381   3.399   7.747   6.676 -0.2891  0.2834  0.3284
24476SOL     OW76382   1.996   9.555   0.886  0.0761  0.4237 -0.0964
24476SOL    HW176383   1.901   9.564   0.872 -0.3404 -1.6145  1.1142
24476SOL    HW276384   2.022   9.638   0.925 -1.6417  0.2566  1.5242
24477SOL     OW76385   5.174  10.585  10.315  0.2003 -0.4479  0.1082
24477SOL    HW176386   5.189  10.609  10.223  4.0981 -2.8129 -0.0915
24477SOL    HW276387   5.121  10.506  10.311  0.7422 -0.8012 -0.1486
24478SOL     OW76388   6.751   3.050   3.189  0.3198  0.5829 -0.1705
24478SOL    HW176389   6.821   3.025   3.250 -0.5919 -0.6119  0.4449
24478SOL    HW276390   6.784   3.026   3.103  0.5984 -0.1726  0.1364
24479SOL     OW76391   1.994   0.833   8.583  0.3603  0.2851 -0.1668
24479SOL    HW176392   1.905   0.837   8.617  0.7355  0.4513  0.8466
24479SOL    HW276393   2.050   0.849   8.660  1.2888 -0.9035 -0.5614
24480SOL     OW76394   7.160  10.535   2.926 -0.0419 -0.3993 -0.6782
24480SOL    HW176395   7.080  10.576   2.962  0.9048 -0.3031  1.4558
24480SOL    HW276396   7.231  10.593   2.953  1.1181 -2.2718  0.5364
24481SOL     OW76397   0.474   0.813  10.606 -0.1465 -0.3485  0.2836
24481SOL    HW176398   0.477   0.722  10.576 -3.6382  0.0217 -1.7722
24481SOL    HW276399   0.504   0.864  10.531  1.4990  0.2641  1.3190
24482SOL     OW76400   0.142   2.223   7.243 -0.9667 -0.1905  0.7735
24482SOL    HW176401   0.117   2.315   7.251 -0.4990  0.0432 -0.3424
24482SOL    HW276402   0.227   2.218   7.286  0.0634  0.3928 -1.1247
24483SOL     OW76403   9.291   9.348   6.845 -0.5953 -0.1388 -0.1881
24483SOL    HW176404   9.274   9.390   6.761  0.3210 -0.0188 -0.3230
24483SOL    HW276405   9.245   9.264   6.839 -1.6930  0.4430 -0.2578
24484SOL     OW76406   8.077   9.950   0.233 -0.2521  0.0374 -1.0703
24484SOL    HW176407   8.166   9.985   0.224  0.2905 -1.0068 -0.1409
24484SOL    HW276408   8.084   9.889   0.306 -2.4080  1.9848  0.8909
24485SOL     OW76409   5.583   5.799   6.623  0.5656 -0.2257 -0.0367
24485SOL    HW176410   5.654   5.813   6.561  0.2592 -0.0793 -0.3583
24485SOL    HW276411   5.516   5.752   6.573 -0.2732  1.1404 -0.2333
24486SOL     OW76412   0.082   1.353  10.268 -0.0470 -0.3411  0.7769
24486SOL    HW176413   0.131   1.391  10.195  0.5404 -0.0454  1.3112
24486SOL    HW276414   0.123   1.267  10.281  0.0159 -0.2891  0.9195
24487SOL     OW76415   0.633   5.758   6.057 -0.1195  0.1368  0.0807
24487SOL    HW176416   0.584   5.814   6.117 -0.0168  0.4940 -0.1618
24487SOL    HW276417   0.709   5.729   6.107 -0.7307 -0.6705  0.5621
24488SOL     OW76418   4.733   3.600   7.438 -0.1098 -0.3949  0.4359
24488SOL    HW176419   4.666   3.646   7.387 -0.1465  0.3500  1.1433
24488SOL    HW276420   4.811   3.605   7.382 -0.3789 -0.3887  0.0509
24489SOL     OW76421   0.793   8.186   0.110 -0.1375 -0.3707 -0.0178
24489SOL    HW176422   0.713   8.184   0.059 -1.4097 -4.5886  1.6808
24489SOL    HW276423   0.780   8.255   0.175 -0.8793  1.2221 -1.7954
24490SOL     OW76424   5.362   7.623   6.316 -0.4304  0.3932  0.1139
24490SOL    HW176425   5.428   7.649   6.380  0.2890  0.4468 -0.6415
24490SOL    HW276426   5.347   7.530   6.333  0.0265  0.3216  0.1310
24491SOL     OW76427  10.551  10.506   3.413 -0.0940 -0.1587  0.0630
24491SOL    HW176428  10.556  10.529   3.320  1.7917  1.4460  0.4914
24491SOL    HW276429  10.458  10.491   3.429 -0.5125  0.0047 -1.9714
24492SOL     OW76430   3.546  10.619   1.898  0.0493 -0.4640 -0.6791
24492SOL    HW176431   3.487  10.661   1.835 -1.5394  1.6107  1.9819
24492SOL    HW276432   3.520  10.527   1.898 -0.2150 -0.4301 -2.6613
24493SOL     OW76433   8.042   2.986   2.597 -0.2131 -0.5117  0.3808
24493SOL    HW176434   8.028   3.036   2.677  0.1178 -1.2057  0.8765
24493SOL    HW276435   7.960   2.938   2.584  0.4220 -1.9186  1.3963
24494SOL     OW76436   7.368   6.230   8.925  0.0994  0.2082 -0.6682
24494SOL    HW176437   7.392   6.314   8.888  1.9165 -0.9982 -2.4257
24494SOL    HW276438   7.306   6.193   8.862  0.2079 -0.2432 -0.5146
24495SOL     OW76439   5.560   4.834   1.411  0.1020 -0.1202  0.0380
24495SOL    HW176440   5.604   4.908   1.371  0.8271 -1.8630 -2.7029
24495SOL    HW276441   5.472   4.866   1.431  1.0826  2.0598  1.0796
24496SOL     OW76442   9.377   6.584   3.724  0.5897 -0.2970  0.1111
24496SOL    HW176443   9.343   6.620   3.643 -2.6279 -1.8384  0.6141
24496SOL    HW276444   9.432   6.653   3.760 -1.3481  2.1560 -1.3183
24497SOL     OW76445  10.355   8.034   3.826 -0.4304 -0.0143 -0.1037
24497SOL    HW176446  10.344   8.128   3.817 -0.7807 -0.0517 -0.0894
24497SOL    HW276447  10.307   8.012   3.907  2.0297  0.2217  1.5270
24498SOL     OW76448   4.861   4.114   5.218 -0.8793  0.2001 -0.4729
24498SOL    HW176449   4.955   4.129   5.210 -0.9552  0.0912 -1.7969
24498SOL    HW276450   4.853   4.024   5.250 -0.5305 -0.1315 -1.2837
24499SOL     OW76451   4.510  10.362   8.546  0.3640  0.4007  0.5530
24499SOL    HW176452   4.496  10.387   8.455  0.9343  0.3304  0.4394
24499SOL    HW276453   4.599  10.326   8.547  0.3465  0.3685  1.1272
24500SOL     OW76454  10.512  10.004   9.871  0.1492 -0.1548  0.6907
24500SOL    HW176455  10.481  10.086   9.909  0.1440 -0.0396  0.4389
24500SOL    HW276456  10.477   9.936   9.929 -0.4747 -0.0236  0.4810
24501SOL     OW76457   7.036   4.222   8.299 -0.4319 -0.2229 -0.2956
24501SOL    HW176458   6.949   4.183   8.291  0.1214 -1.5096 -0.3578
24501SOL    HW276459   7.068   4.228   8.209  0.0446 -0.9806 -0.1850
24502SOL     OW76460   7.938  10.414   2.671  0.3544 -0.5566 -0.0921
24502SOL    HW176461   7.857  10.465   2.661  0.3070 -0.5400  0.3823
24502SOL    HW276462   7.969  10.435   2.759 -0.1442 -2.0079  0.4622
24503SOL     OW76463   4.733   6.090   7.920  0.0945 -0.2522  0.2876
24503SOL    HW176464   4.653   6.082   7.972 -0.6768 -0.6861 -0.9310
24503SOL    HW276465   4.760   6.000   7.903  0.4206 -0.1164  0.0597
24504SOL     OW76466   0.040   2.770   2.256  0.1239 -0.0667  0.4563
24504SOL    HW176467  -0.007   2.816   2.186  0.3047  0.6592  0.7999
24504SOL    HW276468  -0.028   2.747   2.320  0.0274 -0.3109  0.2658
24505SOL     OW76469   2.776   8.896   6.677  0.3294 -0.7468  0.0499
24505SOL    HW176470   2.802   8.889   6.586 -0.1690 -0.6853 -0.1007
24505SOL    HW276471   2.805   8.814   6.717  0.3645 -0.8606 -0.2099
24506SOL     OW76472   8.842   3.170   0.271 -0.4784 -0.4002  0.5319
24506SOL    HW176473   8.803   3.231   0.334 -0.9221  0.6060 -0.6839
24506SOL    HW276474   8.787   3.091   0.277  1.1111 -1.4223  3.3423
24507SOL     OW76475  10.201   8.507   8.398  0.7008  0.3409 -0.0340
24507SOL    HW176476  10.230   8.416   8.404 -0.3361 -0.0074 -0.0386
24507SOL    HW276477  10.243   8.541   8.319  0.2864 -0.4414 -0.5979
24508SOL     OW76478   6.665   4.619   0.758  0.3255  0.2766  0.3896
24508SOL    HW176479   6.586   4.579   0.793  1.4538 -2.0594  0.4324
24508SOL    HW276480   6.633   4.679   0.690 -1.5068  0.2535  1.1626
24509SOL     OW76481   5.369   3.643   2.922  0.3663 -0.1483  0.1474
24509SOL    HW176482   5.304   3.611   2.985  1.1303 -1.2534  0.4053
24509SOL    HW276483   5.361   3.739   2.926  0.0298 -0.2108  1.5361
24510SOL     OW76484   2.080   0.198  10.483 -0.0476  0.2163  0.2301
24510SOL    HW176485   1.990   0.202  10.450 -0.0785  2.1506  0.4532
24510SOL    HW276486   2.118   0.283  10.461  1.1395  0.1370  1.7810
24511SOL     OW76487   1.973   2.075   0.932 -0.3803 -0.8291 -0.1401
24511SOL    HW176488   1.957   2.039   1.019 -4.9142 -1.7399 -1.1066
24511SOL    HW276489   1.962   2.170   0.943  1.1452 -0.6944  0.5381
24512SOL     OW76490   4.286  10.545   2.795 -0.0674  0.0064  0.0537
24512SOL    HW176491   4.345  10.510   2.728  0.2735  0.3106  0.1915
24512SOL    HW276492   4.306  10.638   2.798 -0.2150  0.0264  0.4463
24513SOL     OW76493   0.792   0.023   5.303 -0.5138 -0.3956 -0.1054
24513SOL    HW176494   0.832   0.047   5.387  1.2176 -1.8807 -0.4376
24513SOL    HW276495   0.862   0.037   5.238 -1.3477 -0.6921 -1.0913
24514SOL     OW76496   2.746   6.845   4.276  0.2886 -0.1911  0.5786
24514SOL    HW176497   2.760   6.843   4.370  0.2940  1.4173  0.6240
24514SOL    HW276498   2.796   6.920   4.245  0.8450 -1.0891 -0.8193
24515SOL     OW76499   2.495   8.894   4.959 -0.2742 -0.0839  0.3068
24515SOL    HW176500   2.560   8.931   5.018 -1.0275  1.8671 -0.0257
24515SOL    HW276501   2.438   8.842   5.016  1.0672 -1.1755  0.7126
24516SOL     OW76502   5.707   3.325   7.650  0.2583  0.2879 -0.5526
24516SOL    HW176503   5.644   3.267   7.608  0.0683 -1.5679  2.0568
24516SOL    HW276504   5.792   3.291   7.623  0.1498  0.1981 -0.7891
24517SOL     OW76505   4.173   4.502   4.376 -0.0521 -0.2398  0.0302
24517SOL    HW176506   4.140   4.470   4.460 -0.9241  0.1848 -0.1372
24517SOL    HW276507   4.106   4.478   4.313  0.1813  0.2292 -0.4053
24518SOL     OW76508   9.847   7.759   7.189  0.0791  0.2207  0.1129
24518SOL    HW176509   9.889   7.722   7.267 -0.7342  0.4595  0.6826
24518SOL    HW276510   9.780   7.695   7.165 -0.4168  0.6654  0.2826
24519SOL     OW76511   8.182   3.495   2.115  0.2430  0.1119 -0.4860
24519SOL    HW176512   8.104   3.456   2.153 -0.0171  1.0558 -0.0260
24519SOL    HW276513   8.208   3.434   2.046 -1.6242  0.3828 -1.5018
24520SOL     OW76514   1.345   3.074   6.192 -0.2389 -0.0662 -0.9503
24520SOL    HW176515   1.324   3.013   6.263 -0.5346 -0.1031 -1.0710
24520SOL    HW276516   1.440   3.067   6.183 -0.3253 -0.9268 -1.3388
24521SOL     OW76517   6.198   6.535  10.306 -0.0780  0.1646 -0.2516
24521SOL    HW176518   6.207   6.461  10.246  0.6259  0.9894 -1.1993
24521SOL    HW276519   6.276   6.530  10.361 -0.6595 -0.5159  0.5403
24522SOL     OW76520   9.568   8.042   8.787 -0.3755  0.0711  0.2578
24522SOL    HW176521   9.545   8.113   8.727  0.6758  0.5485  0.3944
24522SOL    HW276522   9.484   8.007   8.817 -1.1265  3.5150  2.8581
24523SOL     OW76523   0.418   2.614   1.456  0.4276 -0.1004 -0.7283
24523SOL    HW176524   0.430   2.703   1.424 -1.4815  0.2953 -0.4732
24523SOL    HW276525   0.499   2.594   1.502  1.2403  1.1609 -1.5488
24524SOL     OW76526   0.507   8.903   3.508 -0.5144  0.3141 -0.1020
24524SOL    HW176527   0.518   8.874   3.417 -1.3865  0.0715 -0.1446
24524SOL    HW276528   0.416   8.880   3.529 -0.3814  0.5521  0.7673
24525SOL     OW76529   1.533   0.805   6.008 -0.2486  0.0808 -0.1262
24525SOL    HW176530   1.451   0.820   5.961 -0.3352 -1.3045 -0.4661
24525SOL    HW276531   1.528   0.714   6.037 -0.0626  0.7912  2.3517
24526SOL     OW76532   8.537   3.051   0.828  0.2146 -0.4300 -0.3441
24526SOL    HW176533   8.553   3.043   0.734 -0.1879 -1.2366 -0.3459
24526SOL    HW276534   8.603   3.114   0.858  0.5331 -0.3896 -1.1133
24527SOL     OW76535   7.559   5.712   5.658 -0.3857  0.3207  0.4210
24527SOL    HW176536   7.542   5.618   5.644 -0.0171  0.4626 -1.2008
24527SOL    HW276537   7.516   5.755   5.584  3.0062  1.0636 -1.2877
24528SOL     OW76538   9.156   6.660   4.574  0.1421 -0.1035 -0.3249
24528SOL    HW176539   9.204   6.589   4.617 -2.4692 -2.0434 -0.4175
24528SOL    HW276540   9.123   6.713   4.646  0.3666 -0.1580 -0.1797
24529SOL     OW76541   9.898   7.356   1.823  0.1957  0.3513  0.0688
24529SOL    HW176542   9.934   7.320   1.905  0.9195  0.0293 -0.3801
24529SOL    HW276543   9.838   7.288   1.791  1.7967 -0.6605 -0.9416
24530SOL     OW76544   0.815   8.699   6.627 -0.3529  0.4234 -0.6542
24530SOL    HW176545   0.870   8.635   6.672  0.3812  0.9291 -0.8166
24530SOL    HW276546   0.864   8.723   6.549 -0.1240  1.9395 -0.0778
24531SOL     OW76547   9.521   0.124  10.470  0.3791  0.1962  0.0669
24531SOL    HW176548   9.427   0.108  10.474  0.5006 -0.3812  2.9891
24531SOL    HW276549   9.529   0.214  10.437 -1.3996  1.2226  2.1565
24532SOL     OW76550   7.203   0.939   7.402  0.3056 -0.0771 -0.1359
24532SOL    HW176551   7.261   0.885   7.455 -1.0348  0.0352  1.5060
24532SOL    HW276552   7.260   0.976   7.335  1.6950 -1.6929  0.0720
24533SOL     OW76553   3.398  10.451   4.984 -0.0305 -0.3967  0.0849
24533SOL    HW176554   3.341  10.382   5.018  0.9731 -1.1995  0.1778
24533SOL    HW276555   3.458  10.405   4.925  2.1823 -0.0381  1.9262
24534SOL     OW76556   9.740   0.086   6.495  0.2152 -0.2575  0.1452
24534SOL    HW176557   9.680   0.022   6.534  0.6172 -2.4644 -2.5027
24534SOL    HW276558   9.699   0.109   6.411  2.3711 -0.8422 -1.1483
24535SOL     OW76559   7.740   6.123   6.772  0.1530 -0.2470 -0.1786
24535SOL    HW176560   7.706   6.092   6.688 -0.7101  1.1812 -0.3803
24535SOL    HW276561   7.773   6.211   6.754  0.4967 -0.1474  0.8594
24536SOL     OW76562   2.649   1.670   0.467 -0.1378  0.6364  0.1625
24536SOL    HW176563   2.652   1.587   0.418 -0.5452  1.9370 -2.2415
24536SOL    HW276564   2.613   1.647   0.552 -0.4513 -1.6103 -0.5175
24537SOL     OW76565   0.948   2.834   6.610  0.1719 -0.1342  0.3611
24537SOL    HW176566   0.920   2.860   6.523  3.4880  0.7602 -0.5897
24537SOL    HW276567   0.959   2.739   6.606  1.5179  0.0320 -0.6846
24538SOL     OW76568   5.591   1.349   8.336 -0.1238 -0.2766 -0.4394
24538SOL    HW176569   5.512   1.373   8.289 -1.1327  0.2200  1.4021
24538SOL    HW276570   5.592   1.407   8.412  1.1293 -1.3919  0.4510
24539SOL     OW76571   2.062   9.125   1.632 -0.3303  0.2524  0.3369
24539SOL    HW176572   2.031   9.035   1.639 -2.3015  0.6225 -2.1932
24539SOL    HW276573   2.124   9.123   1.559 -1.5268  1.1487 -0.7441
24540SOL     OW76574   7.486   7.598   1.814 -0.1523 -0.0974  0.3862
24540SOL    HW176575   7.407   7.561   1.774 -0.9600  3.1068 -1.3747
24540SOL    HW276576   7.555   7.584   1.749 -0.4824  1.3670 -0.3313
24541SOL     OW76577   7.484   6.501   2.253  0.2053  0.6169  0.3148
24541SOL    HW176578   7.423   6.540   2.191  0.5998  1.0881  0.2197
24541SOL    HW276579   7.475   6.553   2.333 -1.6584 -1.1124  1.3239
24542SOL     OW76580   9.960   7.258   9.561  0.1387  0.1366 -0.0567
24542SOL    HW176581   9.904   7.297   9.494  0.0684 -0.7711 -0.5474
24542SOL    HW276582  10.047   7.253   9.519  0.1662 -0.1430  0.0315
24543SOL     OW76583   7.993   6.754   4.900 -0.0263 -0.2077 -0.2203
24543SOL    HW176584   8.084   6.784   4.903  0.5236 -1.8123  2.5393
24543SOL    HW276585   7.996   6.675   4.846  0.6715 -1.3264  1.3626
24544SOL     OW76586   4.854  10.508   6.833 -0.1752 -0.0730 -0.6897
24544SOL    HW176587   4.803  10.443   6.784 -0.5679  0.2167 -0.6705
24544SOL    HW276588   4.788  10.561   6.878  0.2101 -1.1611  1.2324
24545SOL     OW76589   4.390   6.395   5.979 -0.3162 -0.1917 -0.0517
24545SOL    HW176590   4.423   6.374   5.891  1.0292  0.7361  0.1895
24545SOL    HW276591   4.397   6.491   5.984 -3.0719  0.0807  0.0744
24546SOL     OW76592   3.128   5.765   0.636  0.4532 -0.0587  0.1268
24546SOL    HW176593   3.171   5.838   0.590 -0.2403  0.4576  0.2862
24546SOL    HW276594   3.120   5.795   0.726  0.0368 -0.2693  0.1626
24547SOL     OW76595   1.879   5.475   1.462 -0.3411 -0.2364  0.1665
24547SOL    HW176596   1.796   5.510   1.429  0.4004  0.4274 -1.0163
24547SOL    HW276597   1.866   5.380   1.461 -2.1189 -0.1378  2.7553
24548SOL     OW76598   1.474   2.362   6.494 -0.0573  0.0130  0.4740
24548SOL    HW176599   1.561   2.371   6.455  0.3847  0.5545  1.5294
24548SOL    HW276600   1.470   2.271   6.523 -1.1235 -0.9727 -2.4131
24549SOL     OW76601   8.163   1.091   6.984 -0.2000 -0.7270  0.2064
24549SOL    HW176602   8.127   1.085   6.895  0.2049  0.6475 -0.0650
24549SOL    HW276603   8.104   1.152   7.029 -2.0330 -3.4194  1.7531
24550SOL     OW76604   7.127   3.164   4.699 -0.4524 -0.0668 -0.1081
24550SOL    HW176605   7.215   3.196   4.721 -0.6441  0.1187  0.4115
24550SOL    HW276606   7.133   3.140   4.606  0.7664 -2.0838  0.4006
24551SOL     OW76607   7.894   2.599   5.468  0.5847  0.1379 -0.1697
24551SOL    HW176608   7.807   2.634   5.451  0.1321 -0.9894 -0.2713
24551SOL    HW276609   7.953   2.672   5.450 -0.3983  1.3090  1.1491
24552SOL     OW76610   5.750  10.288   7.248  0.7424  0.5848 -0.0499
24552SOL    HW176611   5.808  10.349   7.294  0.5577  0.6584  0.0910
24552SOL    HW276612   5.801  10.207   7.242  1.1926  0.9061 -0.7171
24553SOL     OW76613   4.433   3.293   5.456 -0.2703  0.0967  0.3186
24553SOL    HW176614   4.409   3.380   5.424  0.0310  0.3846  0.8647
24553SOL    HW276615   4.500   3.262   5.395 -1.3519 -0.3466 -0.7005
24554SOL     OW76616   9.178  10.628   7.567  0.1507  0.2291  0.0539
24554SOL    HW176617   9.103  10.657   7.618  0.2028 -0.8209  0.7564
24554SOL    HW276618   9.228  10.573   7.627  0.8532 -0.0397 -0.7627
24555SOL     OW76619   8.638   0.113   0.937  0.4212 -0.5014  0.4092
24555SOL    HW176620   8.628   0.208   0.932  0.0960 -0.4839  1.1825
24555SOL    HW276621   8.618   0.092   1.028 -2.7255 -1.6846 -0.4232
24556SOL     OW76622   9.800   2.927  10.260  0.9856 -0.3427 -0.0067
24556SOL    HW176623   9.795   2.861  10.329 -0.2379 -0.2217  0.0403
24556SOL    HW276624   9.891   2.925  10.231  1.0782 -1.7159  0.3258
24557SOL     OW76625   9.559   7.667  10.306 -0.2580  0.0608  0.0100
24557SOL    HW176626   9.488   7.657  10.369 -1.5361 -0.2053 -1.4250
24557SOL    HW276627   9.577   7.761  10.305 -0.2140  0.0658  0.7534
24558SOL     OW76628  10.596   6.366  10.264 -0.0207 -0.0718  0.2141
24558SOL    HW176629  10.521   6.337  10.213  0.0985 -0.6367  0.3639
24558SOL    HW276630  10.565   6.445  10.308 -0.1632  0.3590 -0.6315
24559SOL     OW76631   3.430   5.753   0.900 -0.0690  0.1383  0.2302
24559SOL    HW176632   3.339   5.722   0.907  0.0914 -0.9812 -1.9690
24559SOL    HW276633   3.441   5.811   0.976 -2.7238  0.5936  0.3664
24560SOL     OW76634   5.006   5.193   0.366 -0.4914  0.6273 -0.0165
24560SOL    HW176635   5.007   5.170   0.273  1.7312  1.0370 -0.1631
24560SOL    HW276636   4.982   5.285   0.368 -2.5643  0.1203  0.0165
24561SOL     OW76637   8.750   6.510   9.465  0.4031  0.4367 -0.9083
24561SOL    HW176638   8.765   6.556   9.382  2.4578  0.4752 -0.5539
24561SOL    HW276639   8.810   6.435   9.462  0.4716  0.4102  0.5224
24562SOL     OW76640   1.706   3.507   9.021  0.6358  0.1547  0.1648
24562SOL    HW176641   1.620   3.483   8.987  0.1716  0.6563  0.9646
24562SOL    HW276642   1.698   3.499   9.116  0.5866  2.8778  0.4668
24563SOL     OW76643   5.893   7.310  10.270  0.5856 -0.1594 -0.1137
24563SOL    HW176644   5.851   7.327  10.354 -1.1968  0.0288 -1.0011
24563SOL    HW276645   5.848   7.233  10.235  1.3419 -0.2696 -0.8818
24564SOL     OW76646   9.530   1.922   2.799  0.7065  0.0756 -0.0135
24564SOL    HW176647   9.448   1.968   2.783  0.4559 -1.2304 -3.0700
24564SOL    HW276648   9.517   1.877   2.883 -1.3206  0.6596  0.0129
24565SOL     OW76649   0.624   8.522   0.336 -0.4690 -0.1937 -0.3761
24565SOL    HW176650   0.615   8.604   0.287 -2.7857 -0.3353 -0.3146
24565SOL    HW276651   0.554   8.466   0.301 -0.0979 -1.4793  0.8540
24566SOL     OW76652   0.523   1.823   7.053  0.7226 -0.2277  0.3334
24566SOL    HW176653   0.566   1.747   7.014  0.1996 -0.5885  0.4501
24566SOL    HW276654   0.562   1.898   7.008  0.8273 -0.5904 -0.1939
24567SOL     OW76655   1.808  10.225   6.429  0.3374 -0.1730  0.3155
24567SOL    HW176656   1.852  10.294   6.379  0.5492 -0.3924  0.1960
24567SOL    HW276657   1.799  10.153   6.367 -1.9626  0.5452 -0.2611
24568SOL     OW76658  10.227   1.611   8.319 -0.3241 -0.0403 -0.2332
24568SOL    HW176659  10.320   1.590   8.307 -0.3990  0.2829 -1.5373
24568SOL    HW276660  10.223   1.653   8.405  0.5109 -1.2955  0.4387
24569SOL     OW76661   9.622   4.118   0.911 -0.6478 -0.5215 -0.2534
24569SOL    HW176662   9.625   4.175   0.988 -0.0069 -0.2854 -0.4467
24569SOL    HW276663   9.649   4.174   0.838 -0.1303 -1.0328 -0.4663
24570SOL     OW76664   6.768   1.846   9.341 -0.2102  0.4006  0.3694
24570SOL    HW176665   6.800   1.866   9.253 -3.2800  2.2039 -0.4626
24570SOL    HW276666   6.844   1.807   9.385  1.6790  0.1793 -2.7680
24571SOL     OW76667   4.167   1.991   3.774  0.4424  0.2713  0.2475
24571SOL    HW176668   4.186   2.027   3.861 -1.0027  3.3869 -0.5662
24571SOL    HW276669   4.076   1.963   3.778 -0.7915  3.6103 -1.0238
24572SOL     OW76670   8.061   0.643   6.896 -0.3156 -0.1038 -0.1480
24572SOL    HW176671   8.016   0.624   6.814 -0.0520 -0.8902 -0.1197
24572SOL    HW276672   8.010   0.713   6.936 -1.5578 -1.0099 -0.0865
24573SOL     OW76673   5.791   5.575   9.153  0.4085  0.0570  0.3654
24573SOL    HW176674   5.718   5.522   9.186  1.1892  0.1039  2.2363
24573SOL    HW276675   5.859   5.512   9.132 -0.0143  0.0411 -1.1101
24574SOL     OW76676   2.128   9.994   8.186 -0.1485  0.1191 -0.5941
24574SOL    HW176677   2.053  10.015   8.131 -1.0803  0.6108  0.8159
24574SOL    HW276678   2.115   9.902   8.212  0.5771 -0.2861 -1.5923
24575SOL     OW76679   0.127   7.233   8.750 -0.1969  0.4444 -0.3462
24575SOL    HW176680   0.034   7.220   8.734 -0.2280  1.4265 -1.0998
24575SOL    HW276681   0.142   7.202   8.839 -1.1602 -0.1051 -0.3716
24576SOL     OW76682   2.907   8.796   5.292  0.5972  0.0110 -0.2217
24576SOL    HW176683   2.981   8.736   5.281  0.9311  0.4365 -0.3206
24576SOL    HW276684   2.946   8.883   5.284  0.2992  0.2679  0.9831
24577SOL     OW76685   4.958   5.542   8.079 -0.6989  1.3993  0.4490
24577SOL    HW176686   5.011   5.597   8.137 -0.0418  1.6931 -0.4242
24577SOL    HW276687   5.020   5.484   8.036 -1.3731 -0.0379  1.3202
24578SOL     OW76688   4.141   4.630   7.864 -0.0938  0.1118  0.5571
24578SOL    HW176689   4.150   4.593   7.777  0.0122 -1.3730  1.1785
24578SOL    HW276690   4.206   4.585   7.918 -0.7317  0.3811  1.5986
24579SOL     OW76691   2.651   8.797   7.926 -0.5303  0.1271  0.3379
24579SOL    HW176692   2.738   8.810   7.890 -0.6736 -0.9543 -0.4540
24579SOL    HW276693   2.592   8.830   7.859 -0.7710 -0.8692  0.0429
24580SOL     OW76694   3.452   4.416   9.450  0.4212 -0.1065 -0.0588
24580SOL    HW176695   3.428   4.383   9.363 -1.4067  1.8888 -0.3785
24580SOL    HW276696   3.544   4.442   9.440  0.7319 -1.3928 -0.8845
24581SOL     OW76697   6.480   5.079  10.422  0.0009  0.2081 -0.0176
24581SOL    HW176698   6.456   5.115  10.337  1.0688 -1.1788 -0.9577
24581SOL    HW276699   6.572   5.054  10.412  0.8094  1.9347  2.2389
24582SOL     OW76700  10.071   6.176   7.546 -0.3516 -0.1914  0.2489
24582SOL    HW176701  10.097   6.142   7.461 -0.1994 -2.4300  1.1165
24582SOL    HW276702   9.976   6.181   7.542 -0.3081  0.3611 -0.2560
24583SOL     OW76703   8.448   6.190   3.724  0.4779  0.8811  0.2349
24583SOL    HW176704   8.506   6.204   3.649  0.5793 -0.7650 -0.0495
24583SOL    HW276705   8.507   6.167   3.795  0.2647  0.2365  0.2154
24584SOL     OW76706  10.032   6.510   9.241 -0.2580  0.3692 -0.1852
24584SOL    HW176707  10.092   6.494   9.314  0.2314 -2.7301 -1.1145
24584SOL    HW276708  10.085   6.561   9.178  0.9463 -0.9309 -0.2933
24585SOL     OW76709   1.016  10.654   0.009  0.5471  0.5882 -0.2575
24585SOL    HW176710   1.071  10.708   0.066 -0.7682  0.4076  1.2678
24585SOL    HW276711   1.060  10.656  -0.076  2.9959  0.2711  0.9231
24586SOL     OW76712  10.208   4.237   9.329 -0.1830 -0.0841  0.5623
24586SOL    HW176713  10.176   4.160   9.376 -0.2610 -0.6478 -0.3855
24586SOL    HW276714  10.302   4.240   9.348  0.6850 -2.7916 -2.5308
24587SOL     OW76715   0.719   7.339   9.681  0.2248 -0.6467  0.2436
24587SOL    HW176716   0.815   7.342   9.676  0.2039 -1.2663 -1.2906
24587SOL    HW276717   0.692   7.431   9.688  0.8702 -0.1366 -2.6227
24588SOL     OW76718   8.749   7.396   0.636  0.4495  0.0369  0.2713
24588SOL    HW176719   8.743   7.322   0.575 -1.8185 -0.4009  0.9571
24588SOL    HW276720   8.747   7.473   0.580 -0.3491 -0.3796 -0.2868
24589SOL     OW76721   1.076   5.264   4.821  0.0192  0.3240  0.2504
24589SOL    HW176722   1.043   5.235   4.906 -0.2704 -1.4046 -0.4158
24589SOL    HW276723   1.001   5.257   4.762  0.5541  0.2225 -0.4311
24590SOL     OW76724  10.207   1.767   6.062 -0.2201 -0.4052  0.2403
24590SOL    HW176725  10.258   1.799   5.987 -0.1101  0.5469  0.7098
24590SOL    HW276726  10.204   1.672   6.050 -2.1214 -0.1402 -2.2128
24591SOL     OW76727   4.097   5.791   9.166  0.1552  0.2087  0.7356
24591SOL    HW176728   4.190   5.802   9.182  0.2298  0.3531  0.2104
24591SOL    HW276729   4.077   5.852   9.095  0.0780 -1.2303 -0.5240
24592SOL     OW76730   0.628   6.390   4.389 -0.1382  0.1069 -0.0331
24592SOL    HW176731   0.609   6.449   4.461  0.0582  1.9533 -1.4192
24592SOL    HW276732   0.543   6.352   4.365 -0.5019  0.8747  0.0209
24593SOL     OW76733   9.306   6.159  10.222 -0.5933  0.0264  0.0082
24593SOL    HW176734   9.357   6.238  10.209 -0.7355  0.1532  0.2285
24593SOL    HW276735   9.340   6.098  10.156  0.9034 -0.4253  1.1304
24594SOL     OW76736   9.122   7.406  10.153 -0.1959  0.3231  0.3609
24594SOL    HW176737   9.100   7.438  10.241  1.7247  0.4215  0.8367
24594SOL    HW276738   9.064   7.331  10.139  0.3781 -0.5165  2.2641
24595SOL     OW76739   2.135   4.230   8.727  0.3431  0.0402 -0.2663
24595SOL    HW176740   2.227   4.243   8.702 -0.0775  1.1886 -1.3337
24595SOL    HW276741   2.133   4.251   8.820  0.6309  3.3332 -0.8746
24596SOL     OW76742   9.477   1.918   0.368 -0.3012  0.2454  0.0115
24596SOL    HW176743   9.468   1.863   0.446 -1.0232 -0.0353 -0.2636
24596SOL    HW276744   9.414   1.881   0.306  1.2024 -0.3892 -1.2006
24597SOL     OW76745   3.290   9.999   6.099  0.2123  0.0374  0.0805
24597SOL    HW176746   3.298  10.015   6.006 -1.7602  0.8212 -0.0004
24597SOL    HW276747   3.333   9.914   6.113  2.4478  0.8809 -1.1118
24598SOL     OW76748   5.888   3.312   2.440 -0.1614 -0.4769 -0.0496
24598SOL    HW176749   5.964   3.272   2.482  0.8175  1.0908 -0.2355
24598SOL    HW276750   5.919   3.336   2.353 -0.5371  1.1003  0.2219
24599SOL     OW76751   5.775   0.372   7.802 -0.0148 -0.1838  0.3488
24599SOL    HW176752   5.809   0.299   7.853  2.1494 -0.5480 -1.4824
24599SOL    HW276753   5.681   0.356   7.797  0.0824 -1.4870  2.0455
24600SOL     OW76754   4.221   0.198   3.010  0.2301 -0.4754  0.2489
24600SOL    HW176755   4.131   0.176   2.989  0.7077 -1.1026 -1.2625
24600SOL    HW276756   4.261   0.222   2.926  1.8733 -1.7560  0.6159
24601SOL     OW76757   3.135   6.312   6.652  0.4665 -0.5034  0.0800
24601SOL    HW176758   3.079   6.370   6.703 -0.5611 -1.9353  0.6511
24601SOL    HW276759   3.076   6.273   6.587  1.2021 -0.6449 -0.5104
24602SOL     OW76760   0.708   0.471   9.257  0.0442 -0.2421  0.2783
24602SOL    HW176761   0.787   0.489   9.206  0.5264 -0.6480  0.8620
24602SOL    HW276762   0.691   0.552   9.305  0.1339 -0.1654  0.1798
24603SOL     OW76763   1.334   0.361  10.182 -0.0910  0.2217  0.6991
24603SOL    HW176764   1.299   0.351  10.094  0.1511  0.3549  0.5872
24603SOL    HW276765   1.259   0.388  10.235  0.0740  1.6528  0.2407
24604SOL     OW76766   1.927   0.662   0.767  0.2620  0.0425  0.1372
24604SOL    HW176767   1.987   0.588   0.757 -1.4041 -1.1882 -1.6143
24604SOL    HW276768   1.842   0.627   0.741 -0.2734  3.0658 -2.9198
24605SOL     OW76769   5.642   6.874   8.872  0.4388 -0.1642 -0.5689
24605SOL    HW176770   5.644   6.898   8.779 -1.8479  1.6716 -0.2463
24605SOL    HW276771   5.558   6.830   8.884 -0.3681  1.6150  0.9541
24606SOL     OW76772   1.364   3.179   4.813 -0.0591  0.3193 -0.3093
24606SOL    HW176773   1.390   3.088   4.799  0.3669  0.5465 -1.0733
24606SOL    HW276774   1.319   3.204   4.732  1.0761  1.2100 -0.6882
24607SOL     OW76775   0.746   3.022   5.600  0.0347  0.0135 -0.0899
24607SOL    HW176776   0.668   3.028   5.655 -0.9519  1.1462 -1.5223
24607SOL    HW276777   0.794   3.103   5.617 -0.1857  0.2880 -0.7530
24608SOL     OW76778   6.770  10.623   0.619 -0.3765 -0.4544  0.3655
24608SOL    HW176779   6.779  10.658   0.708 -1.7859  0.0007  0.3500
24608SOL    HW276780   6.683  10.584   0.618 -0.8440  0.5671 -1.1657
24609SOL     OW76781   2.715   6.629  10.595 -0.1367 -0.6282  0.1601
24609SOL    HW176782   2.794   6.595  10.637  0.8853  0.7461 -0.5933
24609SOL    HW276783   2.697   6.711  10.640  1.1356  1.0276 -2.1587
24610SOL     OW76784   3.464   8.120   1.624 -0.2144  0.0836  0.1243
24610SOL    HW176785   3.381   8.157   1.597 -0.1151  0.2326  0.0232
24610SOL    HW276786   3.468   8.035   1.581 -1.8871 -1.4880  2.8198
24611SOL     OW76787  10.135  10.535   5.256 -0.6101 -0.4105  0.0129
24611SOL    HW176788  10.111  10.622   5.290  1.5685  0.4333 -0.4346
24611SOL    HW276789  10.167  10.552   5.168 -0.8381 -1.7926 -0.3568
24612SOL     OW76790   3.036   0.130   2.061 -0.4742 -0.5098 -0.3011
24612SOL    HW176791   3.050   0.164   1.973 -0.9280  0.0784 -0.1469
24612SOL    HW276792   3.110   0.070   2.076  1.1371  1.4570 -0.0411
24613SOL     OW76793   1.421   4.548   2.840  0.2807  0.1615  0.2301
24613SOL    HW176794   1.469   4.629   2.823 -0.7117  0.6572 -0.3006
24613SOL    HW276795   1.336   4.576   2.872  0.5148 -0.7148  1.7627
24614SOL     OW76796   4.562   2.043   3.201 -0.0214 -0.3427 -0.2837
24614SOL    HW176797   4.515   2.094   3.135  2.0398  2.0336 -0.0497
24614SOL    HW276798   4.629   1.995   3.152 -0.1321 -0.5840 -0.1992
24615SOL     OW76799   5.250   3.727   5.350  0.1098  0.0778 -0.6060
24615SOL    HW176800   5.223   3.635   5.345  0.4803 -0.0964  0.3293
24615SOL    HW276801   5.327   3.732   5.295  1.0694 -0.5718  0.6258
24616SOL     OW76802   0.822   7.873   7.680 -0.1119 -0.5123 -0.0347
24616SOL    HW176803   0.894   7.813   7.700 -0.1373 -0.6531 -0.3714
24616SOL    HW276804   0.851   7.957   7.717  0.7027 -0.3046 -1.0874
24617SOL     OW76805   8.244   5.767   0.497  0.3104 -0.3756 -0.6884
24617SOL    HW176806   8.337   5.784   0.512  0.0083  1.0442 -0.2508
24617SOL    HW276807   8.207   5.854   0.481 -1.0545 -0.8569 -0.2134
24618SOL     OW76808   6.544  10.228   6.580  0.2585  0.0690  0.5993
24618SOL    HW176809   6.450  10.247   6.583  0.5682  1.9704 -0.2468
24618SOL    HW276810   6.554  10.150   6.634 -1.4595  1.2740  2.8168
24619SOL     OW76811   2.144   0.265   1.222 -0.5054 -0.1270  0.2726
24619SOL    HW176812   2.090   0.333   1.182 -0.8673 -0.1343  0.7450
24619SOL    HW276813   2.202   0.236   1.151 -0.0268  0.9915  0.1819
24620SOL     OW76814  10.191   0.447   1.947  0.6536 -0.5613  0.5505
24620SOL    HW176815  10.113   0.489   1.910  1.1029 -0.6753 -0.5732
24620SOL    HW276816  10.247   0.430   1.871  1.8912 -0.2412  1.3695
24621SOL     OW76817   8.934   1.626   5.778  0.4315 -0.3912  0.0341
24621SOL    HW176818   8.967   1.706   5.818 -3.0338  1.2366 -0.0140
24621SOL    HW276819   8.971   1.626   5.689  0.2184  1.3747 -0.0837
24622SOL     OW76820   2.377   3.780   8.215  0.7360  0.3194  0.1436
24622SOL    HW176821   2.322   3.746   8.144  0.4659  0.6818  0.1771
24622SOL    HW276822   2.431   3.705   8.241 -0.7479 -0.4682  1.0833
24623SOL     OW76823   4.014   3.553   3.265 -0.1368 -0.7320  0.0849
24623SOL    HW176824   3.923   3.539   3.293 -0.9442  1.9659 -0.9516
24623SOL    HW276825   4.014   3.533   3.172  0.7757 -2.2990  0.3822
24624SOL     OW76826   8.449   5.551   5.781 -0.4831  0.0549 -0.1388
24624SOL    HW176827   8.544   5.543   5.788 -0.4885 -0.5458 -0.6188
24624SOL    HW276828   8.415   5.465   5.808 -0.9225  0.4190  0.5045
24625SOL     OW76829   6.411   2.886   3.096 -0.8462  0.3338 -0.0163
24625SOL    HW176830   6.343   2.889   3.029 -1.4299  1.1478  0.5960
24625SOL    HW276831   6.461   2.806   3.077  0.1372  1.4485 -2.5172
24626SOL     OW76832   9.560   6.937   0.136  0.2489  0.0483  0.0954
24626SOL    HW176833   9.500   6.984   0.079 -0.0223  1.4200  1.4523
24626SOL    HW276834   9.513   6.858   0.162  0.1225 -0.2513 -1.0136
24627SOL     OW76835   6.635   3.484   7.135 -0.5586  0.6840  0.6110
24627SOL    HW176836   6.671   3.450   7.217 -0.7416 -1.2066 -0.0262
24627SOL    HW276837   6.711   3.516   7.087 -0.0093 -1.0396  0.2730
24628SOL     OW76838   3.052   9.398   8.610  0.0402 -0.1666  0.9675
24628SOL    HW176839   3.109   9.321   8.605  1.4993  0.9125  0.6032
24628SOL    HW276840   3.109   9.469   8.640 -0.4685  1.5302 -1.8067
24629SOL     OW76841   3.118   6.329  10.616  0.4764  0.2565  0.3200
24629SOL    HW176842   3.066   6.410  10.617  0.7571  0.4501 -0.2062
24629SOL    HW276843   3.185   6.346  10.550  0.1933 -0.6232 -0.2090
24630SOL     OW76844   2.038   1.703   2.050 -0.1451 -0.0577 -0.0132
24630SOL    HW176845   2.042   1.773   2.115 -1.3319  0.4684 -0.4846
24630SOL    HW276846   1.949   1.706   2.016  0.0312 -1.2578 -0.6501
24631SOL     OW76847   5.257  10.154   5.781  0.7785  0.3218 -0.1292
24631SOL    HW176848   5.258  10.203   5.698 -1.5555 -1.8576 -1.6224
24631SOL    HW276849   5.337  10.101   5.779  0.4657 -0.1382 -1.3213
24632SOL     OW76850   0.732   9.995   1.161 -0.3599 -0.0993 -0.1779
24632SOL    HW176851   0.647  10.036   1.173  0.2738  1.1122  0.2455
24632SOL    HW276852   0.723   9.908   1.201 -1.3556  0.0604 -0.0490
24633SOL     OW76853   7.968   1.813   7.499 -0.1399  0.7167 -0.4084
24633SOL    HW176854   8.045   1.808   7.555  0.3568  1.0050 -1.0427
24633SOL    HW276855   7.927   1.726   7.505  1.9824 -0.5424 -2.4716
24634SOL     OW76856   4.086   1.617   7.910  0.0525  0.2724 -0.3789
24634SOL    HW176857   4.079   1.696   7.964 -1.4337  0.5125 -0.8912
24634SOL    HW276858   4.180   1.601   7.904  0.3327  1.4055  0.5917
24635SOL     OW76859   5.289   5.259   3.522  0.3831 -0.2319  0.5510
24635SOL    HW176860   5.287   5.309   3.604 -0.6006  0.9787 -0.1792
24635SOL    HW276861   5.342   5.312   3.463 -1.5627  0.5728 -0.5759
24636SOL     OW76862   7.639   6.071  10.292  0.1852  0.1222 -0.3208
24636SOL    HW176863   7.713   6.058  10.234 -0.6333  2.5366 -2.0817
24636SOL    HW276864   7.562   6.067  10.235 -0.8068  0.6759  0.9009
24637SOL     OW76865   8.197   9.075   4.444  0.1376 -0.1567  0.0298
24637SOL    HW176866   8.238   9.012   4.385  0.2661 -0.0304 -0.0160
24637SOL    HW276867   8.133   9.024   4.493  0.4606 -0.3876  0.2118
24638SOL     OW76868   9.049  10.681   7.165  0.5264 -0.2060  0.1799
24638SOL    HW176869   9.050  10.602   7.218  1.3415 -1.4926 -1.6432
24638SOL    HW276870   9.019  10.750   7.224 -2.1994 -2.2278  1.3177
24639SOL     OW76871   2.413   3.271  10.494 -1.0929  0.1022 -0.0624
24639SOL    HW176872   2.424   3.246  10.586 -1.4014 -0.8026 -0.2625
24639SOL    HW276873   2.454   3.357  10.488 -1.5194  0.3944  1.0316
24640SOL     OW76874   6.455   9.196   2.708  0.3532  0.0381 -0.0334
24640SOL    HW176875   6.506   9.119   2.682  0.8347  0.2482  0.2753
24640SOL    HW276876   6.511   9.241   2.771  0.1367  0.7312 -0.3328
24641SOL     OW76877   5.167   2.058   3.963  0.8764  0.0623  0.1814
24641SOL    HW176878   5.198   2.044   4.053 -2.9262 -1.2912  1.4681
24641SOL    HW276879   5.089   2.112   3.972  0.0556 -0.5889 -2.2235
24642SOL     OW76880   0.319   1.770   4.365 -0.0702  0.2075  0.1130
24642SOL    HW176881   0.253   1.717   4.320  1.2118 -1.8372  0.4750
24642SOL    HW276882   0.374   1.804   4.295  1.6514 -2.5955 -0.0411
24643SOL     OW76883   1.091   4.734   1.460 -0.5593  0.0485  0.3262
24643SOL    HW176884   1.142   4.800   1.414 -1.2727  0.3646 -0.0331
24643SOL    HW276885   1.147   4.707   1.533  1.5401 -2.1030 -1.9200
24644SOL     OW76886   2.346   6.649   0.149  0.3224  0.2896  0.0876
24644SOL    HW176887   2.320   6.739   0.134 -0.6869 -0.1257 -0.8566
24644SOL    HW276888   2.439   6.654   0.172 -0.0201  1.6452  1.2830
24645SOL     OW76889  10.270   8.474   5.712 -0.1360 -0.2558 -0.5804
24645SOL    HW176890  10.191   8.461   5.764 -1.1289  0.7092 -1.7961
24645SOL    HW276891  10.287   8.568   5.716 -0.3439 -0.1235 -2.0933
24646SOL     OW76892   7.100  10.438   2.658 -0.0303  0.6136  0.2922
24646SOL    HW176893   7.033  10.369   2.648  2.0009 -1.5721  0.9026
24646SOL    HW276894   7.110  10.447   2.753  1.2910  0.0685  0.2284
24647SOL     OW76895   6.870   1.589   1.354 -0.0697  0.1543  0.5671
24647SOL    HW176896   6.794   1.614   1.303  0.9005 -0.0468 -1.0249
24647SOL    HW276897   6.868   1.494   1.356 -0.3801  0.1660  1.3739
24648SOL     OW76898   9.428   7.467   2.965  0.2380 -0.2788  0.5482
24648SOL    HW176899   9.405   7.514   3.045 -0.2011  1.4337 -0.5320
24648SOL    HW276900   9.517   7.495   2.945  0.8058 -1.6399  1.0488
24649SOL     OW76901   6.490   8.928   9.597  0.0930  0.1188 -0.1370
24649SOL    HW176902   6.482   9.023   9.584 -0.2529  0.1362  0.1881
24649SOL    HW276903   6.580   8.916   9.626  0.0887  0.3682 -0.0164
24650SOL     OW76904   3.411   1.480   4.063 -0.7142 -0.4463 -0.2867
24650SOL    HW176905   3.473   1.551   4.079 -2.3216  1.7058 -2.8825
24650SOL    HW276906   3.453   1.426   3.997  0.3068 -1.7564  1.3533
24651SOL     OW76907   5.115   6.028   3.281  0.3734 -0.0372 -0.3022
24651SOL    HW176908   5.171   5.955   3.254  0.0742 -0.6563  0.6487
24651SOL    HW276909   5.050   5.987   3.339 -1.5186  0.5259 -1.9083
24652SOL     OW76910   4.181   3.326   2.497  0.7468  0.2686 -0.4852
24652SOL    HW176911   4.142   3.348   2.582 -0.1861 -1.4738 -0.4069
24652SOL    HW276912   4.114   3.350   2.433  1.4077  1.4831 -0.7441
24653SOL     OW76913   3.182   7.479   3.481  0.0821 -0.1990 -0.2827
24653SOL    HW176914   3.227   7.483   3.566 -0.1345 -0.2751 -0.1630
24653SOL    HW276915   3.094   7.448   3.502 -0.3715  0.9608 -0.3767
24654SOL     OW76916   8.976   0.856   9.769 -0.1003  0.0036 -0.4091
24654SOL    HW176917   8.992   0.949   9.787  0.4785 -0.0821 -0.4627
24654SOL    HW276918   8.888   0.854   9.731 -0.2772  0.4809 -0.0281
24655SOL     OW76919   9.500   0.875   9.656 -0.6665 -0.6007 -0.0135
24655SOL    HW176920   9.512   0.970   9.648  0.8556 -0.8523 -1.2237
24655SOL    HW276921   9.536   0.853   9.742 -1.6228 -0.0150  0.5530
24656SOL     OW76922   3.397   3.281   4.048 -0.0266  0.1682 -0.0016
24656SOL    HW176923   3.325   3.218   4.056  0.3918 -0.2870  0.2003
24656SOL    HW276924   3.470   3.239   4.093  0.8841 -0.1271 -1.7219
24657SOL     OW76925   8.235   0.717   9.967  0.3991  0.8055  0.6342
24657SOL    HW176926   8.296   0.688   9.900  2.2634 -0.3808  2.7108
24657SOL    HW276927   8.251   0.811   9.975  1.8653  0.5534  0.9803
24658SOL     OW76928   4.238   9.784   6.850  0.1433  0.5153  0.1464
24658SOL    HW176929   4.219   9.854   6.789 -0.2326  0.4556  0.1955
24658SOL    HW276930   4.187   9.805   6.928 -1.4656 -0.7996 -0.5038
24659SOL     OW76931   2.944   0.604   0.919 -0.0990  0.1006  0.0080
24659SOL    HW176932   2.956   0.687   0.873 -1.2835  0.8586  0.9745
24659SOL    HW276933   3.032   0.568   0.928  0.2163  0.0296 -2.5544
24660SOL     OW76934   1.603   9.012   6.436 -0.2412  0.9839 -0.2256
24660SOL    HW176935   1.554   8.930   6.449  1.0963  0.2383  0.3306
24660SOL    HW276936   1.694   8.984   6.429  0.1803  2.3948 -0.6031
24661SOL     OW76937   4.333   7.391   9.626 -0.9511  0.1548  0.3363
24661SOL    HW176938   4.254   7.337   9.620 -0.7017 -0.1184 -0.9826
24661SOL    HW276939   4.401   7.331   9.657 -1.0407  0.1347  0.4942
24662SOL     OW76940   3.557   2.113   6.142 -0.2760  0.0394 -0.2405
24662SOL    HW176941   3.577   2.061   6.064  0.5950 -0.4797  0.3049
24662SOL    HW276942   3.622   2.085   6.206 -0.9800  0.4639  0.6755
24663SOL     OW76943   7.234   5.042   5.817 -0.2660 -0.2944  0.0492
24663SOL    HW176944   7.296   5.109   5.846 -1.4055  1.2623 -0.9325
24663SOL    HW276945   7.258   5.026   5.725 -0.2002 -1.0109  0.1867
24664SOL     OW76946   0.651   2.159   5.239 -0.1927 -0.4998  0.1236
24664SOL    HW176947   0.683   2.148   5.149  0.8277 -1.1846  0.5589
24664SOL    HW276948   0.679   2.080   5.285  0.5985  0.4957  1.4198
24665SOL     OW76949  10.652   3.909   6.197 -0.9767 -0.2570 -0.1795
24665SOL    HW176950  10.652   4.002   6.174  0.5583  0.2619  1.6654
24665SOL    HW276951  10.702   3.868   6.127  0.3211  0.6897  0.1510
24666SOL     OW76952   5.437   6.526   6.781 -0.7797 -0.0494  0.6182
24666SOL    HW176953   5.513   6.468   6.786 -0.8188 -0.2778 -1.0020
24666SOL    HW276954   5.371   6.484   6.838 -0.5800 -1.2450 -0.0045
24667SOL     OW76955   9.171   1.959   4.302 -0.5911  0.0041  0.4669
24667SOL    HW176956   9.173   2.055   4.307 -0.3971  0.2053 -2.0802
24667SOL    HW276957   9.258   1.935   4.271 -0.1270 -1.1726  2.5097
24668SOL     OW76958   3.485   4.333   3.476  0.2768 -0.4254  0.1823
24668SOL    HW176959   3.458   4.241   3.479  1.5989 -0.8282  0.4069
24668SOL    HW276960   3.444   4.372   3.554 -0.8949 -0.6340 -0.3137
24669SOL     OW76961   5.801  10.410  10.212 -0.1334 -0.1295  0.0190
24669SOL    HW176962   5.863  10.470  10.170 -0.6075 -0.5764 -1.3495
24669SOL    HW276963   5.855  10.339  10.245  0.1098 -0.4889 -1.1171
24670SOL     OW76964   4.834   8.283   3.531  0.2794 -0.2421 -0.8467
24670SOL    HW176965   4.802   8.278   3.621 -0.1018 -0.4811 -0.9896
24670SOL    HW276966   4.863   8.374   3.520  0.4027 -0.2351 -0.4583
24671SOL     OW76967   0.312   0.476   5.787  0.0348  0.2490  0.0364
24671SOL    HW176968   0.360   0.407   5.833 -2.7590 -2.0326 -0.1866
24671SOL    HW276969   0.312   0.448   5.696  0.3869  1.5671 -0.3879
24672SOL     OW76970   9.672   3.096   3.688  0.1141  0.0120  0.0878
24672SOL    HW176971   9.722   3.177   3.700  0.4246 -0.4325  2.2403
24672SOL    HW276972   9.733   3.026   3.714 -0.3444 -0.8741 -1.1408
24673SOL     OW76973  10.684   5.114   0.026  0.3967 -0.3186 -0.2635
24673SOL    HW176974  10.627   5.044   0.059  0.9682  0.1401  1.9145
24673SOL    HW276975  10.628   5.165  -0.033 -1.2314 -0.3884  1.1215
24674SOL     OW76976  10.013   5.737   9.676  0.2438 -0.0301 -0.1338
24674SOL    HW176977  10.089   5.681   9.692 -1.1333 -1.9065  0.1514
24674SOL    HW276978  10.003   5.736   9.580  0.2235 -0.2953 -0.1302
24675SOL     OW76979   9.582   6.629   2.595 -0.2163 -0.6261 -0.2856
24675SOL    HW176980   9.560   6.653   2.505  0.6531 -1.4987 -0.7563
24675SOL    HW276981   9.536   6.546   2.609  1.1396 -1.4620 -0.6057
24676SOL     OW76982   8.618   3.590   0.418  0.5650  0.5670 -0.2255
24676SOL    HW176983   8.532   3.627   0.434 -0.1257 -0.8295 -0.5669
24676SOL    HW276984   8.656   3.646   0.349  0.0042  1.2648  0.0223
24677SOL     OW76985   8.962   3.578   7.299  0.3772  0.1443  0.2002
24677SOL    HW176986   9.027   3.642   7.328 -0.4995  0.5240  1.4320
24677SOL    HW276987   8.949   3.521   7.375 -2.5407  1.6054  0.9508
24678SOL     OW76988   6.204   4.908   4.586  0.1311 -0.4339  0.6520
24678SOL    HW176989   6.153   4.938   4.661 -2.2960  0.5900 -1.2460
24678SOL    HW276990   6.166   4.823   4.564  0.3948 -0.4395  0.2137
24679SOL     OW76991   6.362   3.177   1.300 -0.1138  0.2164  0.1437
24679SOL    HW176992   6.391   3.126   1.376 -1.3996 -0.4466  0.2071
24679SOL    HW276993   6.278   3.214   1.327  0.1541  1.2525 -0.4120
24680SOL     OW76994   4.778   6.580   4.089  0.4991 -0.1337  0.1686
24680SOL    HW176995   4.821   6.502   4.052 -1.3002  0.5693 -4.0361
24680SOL    HW276996   4.750   6.630   4.012 -2.3516  2.4847  2.6498
24681SOL     OW76997  10.234   2.462   5.730 -0.5164  0.5241  0.5413
24681SOL    HW176998  10.212   2.550   5.701  0.0613  0.4360 -0.1833
24681SOL    HW276999  10.155   2.410   5.712 -0.3593  0.5932 -0.3549
24682SOL     OW77000   4.970   1.989   2.700 -0.8985 -0.4558  0.1586
24682SOL    HW177001   4.966   1.904   2.744 -0.1366  0.1776  1.5272
24682SOL    HW277002   5.025   2.043   2.758 -1.7511  1.1126 -0.4350
24683SOL     OW77003   5.068   9.554   1.567  0.3910  0.7101  0.3286
24683SOL    HW177004   5.155   9.592   1.554  0.2512  0.3290 -2.2950
24683SOL    HW277005   5.083   9.460   1.577  0.2457  0.4224 -1.7524
24684SOL     OW77006   8.889   2.564   0.068  0.2935 -0.5616 -0.2854
24684SOL    HW177007   8.897   2.654   0.037 -0.4724 -1.0363 -1.9461
24684SOL    HW277008   8.958   2.516   0.023 -0.4899 -1.1532 -0.9038
24685SOL     OW77009   2.455   2.106   6.847  0.4165 -0.4497 -1.0224
24685SOL    HW177010   2.365   2.075   6.840  0.0888  0.3030 -0.3309
24685SOL    HW277011   2.507   2.026   6.854 -0.3494 -0.8764  0.1295
24686SOL     OW77012   2.686   3.121   6.737 -0.1163  0.2592 -0.6107
24686SOL    HW177013   2.657   3.194   6.792  0.8155  1.7440 -2.0011
24686SOL    HW277014   2.605   3.085   6.700 -0.5757  0.6920 -0.0390
24687SOL     OW77015   0.383   1.781   4.987 -0.2527 -0.3391  0.5943
24687SOL    HW177016   0.357   1.696   5.021 -0.6764 -0.0130  1.0989
24687SOL    HW277017   0.301   1.823   4.961  0.1642 -1.3092 -2.6445
24688SOL     OW77018   7.701  10.608   5.035  0.1330  0.2531  0.0117
24688SOL    HW177019   7.645  10.536   5.063  1.6882 -1.0188 -0.0313
24688SOL    HW277020   7.739  10.642   5.116  1.8108 -1.0535 -0.1789
24689SOL     OW77021   0.646  10.093   8.436 -0.5715 -0.3926 -0.2678
24689SOL    HW177022   0.610  10.066   8.521 -1.4986 -0.1323 -0.5730
24689SOL    HW277023   0.588  10.053   8.372  0.3752 -0.9391 -0.7974
24690SOL     OW77024   4.689   0.485   3.429 -0.2850 -0.4742 -0.0290
24690SOL    HW177025   4.731   0.401   3.410 -0.8737 -0.3895 -1.9732
24690SOL    HW277026   4.748   0.550   3.391 -1.1631 -0.2206 -0.9933
24691SOL     OW77027   5.992   3.584  10.141  0.0683  0.6226 -0.3527
24691SOL    HW177028   5.906   3.543  10.134  0.2284 -0.0094  1.0114
24691SOL    HW277029   5.976   3.662  10.195  0.4313  0.2588  0.2760
24692SOL     OW77030   3.640   6.596   9.168 -0.0316  0.0701 -0.2247
24692SOL    HW177031   3.681   6.545   9.237 -2.4737 -2.0170 -0.1749
24692SOL    HW277032   3.636   6.685   9.203  1.8262 -0.2130  0.8511
24693SOL     OW77033   4.448   1.116   1.114 -0.0075 -0.0239  0.0796
24693SOL    HW177034   4.495   1.157   1.041  0.7105 -0.6349  0.1944
24693SOL    HW277035   4.446   1.023   1.092 -1.0591 -0.0313  0.1440
24694SOL     OW77036   4.109   9.627   8.028  0.4355  0.2275  0.4171
24694SOL    HW177037   4.016   9.641   8.048  0.6046  0.2102  1.2684
24694SOL    HW277038   4.155   9.665   8.103  1.1228  0.3609 -0.0706
24695SOL     OW77039   3.213   4.240   6.156  0.1222  0.8150 -0.0183
24695SOL    HW177040   3.208   4.152   6.119 -0.2659  0.7161  0.2651
24695SOL    HW277041   3.128   4.279   6.138  0.3233  1.1723 -0.2269
24696SOL     OW77042   3.689   5.760   3.731  0.0196 -0.1080 -0.5250
24696SOL    HW177043   3.692   5.746   3.826  0.9486 -0.9980 -0.6732
24696SOL    HW277044   3.625   5.696   3.699 -0.8284  0.6784 -0.4263
24697SOL     OW77045   8.835   9.367   1.842 -0.1153  0.0666  0.2693
24697SOL    HW177046   8.793   9.394   1.760  0.2793  2.6723  0.8153
24697SOL    HW277047   8.928   9.388   1.829  0.7923 -3.4759 -0.0856
24698SOL     OW77048   0.219  10.303   8.416  0.2010  0.5478 -0.6460
24698SOL    HW177049   0.243  10.216   8.449 -0.5293  1.3805  2.3214
24698SOL    HW277050   0.131  10.291   8.382  1.1846 -0.4587 -3.1246
24699SOL     OW77051   4.503   5.953   5.528  0.3817  0.4193  0.6198
24699SOL    HW177052   4.577   5.893   5.515 -0.8059 -0.8828 -0.4012
24699SOL    HW277053   4.476   5.977   5.439 -1.6817 -0.7442  0.8832
24700SOL     OW77054   1.608   0.791   2.794 -0.8129 -0.8109 -0.0753
24700SOL    HW177055   1.621   0.767   2.702 -0.4949 -1.5923  0.1640
24700SOL    HW277056   1.515   0.774   2.810 -1.0237 -0.0295 -0.4286
24701SOL     OW77057   8.526  10.000   8.969  0.0953  0.0529  0.4037
24701SOL    HW177058   8.588   9.932   8.996  0.5943  0.3868  0.1130
24701SOL    HW277059   8.472   9.959   8.903  1.9858  0.6190 -1.6063
24702SOL     OW77060   6.392   2.623   0.654  0.0543 -0.3881  0.2035
24702SOL    HW177061   6.393   2.632   0.749  1.5044  2.4706  0.0292
24702SOL    HW277062   6.484   2.635   0.627 -0.4783  0.0373 -1.6025
24703SOL     OW77063   8.937   7.293   9.671 -0.0856  0.3500 -0.1155
24703SOL    HW177064   8.876   7.253   9.733 -1.5488  1.7562 -0.5668
24703SOL    HW277065   8.985   7.219   9.634 -3.4274 -1.2442 -1.7183
24704SOL     OW77066   7.113   3.450   2.459 -0.2448 -0.1231 -0.1616
24704SOL    HW177067   7.122   3.384   2.527 -1.3999  0.6018  0.7223
24704SOL    HW277068   7.132   3.533   2.503 -2.6382  0.5490 -0.2495
24705SOL     OW77069   4.146   1.767   0.936  0.2695  0.0182  0.1136
24705SOL    HW177070   4.125   1.815   1.016  0.6996  0.3041  0.0596
24705SOL    HW277071   4.175   1.681   0.966 -0.2950 -0.1340  0.2234
24706SOL     OW77072   1.302   2.788   6.664  0.1825 -0.1512 -0.3401
24706SOL    HW177073   1.250   2.815   6.739 -1.0831  1.0766 -1.5929
24706SOL    HW277074   1.305   2.866   6.607  1.1040 -1.0267 -1.5597
24707SOL     OW77075   5.790   2.825   5.847  0.3006 -0.3711 -0.0750
24707SOL    HW177076   5.814   2.766   5.776 -1.0626  0.8057 -1.6067
24707SOL    HW277077   5.870   2.837   5.897  0.7486 -2.9876 -0.0711
24708SOL     OW77078   9.193   5.478  10.672 -0.4415 -0.5473 -0.4579
24708SOL    HW177079   9.228   5.453  10.586 -0.8863  0.0521 -0.8256
24708SOL    HW277080   9.197   5.398  10.724 -0.4427 -0.9966 -1.1303
24709SOL     OW77081   0.092   3.117   9.859 -0.3587  0.1800  0.6366
24709SOL    HW177082   0.045   3.091   9.780  2.2991 -1.7315 -0.4749
24709SOL    HW277083   0.113   3.210   9.845 -1.1399  0.2319 -0.2377
24710SOL     OW77084   6.243   8.396   2.439  0.3521 -0.4185 -0.0362
24710SOL    HW177085   6.221   8.327   2.376 -1.8699  0.7082 -0.5831
24710SOL    HW277086   6.193   8.375   2.517  0.9053 -0.2645  0.3667
24711SOL     OW77087   2.977   9.519   2.287  0.3384  0.5242  0.0537
24711SOL    HW177088   2.942   9.430   2.296  1.0968  0.2184  0.0545
24711SOL    HW277089   2.933   9.568   2.357  0.6074 -0.0705  0.6579
24712SOL     OW77090   6.899   1.844   3.593  0.2070  0.3416 -0.3970
24712SOL    HW177091   6.852   1.774   3.547  0.5484 -0.3628  0.3118
24712SOL    HW277092   6.831   1.906   3.619 -0.1913 -0.1104 -0.3594
24713SOL     OW77093   1.973   7.355   9.769  0.6520  0.4498  0.7268
24713SOL    HW177094   1.918   7.308   9.706  1.4748  0.2118  0.1678
24713SOL    HW277095   1.948   7.446   9.760  1.0224  0.4663 -0.2293
24714SOL     OW77096   8.847   7.807   8.724 -0.1776 -0.3608 -0.4015
24714SOL    HW177097   8.900   7.866   8.776  1.1139 -1.0896 -0.8473
24714SOL    HW277098   8.792   7.761   8.788 -0.5594  0.6521  0.0243
24715SOL     OW77099   3.370   4.595   4.674  0.0953  0.6191 -0.5568
24715SOL    HW177100   3.311   4.669   4.663 -1.8374 -1.0769 -2.5990
24715SOL    HW277101   3.452   4.622   4.631 -1.2525  0.9182 -3.1404
24716SOL     OW77102   7.488   0.665   1.226  0.3615 -0.3172  0.0820
24716SOL    HW177103   7.505   0.759   1.218  1.2185 -0.5572 -1.1987
24716SOL    HW277104   7.448   0.641   1.143 -0.6140 -0.9434  0.7209
24717SOL     OW77105  10.032   0.431   7.473  0.1680 -0.0112 -0.3869
24717SOL    HW177106  10.060   0.394   7.557 -0.9880 -0.8204 -0.3409
24717SOL    HW277107  10.024   0.356   7.415 -1.0560  0.2710 -0.6204
24718SOL     OW77108   8.726   4.586   2.750 -0.1195  0.2823  0.3934
24718SOL    HW177109   8.727   4.680   2.767 -1.1689  0.6327 -1.2161
24718SOL    HW277110   8.644   4.572   2.702  0.5178 -1.2777 -0.2775
24719SOL     OW77111   5.282   1.449   5.461 -0.1210  0.1562  0.4625
24719SOL    HW177112   5.232   1.530   5.451  0.0892  0.2215 -0.1260
24719SOL    HW277113   5.276   1.428   5.554  2.1576  2.3665  1.2456
24720SOL     OW77114   9.896   6.094   8.049 -0.1655  0.1145 -0.6607
24720SOL    HW177115   9.946   6.017   8.079 -1.7469 -0.7406 -0.0796
24720SOL    HW277116   9.808   6.079   8.082  0.0956  3.7456  2.3316
24721SOL     OW77117   1.769   5.000   5.539  0.4975 -0.2160  0.3393
24721SOL    HW177118   1.722   4.957   5.611  1.9671 -0.6827  1.0760
24721SOL    HW277119   1.807   4.927   5.489  0.2512  0.1369 -0.3647
24722SOL     OW77120   6.407   5.333   1.311 -0.3153 -0.3305  0.8086
24722SOL    HW177121   6.325   5.285   1.326 -1.6851  2.0221  1.3447
24722SOL    HW277122   6.457   5.277   1.251 -3.2034 -0.9216 -1.2562
24723SOL     OW77123   0.512   7.649   5.880  0.7556  0.0245 -0.2419
24723SOL    HW177124   0.554   7.653   5.794  0.5046  0.9480 -0.3265
24723SOL    HW277125   0.506   7.740   5.909 -1.5151 -0.0164 -0.4043
24724SOL     OW77126  10.345  10.627   4.196 -0.9914  0.6134  0.3342
24724SOL    HW177127  10.269  10.676   4.164 -1.8950  0.8668  2.6488
24724SOL    HW277128  10.412  10.693   4.210 -1.4718  0.8915  1.3850
24725SOL     OW77129   0.720   9.546   7.230  0.6776  0.5137 -0.0817
24725SOL    HW177130   0.789   9.603   7.198  1.9616 -1.0787 -0.2862
24725SOL    HW277131   0.675   9.598   7.296  3.1190  1.0879  1.2545
24726SOL     OW77132   0.774   4.673   3.892  0.3258  0.1381 -0.3148
24726SOL    HW177133   0.818   4.746   3.936  1.9283 -1.4144  0.7913
24726SOL    HW277134   0.722   4.632   3.961 -0.3477  0.0589 -0.8639
24727SOL     OW77135   6.016   9.525   6.976 -0.3683  0.0924  0.2764
24727SOL    HW177136   6.088   9.504   6.915 -0.6576 -3.2237  0.9155
24727SOL    HW277137   6.029   9.466   7.050 -3.2268  0.0568  0.8495
24728SOL     OW77138  10.353   5.559   2.493  0.1525  0.3335 -0.1152
24728SOL    HW177139  10.440   5.528   2.467 -0.3340 -0.9281 -0.2785
24728SOL    HW277140  10.370   5.614   2.570  1.1521  0.5668 -0.4832
24729SOL     OW77141   7.785   6.726   3.002 -0.2193  0.5626 -0.0496
24729SOL    HW177142   7.861   6.691   3.049 -1.3132 -0.1970  1.2232
24729SOL    HW277143   7.799   6.701   2.911  1.3149  0.9157  0.0690
24730SOL     OW77144   1.215   1.619   3.883 -0.0457 -0.2033 -0.6011
24730SOL    HW177145   1.260   1.699   3.910  0.8869  0.4064 -3.5723
24730SOL    HW277146   1.155   1.599   3.955 -0.2328  3.0889  0.3008
24731SOL     OW77147   7.333  10.656   6.618 -0.5460  0.0490  0.2269
24731SOL    HW177148   7.381  10.737   6.639  0.5172 -0.8505  1.4897
24731SOL    HW277149   7.341  10.647   6.523  0.7421  0.5906  0.2609
24732SOL     OW77150   4.390   8.318   4.424  0.4805  0.4971 -0.0179
24732SOL    HW177151   4.476   8.290   4.394  0.5434  0.3713  0.2746
24732SOL    HW277152   4.337   8.323   4.344  0.3512 -0.8720 -0.0441
24733SOL     OW77153   0.366   9.930   9.792  0.7233  0.2561 -0.5482
24733SOL    HW177154   0.400   9.854   9.744  1.8483 -0.9765  2.0359
24733SOL    HW277155   0.272   9.912   9.801  0.3495  0.8280 -2.7119
24734SOL     OW77156   9.151   2.582   0.868  0.3244 -0.4869  0.2037
24734SOL    HW177157   9.240   2.589   0.835  0.3438 -1.2523  0.0709
24734SOL    HW277158   9.128   2.490   0.856 -0.7885 -0.1297 -0.5604
24735SOL     OW77159   4.977   8.419   0.206  0.3953 -0.6719 -0.1093
24735SOL    HW177160   5.020   8.421   0.292 -0.1135  2.3272  0.2038
24735SOL    HW277161   4.885   8.438   0.226  0.2812  0.1236 -1.2842
24736SOL     OW77162   3.357   4.642  10.218  0.2214 -0.7617  0.3263
24736SOL    HW177163   3.398   4.566  10.176  2.8429  0.3183  0.7456
24736SOL    HW277164   3.409   4.657  10.296 -0.5818  1.1524  0.5506
24737SOL     OW77165   3.893   0.229   1.655 -0.2381  0.0340  0.5572
24737SOL    HW177166   3.857   0.296   1.597 -0.2692 -2.0690 -1.9999
24737SOL    HW277167   3.821   0.167   1.668  0.7576 -1.2652  0.0410
24738SOL     OW77168   8.944   5.980   7.367  0.6828 -0.3184  0.2161
24738SOL    HW177169   9.028   6.024   7.373  0.3590  0.3459 -0.0851
24738SOL    HW277170   8.920   5.987   7.274 -0.6760  1.3356  0.6443
24739SOL     OW77171   6.855   8.680   8.416  0.1557 -0.3230  0.2921
24739SOL    HW177172   6.816   8.767   8.430  0.5307  0.1408 -1.3554
24739SOL    HW277173   6.870   8.647   8.504 -0.7698  0.9349  0.9634
24740SOL     OW77174   4.047  10.125   6.206 -0.0860  0.1800 -0.6054
24740SOL    HW177175   4.113  10.058   6.187  0.7110  1.1735 -1.4336
24740SOL    HW277176   4.069  10.156   6.294 -1.9635 -2.3218  0.8681
24741SOL     OW77177   7.894  10.191   4.810 -0.1463  0.2509 -0.2196
24741SOL    HW177178   7.863  10.281   4.821 -1.5450 -0.3115  0.9349
24741SOL    HW277179   7.815  10.141   4.788  0.3414 -0.9015  0.5242
24742SOL     OW77180   5.637   6.601   9.976 -0.1657  0.3192  0.1584
24742SOL    HW177181   5.553   6.605  10.021 -0.3303  3.5785 -0.2088
24742SOL    HW277182   5.625   6.653   9.897  2.3599  1.5220  0.4657
24743SOL     OW77183   2.661   1.865   0.876 -0.3399  0.2689 -0.1960
24743SOL    HW177184   2.713   1.928   0.926  0.5450 -1.0167  0.5737
24743SOL    HW277185   2.595   1.835   0.938 -0.8628  0.5638 -0.6094
24744SOL     OW77186  10.462   3.723   0.692  0.6216  0.4313  0.3180
24744SOL    HW177187  10.541   3.715   0.745  0.5123 -2.3564  0.1802
24744SOL    HW277188  10.425   3.808   0.717  1.2673 -0.1516  3.7097
24745SOL     OW77189   6.305   2.033   5.453  0.5150  0.1734 -0.0622
24745SOL    HW177190   6.277   1.961   5.396 -1.1049 -0.4689  1.4336
24745SOL    HW277191   6.390   2.004   5.488  2.1870  1.1434 -2.9730
24746SOL     OW77192   2.554   0.695   1.891  0.6861 -0.5365 -0.1500
24746SOL    HW177193   2.498   0.694   1.813  0.3326 -2.2862  0.1065
24746SOL    HW277194   2.638   0.730   1.859 -0.2706  1.4738 -0.6760
24747SOL     OW77195   5.826   9.755   6.968 -0.9617  0.3922 -0.0662
24747SOL    HW177196   5.891   9.685   6.962  1.0063  2.1979 -1.2212
24747SOL    HW277197   5.796   9.752   7.058 -0.8270 -1.8049 -0.0435
24748SOL     OW77198   6.692   9.836   3.023  0.0558 -0.0366  0.4700
24748SOL    HW177199   6.736   9.823   2.939  0.7201  0.5167  0.7283
24748SOL    HW277200   6.662   9.749   3.048  0.0671 -0.2483 -0.2182
24749SOL     OW77201  10.620   4.360   7.141  0.0506 -0.1778 -0.7655
24749SOL    HW177202  10.557   4.292   7.116 -1.5765  1.2178 -0.6178
24749SOL    HW277203  10.571   4.420   7.197  1.6998  0.6340 -0.0961
24750SOL     OW77204   6.334   6.533   1.886  0.0075 -0.1498  0.1579
24750SOL    HW177205   6.326   6.525   1.981  1.1494  0.2358  0.2994
24750SOL    HW277206   6.422   6.502   1.866 -0.4902 -0.9752 -0.8807
24751SOL     OW77207   8.726   3.524   0.790 -0.0261 -0.1932  0.0519
24751SOL    HW177208   8.779   3.453   0.755  0.2002 -1.2620  2.3781
24751SOL    HW277209   8.781   3.602   0.780  0.4405 -0.6336 -0.9372
24752SOL     OW77210   4.001   5.571   9.044 -0.0116 -0.1323  0.0513
24752SOL    HW177211   4.017   5.495   9.100  0.2703  0.4292  0.7393
24752SOL    HW277212   4.019   5.647   9.099 -0.9522  0.4618 -0.4148
24753SOL     OW77213   3.356   4.543   1.053 -0.0026  0.7238 -0.1320
24753SOL    HW177214   3.309   4.619   1.086 -0.0142  0.5380  0.2906
24753SOL    HW277215   3.402   4.574   0.975 -0.7367  0.9331 -0.4890
24754SOL     OW77216   8.005   7.055   0.210  0.1928  0.5311 -0.2670
24754SOL    HW177217   8.080   7.090   0.258 -1.1612  1.7013  1.0785
24754SOL    HW277218   7.953   7.132   0.187 -1.2281 -0.3498 -0.0784
24755SOL     OW77219   7.304   5.866   7.460  0.0444 -0.1143 -0.2090
24755SOL    HW177220   7.318   5.827   7.374  0.5495  0.0181 -0.1911
24755SOL    HW277221   7.282   5.791   7.516  1.0129 -0.3958 -0.1730
24756SOL     OW77222   9.394   5.408  10.019  0.0403  0.0534 -0.0234
24756SOL    HW177223   9.387   5.409   9.924 -1.1940 -1.3126  0.0131
24756SOL    HW277224   9.461   5.342  10.038  2.0437  2.0119  0.0378
24757SOL     OW77225   6.473   6.689   0.198 -0.0874 -0.0261  0.0404
24757SOL    HW177226   6.393   6.681   0.146  0.2752  0.1891 -0.5549
24757SOL    HW277227   6.452   6.645   0.281 -1.2191  1.0425  0.3433
24758SOL     OW77228   2.271   9.320   2.378  0.2279  0.2820  0.0387
24758SOL    HW177229   2.357   9.339   2.342 -0.1950  0.4401 -0.9384
24758SOL    HW277230   2.249   9.398   2.430  0.6945  0.2152  0.3361
24759SOL     OW77231   0.606   5.339   2.998 -0.1074 -0.1061 -0.2952
24759SOL    HW177232   0.605   5.265   2.938 -2.2716  0.0708 -0.5505
24759SOL    HW277233   0.646   5.304   3.078  0.6158 -1.0121 -1.0348
24760SOL     OW77234   5.051   6.058   2.549  0.2428 -0.0548 -0.3765
24760SOL    HW177235   4.957   6.073   2.554  0.3738  0.9188 -0.6147
24760SOL    HW277236   5.067   5.985   2.610 -0.6596 -0.2521 -0.3638
24761SOL     OW77237   4.246   8.303  10.337 -0.8931  0.0414  0.0546
24761SOL    HW177238   4.222   8.387  10.298 -1.8859 -0.5311 -0.6195
24761SOL    HW277239   4.272   8.324  10.426  0.3502  1.2590 -0.5575
24762SOL     OW77240  10.260   7.181   9.657  0.1769 -0.6196  0.1487
24762SOL    HW177241  10.236   7.236   9.583 -0.0778 -0.4022  0.3922
24762SOL    HW277242  10.224   7.095   9.635  0.2592 -0.6014 -0.0625
24763SOL     OW77243   8.713   8.002   8.973 -0.6342 -0.0645 -0.2895
24763SOL    HW177244   8.692   8.000   9.066  0.1767 -1.8046 -0.1114
24763SOL    HW277245   8.630   8.027   8.931 -1.1174  0.3256  0.8429
24764SOL     OW77246   0.839   1.345   4.517 -0.4334 -0.1440 -0.4014
24764SOL    HW177247   0.827   1.254   4.488  1.4021  0.0877 -2.0620
24764SOL    HW277248   0.886   1.337   4.600  1.6058 -0.7443 -1.5426
24765SOL     OW77249   5.904   1.675   3.804  0.3225 -0.3216 -0.0896
24765SOL    HW177250   5.916   1.596   3.751 -0.9056 -1.2672  0.9816
24765SOL    HW277251   5.961   1.740   3.763  0.9427 -1.5953 -1.3348
24766SOL     OW77252   2.780   2.000  10.407  0.7351  0.6181  0.0303
24766SOL    HW177253   2.847   2.062  10.381 -0.3954  1.4913 -0.9412
24766SOL    HW277254   2.713   2.008  10.339  0.6572 -1.8555 -0.2643
24767SOL     OW77255   9.178   2.936   7.885  0.0437 -0.2273 -0.2823
24767SOL    HW177256   9.088   2.921   7.912  0.4481 -1.0537  0.6801
24767SOL    HW277257   9.174   2.939   7.789 -1.1271  0.6801 -0.2180
24768SOL     OW77258   8.961   5.910   7.750  0.3374 -0.5564 -0.4808
24768SOL    HW177259   8.917   5.959   7.819 -1.3286 -0.3112 -1.6686
24768SOL    HW277260   9.046   5.886   7.788 -0.0822  0.5207  1.2305
24769SOL     OW77261   5.487   2.178   2.116  0.4207  0.4127  0.4571
24769SOL    HW177262   5.443   2.223   2.043 -0.3889  0.2764  0.8454
24769SOL    HW277263   5.431   2.103   2.135  0.4972  0.5696  1.3661
24770SOL     OW77264   9.765   9.255   0.935  0.0442  0.5798 -0.1143
24770SOL    HW177265   9.783   9.293   0.848  1.2810  1.2286  0.3982
24770SOL    HW277266   9.848   9.214   0.960 -0.2132  0.6694  0.9021
24771SOL     OW77267   7.209   6.644   7.463 -0.0060  0.4620 -0.9764
24771SOL    HW177268   7.176   6.664   7.376 -2.3160  0.2633 -0.2217
24771SOL    HW277269   7.151   6.574   7.495  0.7969  0.5103  0.7079
24772SOL     OW77270   9.445   8.358  10.446 -0.2722 -0.4013 -0.7467
24772SOL    HW177271   9.404   8.299  10.510 -2.7117  2.4706  0.5967
24772SOL    HW277272   9.408   8.444  10.466  0.8582  1.1387 -4.4155
24773SOL     OW77273   5.443   7.791   6.100 -0.4956  0.1236  0.2761
24773SOL    HW177274   5.414   7.750   6.181 -0.6536 -0.6281 -0.1543
24773SOL    HW277275   5.363   7.821   6.057 -0.4684 -0.1092  0.0627
24774SOL     OW77276  10.287   5.966   0.409  0.4142  0.1805 -0.1103
24774SOL    HW177277  10.336   6.009   0.340  0.7816 -1.0469 -0.6364
24774SOL    HW277278  10.201   6.008   0.407  0.6061  0.5485 -0.9250
24775SOL     OW77279   1.467   3.340   3.098 -0.1619 -0.4442 -0.2290
24775SOL    HW177280   1.507   3.408   3.045 -1.9710  1.6785  0.9733
24775SOL    HW277281   1.534   3.316   3.162 -0.1421  1.8027  0.6752
24776SOL     OW77282   2.947   7.004   4.206 -0.0929 -0.3320  0.0431
24776SOL    HW177283   2.977   7.047   4.126 -0.2782 -0.1554  0.0683
24776SOL    HW277284   2.994   6.921   4.208 -2.5008 -1.8997 -2.0005
24777SOL     OW77285   3.053   8.388   0.960 -0.1425  0.8070  0.5615
24777SOL    HW177286   3.145   8.416   0.960  0.2190 -0.3222 -0.1776
24777SOL    HW277287   3.051   8.316   1.023 -0.1650 -0.2293 -0.6006
24778SOL     OW77288   3.130  10.300   2.798  0.2786  0.4877 -0.0966
24778SOL    HW177289   3.050  10.258   2.829 -0.0016  1.4307  0.4953
24778SOL    HW277290   3.152  10.253   2.717 -1.6929  1.1927 -1.1061
24779SOL     OW77291   9.482   4.540   3.494  0.1363  0.6894  0.6138
24779SOL    HW177292   9.417   4.509   3.557  1.2023 -1.2771  0.8352
24779SOL    HW277293   9.503   4.628   3.523 -1.2539  0.7798  1.4707
24780SOL     OW77294   0.301   5.350   3.703  0.5773  0.0667 -0.3227
24780SOL    HW177295   0.369   5.298   3.659  1.5460  0.3918  0.7472
24780SOL    HW277296   0.219   5.317   3.666  1.3527  1.4096 -3.5942
24781SOL     OW77297   3.397   4.359   7.896 -0.2544 -0.4592  0.0330
24781SOL    HW177298   3.404   4.365   7.991  0.7533 -0.4903 -0.0282
24781SOL    HW277299   3.365   4.444   7.869 -2.1118 -0.9604  0.5174
24782SOL     OW77300   2.959   4.693   5.101  0.3727 -0.7149 -0.2711
24782SOL    HW177301   2.894   4.758   5.076 -1.6072 -2.2876  0.4512
24782SOL    HW277302   2.908   4.624   5.144  2.7551 -1.2694  1.8776
24783SOL     OW77303  10.209   3.641   6.939  0.3338 -0.3622  0.1649
24783SOL    HW177304  10.202   3.596   7.024 -0.7170 -0.1914  0.1849
24783SOL    HW277305  10.296   3.680   6.940 -0.6564  2.1096  2.4339
24784SOL     OW77306   9.522   3.492   2.106  0.2332 -0.1622  0.6446
24784SOL    HW177307   9.431   3.504   2.131  0.0798 -0.8485  0.4434
24784SOL    HW277308   9.544   3.403   2.133  0.1881 -0.7837 -1.1996
24785SOL     OW77309  10.211   3.655   1.739 -0.6055  0.5217 -0.0017
24785SOL    HW177310  10.135   3.714   1.746 -0.1406  1.0870  0.4251
24785SOL    HW277311  10.281   3.702   1.784 -0.8080 -1.3901  2.5407
24786SOL     OW77312   2.394   3.376   9.946  0.5818 -0.4188 -0.0118
24786SOL    HW177313   2.425   3.359  10.035  0.0187 -1.2698  0.0251
24786SOL    HW277314   2.299   3.381   9.953  0.5620  0.0312 -0.4847
24787SOL     OW77315   4.290   1.656   4.726  0.1956 -0.1284  0.0173
24787SOL    HW177316   4.365   1.631   4.671 -0.0086  0.0436 -0.3408
24787SOL    HW277317   4.327   1.718   4.790  0.4497 -0.3921  0.1281
24788SOL     OW77318   2.965   0.456   4.991  0.2911  0.0942 -0.1344
24788SOL    HW177319   2.972   0.377   4.939 -0.2898 -1.4992  2.0654
24788SOL    HW277320   2.873   0.462   5.016  0.8045 -0.2413  2.1242
24789SOL     OW77321   5.598   3.999   2.782  0.0320  0.0762 -0.2264
24789SOL    HW177322   5.529   3.973   2.843  0.8640 -0.8098  0.3652
24789SOL    HW277323   5.608   4.093   2.797  1.7894 -0.4544  2.7282
24790SOL     OW77324   4.748   7.888   6.901 -0.3742  0.4726  0.2833
24790SOL    HW177325   4.659   7.858   6.881 -0.6017  0.9688  0.5108
24790SOL    HW277326   4.766   7.853   6.988  0.3853 -1.1871 -0.5095
24791SOL     OW77327   3.757   0.759   5.073  0.3803 -0.3611  0.1926
24791SOL    HW177328   3.693   0.758   5.002  0.1251  0.8690  0.3733
24791SOL    HW277329   3.712   0.718   5.147 -0.9366  2.1302  0.8724
24792SOL     OW77330   3.932   9.189   7.910  0.4240  0.1362  0.0031
24792SOL    HW177331   3.966   9.134   7.980 -1.0680 -1.5778 -0.5610
24792SOL    HW277332   4.000   9.186   7.842  0.6510 -0.4547  0.2490
24793SOL     OW77333   9.310   7.959   8.941  0.1809  0.3827  0.1313
24793SOL    HW177334   9.339   7.939   9.030 -0.3997  0.1261  0.2650
24793SOL    HW277335   9.248   8.031   8.951  0.1615  0.3958 -0.0738
24794SOL     OW77336   6.123   3.339   8.719 -0.4283  0.2112 -0.1919
24794SOL    HW177337   6.098   3.344   8.627 -0.4667 -0.7479 -0.2459
24794SOL    HW277338   6.195   3.401   8.728  1.4888 -1.6376 -1.5432
24795SOL     OW77339   8.771   5.557   5.558  0.3596  0.7352 -0.3350
24795SOL    HW177340   8.801   5.471   5.587  0.3952 -0.1323 -2.7644
24795SOL    HW277341   8.677   5.546   5.541  0.0082  1.6470  0.8674
24796SOL     OW77342  10.132   6.601   4.401 -0.4159  0.3421 -0.1306
24796SOL    HW177343  10.215   6.647   4.415 -0.0757 -0.3278  0.0763
24796SOL    HW277344  10.153   6.508   4.414 -1.0014  0.0833 -0.9917
24797SOL     OW77345   0.656   3.274   7.158  0.3068  0.5494 -0.0978
24797SOL    HW177346   0.672   3.330   7.082 -0.1826  0.2298 -0.4424
24797SOL    HW277347   0.731   3.215   7.160  0.3193  0.5530 -0.3416
24798SOL     OW77348   6.343  10.406   7.964  0.6210 -0.0567 -0.1602
24798SOL    HW177349   6.256  10.386   7.931  0.8566  1.8834 -2.1940
24798SOL    HW277350   6.400  10.340   7.924  0.4106  0.1697 -0.8444
24799SOL     OW77351   1.096   3.474   3.672  0.0879 -0.2618  0.0792
24799SOL    HW177352   1.136   3.426   3.745  0.3097 -0.2825 -0.0552
24799SOL    HW277353   1.020   3.518   3.710  0.8820  0.6956  0.5776
24800SOL     OW77354   4.326   8.984   1.666 -0.3476 -0.0225 -0.4609
24800SOL    HW177355   4.328   9.058   1.726  0.3332  0.8078 -1.4860
24800SOL    HW277356   4.388   8.921   1.704  0.0631  0.4809 -0.2820
24801SOL     OW77357   8.424   0.347   6.394  0.6837  0.4870  0.3573
24801SOL    HW177358   8.365   0.367   6.467  2.0616  0.5591  1.4725
24801SOL    HW277359   8.446   0.255   6.406 -0.6076 -0.0665 -1.1257
24802SOL     OW77360   5.171   1.656   9.140  0.0186  0.4895  0.9875
24802SOL    HW177361   5.095   1.599   9.128 -0.2328  0.7225  1.4568
24802SOL    HW277362   5.246   1.602   9.117 -0.3598  0.6030 -0.6668
24803SOL     OW77363   8.950   0.203   6.076  0.5265 -0.2256 -0.3184
24803SOL    HW177364   8.930   0.123   6.028  1.4172 -0.7003  0.0790
24803SOL    HW277365   8.893   0.200   6.153  0.1143 -0.1612 -0.6153
24804SOL     OW77366   6.554   4.242   1.167 -0.4114  0.1205  0.5336
24804SOL    HW177367   6.543   4.153   1.199 -0.2828  0.0901  0.4958
24804SOL    HW277368   6.613   4.234   1.093 -1.7845  0.0158 -0.5908
24805SOL     OW77369   5.350   4.369   4.861  0.4384 -0.4095 -0.7371
24805SOL    HW177370   5.303   4.381   4.778  0.6124  0.5335 -0.7070
24805SOL    HW277371   5.425   4.314   4.839 -0.4934 -1.6804 -0.8465
24806SOL     OW77372   4.278   5.234   3.106 -0.0782  0.2479  0.1924
24806SOL    HW177373   4.213   5.164   3.112  0.7346 -0.7560 -1.6835
24806SOL    HW277374   4.231   5.308   3.068 -0.9220  0.7216  2.0890
24807SOL     OW77375   7.984   5.723   5.918 -0.6525 -0.5229  0.2176
24807SOL    HW177376   7.976   5.687   5.830 -1.0107  0.5556 -0.2123
24807SOL    HW277377   7.977   5.818   5.905  0.4061 -0.2798  1.2804
24808SOL     OW77378   2.635  10.220   9.909  0.0001  0.0403  0.0258
24808SOL    HW177379   2.686  10.281   9.855 -0.4034  1.9814  1.7018
24808SOL    HW277380   2.584  10.277   9.967 -1.4543 -1.9066  0.7651
24809SOL     OW77381  10.391   4.059   6.226 -0.3766  0.1844 -0.2480
24809SOL    HW177382  10.319   4.119   6.248  0.3587 -0.1324  3.8614
24809SOL    HW277383  10.470   4.108   6.248  0.4874 -0.7425 -1.2038
24810SOL     OW77384   3.979   4.388   3.917 -0.2936  0.0137 -0.1097
24810SOL    HW177385   4.065   4.344   3.917 -0.6681 -0.7414 -0.7180
24810SOL    HW277386   3.981   4.443   3.839 -1.0338 -1.3845 -1.1433
24811SOL     OW77387   7.944   8.320   3.240 -0.2740 -0.6149  0.1615
24811SOL    HW177388   8.024   8.309   3.292  1.0866  1.2172 -1.4211
24811SOL    HW277389   7.911   8.406   3.264 -0.3882 -0.3213 -1.0191
24812SOL     OW77390   3.012   4.311   7.925  0.1483  0.2949  0.1137
24812SOL    HW177391   3.058   4.309   8.008  1.7190  0.0597 -0.7248
24812SOL    HW277392   2.964   4.394   7.926  2.1183  1.4832  0.2540
24813SOL     OW77393   1.060   3.504   4.748  0.6638  1.0207  0.5389
24813SOL    HW177394   1.007   3.482   4.825  0.7427  0.6091  0.4812
24813SOL    HW277395   1.034   3.440   4.682  2.0479  0.0488  0.8850
24814SOL     OW77396   9.588   7.453   4.385 -0.4747 -0.3752  0.7669
24814SOL    HW177397   9.492   7.457   4.386 -0.5698 -0.5522 -1.6845
24814SOL    HW277398   9.616   7.537   4.423 -1.6553  0.8287 -0.8882
24815SOL     OW77399   3.546   0.275   4.402 -0.1284  0.1839 -0.1987
24815SOL    HW177400   3.456   0.242   4.395  0.2644 -2.0122  3.0087
24815SOL    HW277401   3.549   0.320   4.486  1.7859  0.1030 -0.1779
24816SOL     OW77402   6.518   2.562   0.258  0.1938  0.2044 -0.3212
24816SOL    HW177403   6.565   2.582   0.177 -0.2265  0.6103 -0.4723
24816SOL    HW277404   6.540   2.635   0.317 -1.6419  1.3916 -0.9977
24817SOL     OW77405   4.015   0.493   4.197  0.5645 -0.0680  0.5241
24817SOL    HW177406   4.079   0.470   4.130  1.0022  2.3115  0.0623
24817SOL    HW277407   3.987   0.408   4.232  1.7834 -1.2935 -1.2663
24818SOL     OW77408   3.518   1.139   6.545  0.3848 -0.1346 -0.5948
24818SOL    HW177409   3.473   1.090   6.477 -0.2609 -1.5490  0.7923
24818SOL    HW277410   3.590   1.083   6.573  1.1115  0.7562 -0.6225
24819SOL     OW77411   8.756   8.742   9.298  0.0488 -0.4307  0.5011
24819SOL    HW177412   8.711   8.660   9.278  1.5421 -1.1063 -0.2456
24819SOL    HW277413   8.689   8.796   9.341 -1.4489 -1.3607 -0.5692
24820SOL     OW77414   6.496   1.464   0.363 -0.1709 -0.2510 -0.0899
24820SOL    HW177415   6.485   1.388   0.419 -0.1733  0.3376  0.7149
24820SOL    HW277416   6.482   1.540   0.420  1.0094  0.3867 -0.5992
24821SOL     OW77417   8.493   7.189   0.733 -0.1799  0.0598  0.0558
24821SOL    HW177418   8.503   7.171   0.640 -0.4968 -0.8820  0.1971
24821SOL    HW277419   8.543   7.120   0.777 -1.9754 -0.9431  0.6209
24822SOL     OW77420   3.461   4.758   8.616  0.2940 -0.4140 -0.0023
24822SOL    HW177421   3.376   4.734   8.580 -1.9719  2.8939  2.5006
24822SOL    HW277422   3.493   4.828   8.559  0.6174 -0.6558 -0.1177
24823SOL     OW77423   0.279   1.902   3.989 -0.3169 -0.8573  0.0578
24823SOL    HW177424   0.189   1.931   4.004 -0.6613 -1.7884 -0.1691
24823SOL    HW277425   0.271   1.816   3.949  0.6805 -1.1879  0.5136
24824SOL     OW77426   8.304   8.886   2.682  0.4598 -0.4933 -0.0134
24824SOL    HW177427   8.239   8.849   2.622  0.6429 -0.6469 -0.1181
24824SOL    HW277428   8.379   8.905   2.627 -0.3067  1.9011 -0.3581
24825SOL     OW77429   0.529   3.499   3.973  0.2490 -0.4863 -0.2131
24825SOL    HW177430   0.454   3.488   3.914  0.1215 -1.4433  0.0998
24825SOL    HW277431   0.571   3.580   3.945  2.0015 -2.3573 -3.6576
24826SOL     OW77432   1.150   3.233   1.095 -0.2885 -0.4860  0.2442
24826SOL    HW177433   1.179   3.177   1.023  1.8785  0.4217  0.3059
24826SOL    HW277434   1.064   3.264   1.068  0.2396 -0.5864 -1.7566
24827SOL     OW77435   9.049   7.096   2.329 -0.5650  0.1085  0.0663
24827SOL    HW177436   9.107   7.044   2.385  1.0093  1.9592  0.2664
24827SOL    HW277437   9.058   7.055   2.243 -0.5463 -0.8642  0.5158
24828SOL     OW77438   4.128   6.614   4.079 -0.4399  0.3890 -0.4653
24828SOL    HW177439   4.067   6.616   4.152 -1.4263  0.7227 -1.2764
24828SOL    HW277440   4.205   6.662   4.111  1.4268 -3.8134  2.2265
24829SOL     OW77441  10.591   4.683   6.249  0.3733  0.1489 -0.1847
24829SOL    HW177442  10.617   4.761   6.298 -1.2660  0.7933 -0.2816
24829SOL    HW277443  10.642   4.612   6.287 -0.3183  0.7497  1.9538
24830SOL     OW77444   9.416   3.524   0.680 -0.2611  0.2201 -0.4559
24830SOL    HW177445   9.463   3.587   0.736 -0.5048 -0.0336  0.0367
24830SOL    HW277446   9.438   3.439   0.717 -0.4926  0.0556 -0.6981
24831SOL     OW77447   4.000   2.083   8.922 -0.3410  0.1675  0.2347
24831SOL    HW177448   3.923   2.027   8.932  0.1563 -0.6462 -0.3599
24831SOL    HW277449   3.977   2.143   8.852  0.5710 -1.9397 -2.0051
24832SOL     OW77450   3.649   0.052   9.265  0.3706  0.4905  0.0131
24832SOL    HW177451   3.626  -0.038   9.242  1.2288  0.6415 -1.5644
24832SOL    HW277452   3.576   0.105   9.232  0.6561  0.5181 -0.5854
24833SOL     OW77453   5.214   9.931   8.844 -0.4553 -0.6112  0.4899
24833SOL    HW177454   5.144   9.993   8.863 -0.0939 -0.6845  2.3471
24833SOL    HW277455   5.286   9.959   8.901  1.3800 -0.0219 -1.9520
24834SOL     OW77456   8.240   8.361   6.030  0.1677  0.1422 -0.1570
24834SOL    HW177457   8.179   8.433   6.010  0.5826  0.0668 -1.8663
24834SOL    HW277458   8.323   8.404   6.048 -0.5240  0.3130  3.1897
24835SOL     OW77459   9.668   5.217   8.563 -0.1919 -0.0087  0.4533
24835SOL    HW177460   9.677   5.183   8.474 -1.2301 -0.5075  0.5235
24835SOL    HW277461   9.666   5.312   8.553  1.1789  0.0090  0.1037
24836SOL     OW77462   0.409   2.668   4.049 -0.1515  0.0487  0.4388
24836SOL    HW177463   0.394   2.734   3.982 -0.3234 -1.8115 -1.4561
24836SOL    HW277464   0.323   2.627   4.062  0.4961 -1.8106 -0.7159
24837SOL     OW77465   9.059   0.449   7.707 -0.0456  0.1279  0.0495
24837SOL    HW177466   9.070   0.366   7.755 -0.1180 -1.6109 -2.7371
24837SOL    HW277467   8.975   0.483   7.737 -0.8299 -1.6993  0.0488
24838SOL     OW77468   0.456   2.187   4.090 -0.2117 -0.6339 -0.0709
24838SOL    HW177469   0.454   2.230   4.176  2.1425  1.0374 -0.7812
24838SOL    HW277470   0.469   2.094   4.111  2.2892 -0.0494  1.4301
24839SOL     OW77471   1.163   5.118   1.719 -0.0652  0.8541 -0.0759
24839SOL    HW177472   1.099   5.047   1.727 -0.5697  0.6080 -4.2610
24839SOL    HW277473   1.115   5.196   1.749 -0.4582 -0.0306  1.8003
24840SOL     OW77474   6.912   2.479   7.597 -0.1479 -0.0439 -0.1088
24840SOL    HW177475   6.916   2.415   7.668 -1.3581 -0.9812 -0.8444
24840SOL    HW277476   6.917   2.427   7.517  2.6090  1.0752 -0.8110
24841SOL     OW77477   7.957   4.829   2.221 -0.5812 -0.7154 -0.0727
24841SOL    HW177478   7.912   4.760   2.172 -2.1453  0.5874 -0.5613
24841SOL    HW277479   7.889   4.864   2.279  0.5516 -0.4716  1.1437
24842SOL     OW77480  10.299   8.075  10.426 -0.0741  0.2158  0.0666
24842SOL    HW177481  10.272   7.988  10.454  0.5973 -0.1489 -0.4120
24842SOL    HW277482  10.358   8.106  10.495 -0.9445  0.6364  0.6461
24843SOL     OW77483   6.271  10.273   3.344 -0.1421  0.3587  0.1944
24843SOL    HW177484   6.197  10.330   3.323 -0.0421  0.4407  0.0548
24843SOL    HW277485   6.327  10.278   3.267 -0.1726  0.0026  0.1519
24844SOL     OW77486   3.981   2.525   3.937 -0.3016  0.3678  0.7055
24844SOL    HW177487   4.033   2.444   3.936 -1.2650 -0.2574  0.7446
24844SOL    HW277488   3.947   2.534   3.848 -0.6308  0.4522  0.8382
24845SOL     OW77489  10.486   6.578  10.401 -0.4503 -0.3952  0.7886
24845SOL    HW177490  10.397   6.560  10.431 -0.2328 -0.8242  1.1902
24845SOL    HW277491  10.507   6.664  10.437 -0.1206 -0.9822  2.0703
24846SOL     OW77492   5.069   6.763   7.366 -0.4348 -0.4934  0.5756
24846SOL    HW177493   4.991   6.710   7.384  0.3695 -1.6167  0.9181
24846SOL    HW277494   5.130   6.738   7.435 -0.0750  1.0369  0.8447
24847SOL     OW77495   7.559   2.064   0.840 -0.6256  0.3143  0.2238
24847SOL    HW177496   7.615   2.136   0.811  0.1293 -0.8504 -1.4085
24847SOL    HW277497   7.617   2.009   0.894 -0.4410 -0.3929 -0.6740
24848SOL     OW77498  10.475  10.285   5.056 -0.3255 -0.7020 -0.1709
24848SOL    HW177499  10.503  10.198   5.026 -2.0754 -1.6114  0.7165
24848SOL    HW277500  10.521  10.297   5.139 -1.4603 -1.5851  0.5995
24849SOL     OW77501   0.295   8.786   8.799  0.2315 -0.2544  0.1888
24849SOL    HW177502   0.385   8.788   8.834  0.0950 -2.3014  0.7736
24849SOL    HW277503   0.244   8.837   8.862  0.5619 -1.2650  1.3346
24850SOL     OW77504  10.554   1.767   1.883 -0.1905  0.7788  0.1518
24850SOL    HW177505  10.581   1.856   1.902 -0.7322  0.6568  1.6722
24850SOL    HW277506  10.482   1.750   1.945  0.3913 -0.9459  0.4119
24851SOL     OW77507   4.581   5.894   1.325  0.4927 -0.4227  0.1861
24851SOL    HW177508   4.509   5.875   1.264 -1.7801 -0.7609  2.7873
24851SOL    HW277509   4.582   5.989   1.332 -1.0474 -0.4601  1.5194
24852SOL     OW77510  10.089  10.632   0.722  0.7521  0.0075  0.1506
24852SOL    HW177511  10.066  10.563   0.784  3.0684 -2.0329 -1.0673
24852SOL    HW277512  10.025  10.624   0.652 -0.9307  1.2919  1.4804
24853SOL     OW77513   6.190   4.871   5.194  0.4766  0.2400 -0.4327
24853SOL    HW177514   6.155   4.957   5.172  0.1170  0.6660  1.5856
24853SOL    HW277515   6.115   4.812   5.188 -0.0026  0.6510  1.1759
24854SOL     OW77516   3.448  10.108   2.825 -0.0359 -0.1708 -0.2673
24854SOL    HW177517   3.505  10.138   2.754  1.5425  1.1258  1.4348
24854SOL    HW277518   3.505  10.052   2.879 -0.1362  1.4900  1.7062
24855SOL     OW77519   0.985   8.700   0.894 -0.2295  0.6442  0.1451
24855SOL    HW177520   0.998   8.786   0.854  0.6450  0.0858 -0.8316
24855SOL    HW277521   0.998   8.715   0.987  0.4893  1.4756 -0.0711
24856SOL     OW77522   5.263   6.361  10.566 -0.3827 -0.3599 -0.1416
24856SOL    HW177523   5.317   6.441  10.566  0.2918 -0.7876  1.1476
24856SOL    HW277524   5.177   6.391  10.537  0.3924  0.4307 -1.8014
24857SOL     OW77525   5.729   7.459   0.731 -0.6047 -0.2410  0.1130
24857SOL    HW177526   5.762   7.425   0.815  0.2366 -1.8883 -0.8332
24857SOL    HW277527   5.644   7.416   0.720 -1.2672  0.8823  0.6362
24858SOL     OW77528   5.297   0.125   5.126 -0.3405 -0.1363 -0.4001
24858SOL    HW177529   5.246   0.203   5.148 -1.3473 -0.8507 -0.1454
24858SOL    HW277530   5.387   0.146   5.152 -0.9436  0.2064  1.4962
24859SOL     OW77531  10.375   8.041   8.673  0.0454 -0.1414 -0.3541
24859SOL    HW177532  10.400   7.954   8.705  0.1891 -0.0846 -0.3105
24859SOL    HW277533  10.455   8.075   8.633  0.3909  0.5222  0.8352
24860SOL     OW77534  10.475   4.125   1.196  0.1550  0.2937 -0.1558
24860SOL    HW177535  10.510   4.191   1.136  0.1009  0.1060 -0.3937
24860SOL    HW277536  10.525   4.046   1.176  0.6428  0.4124  0.5421
24861SOL     OW77537   1.570   4.499   8.026  0.5826 -0.1305  0.1498
24861SOL    HW177538   1.665   4.503   8.035  0.8001  1.9089 -2.0616
24861SOL    HW277539   1.542   4.590   8.028 -1.4004 -0.7064  1.0389
24862SOL     OW77540   3.848   9.647   2.093 -0.1386  0.4742 -0.6935
24862SOL    HW177541   3.939   9.636   2.119  0.2535  0.5965 -1.9116
24862SOL    HW277542   3.797   9.604   2.161  0.7808  1.1249  0.4225
24863SOL     OW77543   8.944   1.601   6.718  0.1651 -0.1952  0.4505
24863SOL    HW177544   8.881   1.529   6.728  0.7547 -0.7720  0.1324
24863SOL    HW277545   8.993   1.578   6.639  0.9866  0.0780  0.8723
24864SOL     OW77546   6.366   7.495   6.338  0.0263 -0.1877 -0.0391
24864SOL    HW177547   6.423   7.439   6.286  2.2179 -0.0913  2.0872
24864SOL    HW277548   6.327   7.437   6.403 -0.3058  0.1961  0.1125
24865SOL     OW77549   0.221   3.814   6.963  0.3847 -0.2329  0.3404
24865SOL    HW177550   0.158   3.789   6.896  0.2075 -0.5528  0.6276
24865SOL    HW277551   0.283   3.741   6.967  0.4103 -0.2032  0.5053
24866SOL     OW77552   1.705   4.224   6.708 -0.4986 -0.0911  0.3852
24866SOL    HW177553   1.633   4.220   6.771 -0.4064 -1.2839  0.4356
24866SOL    HW277554   1.692   4.148   6.652  1.6596 -1.3078  1.4354
24867SOL     OW77555   6.341   6.561   6.926 -0.1772  0.0232 -0.1015
24867SOL    HW177556   6.424   6.571   6.879  1.2384 -0.2604  2.1888
24867SOL    HW277557   6.365   6.561   7.018 -2.6808 -0.7538  0.6393
24868SOL     OW77558   4.916   4.585   7.679 -0.2106 -0.4605  0.0670
24868SOL    HW177559   4.930   4.667   7.633  1.3783 -0.9828 -0.4287
24868SOL    HW277560   4.857   4.608   7.751  0.7224  1.2400  0.3372
24869SOL     OW77561   2.433   1.872   0.465  0.9747  0.3779  0.1589
24869SOL    HW177562   2.506   1.817   0.493 -0.1790 -0.1725  2.3050
24869SOL    HW277563   2.355   1.829   0.501 -0.2242  1.9991 -0.3707
24870SOL     OW77564   8.706   9.886  10.538  0.1773 -0.5305  0.6162
24870SOL    HW177565   8.691   9.914  10.628  0.5927  0.4470  0.4041
24870SOL    HW277566   8.623   9.847  10.511 -0.4130  0.4058  0.9945
24871SOL     OW77567   5.970   9.654   3.452 -0.0357 -0.5027 -0.3708
24871SOL    HW177568   5.910   9.715   3.410  0.5821 -0.8630 -1.8693
24871SOL    HW277569   5.924   9.570   3.451 -0.3655 -0.3452  0.5050
24872SOL     OW77570   0.480   1.732   6.216 -0.1788  0.2173 -0.2385
24872SOL    HW177571   0.411   1.727   6.282 -0.5196  1.5924 -0.4656
24872SOL    HW277572   0.496   1.641   6.190  0.1674 -0.4038  1.9420
24873SOL     OW77573   7.984   2.598   6.666  0.7361 -0.2990  0.3920
24873SOL    HW177574   7.898   2.634   6.645  0.8442 -0.7832 -0.9753
24873SOL    HW277575   8.017   2.654   6.736 -0.7543 -0.2090  1.0544
24874SOL     OW77576   2.541   2.447   5.860 -0.4043 -0.2481  0.1511
24874SOL    HW177577   2.614   2.390   5.884  0.7600  0.3838 -1.7310
24874SOL    HW277578   2.570   2.535   5.882 -1.3158 -0.1321  0.9863
24875SOL     OW77579   3.505   6.499   4.404 -0.5405 -0.1932 -0.5702
24875SOL    HW177580   3.522   6.492   4.498 -0.8384  0.1447 -0.4879
24875SOL    HW277581   3.590   6.485   4.363 -0.1747  0.8232 -0.1980
24876SOL     OW77582   2.966   9.651   7.684  0.2337 -0.1232  0.2222
24876SOL    HW177583   3.029   9.590   7.646 -0.1884 -0.4841  0.0935
24876SOL    HW277584   2.996   9.737   7.655 -1.1744 -0.4846 -2.6604
24877SOL     OW77585  10.214   4.079   1.274 -0.2355 -0.5630 -0.1407
24877SOL    HW177586  10.198   4.146   1.340 -2.5668 -1.6846  0.5199
24877SOL    HW277587  10.305   4.093   1.247 -0.8078  3.2581 -0.5574
24878SOL     OW77588   9.734   9.118   4.355  0.4484  0.6721  0.5009
24878SOL    HW177589   9.796   9.141   4.286 -0.3996  0.8085 -0.2473
24878SOL    HW277590   9.759   9.173   4.429  1.5834  0.2808  0.4299
24879SOL     OW77591   9.658   6.940   3.474  0.4821  0.4232  0.8270
24879SOL    HW177592   9.736   6.990   3.499  0.7528  0.3662  0.1234
24879SOL    HW277593   9.618   6.992   3.404 -1.5020  1.7334  2.7883
24880SOL     OW77594   9.241   7.726   5.908  0.4603 -0.2328  0.0785
24880SOL    HW177595   9.239   7.644   5.957  1.7195  0.2318  0.9340
24880SOL    HW277596   9.278   7.790   5.968 -4.4779  2.1769  1.1152
24881SOL     OW77597   7.351   3.293   1.311 -0.5671  0.0253  0.1967
24881SOL    HW177598   7.420   3.255   1.256 -1.3852 -0.9689 -0.1640
24881SOL    HW277599   7.274   3.239   1.294 -0.7590 -0.5632  2.6102
24882SOL     OW77600   3.330   1.454   2.294 -0.3951  0.0631 -0.0444
24882SOL    HW177601   3.241   1.423   2.311  0.0699 -1.4543 -0.2117
24882SOL    HW277602   3.357   1.495   2.376 -0.6487 -1.0172  0.6004
24883SOL     OW77603   9.753   8.702   1.325 -0.0693  0.2175  0.3082
24883SOL    HW177604   9.674   8.680   1.374 -0.3495 -1.3730 -0.7670
24883SOL    HW277605   9.825   8.679   1.385 -0.4019 -1.8003 -0.0066
24884SOL     OW77606   8.409   3.208   2.680 -0.0235  0.1680  0.6866
24884SOL    HW177607   8.384   3.215   2.772 -2.4538 -0.0105  0.1306
24884SOL    HW277608   8.359   3.278   2.636  1.1469  0.3040 -0.4924
24885SOL     OW77609   4.677   1.099   0.272 -0.4130 -0.1550 -0.8232
24885SOL    HW177610   4.680   1.149   0.354  0.4769 -0.3470 -0.7262
24885SOL    HW277611   4.623   1.023   0.292 -3.4664  1.6677 -1.5188
24886SOL     OW77612   7.763   2.445   2.512 -0.3845 -0.4220 -0.0706
24886SOL    HW177613   7.674   2.479   2.502 -0.1460  0.3953  0.4932
24886SOL    HW277614   7.757   2.383   2.585 -0.3016  0.3929  0.6463
24887SOL     OW77615  10.431   9.087   7.471  0.1200 -0.3175  0.1459
24887SOL    HW177616  10.510   9.049   7.508 -0.5684 -0.9311  1.0344
24887SOL    HW277617  10.389   9.015   7.423 -0.5803 -0.3756  0.8255
24888SOL     OW77618   0.827   7.133   8.877 -0.2664  0.5993 -0.1339
24888SOL    HW177619   0.793   7.061   8.930  0.0502  0.3921 -0.2072
24888SOL    HW277620   0.836   7.096   8.789 -1.3564  1.1152 -0.4801
24889SOL     OW77621   3.563   5.905   3.360 -0.3529  1.1342 -0.5026
24889SOL    HW177622   3.597   5.855   3.286 -2.0330  2.0038 -1.9380
24889SOL    HW277623   3.509   5.842   3.408 -0.6673  0.9852 -1.0343
24890SOL     OW77624   3.363   4.285   8.610  0.0878  0.5450 -0.3622
24890SOL    HW177625   3.294   4.334   8.565 -1.0764  3.4904  4.0507
24890SOL    HW277626   3.367   4.322   8.698  3.6602 -3.1844  1.4281
24891SOL     OW77627   2.517   8.083   2.264  0.1247 -0.3434 -0.4761
24891SOL    HW177628   2.456   8.154   2.283  0.5533 -0.3082  0.8803
24891SOL    HW277629   2.600   8.127   2.246  0.0232 -0.4417 -1.2214
24892SOL     OW77630   4.178   5.735   6.422  0.2829  0.9237  0.2032
24892SOL    HW177631   4.250   5.676   6.398 -0.2739 -0.0095  0.8058
24892SOL    HW277632   4.138   5.758   6.338  1.2373  1.4293 -0.1434
24893SOL     OW77633   2.643   4.486   3.184 -0.3619 -0.2801 -0.0514
24893SOL    HW177634   2.582   4.559   3.198  1.5594  1.4896 -0.3533
24893SOL    HW277635   2.660   4.453   3.272 -1.8774 -0.9585  0.0214
24894SOL     OW77636   4.525   4.836   7.784  0.0941  0.1918  0.0417
24894SOL    HW177637   4.461   4.806   7.720  0.2468  1.5897 -0.8220
24894SOL    HW277638   4.550   4.923   7.754  2.2394 -0.2030  0.4707
24895SOL     OW77639   6.328   2.106   1.291  0.1443 -0.1624 -0.1376
24895SOL    HW177640   6.266   2.158   1.342  0.4723  0.4015 -0.3140
24895SOL    HW277641   6.311   2.016   1.318  0.1595  0.1065  0.8018
24896SOL     OW77642   5.641   5.271   4.947 -0.7118  0.1952 -0.7353
24896SOL    HW177643   5.611   5.220   4.872 -1.0243  0.9163 -1.1137
24896SOL    HW277644   5.664   5.356   4.911  0.9926 -0.0383 -0.3178
24897SOL     OW77645   1.887   3.580  10.024 -0.4662  0.3782 -0.5442
24897SOL    HW177646   1.906   3.492   9.992  0.9909  1.1365 -1.9001
24897SOL    HW277647   1.960   3.601  10.081 -2.3875 -0.4473  2.4729
24898SOL     OW77648   9.800   4.980   0.856 -0.6484 -0.3972 -0.5275
24898SOL    HW177649   9.866   4.917   0.826  0.1430  0.9588 -1.7885
24898SOL    HW277650   9.786   5.037   0.780  1.0034  2.8865  1.4257
24899SOL     OW77651   5.514   3.985   7.639  0.1116 -0.1583 -0.4996
24899SOL    HW177652   5.434   4.031   7.664 -0.3649 -1.1432 -0.1384
24899SOL    HW277653   5.563   4.048   7.586  0.7385  1.6998  2.1144
24900SOL     OW77654   3.686   2.755   5.502 -0.1806  0.3465  0.1537
24900SOL    HW177655   3.634   2.825   5.542  0.6461  1.2077 -0.2480
24900SOL    HW277656   3.694   2.780   5.410 -0.1231 -0.4323 -0.0591
24901SOL     OW77657  10.689   5.379   3.146  0.2844  1.0007 -0.3564
24901SOL    HW177658  10.645   5.326   3.212 -1.7799  0.9300 -1.7002
24901SOL    HW277659  10.704   5.320   3.073  0.0690  1.7089 -0.9901
24902SOL     OW77660   5.982   9.956   7.950  0.0727 -0.4304  0.0628
24902SOL    HW177661   5.945   9.961   7.862  0.1119  0.7383  0.0995
24902SOL    HW277662   5.922  10.006   8.005  0.8195  0.1060  0.4199
24903SOL     OW77663   8.332   3.476   8.427 -0.4331  0.1448  0.1373
24903SOL    HW177664   8.302   3.567   8.428 -1.8317 -0.2858  1.3053
24903SOL    HW277665   8.257   3.427   8.393  0.5158 -0.5384 -1.0508
24904SOL     OW77666   6.651   4.969   9.278  0.0475 -0.1167  0.0206
24904SOL    HW177667   6.598   4.908   9.330 -0.9616  2.0501  1.6864
24904SOL    HW277668   6.739   4.961   9.316 -0.3081  0.2032  0.9416
24905SOL     OW77669   5.561   2.248   0.836 -0.4931  0.4171  0.2610
24905SOL    HW177670   5.615   2.242   0.757 -0.7987 -1.1285  0.1325
24905SOL    HW277671   5.507   2.326   0.823  1.2839  1.6878  0.1444
24906SOL     OW77672   7.604   7.893   4.483  0.2884 -0.1253  0.0856
24906SOL    HW177673   7.558   7.905   4.399  1.6301 -1.3451 -0.8764
24906SOL    HW277674   7.645   7.807   4.475 -0.3418 -0.6905  2.4234
24907SOL     OW77675  10.029   9.214   1.046  0.3017 -0.2502  0.2900
24907SOL    HW177676  10.009   9.155   1.119 -0.2023 -1.8211 -1.0601
24907SOL    HW277677  10.100   9.170   0.999  1.2946  1.2156  0.3233
24908SOL     OW77678   2.885   3.075   7.706 -0.4651 -0.6614 -0.4110
24908SOL    HW177679   2.872   3.148   7.766 -2.6475 -1.7488  0.5762
24908SOL    HW277680   2.908   3.116   7.622  0.4725  0.9994  0.6097
24909SOL     OW77681   7.038   9.643   5.323 -0.4584  0.1455  0.1869
24909SOL    HW177682   7.069   9.708   5.259 -0.4834 -0.4948 -0.4854
24909SOL    HW277683   6.956   9.680   5.356 -0.2238  0.6913  0.1877
24910SOL     OW77684   5.712   1.099   8.359 -0.4114  0.5635 -0.4119
24910SOL    HW177685   5.677   1.178   8.317 -1.0042 -0.4810 -1.9820
24910SOL    HW277686   5.656   1.028   8.326  0.2752 -0.5553  0.7466
24911SOL     OW77687   1.027  10.362  10.142 -0.1437 -0.9603 -0.2809
24911SOL    HW177688   1.060  10.386  10.055 -2.0040  0.2493 -0.7132
24911SOL    HW277689   0.932  10.361  10.132 -0.4350 -0.1676  1.8885
24912SOL     OW77690   5.522   6.460   6.512 -0.5403 -0.3608  0.1017
24912SOL    HW177691   5.599   6.515   6.499  1.7027 -2.9260  1.7166
24912SOL    HW277692   5.481   6.494   6.592  2.2672 -2.3388  2.5805
24913SOL     OW77693   4.602   8.731   9.014  0.2325 -0.8478  0.2299
24913SOL    HW177694   4.548   8.709   9.089 -0.1304  0.8581  0.5144
24913SOL    HW277695   4.553   8.698   8.938 -0.0372 -1.4192  0.6474
24914SOL     OW77696   2.179   7.596   1.878 -0.0351 -0.1405  0.5894
24914SOL    HW177697   2.145   7.653   1.947 -0.7814 -0.8186  0.8017
24914SOL    HW277698   2.256   7.555   1.917  0.8314  1.1039  0.2472
24915SOL     OW77699   1.668   9.973   2.521 -0.5239  0.5790 -0.1714
24915SOL    HW177700   1.589   9.920   2.528 -0.3417  0.1690 -1.0502
24915SOL    HW277701   1.643  10.059   2.555 -0.8938  0.0124  1.0323
24916SOL     OW77702   9.997   3.682   8.412 -0.1422  0.6149 -0.2854
24916SOL    HW177703   9.953   3.763   8.386 -1.5154 -0.4022 -1.2171
24916SOL    HW277704   9.929   3.631   8.455  0.4611 -0.4557 -0.5791
24917SOL     OW77705   2.406   9.152   6.107 -0.3337 -0.0310  0.3267
24917SOL    HW177706   2.400   9.069   6.060  1.2884 -1.0835  1.8646
24917SOL    HW277707   2.343   9.209   6.062 -1.0822 -1.8834 -1.1334
24918SOL     OW77708   8.484   6.385   1.412 -0.0762  0.1409  0.1178
24918SOL    HW177709   8.397   6.383   1.371 -1.0066 -0.8178  2.0175
24918SOL    HW277710   8.467   6.410   1.503  1.6564 -0.1003  0.5441
24919SOL     OW77711   1.742   1.172  10.081 -0.1189  0.4653  0.1155
24919SOL    HW177712   1.825   1.179  10.035 -0.4753  0.3090 -0.5817
24919SOL    HW277713   1.678   1.156  10.011 -0.3807 -2.0907  0.8189
24920SOL     OW77714   7.294   9.155   4.194 -0.2854  0.3434 -0.4209
24920SOL    HW177715   7.248   9.166   4.278 -0.1388  0.8635 -0.4011
24920SOL    HW277716   7.344   9.075   4.204 -1.2378 -0.2752 -0.4666
24921SOL     OW77717   6.675   9.144  10.536 -0.2405  0.3322 -0.1518
24921SOL    HW177718   6.710   9.058  10.514 -1.9416  0.0871 -2.3203
24921SOL    HW277719   6.695   9.156  10.629  1.2637 -1.7719 -0.1480
24922SOL     OW77720   1.784   4.934   4.567  0.0595 -0.3968  0.3415
24922SOL    HW177721   1.726   4.959   4.639 -0.1601  0.9254 -0.2660
24922SOL    HW277722   1.866   4.911   4.610  0.1722  1.0746  1.0078
24923SOL     OW77723  10.224   5.597   7.770  0.8127 -0.2491  0.0566
24923SOL    HW177724  10.214   5.691   7.758  1.1924 -0.3084 -0.7565
24923SOL    HW277725  10.301   5.574   7.719 -0.0287 -1.2124 -0.8340
24924SOL     OW77726   1.584   4.572   1.897 -0.1270  0.4672  0.2814
24924SOL    HW177727   1.533   4.654   1.893 -2.6965 -0.9011  1.7961
24924SOL    HW277728   1.563   4.536   1.983 -0.1675 -2.4352 -0.8465
24925SOL     OW77729   8.966  10.092   5.387  0.0569 -0.3958  0.2468
24925SOL    HW177730   9.027  10.053   5.450  0.9481  0.4531 -0.0694
24925SOL    HW277731   8.888  10.111   5.439  0.9633  0.7624  1.2429
24926SOL     OW77732   2.155   2.339   9.023 -0.2936  0.1829 -0.3677
24926SOL    HW177733   2.197   2.424   9.016  2.0316 -0.9040 -0.5732
24926SOL    HW277734   2.128   2.333   9.115  0.0736  0.8922 -0.2079
24927SOL     OW77735   1.437   7.750   5.957 -0.0723  0.2265 -0.0850
24927SOL    HW177736   1.422   7.843   5.942  0.5196 -0.1300 -3.8577
24927SOL    HW277737   1.513   7.729   5.903  0.2518 -2.3379  1.2028
24928SOL     OW77738   7.452   4.613   9.169 -0.3414  0.0612  0.1960
24928SOL    HW177739   7.391   4.684   9.187  0.2866  0.5010  0.6549
24928SOL    HW277740   7.528   4.656   9.128 -0.0988 -0.3930  0.1570
24929SOL     OW77741   3.769   3.990  10.626 -0.1453  0.6403  0.5449
24929SOL    HW177742   3.749   4.039  10.706  0.7930 -0.9362  1.8211
24929SOL    HW277743   3.859   4.015  10.605 -0.4574  1.2024 -0.1651
24930SOL     OW77744   9.517   8.470   8.110 -0.5236  0.4113  0.7488
24930SOL    HW177745   9.512   8.547   8.054 -0.3450  1.4450  2.0803
24930SOL    HW277746   9.609   8.442   8.104  0.0983  1.9175  2.2236
24931SOL     OW77747   0.577   7.865   5.433  0.1713 -0.4257  0.1700
24931SOL    HW177748   0.609   7.850   5.344 -1.4883 -2.3226 -0.1922
24931SOL    HW277749   0.490   7.901   5.422  0.9122  1.8195  1.1066
24932SOL     OW77750   0.906   9.248  10.122 -0.0712 -0.5762  0.2023
24932SOL    HW177751   0.976   9.198  10.163 -1.3445 -2.7981 -0.1670
24932SOL    HW277752   0.897   9.210  10.035 -0.7331  0.6824 -0.3067
24933SOL     OW77753   9.882   8.976   0.232  0.0487  0.0036 -0.0101
24933SOL    HW177754   9.854   9.063   0.260 -2.7939 -0.9088  0.3180
24933SOL    HW277755   9.910   8.987   0.141 -0.5223  1.2263 -0.0537
24934SOL     OW77756   6.878   6.838   7.708 -0.3564  0.2206  0.1998
24934SOL    HW177757   6.856   6.911   7.766 -2.8593  1.3801 -1.9886
24934SOL    HW277758   6.914   6.880   7.629 -0.4228 -1.0283 -0.5275
24935SOL     OW77759   2.143   5.115   1.372  0.1960  0.3535  0.1861
24935SOL    HW177760   2.160   5.077   1.458  1.1937  0.3795  0.0094
24935SOL    HW277761   2.177   5.205   1.378 -0.5656  0.6546  0.0533
24936SOL     OW77762   0.653   8.060   6.705 -1.0199  0.1116  0.0635
24936SOL    HW177763   0.604   8.141   6.689 -0.8095  0.3225  0.4738
24936SOL    HW277764   0.627   8.034   6.794  0.0366  0.5312  0.5131
24937SOL     OW77765   4.689   1.602   3.423 -0.3861 -0.2538  0.0692
24937SOL    HW177766   4.681   1.558   3.338 -0.8261  1.0673 -0.5830
24937SOL    HW277767   4.616   1.663   3.427  0.3381  0.6033  0.8538
24938SOL     OW77768   7.108   8.187   8.341 -0.0562  0.5024 -0.2900
24938SOL    HW177769   7.040   8.253   8.327 -0.5057 -0.0144 -0.6249
24938SOL    HW277770   7.188   8.227   8.306 -0.3010  0.9018 -0.4045
24939SOL     OW77771   2.370   2.668   4.279  0.1288  0.1718  0.0732
24939SOL    HW177772   2.439   2.718   4.235 -0.7974  1.0698 -0.4075
24939SOL    HW277773   2.379   2.689   4.371  0.5617  0.1905  0.0283
24940SOL     OW77774   5.160   4.814   3.191 -0.1367 -0.1082 -0.1272
24940SOL    HW177775   5.076   4.853   3.214 -1.2326 -2.0265 -0.6484
24940SOL    HW277776   5.166   4.824   3.096  0.2077 -0.0249 -0.0984
24941SOL     OW77777   7.205   0.764   6.142  0.2731 -0.2923 -0.4350
24941SOL    HW177778   7.231   0.846   6.100  2.4844 -0.3172  0.7110
24941SOL    HW277779   7.281   0.707   6.131 -0.7618 -1.7818 -0.1430
24942SOL     OW77780   6.195   5.687  10.181 -0.2176  0.7118 -0.0108
24942SOL    HW177781   6.257   5.664  10.250  0.4701 -1.0704 -1.1722
24942SOL    HW277782   6.138   5.611  10.174  0.8404  0.0668 -2.5800
24943SOL     OW77783   9.770   9.727   5.660 -0.0478  0.2163 -0.3999
24943SOL    HW177784   9.719   9.669   5.604  0.3829 -1.2848  0.6971
24943SOL    HW277785   9.742   9.815   5.636 -1.6974 -0.4939 -1.1900
24944SOL     OW77786   1.446   1.637  10.608  0.1706  0.4196 -0.5859
24944SOL    HW177787   1.517   1.573  10.620  1.0385  0.9454 -2.5778
24944SOL    HW277788   1.491   1.721  10.598 -0.7840  0.8961 -0.9893
24945SOL     OW77789   5.464   1.884   0.915 -0.4017 -0.4225 -0.6956
24945SOL    HW177790   5.470   1.941   0.992 -0.3214  0.8156 -1.5884
24945SOL    HW277791   5.444   1.943   0.843 -1.0022 -1.6295 -1.5506
24946SOL     OW77792   7.350   7.563   3.148 -0.3438 -0.4334 -0.3590
24946SOL    HW177793   7.349   7.470   3.167 -0.7761 -0.2417  0.5826
24946SOL    HW277794   7.437   7.593   3.174 -1.4402  0.1492  3.0682
24947SOL     OW77795   6.377  10.451   1.940 -0.9688  0.6539 -0.7996
24947SOL    HW177796   6.428  10.442   2.021 -0.5311  2.3663 -0.8523
24947SOL    HW277797   6.402  10.536   1.905 -1.3729  0.0658 -2.6136
24948SOL     OW77798  10.394   8.385   7.955 -0.0909  0.8385 -0.0368
24948SOL    HW177799  10.326   8.375   7.888  0.1193 -0.0775 -0.1204
24948SOL    HW277800  10.417   8.296   7.980  1.8168  1.0938 -0.7426
24949SOL     OW77801   7.139   6.830   2.307 -0.0922  0.2705  0.5926
24949SOL    HW177802   7.046   6.809   2.306 -0.2141  0.7026  1.6462
24949SOL    HW277803   7.179   6.760   2.359 -0.1263  1.1399  1.8390
24950SOL     OW77804   1.587   9.403   9.425  0.2970 -0.0744  0.5618
24950SOL    HW177805   1.675   9.418   9.460 -0.1805 -1.3012  2.3909
24950SOL    HW277806   1.603   9.362   9.339  1.4892  0.6176  0.4260
24951SOL     OW77807   1.750   1.720   2.781  0.0905 -0.6396  0.1148
24951SOL    HW177808   1.812   1.738   2.853 -0.1624  0.8273 -0.0119
24951SOL    HW277809   1.697   1.647   2.814  0.8058 -0.8336  0.8966
24952SOL     OW77810   5.916   8.778   1.338 -0.2821  0.0118 -0.2901
24952SOL    HW177811   5.939   8.772   1.245  0.3327 -0.7621 -0.0984
24952SOL    HW277812   5.930   8.689   1.372 -1.2555  0.0957  0.3727
24953SOL     OW77813   8.934   6.761   5.897  0.7966  0.3272 -0.5580
24953SOL    HW177814   8.957   6.830   5.959 -0.9200  2.0891 -1.7512
24953SOL    HW277815   8.839   6.755   5.902  0.6522  0.1902 -2.6158
24954SOL     OW77816   2.480   2.010   4.298 -0.1450 -0.0521 -0.4335
24954SOL    HW177817   2.565   1.999   4.340 -1.3642  1.4910  2.7562
24954SOL    HW277818   2.488   2.092   4.248  0.5026 -0.4537 -1.0101
24955SOL     OW77819   0.528  10.246  10.185  0.4640 -0.1085  0.3210
24955SOL    HW177820   0.493  10.288  10.263 -0.2576 -0.5701  0.2559
24955SOL    HW277821   0.465  10.267  10.116 -0.6294 -2.3257  0.5555
24956SOL     OW77822   7.372   5.985   3.108  0.1168 -0.2192  0.2938
24956SOL    HW177823   7.420   5.913   3.066  1.6476  1.3547 -0.8218
24956SOL    HW277824   7.300   6.003   3.048  0.8110  0.3467 -0.3963
24957SOL     OW77825   3.562   9.715   0.702 -0.1673  0.0842  0.7809
24957SOL    HW177826   3.655   9.707   0.679 -0.0563 -2.3415  1.6982
24957SOL    HW277827   3.559   9.784   0.767  0.7504  1.1829 -0.2832
24958SOL     OW77828   0.818   5.924   0.477 -0.1507 -0.2520 -0.2644
24958SOL    HW177829   0.810   5.842   0.526 -0.4912  0.2708  0.5858
24958SOL    HW277830   0.899   5.964   0.510 -0.5750  0.2777  0.1565
24959SOL     OW77831   1.665   3.425   3.970  0.2442  0.0321 -0.3745
24959SOL    HW177832   1.606   3.498   3.951 -0.4976 -0.9403 -1.9849
24959SOL    HW277833   1.745   3.446   3.922  0.0297 -0.2082 -0.8404
24960SOL     OW77834   1.915   4.667   9.893 -0.8066  0.0732 -0.3032
24960SOL    HW177835   2.000   4.711   9.890 -0.4188 -0.6969 -3.1383
24960SOL    HW277836   1.851   4.738   9.884 -0.4289  0.5096  0.3302
24961SOL     OW77837   1.938   2.770   4.929 -0.1811 -0.4643  0.1219
24961SOL    HW177838   1.967   2.859   4.910  0.6012 -0.8894 -0.7506
24961SOL    HW277839   1.979   2.749   5.013  0.1683 -0.2377  0.0099
24962SOL     OW77840   3.854   5.941   7.647  0.3147  0.0751  0.7220
24962SOL    HW177841   3.893   5.855   7.662 -3.4758 -1.8662  0.6539
24962SOL    HW277842   3.805   5.931   7.565  0.4637  2.6536  0.2137
24963SOL     OW77843   3.906   1.373   4.862 -0.0357 -0.1643  0.5324
24963SOL    HW177844   3.873   1.287   4.890 -1.0150  0.4202  1.2441
24963SOL    HW277845   4.001   1.361   4.855 -0.0190 -0.9847  1.8113
24964SOL     OW77846   4.417   9.902   1.315 -0.3216  0.3921  0.1047
24964SOL    HW177847   4.385   9.860   1.235  0.0298 -0.9002  0.6013
24964SOL    HW277848   4.387   9.844   1.385  0.5289  0.7664  0.7906
24965SOL     OW77849   7.565   2.409   9.592  0.3392  0.0426 -0.1738
24965SOL    HW177850   7.639   2.397   9.652 -0.8914  0.2958  1.4420
24965SOL    HW277851   7.564   2.328   9.540  0.0932 -1.2029  1.6749
24966SOL     OW77852   5.480   4.618   8.003 -0.6011  0.6509  0.3305
24966SOL    HW177853   5.395   4.574   8.008 -0.5004  0.0992 -1.8661
24966SOL    HW277854   5.527   4.588   8.081 -1.3225 -1.5265  0.0120
24967SOL     OW77855   9.514   5.310   0.795 -0.2034 -0.2289 -0.3896
24967SOL    HW177856   9.455   5.238   0.813 -0.6994 -0.4832 -2.7015
24967SOL    HW277857   9.595   5.269   0.765  0.5791  0.1534  1.1040
24968SOL     OW77858   4.623   3.461   7.864 -0.6369 -0.0327 -0.0838
24968SOL    HW177859   4.598   3.546   7.899 -1.9599 -0.3583 -0.2014
24968SOL    HW277860   4.681   3.424   7.930 -1.4937  0.2025  0.8128
24969SOL     OW77861   5.159   8.126  10.560  0.1877 -0.5822 -0.1144
24969SOL    HW177862   5.234   8.110  10.504  0.4259  0.5348 -0.1362
24969SOL    HW277863   5.195   8.169  10.637 -0.3836 -0.3319  0.0207
24970SOL     OW77864   0.217   4.071   6.811 -0.7828  0.3018 -0.2226
24970SOL    HW177865   0.301   4.093   6.850 -1.3166  1.9396  0.0951
24970SOL    HW277866   0.172   4.018   6.877 -0.6674  0.8647  0.3109
24971SOL     OW77867   9.528   6.241   4.656 -0.0379  0.2729  0.6987
24971SOL    HW177868   9.457   6.203   4.707  0.8992  1.2354  2.8187
24971SOL    HW277869   9.487   6.263   4.572 -1.9825 -0.1389  1.4724
24972SOL     OW77870   3.355   2.446   0.860 -0.7653  0.6141  0.3255
24972SOL    HW177871   3.424   2.381   0.871  0.0733  1.5838  1.1122
24972SOL    HW277872   3.285   2.400   0.815  1.2256  0.1165 -2.5398
24973SOL     OW77873   4.108   9.094   0.292  0.7960  0.2014 -0.4667
24973SOL    HW177874   4.123   9.016   0.346 -2.1749 -0.9474 -1.1223
24973SOL    HW277875   4.144   9.166   0.344  2.9154 -1.4402  0.5270
24974SOL     OW77876   8.135   9.978   5.655 -0.3099 -0.3771 -0.6155
24974SOL    HW177877   8.148   9.973   5.561  1.1491  2.3476 -0.6465
24974SOL    HW277878   8.223   9.974   5.693 -0.6041  1.5914  0.3834
24975SOL     OW77879   4.461  10.385   0.423 -0.4864 -0.3360 -0.2184
24975SOL    HW177880   4.366  10.395   0.415 -0.4421 -1.0294 -1.9684
24975SOL    HW277881   4.479  10.298   0.390  0.7961 -0.1088 -0.1605
24976SOL     OW77882   7.688   7.580   4.823 -0.6186 -0.5346  0.0033
24976SOL    HW177883   7.757   7.532   4.778  0.7799  0.6439  0.7767
24976SOL    HW277884   7.607   7.538   4.795  0.3794 -1.7709 -1.1879
24977SOL     OW77885   3.216   8.248   3.593  0.0238 -0.2393 -0.0122
24977SOL    HW177886   3.264   8.330   3.591  0.4176 -0.4721 -1.1761
24977SOL    HW277887   3.227   8.215   3.682 -0.0458  0.8968  0.4337
24978SOL     OW77888   5.349   7.410   6.072 -0.4096  0.0116  0.0712
24978SOL    HW177889   5.387   7.426   6.158 -2.0042  0.2977  0.7571
24978SOL    HW277890   5.326   7.316   6.073  0.9449 -0.3552 -0.6419
24979SOL     OW77891   0.557  10.277   5.603  0.1254 -0.7504 -0.0243
24979SOL    HW177892   0.545  10.279   5.508 -1.0298  0.1556  0.1157
24979SOL    HW277893   0.642  10.317   5.617 -0.3678  0.5442 -0.5947
24980SOL     OW77894   2.246   5.214   8.351 -0.2205  0.2711  0.5837
24980SOL    HW177895   2.266   5.306   8.370 -0.9926  0.5826 -0.0492
24980SOL    HW277896   2.220   5.177   8.435  0.4059  0.5402  0.9032
24981SOL     OW77897   0.077   7.313   4.983  0.8163 -0.3048  0.0088
24981SOL    HW177898   0.043   7.266   4.907 -0.5564  2.2190 -1.0836
24981SOL    HW277899   0.051   7.260   5.059  0.6852 -2.0026 -1.1858
24982SOL     OW77900   9.982   0.043   1.224 -0.1680  0.2715 -0.1127
24982SOL    HW177901  10.075   0.041   1.247  0.1412 -1.6266 -1.3584
24982SOL    HW277902   9.960   0.137   1.225  1.7498  0.7737  0.1580
24983SOL     OW77903  10.253   1.139   0.280  0.0341 -0.0898 -0.8720
24983SOL    HW177904  10.312   1.185   0.220 -1.2777  0.4681 -1.7814
24983SOL    HW277905  10.172   1.191   0.278 -0.3510 -0.5957  0.6724
24984SOL     OW77906   8.592   7.474   7.895 -0.1426  0.4227  0.3100
24984SOL    HW177907   8.497   7.476   7.910 -0.3987 -1.5314 -0.6011
24984SOL    HW277908   8.600   7.464   7.800  0.7973 -2.5011  0.5812
24985SOL     OW77909  10.500   7.182   5.012  0.1188 -0.2952 -0.2606
24985SOL    HW177910  10.420   7.233   4.997  0.3233  0.4672  1.1310
24985SOL    HW277911  10.469   7.093   5.026 -0.4424 -0.1094 -0.2837
24986SOL     OW77912   2.703   4.004   5.170 -0.3558 -0.1035 -0.0002
24986SOL    HW177913   2.721   3.989   5.262  0.3824  2.6239  0.3904
24986SOL    HW277914   2.607   4.002   5.164 -0.4153 -0.1962  0.8338
24987SOL     OW77915   8.541   6.906   4.861  0.8591  0.3484 -0.0947
24987SOL    HW177916   8.546   6.969   4.933 -1.1027  0.8114 -0.3095
24987SOL    HW277917   8.570   6.954   4.784  1.2380  0.3819  0.0649
24988SOL     OW77918   0.848   4.643   9.569 -0.0899  0.0133 -0.3590
24988SOL    HW177919   0.888   4.662   9.484 -1.4892 -0.4022 -1.1451
24988SOL    HW277920   0.762   4.607   9.548  0.3631 -2.2497  1.1627
24989SOL     OW77921   5.929  10.336   1.841  0.0817 -0.1141 -0.2388
24989SOL    HW177922   5.856  10.397   1.842  1.1050  1.1717 -0.8616
24989SOL    HW277923   5.952  10.324   1.933 -1.3380 -1.1226  0.0281
24990SOL     OW77924   5.353   9.453   7.840  0.4223 -0.0900 -0.1371
24990SOL    HW177925   5.275   9.419   7.797 -0.8285  0.6630  1.4638
24990SOL    HW277926   5.391   9.514   7.776  0.5360 -1.5064 -1.4792
24991SOL     OW77927   7.458   5.526   9.477 -0.1314 -0.1352  0.4295
24991SOL    HW177928   7.431   5.584   9.406 -2.4652 -0.3482  1.0530
24991SOL    HW277929   7.540   5.564   9.509 -0.3662  1.4316 -0.7108
24992SOL     OW77930  10.382   5.435   9.286  0.1032 -0.6327  0.1072
24992SOL    HW177931  10.343   5.502   9.229 -3.3713 -1.8799  0.7672
24992SOL    HW277932  10.471   5.466   9.302 -0.5706  2.5879 -1.5032
24993SOL     OW77933   5.904   7.673   6.190  0.3789 -0.6361 -0.4735
24993SOL    HW177934   5.929   7.738   6.125  2.0517  0.5653  1.2584
24993SOL    HW277935   5.872   7.724   6.264  0.6563 -1.8242  0.5064
24994SOL     OW77936   3.657   0.190   2.475  0.4856  0.0017 -0.1842
24994SOL    HW177937   3.630   0.238   2.398 -1.0658 -0.6362 -0.0660
24994SOL    HW277938   3.638   0.098   2.454 -1.6679 -0.0317  1.5789
24995SOL     OW77939   1.209   5.490   0.963  0.0421 -0.4296 -0.3916
24995SOL    HW177940   1.196   5.412   0.908 -1.9847  0.5003 -1.3188
24995SOL    HW277941   1.155   5.558   0.922 -0.7966  0.5925  2.2097
24996SOL     OW77942   8.684   7.440   0.178  0.3029  0.0912  0.3350
24996SOL    HW177943   8.601   7.392   0.184  0.5179 -0.2401  0.7085
24996SOL    HW277944   8.749   7.373   0.155  0.6909  0.1124  1.3460
24997SOL     OW77945   7.683   1.047   4.663 -0.6451 -0.0912  0.1058
24997SOL    HW177946   7.732   1.039   4.581 -0.0858  0.9525  0.3175
24997SOL    HW277947   7.592   1.053   4.635 -0.4447  0.4794 -0.4630
24998SOL     OW77948   0.315   0.351   5.526 -0.1779  0.3450  0.2020
24998SOL    HW177949   0.389   0.392   5.482 -0.8021  2.2697  0.8365
24998SOL    HW277950   0.278   0.291   5.461  0.1883  1.5292 -1.1509
24999SOL     OW77951  10.355   5.942   8.023 -0.9065  0.2319 -0.1537
24999SOL    HW177952  10.308   5.958   8.105 -0.0569 -0.7361  0.5427
24999SOL    HW277953  10.447   5.952   8.045 -0.7111  0.9234 -1.2295
25000SOL     OW77954   3.394   6.398   8.109 -0.0129 -0.0819 -0.5490
25000SOL    HW177955   3.381   6.409   8.203 -1.0379  1.3684 -0.8301
25000SOL    HW277956   3.429   6.309   8.100  3.1595  0.7716  1.4748
25001SOL     OW77957   6.611   6.415   6.190  0.3367 -0.3714 -0.5185
25001SOL    HW177958   6.560   6.335   6.203  2.3767 -1.4884  1.2157
25001SOL    HW277959   6.589   6.443   6.101 -2.6274 -1.1848 -0.1491
25002SOL     OW77960   3.672   6.835   9.308 -0.1655 -0.2506 -0.0209
25002SOL    HW177961   3.636   6.871   9.390  0.1731  0.2748 -0.1003
25002SOL    HW277962   3.761   6.809   9.330 -0.1427 -0.2982 -0.1683
25003SOL     OW77963   8.781   0.502   3.240  0.6715  0.2386 -0.1402
25003SOL    HW177964   8.786   0.598   3.242 -0.7981  0.3558 -0.9769
25003SOL    HW277965   8.774   0.480   3.147  1.0807 -0.6920  0.0393
25004SOL     OW77966   9.676   1.507   8.142 -0.5394 -0.3404  0.4301
25004SOL    HW177967   9.715   1.425   8.174 -0.0904  0.1301  1.0996
25004SOL    HW277968   9.730   1.576   8.180 -0.3062  0.2611 -0.9201
25005SOL     OW77969   8.133   0.060   6.348  0.1133 -0.0077 -0.0368
25005SOL    HW177970   8.089   0.141   6.374 -0.7301 -0.4036 -0.1868
25005SOL    HW277971   8.063   0.006   6.310  0.6072 -0.9009  0.2888
25006SOL     OW77972   0.654   6.337   2.568  0.2995 -0.0610 -0.4400
25006SOL    HW177973   0.577   6.350   2.623 -0.2268  3.1672 -1.7441
25006SOL    HW277974   0.631   6.265   2.510 -2.4666  1.8627 -1.9043
25007SOL     OW77975   0.467   7.602   5.281  0.4292  0.4433 -0.0297
25007SOL    HW177976   0.442   7.650   5.360  0.2712 -0.4143  0.4501
25007SOL    HW277977   0.536   7.543   5.310  1.5960  1.3270 -0.9048
25008SOL     OW77978   9.201  10.527   4.586 -0.2681 -0.0213 -0.3384
25008SOL    HW177979   9.290  10.514   4.617 -0.3351 -2.0542 -0.8788
25008SOL    HW277980   9.207  10.521   4.491 -1.1679 -1.8778 -0.3224
25009SOL     OW77981   5.692   2.216   8.468 -0.2090 -0.0020 -0.4211
25009SOL    HW177982   5.746   2.138   8.457 -1.3645 -0.9919  0.6386
25009SOL    HW277983   5.695   2.260   8.383  1.0422 -0.8036 -0.8117
25010SOL     OW77984   1.960   5.227   2.195 -0.8993 -0.3064 -0.5234
25010SOL    HW177985   2.026   5.260   2.134 -0.8085 -1.1069 -0.8678
25010SOL    HW277986   2.005   5.224   2.279 -0.1705 -1.7416 -0.9243
25011SOL     OW77987   3.713   7.912   8.207  0.0743  0.3899  0.9541
25011SOL    HW177988   3.808   7.903   8.217  0.2784  0.5795 -0.6377
25011SOL    HW277989   3.701   7.990   8.153 -0.8954 -0.4494 -0.1097
25012SOL     OW77990   3.584   2.800   1.701 -0.3960 -0.2874  0.3062
25012SOL    HW177991   3.612   2.758   1.782  1.9394 -0.2734 -0.3956
25012SOL    HW277992   3.621   2.744   1.632  0.3285  1.3350 -0.6724
25013SOL     OW77993   2.408   2.948   3.389  0.2974 -0.0416 -0.4484
25013SOL    HW177994   2.393   2.909   3.303 -1.0661 -0.2819 -0.1290
25013SOL    HW277995   2.322   2.978   3.417  1.0617  1.9309 -0.0549
25014SOL     OW77996   6.517   1.316   4.690 -0.0944  0.0203 -0.4041
25014SOL    HW177997   6.422   1.318   4.699  0.0848 -0.8839  2.6460
25014SOL    HW277998   6.546   1.248   4.750  2.5051  0.1798 -1.3455
25015SOL     OW77999   0.381   6.128   4.197 -0.3082  0.3024  0.1004
25015SOL    HW178000   0.339   6.156   4.279 -0.6234  1.2634 -0.3790
25015SOL    HW278001   0.437   6.201   4.173  0.8456 -0.5330  0.1593
25016SOL     OW78002   5.350   1.252   2.011 -0.2578 -0.0291  0.2264
25016SOL    HW178003   5.360   1.177   2.070 -1.3025 -0.0356  0.4108
25016SOL    HW278004   5.432   1.300   2.020  0.1256 -0.7397  0.6832
25017SOL     OW78005   4.975   2.371   7.591 -0.1079  0.1085 -0.1779
25017SOL    HW178006   5.058   2.413   7.568 -0.4250  0.7135 -0.2119
25017SOL    HW278007   4.978   2.286   7.545  0.8979 -0.2769  0.5715
25018SOL     OW78008   7.850   7.842  10.675 -0.6327 -0.2986  0.3471
25018SOL    HW178009   7.783   7.905  10.701  0.0788  0.1223  1.2250
25018SOL    HW278010   7.884   7.876  10.592  0.3266  0.9808  1.2190
25019SOL     OW78011   4.394   9.494   5.811  0.1539  0.0835 -0.6734
25019SOL    HW178012   4.375   9.581   5.775 -1.0291  0.0723 -0.1178
25019SOL    HW278013   4.381   9.435   5.736 -0.8211  0.2157 -0.6290
25020SOL     OW78014   6.940   2.884   3.942 -0.2595  0.5025  0.0563
25020SOL    HW178015   6.904   2.972   3.929 -0.0637  0.8275  1.5074
25020SOL    HW278016   6.886   2.828   3.886 -0.4806  1.5103 -0.7794
25021SOL     OW78017   2.478   6.841   2.022  0.1736 -0.1049  0.2448
25021SOL    HW178018   2.473   6.885   2.107 -0.3267 -2.4088  1.4820
25021SOL    HW278019   2.569   6.850   1.995  0.5255 -0.0207  1.4100
25022SOL     OW78020   8.520   1.862   4.789 -0.1908 -0.4460  0.8084
25022SOL    HW178021   8.478   1.779   4.767 -2.5669  0.9290 -0.1813
25022SOL    HW278022   8.515   1.914   4.708  0.7318  0.8857  1.5607
25023SOL     OW78023   7.333   7.008   3.323  0.2781 -0.1000  0.0137
25023SOL    HW178024   7.338   6.975   3.234  1.1806  0.8586 -0.3047
25023SOL    HW278025   7.418   7.047   3.340 -0.0397  0.1686  1.1299
25024SOL     OW78026   7.687   1.652  10.182 -0.5192  0.0712  0.3027
25024SOL    HW178027   7.632   1.579  10.152  1.1045 -2.1067  2.2147
25024SOL    HW278028   7.646   1.682  10.263 -0.3439  0.1721  0.3560
25025SOL     OW78029  10.614   3.142   5.684  0.0071  0.0401 -0.2809
25025SOL    HW178030  10.658   3.125   5.601  0.8274 -0.2083  0.1894
25025SOL    HW278031  10.525   3.165   5.660  0.0151 -0.8130 -1.1803
25026SOL     OW78032   5.045   7.384   5.821 -0.5193 -0.3545  0.4940
25026SOL    HW178033   5.041   7.330   5.901 -1.2529  0.2970  0.9094
25026SOL    HW278034   5.097   7.460   5.846  0.6928 -0.9363 -0.1527
25027SOL     OW78035   5.352  10.092   4.005 -0.1059 -0.5025 -0.3221
25027SOL    HW178036   5.331  10.003   3.975 -0.8944 -0.7613  0.8965
25027SOL    HW278037   5.269  10.140   3.997  0.2070  0.0088 -0.5652
25028SOL     OW78038   3.677   1.984   9.882  0.0920 -0.0347  0.6123
25028SOL    HW178039   3.603   1.968   9.823 -0.6754  0.0237  1.5220
25028SOL    HW278040   3.754   1.978   9.827 -0.6493  0.9056 -0.5778
25029SOL     OW78041   5.502   6.367   8.411  0.0323  0.6069 -0.3420
25029SOL    HW178042   5.473   6.416   8.333  0.0233  0.1922 -0.6046
25029SOL    HW278043   5.420   6.341   8.454 -0.1403 -2.0778 -2.0204
25030SOL     OW78044   3.193   5.806   1.848  0.2905  0.0642 -0.0038
25030SOL    HW178045   3.099   5.795   1.836  0.6276 -0.6218 -2.7276
25030SOL    HW278046   3.210   5.897   1.825  0.4775 -0.2942 -1.3844
25031SOL     OW78047   0.970   8.722   3.567 -0.0951 -0.1898  0.5768
25031SOL    HW178048   0.963   8.791   3.501  0.5928 -0.5067  0.1647
25031SOL    HW278049   1.064   8.714   3.584 -0.0479 -1.8770 -0.3112
25032SOL     OW78050   2.066   9.401   0.671  0.0901 -0.5630 -0.2053
25032SOL    HW178051   2.018   9.446   0.602 -0.0944 -0.0233  0.2700
25032SOL    HW278052   2.043   9.448   0.752 -0.5427 -1.8348  0.3882
25033SOL     OW78053   7.255   3.125   1.721 -0.1431  0.0605  0.0281
25033SOL    HW178054   7.344   3.151   1.695 -0.1610 -0.9588 -1.1010
25033SOL    HW278055   7.229   3.192   1.785  1.5162  0.2465  0.5656
25034SOL     OW78056   5.206   3.418   2.603 -0.4822 -0.4435 -0.2176
25034SOL    HW178057   5.178   3.496   2.555  0.2037  0.0126  0.1081
25034SOL    HW278058   5.144   3.351   2.577 -0.4423 -0.0691 -1.3311
25035SOL     OW78059   6.213   4.367   2.070 -0.1098  0.0099 -0.1526
25035SOL    HW178060   6.165   4.287   2.092  0.8526 -0.1632  1.4032
25035SOL    HW278061   6.244   4.401   2.154  0.0237  1.7047 -0.8441
25036SOL     OW78062   3.156   4.731   7.540 -0.5042  0.2892  0.6858
25036SOL    HW178063   3.082   4.785   7.568 -1.4839 -0.6613  0.0082
25036SOL    HW278064   3.186   4.773   7.459 -0.9846  0.0680  0.3929
25037SOL     OW78065   4.500   8.240   2.327  0.5722 -0.4349 -0.0136
25037SOL    HW178066   4.449   8.171   2.285 -0.4638 -0.4416  1.1890
25037SOL    HW278067   4.527   8.297   2.255  2.2571 -2.5331 -1.1614
25038SOL     OW78068   5.559   2.191   9.152  0.2562  0.0519  0.2876
25038SOL    HW178069   5.514   2.151   9.227  0.7525  0.3850  0.7774
25038SOL    HW278070   5.644   2.219   9.187  1.1960 -1.2983 -0.8179
25039SOL     OW78071   1.046   0.171   8.933  0.1042  0.2989 -0.8421
25039SOL    HW178072   1.006   0.092   8.895  0.5245  0.1114 -0.8970
25039SOL    HW278073   1.034   0.238   8.866  0.2355  0.1411 -1.0248
25040SOL     OW78074   6.448   1.702   3.620 -0.3567  0.1347 -0.0775
25040SOL    HW178075   6.410   1.646   3.687 -1.4672 -0.0296 -0.8217
25040SOL    HW278076   6.385   1.773   3.608  0.3233  0.7342 -0.2122
25041SOL     OW78077   3.634   7.545   4.401 -0.1380 -0.3028 -0.1851
25041SOL    HW178078   3.683   7.606   4.346  2.1985 -1.3847  0.5758
25041SOL    HW278079   3.697   7.517   4.467 -2.6025  0.3176  2.6011
25042SOL     OW78080   2.802   0.286   6.738  0.5487 -0.4965 -0.2030
25042SOL    HW178081   2.882   0.315   6.694  0.5552  1.4441  0.9539
25042SOL    HW278082   2.825   0.285   6.831 -0.7095 -0.0765  0.1345
25043SOL     OW78083   1.082   8.865  10.276 -0.0833 -0.4850  0.4429
25043SOL    HW178084   1.163   8.838  10.233  0.0938  0.9059 -0.1607
25043SOL    HW278085   1.081   8.816  10.358  1.1051 -0.9090  0.2313
25044SOL     OW78086   1.428   7.837   9.474  0.3295  0.2249  0.1321
25044SOL    HW178087   1.466   7.817   9.389  0.2630 -1.4035  0.4552
25044SOL    HW278088   1.493   7.892   9.517  0.5556  0.6947 -0.7848
25045SOL     OW78089   7.192   2.061   5.253 -0.5388  0.0683  0.1683
25045SOL    HW178090   7.240   1.984   5.284 -1.9082 -0.1144  2.0023
25045SOL    HW278091   7.237   2.135   5.294 -0.1633  0.1214 -0.3379
25046SOL     OW78092   9.162   7.653   2.961 -0.6780  0.0032  0.3893
25046SOL    HW178093   9.075   7.693   2.965 -0.3592  0.7680 -0.1765
25046SOL    HW278094   9.223   7.726   2.969 -0.0521 -0.6689  2.3070
25047SOL     OW78095   3.912   4.875   8.767  0.2494 -0.1074 -0.6146
25047SOL    HW178096   3.931   4.850   8.677  0.8718 -0.1875 -0.4638
25047SOL    HW278097   3.994   4.860   8.814 -0.0711 -0.0649 -0.0358
25048SOL     OW78098   3.953   2.044   1.802  0.0259  0.3085  0.5744
25048SOL    HW178099   4.026   2.105   1.790 -0.3406  0.7927  0.7492
25048SOL    HW278100   3.977   1.967   1.750  1.8360 -0.5976  2.6131
25049SOL     OW78101  10.062   5.019   8.015  0.0535  0.3660 -0.1574
25049SOL    HW178102  10.013   5.093   7.980 -0.2833  1.7314  2.8711
25049SOL    HW278103  10.139   5.012   7.959 -1.3091  1.1291 -2.2307
25050SOL     OW78104   1.321   9.000   1.874 -0.2657 -0.3817  0.0562
25050SOL    HW178105   1.334   9.095   1.883 -0.1711 -0.3219 -0.6446
25050SOL    HW278106   1.375   8.976   1.798 -0.6412 -0.9234 -0.0404
25051SOL     OW78107   1.475   2.516   9.572 -0.3653 -0.3235 -0.6152
25051SOL    HW178108   1.405   2.475   9.623 -0.0825 -3.1463 -2.2828
25051SOL    HW278109   1.430   2.578   9.515 -1.1269 -0.0032  0.3091
25052SOL     OW78110   8.172   2.496   2.443 -0.4883 -0.2154 -0.3567
25052SOL    HW178111   8.099   2.538   2.398 -1.7440  0.1074  1.8715
25052SOL    HW278112   8.148   2.403   2.446 -1.7955  0.1304  1.9905
25053SOL     OW78113   3.746   7.794   0.979 -0.0624 -0.0602 -0.4039
25053SOL    HW178114   3.823   7.773   1.032  0.0149  3.1217  0.9209
25053SOL    HW278115   3.672   7.762   1.031  0.1968 -0.4509 -0.2695
25054SOL     OW78116   4.827   0.241   7.778 -0.4847 -0.3573 -0.6135
25054SOL    HW178117   4.844   0.246   7.872  0.9458  0.5949 -0.8977
25054SOL    HW278118   4.754   0.180   7.770  0.3008 -1.5872  1.0118
25055SOL     OW78119   2.446   9.468   4.437  0.1336  0.0793  0.0757
25055SOL    HW178120   2.426   9.479   4.530 -1.4267 -1.9625  0.0394
25055SOL    HW278121   2.449   9.558   4.403 -1.1672  0.7964  1.7151
25056SOL     OW78122   6.117   4.237   6.716 -0.0434 -0.4659  0.3802
25056SOL    HW178123   6.062   4.193   6.652  1.2594 -0.7733 -0.5533
25056SOL    HW278124   6.139   4.321   6.676  1.4754 -1.0045  0.0124
25057SOL     OW78125   8.202   4.140   8.495 -0.1230  0.1398 -0.1083
25057SOL    HW178126   8.279   4.111   8.446  0.1828 -0.1569  0.5417
25057SOL    HW278127   8.166   4.060   8.532 -3.1178 -0.4250 -3.6305
25058SOL     OW78128   4.641   6.776   8.315  0.2883 -0.0514  0.1621
25058SOL    HW178129   4.729   6.761   8.349  0.2171  1.3684  1.0693
25058SOL    HW278130   4.599   6.690   8.316  1.8908 -0.9050 -1.0376
25059SOL     OW78131   1.456   5.486   4.968  0.7621  0.1794 -0.2755
25059SOL    HW178132   1.524   5.426   4.938  1.6240  0.9713  0.0371
25059SOL    HW278133   1.375   5.448   4.935  1.3361 -0.8405 -0.5779
25060SOL     OW78134   2.685   4.626   7.713 -0.1615  0.3688  0.3933
25060SOL    HW178135   2.771   4.659   7.738 -0.2387  0.0395  1.1116
25060SOL    HW278136   2.675   4.544   7.762 -0.6099  0.0612 -0.1928
25061SOL     OW78137   2.662   5.069   5.921 -0.2268 -0.2458  0.1573
25061SOL    HW178138   2.658   5.005   5.993 -0.0543  1.0115  1.3234
25061SOL    HW278139   2.725   5.032   5.859  1.3500 -0.3221  1.7390
25062SOL     OW78140   3.216   6.681   6.778  0.3186 -0.2963 -0.5866
25062SOL    HW178141   3.229   6.595   6.817  1.5229 -0.2180 -0.7886
25062SOL    HW278142   3.301   6.723   6.783 -0.0048  0.4964 -1.4214
25063SOL     OW78143   8.794   3.285   4.979 -0.5834  0.1805  0.1123
25063SOL    HW178144   8.790   3.358   5.041  1.0080 -0.2395  0.7426
25063SOL    HW278145   8.886   3.278   4.956 -1.2080  0.8986 -3.0536
25064SOL     OW78146   2.667   5.404   7.452  0.2636 -0.1777  0.3756
25064SOL    HW178147   2.692   5.321   7.410 -1.1245 -0.1268 -0.6278
25064SOL    HW278148   2.586   5.430   7.408 -0.7432  0.4119  2.4402
25065SOL     OW78149   5.744   0.045   3.602  0.3389 -0.1373  0.1321
25065SOL    HW178150   5.722   0.125   3.651  1.6689 -0.6309  1.6260
25065SOL    HW278151   5.704  -0.026   3.653 -2.2823 -0.4009 -2.0757
25066SOL     OW78152   4.304   2.762   0.228  0.1995  0.2575  0.2702
25066SOL    HW178153   4.338   2.674   0.212  1.2764  0.5563  0.7879
25066SOL    HW278154   4.325   2.780   0.320  0.0170  1.0546  0.1677
25067SOL     OW78155   2.743   4.272   6.041 -0.1182  0.1661  0.1262
25067SOL    HW178156   2.653   4.295   6.064  0.2319 -0.6155  2.6173
25067SOL    HW278157   2.743   4.177   6.038  0.3070  0.1974 -1.4484
25068SOL     OW78158   8.328   2.642   1.703  0.1767  0.2215 -0.4191
25068SOL    HW178159   8.370   2.679   1.625  0.9638 -1.3199 -0.7713
25068SOL    HW278160   8.353   2.702   1.774  1.5278  0.2928 -0.9304
25069SOL     OW78161   5.019   5.985   5.585  0.1326  0.0574  0.3038
25069SOL    HW178162   4.987   6.072   5.608  0.0101 -0.4668  2.3112
25069SOL    HW278163   5.112   5.987   5.607 -0.1899 -0.7626  1.9203
25070SOL     OW78164   8.783   6.021   0.796 -0.5007  0.1001 -0.1629
25070SOL    HW178165   8.739   6.090   0.845 -2.7325 -0.4844 -1.2299
25070SOL    HW278166   8.862   6.062   0.761  0.1371  1.0455  2.2533
25071SOL     OW78167   0.189   6.837   5.060  0.5264 -1.0990 -0.4471
25071SOL    HW178168   0.110   6.785   5.044  0.1339 -1.1069  1.3893
25071SOL    HW278169   0.192   6.898   4.986 -1.3812 -0.8841 -0.4044
25072SOL     OW78170  10.126   2.977   8.412 -0.8079  0.0968  0.0027
25072SOL    HW178171  10.070   3.033   8.358  0.2092  1.8118  0.6308
25072SOL    HW278172  10.159   2.911   8.352 -1.1244  0.8758 -1.0626
25073SOL     OW78173   2.776   5.026   6.769 -0.2983  0.4444  0.3135
25073SOL    HW178174   2.866   5.053   6.749 -0.6022  0.0981 -1.7043
25073SOL    HW278175   2.782   4.932   6.784 -0.5496  0.0477 -1.7513
25074SOL     OW78176   7.037   3.244  10.377 -0.0126 -0.3357  0.3847
25074SOL    HW178177   7.087   3.276  10.302 -1.7511  1.0729 -0.2361
25074SOL    HW278178   6.954   3.214  10.339 -0.8870  0.3113  1.7228
25075SOL     OW78179   6.009   0.966   1.712 -0.0062  0.4349  0.4344
25075SOL    HW178180   5.962   0.885   1.730  1.2729 -0.2506  0.7847
25075SOL    HW278181   6.102   0.942   1.718  0.4836  1.1964 -2.5283
25076SOL     OW78182   2.463   2.173   5.657 -0.6273  0.3340 -0.0893
25076SOL    HW178183   2.391   2.146   5.599 -0.5563 -0.7356  0.2993
25076SOL    HW278184   2.422   2.177   5.744 -0.7860  2.1337 -0.2077
25077SOL     OW78185   5.746   1.919   3.926 -0.5838  0.0562  0.7660
25077SOL    HW178186   5.684   1.858   3.967 -0.6548 -0.8224 -0.5921
25077SOL    HW278187   5.791   1.867   3.860 -0.6550  1.4743 -0.4648
25078SOL     OW78188  10.288   8.652   9.915  0.5669 -0.1633  0.0275
25078SOL    HW178189  10.196   8.675   9.903  0.3652 -0.6603  0.5668
25078SOL    HW278190  10.331   8.735   9.937  0.3097  0.1226 -0.5220
25079SOL     OW78191   7.647   1.153   7.330 -0.1818  0.5339 -1.1542
25079SOL    HW178192   7.723   1.096   7.332 -0.8926 -0.4383 -1.3111
25079SOL    HW278193   7.620   1.161   7.421 -0.9247 -0.5577 -1.2602
25080SOL     OW78194   5.801  10.422   3.110  0.1019 -0.2453  0.1263
25080SOL    HW178195   5.837  10.412   3.021 -1.3984  0.6980 -0.6293
25080SOL    HW278196   5.783  10.516   3.118  0.5525 -0.2582  1.5931
25081SOL     OW78197   3.027   4.698   7.067  0.1742 -0.1193  0.4825
25081SOL    HW178198   2.976   4.617   7.062 -1.4173  0.8870 -0.4884
25081SOL    HW278199   3.110   4.678   7.023 -0.3116 -1.1425  0.0123
25082SOL     OW78200   5.369   9.053   9.601 -0.2206 -0.4709  0.2125
25082SOL    HW178201   5.367   9.138   9.557  0.0868  0.3371  1.6818
25082SOL    HW278202   5.315   8.996   9.547 -2.1868  1.2131  0.3068
25083SOL     OW78203   9.725   0.068   0.628 -0.3095  0.1052 -0.2476
25083SOL    HW178204   9.674   0.038   0.703 -1.0101 -1.7471 -1.4078
25083SOL    HW278205   9.683   0.027   0.552  2.4551 -0.9686 -1.3350
25084SOL     OW78206   8.518   1.751   8.795 -0.7043 -0.0402 -0.1974
25084SOL    HW178207   8.595   1.719   8.748 -1.1581 -2.6772  0.7078
25084SOL    HW278208   8.444   1.725   8.741 -1.1062 -0.8955  0.7297
25085SOL     OW78209   8.126   1.501   0.191 -0.3260  0.5196 -1.0437
25085SOL    HW178210   8.178   1.535   0.264 -0.3490 -0.9379 -0.3079
25085SOL    HW278211   8.035   1.510   0.222 -0.2757 -2.9007  0.5211
25086SOL     OW78212   7.748   6.175   0.427  0.3995  0.2233 -0.0418
25086SOL    HW178213   7.825   6.230   0.418  1.0812 -0.7079  0.0097
25086SOL    HW278214   7.779   6.086   0.411 -0.8400 -0.0859 -0.9636
25087SOL     OW78215   3.134   8.004   8.394 -0.6515  0.2322  0.0651
25087SOL    HW178216   3.072   8.073   8.375  0.5340  0.8845 -1.7419
25087SOL    HW278217   3.184   8.036   8.470 -1.5583  0.3226  0.6372
25088SOL     OW78218   4.926   8.631   5.644  0.1296 -0.5017 -0.5303
25088SOL    HW178219   4.947   8.721   5.671 -1.7866 -0.1932  0.0877
25088SOL    HW278220   5.009   8.584   5.651  0.7486  0.7382  1.1817
25089SOL     OW78221   7.236   9.981   4.846 -0.0699 -0.1451  0.3609
25089SOL    HW178222   7.269   9.963   4.934 -0.9511 -3.2719  0.1627
25089SOL    HW278223   7.249   9.900   4.798 -0.5816  1.1420 -2.1204
25090SOL     OW78224   6.511   4.687   8.848  0.5219 -0.1635  0.1414
25090SOL    HW178225   6.529   4.751   8.917  1.2239 -0.3034  0.0901
25090SOL    HW278226   6.586   4.628   8.849 -0.3848 -1.3604  0.5958
25091SOL     OW78227   1.081   8.276   1.853 -0.3915  0.4603  0.2210
25091SOL    HW178228   1.163   8.262   1.900 -0.1097  1.4263  0.0204
25091SOL    HW278229   1.065   8.193   1.808  0.0314 -0.0179  0.9319
25092SOL     OW78230   1.373   0.805   4.973  0.0014  0.0884  0.3006
25092SOL    HW178231   1.453   0.855   4.961 -0.2946  0.5959  0.4249
25092SOL    HW278232   1.379   0.734   4.908  0.5176  0.1575  0.2704
25093SOL     OW78233   2.379   0.907   7.692  0.1676 -0.4565 -0.7920
25093SOL    HW178234   2.292   0.883   7.660 -0.2854  0.7279 -0.5082
25093SOL    HW278235   2.363   0.941   7.780  1.1611 -1.9285 -0.0077
25094SOL     OW78236   0.715   5.506   3.730  0.3879  0.2433  0.5260
25094SOL    HW178237   0.801   5.499   3.689 -0.4874  0.3696 -1.4855
25094SOL    HW278238   0.662   5.554   3.666 -1.2100  0.0395  1.6300
25095SOL     OW78239   5.452  10.147   1.268 -0.0151 -0.2174  0.0019
25095SOL    HW178240   5.376  10.137   1.324  0.9368  1.4502  1.7223
25095SOL    HW278241   5.442  10.234   1.229  0.1366 -0.7158 -1.1966
25096SOL     OW78242  10.272   3.193   4.843  0.1946 -0.6599 -0.2694
25096SOL    HW178243  10.211   3.169   4.774 -1.0800  2.3491 -0.3343
25096SOL    HW278244  10.217   3.215   4.918  0.9676  2.8197 -0.5420
25097SOL     OW78245   3.756  10.475   6.829  0.1417 -0.3125  0.9473
25097SOL    HW178246   3.850  10.477   6.844  0.1139 -1.6118  1.4331
25097SOL    HW278247   3.730  10.567   6.823  1.7053  0.0775 -1.0373
25098SOL     OW78248   6.838   1.912   1.321  0.5273  0.1392 -0.3576
25098SOL    HW178249   6.911   1.968   1.350  0.4435  0.4543 -0.7491
25098SOL    HW278250   6.848   1.907   1.226 -1.8064  2.8597 -0.8716
25099SOL     OW78251   4.462   6.242   2.462 -0.1494  0.3355 -0.3911
25099SOL    HW178252   4.482   6.327   2.500  1.5019 -1.3049  2.9179
25099SOL    HW278253   4.445   6.186   2.538  1.5162 -2.8820 -2.1828
25100SOL     OW78254   1.363   2.857   8.756 -0.0196  0.1448  0.0040
25100SOL    HW178255   1.374   2.782   8.699 -0.7387 -0.8986  1.1851
25100SOL    HW278256   1.439   2.854   8.815 -0.7308 -0.4814  0.9237
25101SOL     OW78257   2.499   4.595   1.361  0.0038 -0.0042  0.2335
25101SOL    HW178258   2.541   4.566   1.443  0.9792 -0.0998 -0.2810
25101SOL    HW278259   2.414   4.551   1.361  0.4372 -0.8739  0.6866
25102SOL     OW78260  10.093   5.637   2.503  0.3189  0.3345  0.1220
25102SOL    HW178261  10.178   5.597   2.521 -0.9784 -1.9884  1.5522
25102SOL    HW278262  10.059   5.661   2.589 -1.4277 -0.8986 -0.1896
25103SOL     OW78263   1.455   8.847   8.945 -0.0663  0.3959  0.2297
25103SOL    HW178264   1.493   8.801   8.870 -1.5298  0.4395 -0.5726
25103SOL    HW278265   1.417   8.777   8.998 -1.1294  0.5523 -0.3103
25104SOL     OW78266   4.148   3.923   0.676  0.9889  0.3091  0.0814
25104SOL    HW178267   4.234   3.952   0.704  1.2646 -0.9641  0.5958
25104SOL    HW278268   4.159   3.831   0.654 -0.6623 -0.4406  2.1426
25105SOL     OW78269   1.912   8.604   9.288 -0.4571 -0.4559 -0.4795
25105SOL    HW178270   1.837   8.586   9.345 -0.2780  1.1980  0.3464
25105SOL    HW278271   1.874   8.650   9.213 -0.1604  2.1574  0.8324
25106SOL     OW78272   3.727   6.674   6.978 -0.1751 -0.0797  0.1905
25106SOL    HW178273   3.706   6.755   7.025  0.0707 -0.1587  0.4411
25106SOL    HW278274   3.822   6.666   6.988 -0.5159 -2.1083  2.9626
25107SOL     OW78275   7.162   6.514  10.390  0.5373  0.5111 -0.1565
25107SOL    HW178276   7.249   6.502  10.350  0.5911  0.1177  0.0774
25107SOL    HW278277   7.104   6.459  10.337  0.7567 -0.6911  0.8243
25108SOL     OW78278   2.963   4.454   8.863 -0.1862 -0.4514  0.0269
25108SOL    HW178279   3.005   4.368   8.866 -1.6824 -1.1867  0.3866
25108SOL    HW278280   3.021   4.510   8.914  1.6712 -0.8306 -1.5521
25109SOL     OW78281   4.888   0.382   3.255  0.1559 -0.1457 -0.5058
25109SOL    HW178282   4.836   0.305   3.233 -0.1222 -0.0262 -0.2656
25109SOL    HW278283   4.895   0.430   3.173 -0.8632  0.2898 -0.3456
25110SOL     OW78284   7.941   1.967   6.492 -0.5120  0.1770  0.9624
25110SOL    HW178285   8.011   1.928   6.544 -1.8199 -1.1020  1.8497
25110SOL    HW278286   7.983   2.041   6.447  0.7117  1.3670  3.8148
25111SOL     OW78287   7.367   3.747   3.978  0.2306 -0.1902  0.2815
25111SOL    HW178288   7.353   3.836   3.947 -0.6759 -0.7953 -1.1399
25111SOL    HW278289   7.364   3.754   4.073 -0.8757  1.1294  0.1773
25112SOL     OW78290   0.677   1.565   9.413 -0.3967 -0.0130 -0.4232
25112SOL    HW178291   0.628   1.482   9.415 -2.2352  1.0183 -0.2429
25112SOL    HW278292   0.684   1.585   9.319  0.3828 -0.5292 -0.4876
25113SOL     OW78293   7.523   5.210   2.606  0.4934 -0.1584 -1.0277
25113SOL    HW178294   7.596   5.257   2.646  0.8146 -0.9186 -0.7059
25113SOL    HW278295   7.541   5.118   2.623  0.3682 -0.4777 -2.4739
25114SOL     OW78296   1.408   5.913   5.099 -0.3531 -0.2152 -0.1619
25114SOL    HW178297   1.370   5.861   5.169  0.1007 -2.4784 -1.4985
25114SOL    HW278298   1.340   5.914   5.031  0.1129 -0.0997 -0.6331
25115SOL     OW78299   2.827   5.619   7.170 -0.5063 -0.0346 -0.0545
25115SOL    HW178300   2.890   5.607   7.242 -1.9815  3.2447  2.0257
25115SOL    HW278301   2.863   5.692   7.119 -2.4525  1.8522  1.1331
25116SOL     OW78302   2.952   4.784   1.059 -0.2953  0.1427  0.1065
25116SOL    HW178303   2.884   4.745   1.113 -0.8714 -2.5896 -2.3650
25116SOL    HW278304   2.945   4.739   0.975  2.5993  1.9230 -1.2380
25117SOL     OW78305   3.197   4.972   9.358 -0.2244  0.0961 -0.0986
25117SOL    HW178306   3.289   4.968   9.331 -0.1994  0.8540 -0.1654
25117SOL    HW278307   3.167   5.058   9.328 -1.5103 -0.8709 -1.7792
25118SOL     OW78308  10.150   1.257   1.757  0.6371  0.0010  0.0700
25118SOL    HW178309  10.141   1.284   1.665 -0.9994  1.5204  0.6255
25118SOL    HW278310  10.114   1.168   1.759  2.0027 -0.6131 -0.9890
25119SOL     OW78311   1.154   1.047   8.136 -0.1433 -0.0272 -0.2863
25119SOL    HW178312   1.101   1.125   8.119 -2.4045 -1.4402 -0.1008
25119SOL    HW278313   1.231   1.057   8.080 -1.4310  1.3048 -1.8952
25120SOL     OW78314   4.495   9.070   5.221  0.3021  0.3170 -0.9284
25120SOL    HW178315   4.450   9.063   5.305  1.1059 -1.2686 -0.5857
25120SOL    HW278316   4.587   9.085   5.244  0.0465  3.6989 -1.6120
25121SOL     OW78317  10.068   4.260   2.501 -0.1393  0.6784  0.4910
25121SOL    HW178318  10.146   4.212   2.528 -1.4816 -0.4084  2.6586
25121SOL    HW278319  10.045   4.222   2.416  1.0322  0.2362  0.3499
25122SOL     OW78320  10.492   0.049   1.543 -0.2535 -0.0959  0.2093
25122SOL    HW178321  10.497   0.074   1.451  0.1811  0.4037  0.3656
25122SOL    HW278322  10.398   0.043   1.561 -0.3530  0.3942 -0.1144
25123SOL     OW78323   2.480   6.338   5.487 -0.1260  0.4306  0.4545
25123SOL    HW178324   2.425   6.273   5.528 -0.4836 -0.5154 -1.3973
25123SOL    HW278325   2.419   6.398   5.443  0.1985 -0.7656 -1.8189
25124SOL     OW78326   9.028   7.828   1.174 -0.3691 -0.6432  0.1763
25124SOL    HW178327   9.027   7.916   1.210  2.0499 -1.2797  2.1346
25124SOL    HW278328   9.083   7.834   1.095 -0.5518 -0.3254  0.0756
25125SOL     OW78329   8.913   3.812   7.810 -0.0204 -0.5633  0.0124
25125SOL    HW178330   8.924   3.718   7.826 -1.2448 -0.4735  1.6816
25125SOL    HW278331   8.949   3.853   7.889  1.1804  0.4440 -1.0198
25126SOL     OW78332   7.639   1.894   2.570  0.4298 -0.1574 -0.1373
25126SOL    HW178333   7.573   1.883   2.502  0.4354  0.1456 -0.1937
25126SOL    HW278334   7.616   1.829   2.637 -0.6042  0.7094  0.3703
25127SOL     OW78335   8.030   1.757   9.240  0.1258 -0.5557  1.0324
25127SOL    HW178336   8.047   1.814   9.315 -0.9664 -2.4440  2.8186
25127SOL    HW278337   7.938   1.772   9.219 -0.0403 -1.2898  1.2079
25128SOL     OW78338   6.990   4.999   6.745  0.0105 -0.6918  0.4201
25128SOL    HW178339   6.916   5.015   6.804  1.4537 -1.2471  2.4706
25128SOL    HW278340   6.990   5.075   6.686 -1.6176 -0.2305  0.9374
25129SOL     OW78341   0.635   5.651   0.837  0.5093  0.1657  0.0899
25129SOL    HW178342   0.554   5.660   0.787  0.2349  2.0252  0.7833
25129SOL    HW278343   0.632   5.563   0.873 -1.8590  0.6208  1.1868
25130SOL     OW78344   9.865   6.380   2.791  0.4509 -0.2238 -0.2544
25130SOL    HW178345   9.920   6.419   2.860 -0.3241  0.5238 -0.0259
25130SOL    HW278346   9.776   6.409   2.814  0.2490  0.6273 -1.9482
25131SOL     OW78347  10.410   3.661   0.432 -0.5249  0.0692 -0.2780
25131SOL    HW178348  10.353   3.738   0.433  0.6454  0.9659 -0.5427
25131SOL    HW278349  10.486   3.687   0.485  0.7576 -0.2050 -1.9118
25132SOL     OW78350   7.826   9.628   0.999  0.2046  0.3960  0.1432
25132SOL    HW178351   7.760   9.652   1.065 -0.6192  1.0354 -0.8865
25132SOL    HW278352   7.783   9.561   0.946  0.2943  0.9485 -0.6457
25133SOL     OW78353   7.447   2.853   0.902 -0.4952  0.0103 -0.2896
25133SOL    HW178354   7.426   2.940   0.937 -1.6168 -0.5669  0.5652
25133SOL    HW278355   7.390   2.794   0.951 -0.3657 -1.1210 -1.4559
25134SOL     OW78356   9.695   8.075   6.943  0.0354 -0.3139  0.1534
25134SOL    HW178357   9.622   8.058   6.884  0.8699 -0.6467 -0.8150
25134SOL    HW278358   9.753   7.999   6.932  0.6855  0.0960  0.6457
25135SOL     OW78359   0.029  10.297   1.231  0.2745  0.0262  0.0235
25135SOL    HW178360   0.074  10.361   1.286  0.9376  1.5480 -2.1838
25135SOL    HW278361   0.092  10.225   1.221 -0.4619 -1.0873  2.4786
25136SOL     OW78362   8.394   9.217  10.410  0.1516  0.4126 -0.0858
25136SOL    HW178363   8.379   9.308  10.437 -2.0980  0.2645 -0.6285
25136SOL    HW278364   8.312   9.190  10.369  0.4219 -2.1676  0.8500
25137SOL     OW78365   9.028   8.522   3.914  0.3528  0.0005 -1.0744
25137SOL    HW178366   8.991   8.450   3.965  1.3510 -0.2850 -0.7082
25137SOL    HW278367   8.990   8.601   3.953  0.9340 -0.2235  0.0120
25138SOL     OW78368  10.199   7.967   9.677 -0.2738 -0.0305  0.1358
25138SOL    HW178369  10.132   8.028   9.708 -0.2352 -0.0488  0.2584
25138SOL    HW278370  10.280   8.000   9.715  0.0877  1.0276 -1.4405
25139SOL     OW78371   5.879   5.741   5.673  0.8134  0.2915 -0.2882
25139SOL    HW178372   5.817   5.744   5.600  1.0101  1.0795 -0.4303
25139SOL    HW278373   5.907   5.832   5.685 -0.1060  0.3759  1.5399
25140SOL     OW78374   5.769   2.995   6.128  0.2681 -0.1115 -0.4935
25140SOL    HW178375   5.821   2.940   6.186  1.0824  0.7421 -0.3877
25140SOL    HW278376   5.687   2.947   6.115  0.6384 -0.9517  0.2390
25141SOL     OW78377   7.704   3.046   2.261  0.3412 -0.0255  0.6699
25141SOL    HW178378   7.796   3.065   2.275  0.2959  1.2293 -0.4708
25141SOL    HW278379   7.658   3.104   2.322  0.2871  0.5448  0.0972
25142SOL     OW78380   1.341   4.232   5.335 -0.1211 -0.1605 -0.5639
25142SOL    HW178381   1.254   4.258   5.364  0.6185  1.1909  0.5642
25142SOL    HW278382   1.348   4.140   5.362 -0.4263  0.3258  1.3200
25143SOL     OW78383   6.399   7.847   6.074  0.0336  0.8164  0.1696
25143SOL    HW178384   6.433   7.784   6.138 -0.6533  1.8349  1.6128
25143SOL    HW278385   6.458   7.922   6.082  1.2489  0.1847 -2.0105
25144SOL     OW78386  10.556  10.124   3.922 -0.0647  0.6035 -0.0710
25144SOL    HW178387  10.530  10.215   3.908  0.3835  0.6087 -0.9166
25144SOL    HW278388  10.542  10.081   3.837  1.4017  0.2967 -0.1838
25145SOL     OW78389   1.425   5.224   0.634 -0.2295  0.6310 -0.0976
25145SOL    HW178390   1.433   5.199   0.726  0.8390  2.5333  0.3644
25145SOL    HW278391   1.499   5.282   0.618  0.2648 -0.5516 -2.5067
25146SOL     OW78392   5.323   4.785  10.483 -0.2411 -0.0129 -0.3616
25146SOL    HW178393   5.297   4.736  10.560  0.1697  1.1762  0.5700
25146SOL    HW278394   5.342   4.874  10.516 -0.4668  0.6350 -1.8872
25147SOL     OW78395   2.578   9.357   3.044 -0.2202 -0.1283  0.8273
25147SOL    HW178396   2.529   9.290   2.995  0.6164  0.2261 -0.5615
25147SOL    HW278397   2.512   9.403   3.095 -1.1955 -0.3270 -0.2169
25148SOL     OW78398   8.767   3.966   2.992  0.2474  0.3137 -0.1905
25148SOL    HW178399   8.686   4.008   3.018 -0.0487  0.2395 -0.9793
25148SOL    HW278400   8.835   4.010   3.044 -0.2530  0.5691  0.2577
25149SOL     OW78401   2.176   3.186   6.504 -0.6737  0.0338  0.4162
25149SOL    HW178402   2.159   3.171   6.410  1.9941 -1.3157  0.0575
25149SOL    HW278403   2.133   3.113   6.547  0.4005 -0.9030 -0.0516
25150SOL     OW78404   0.999   1.407   2.639  0.0608 -0.3699 -0.4313
25150SOL    HW178405   0.975   1.333   2.694 -2.2633  1.1708  0.8235
25150SOL    HW278406   0.939   1.402   2.564 -0.4397  0.4532 -0.1031
25151SOL     OW78407   2.495   7.584   5.729 -0.4612 -0.1467 -0.5119
25151SOL    HW178408   2.474   7.675   5.707 -0.3998 -0.2539 -1.0440
25151SOL    HW278409   2.425   7.556   5.788  0.2174  0.6417  0.6924
25152SOL     OW78410   4.822   4.652   9.902  0.6447  0.3314 -0.0007
25152SOL    HW178411   4.753   4.594   9.933 -2.1173  2.9019 -0.8781
25152SOL    HW278412   4.881   4.660   9.977 -0.8568 -0.7213  1.3874
25153SOL     OW78413   8.282  10.317   3.151 -0.5031  0.0293  0.2069
25153SOL    HW178414   8.317  10.308   3.062  0.6983 -0.0279  0.6667
25153SOL    HW278415   8.289  10.229   3.188 -2.4390 -0.3149 -0.1166
25154SOL     OW78416   3.658   4.673   3.950 -0.0523  0.6047 -0.7822
25154SOL    HW178417   3.567   4.700   3.964 -1.0554 -3.4584  2.4822
25154SOL    HW278418   3.653   4.607   3.881  0.5617  0.8818 -1.0980
25155SOL     OW78419   1.716   6.763   6.460 -0.0920 -0.0691 -0.5388
25155SOL    HW178420   1.714   6.668   6.471 -0.7358  0.2020  2.7990
25155SOL    HW278421   1.805   6.782   6.431  0.5450 -1.5848  0.3090
25156SOL     OW78422   4.627   4.334   9.453  0.3201  0.7974 -0.1618
25156SOL    HW178423   4.532   4.320   9.449  0.3203  1.1151 -2.4040
25156SOL    HW278424   4.665   4.261   9.404  1.3178  0.3192  1.2521
25157SOL     OW78425   2.771   9.361   8.103 -0.0278 -0.0064 -0.3801
25157SOL    HW178426   2.827   9.432   8.134 -0.2265 -0.5639  1.3556
25157SOL    HW278427   2.713   9.402   8.039  0.4430  1.1958 -0.0587
25158SOL     OW78428   8.014   4.432   5.061  0.0835 -0.2040  0.0127
25158SOL    HW178429   7.957   4.508   5.066  0.8718  0.4692 -0.8982
25158SOL    HW278430   8.099   4.464   5.090  0.3091 -0.8672  0.1008
25159SOL     OW78431   6.164   9.529   6.405 -0.3588 -0.1402 -0.2788
25159SOL    HW178432   6.108   9.466   6.451  0.1462 -0.2631  0.1678
25159SOL    HW278433   6.147   9.512   6.312 -2.1817  0.8103 -0.1746
25160SOL     OW78434   7.076   7.690   1.572 -0.3813  0.2095  0.0868
25160SOL    HW178435   7.112   7.776   1.549  1.8850 -0.6038  0.3036
25160SOL    HW278436   7.082   7.640   1.491  1.1681 -0.5964  0.6478
25161SOL     OW78437   4.725   8.121   0.474 -0.1930  0.1788  0.4352
25161SOL    HW178438   4.819   8.136   0.483  0.0855 -0.0357 -1.6200
25161SOL    HW278439   4.696   8.094   0.561  1.8945 -1.0498  0.8074
25162SOL     OW78440   9.247   3.228  10.542 -0.2106 -0.2460 -0.4888
25162SOL    HW178441   9.234   3.158  10.479  0.6211 -1.6617  0.8547
25162SOL    HW278442   9.314   3.284  10.503  0.2644 -1.0778 -0.8752
25163SOL     OW78443   3.774   7.949   2.354 -0.3902 -0.0469 -0.1921
25163SOL    HW178444   3.799   8.018   2.292 -0.6354 -0.1580 -0.4156
25163SOL    HW278445   3.847   7.944   2.415 -0.8654  1.2277  0.5276
25164SOL     OW78446   0.090   6.029  10.075  0.5245  0.5241  0.5250
25164SOL    HW178447   0.028   6.100  10.054 -1.5443 -1.0523  0.9495
25164SOL    HW278448   0.153   6.030  10.004 -0.5230  1.6419 -0.4346
25165SOL     OW78449   8.152   9.679   3.536  0.0087  0.3689 -0.1117
25165SOL    HW178450   8.226   9.735   3.559 -1.3071  1.3592  2.0614
25165SOL    HW278451   8.167   9.598   3.586  0.2574  0.0353 -0.7096
25166SOL     OW78452   6.962  10.047   9.351  0.0898  0.1568  0.4176
25166SOL    HW178453   7.052  10.022   9.331 -0.0036 -1.2237  1.5485
25166SOL    HW278454   6.909   9.998   9.288 -0.0621 -2.3466  2.3202
25167SOL     OW78455  10.668   7.441  10.467 -0.3295  0.2319  0.6260
25167SOL    HW178456  10.656   7.350  10.495 -0.2612  0.2076  0.5799
25167SOL    HW278457  10.589   7.462  10.417  0.6145 -0.5733 -1.3507
25168SOL     OW78458   5.951   3.234   7.538  0.7183  0.1735  0.1485
25168SOL    HW178459   5.986   3.304   7.482  1.1388  0.3087  0.5627
25168SOL    HW278460   6.026   3.208   7.591  0.6929 -0.9537 -0.3556
25169SOL     OW78461   8.127   2.315   4.487  0.1465 -0.0893  0.2908
25169SOL    HW178462   8.164   2.395   4.450 -1.1342  0.5634  0.3845
25169SOL    HW278463   8.075   2.277   4.416 -0.4470 -0.0521  0.6961
25170SOL     OW78464   3.412   1.193   5.393 -0.3837  0.4814  0.2315
25170SOL    HW178465   3.378   1.278   5.420 -1.0396  0.0592  0.7714
25170SOL    HW278466   3.432   1.204   5.300 -1.7705  0.8267 -0.0554
25171SOL     OW78467   7.618   7.329   5.139  0.0030 -0.2325 -0.3715
25171SOL    HW178468   7.568   7.406   5.168  0.3204  0.2624 -1.1103
25171SOL    HW278469   7.689   7.365   5.086  0.0525 -1.0468 -0.8768
25172SOL     OW78470   4.418   3.207   2.507  0.1461  0.2973 -0.7350
25172SOL    HW178471   4.466   3.279   2.546 -1.8233 -0.3309  3.4446
25172SOL    HW278472   4.330   3.243   2.491 -0.4969 -0.7541  0.2468
25173SOL     OW78473   2.105   3.005  10.280 -0.0564  0.1324  0.1815
25173SOL    HW178474   2.147   3.048  10.205 -1.5045  1.8508  0.2799
25173SOL    HW278475   2.129   3.059  10.355  1.0802 -1.3695  0.9437
25174SOL     OW78476   8.068   7.920   6.040  0.3693  0.0566  0.3801
25174SOL    HW178477   7.973   7.920   6.054  0.1258 -1.3957 -0.9791
25174SOL    HW278478   8.084   7.996   5.983 -0.3093 -0.8303 -1.0679
25175SOL     OW78479   2.980   4.860  10.035 -0.3215 -0.2426  0.3532
25175SOL    HW178480   3.039   4.900  10.098  0.0692  0.4676 -0.4356
25175SOL    HW278481   3.025   4.780  10.008  0.3451  0.3346 -0.3043
25176SOL     OW78482   1.076   9.352   4.726  0.0782 -0.4283 -0.0435
25176SOL    HW178483   0.982   9.364   4.715  0.2597  1.9879  0.4722
25176SOL    HW278484   1.091   9.362   4.820  1.0099  0.7674 -0.3013
25177SOL     OW78485   6.916   9.373   3.122  0.0497  0.6867 -0.0351
25177SOL    HW178486   6.874   9.330   3.048  0.1594  1.4109 -0.5203
25177SOL    HW278487   7.005   9.391   3.092  0.5616 -0.3211  0.7867
25178SOL     OW78488   5.354   7.713  10.000  0.1483 -0.3313  0.0365
25178SOL    HW178489   5.338   7.626  10.037  1.3299 -0.1816  0.9259
25178SOL    HW278490   5.448   7.716   9.984  0.1712  0.8884  0.2842
25179SOL     OW78491   5.030   0.204  10.061  0.9041 -0.1504 -0.0998
25179SOL    HW178492   5.060   0.283  10.018  0.5546  0.3489  0.5607
25179SOL    HW278493   4.946   0.228  10.100  0.1434 -1.2151 -1.0122
25180SOL     OW78494   7.567   0.885   8.420 -0.1806  0.6532 -0.2200
25180SOL    HW178495   7.479   0.875   8.455 -0.6721  0.7199 -1.3794
25180SOL    HW278496   7.621   0.830   8.477 -0.6785  1.8434  1.4690
25181SOL     OW78497   7.474   9.268   8.782  0.4188  0.3070 -0.5584
25181SOL    HW178498   7.570   9.272   8.786  0.3748  0.1074  0.9977
25181SOL    HW278499   7.444   9.349   8.821 -0.0597 -0.3579  0.4885
25182SOL     OW78500   0.174   9.095   6.561 -0.0418  0.1798  0.2263
25182SOL    HW178501   0.225   9.055   6.631  0.4598 -0.3715 -0.4471
25182SOL    HW278502   0.238   9.141   6.508 -0.4588  0.8511  0.2882
25183SOL     OW78503   3.352   3.327   5.204  0.5592 -0.5952  0.0590
25183SOL    HW178504   3.429   3.383   5.211 -1.2643  2.2645 -1.0571
25183SOL    HW278505   3.278   3.386   5.212 -1.5853 -3.0982  0.2246
25184SOL     OW78506   0.612   2.449   2.788  0.0902  0.0733  0.0441
25184SOL    HW178507   0.595   2.394   2.864  1.1221  0.0691  0.2952
25184SOL    HW278508   0.616   2.388   2.714  1.2423 -0.2093  0.3232
25185SOL     OW78509   2.569   1.077   9.725  0.0567 -0.1615  0.7651
25185SOL    HW178510   2.544   1.071   9.633  2.1148 -0.2487  0.1566
25185SOL    HW278511   2.644   1.137   9.725  0.3047 -0.4281  2.3365
25186SOL     OW78512   4.885   0.972   9.468  0.1573  0.2191  0.8611
25186SOL    HW178513   4.922   1.051   9.507 -0.5727  0.5335  0.9377
25186SOL    HW278514   4.877   0.911   9.541  0.9040  0.0017  0.7653
25187SOL     OW78515   7.803   7.747   3.618 -0.4627 -0.0583 -0.5816
25187SOL    HW178516   7.776   7.672   3.671  0.3181 -0.4488 -0.7260
25187SOL    HW278517   7.893   7.764   3.645 -0.8176  1.2222 -0.1104
25188SOL     OW78518   0.152   0.853   2.873 -0.4178 -0.7053  0.0282
25188SOL    HW178519   0.122   0.931   2.919  0.8792  0.1636 -0.5295
25188SOL    HW278520   0.094   0.846   2.797 -0.5330 -0.2643  0.0737
25189SOL     OW78521   6.537   5.467   0.101 -0.3419 -0.3982 -0.0970
25189SOL    HW178522   6.512   5.406   0.031 -1.1598 -0.9280  0.6325
25189SOL    HW278523   6.468   5.533   0.101  0.1000  0.0647 -0.3338
25190SOL     OW78524   0.527   4.757   4.180 -0.3394  0.2097  0.0424
25190SOL    HW178525   0.510   4.724   4.268  2.0921  0.2961  0.6000
25190SOL    HW278526   0.578   4.837   4.193 -1.4015  1.2050 -1.4449
25191SOL     OW78527   8.782   9.114   2.456 -0.2159 -0.0826  0.2060
25191SOL    HW178528   8.735   9.184   2.500  0.6785  0.1557  0.8149
25191SOL    HW278529   8.781   9.138   2.363  0.3820  0.9139  0.4537
25192SOL     OW78530   0.459   4.843   0.857  0.3265  0.2152  0.1793
25192SOL    HW178531   0.524   4.783   0.822 -0.5535 -0.9054  0.3788
25192SOL    HW278532   0.418   4.883   0.780  0.8158  0.4618  0.0430
25193SOL     OW78533   6.026   8.753   9.620 -0.1781 -0.0103  0.3300
25193SOL    HW178534   5.932   8.746   9.638 -0.0479 -1.1165  0.6308
25193SOL    HW278535   6.061   8.667   9.641  0.9592  0.4764  0.4893
25194SOL     OW78536   3.580   5.493   5.847  0.4795 -0.2846  0.4924
25194SOL    HW178537   3.635   5.452   5.780 -1.0121 -0.6029 -0.5628
25194SOL    HW278538   3.643   5.531   5.909  1.9152  0.5616 -1.3915
25195SOL     OW78539   0.762   2.044   4.858 -0.6415 -0.1865  0.2099
25195SOL    HW178540   0.686   1.986   4.860  0.0912 -1.3910 -2.1573
25195SOL    HW278541   0.835   1.988   4.887  0.0182 -0.4458 -1.7779
25196SOL     OW78542   8.398   4.333   6.096 -0.0035  0.0939  0.4526
25196SOL    HW178543   8.372   4.317   6.187 -0.2007  0.6386  0.4974
25196SOL    HW278544   8.431   4.423   6.096  0.5694 -0.1127  0.1047
25197SOL     OW78545   9.903  10.302   4.113  0.6297  0.5088 -0.4844
25197SOL    HW178546   9.907  10.358   4.191  1.1554 -1.8888  1.3291
25197SOL    HW278547   9.822  10.327   4.070 -0.6772  0.6581  1.8862
25198SOL     OW78548   9.149   5.444   4.937 -0.4298 -0.0640  0.5506
25198SOL    HW178549   9.145   5.469   4.845  1.1169  1.0504  0.7488
25198SOL    HW278550   9.219   5.379   4.942 -2.7348 -2.6992  0.4569
25199SOL     OW78551   7.461   1.126   3.652 -0.3758 -0.4432 -0.2816
25199SOL    HW178552   7.474   1.180   3.574 -0.4589 -0.7575 -0.5169
25199SOL    HW278553   7.389   1.169   3.699 -0.1309 -0.0885 -0.2266
25200SOL     OW78554   1.270   5.788   5.287 -0.5648  0.3973 -0.0482
25200SOL    HW178555   1.177   5.773   5.272 -0.4330 -0.8567  0.3143
25200SOL    HW278556   1.275   5.819   5.378 -0.6287  0.5075 -0.0822
25201SOL     OW78557  10.575   4.836   8.294 -0.3596  0.6523  0.6276
25201SOL    HW178558  10.579   4.907   8.358 -1.4579  2.1484 -0.8930
25201SOL    HW278559  10.645   4.855   8.232 -0.2328  0.0087  0.5605
25202SOL     OW78560   4.199   2.286   4.723  0.2033  0.3821  0.1716
25202SOL    HW178561   4.179   2.228   4.650  1.6318  0.0539  0.0027
25202SOL    HW278562   4.151   2.367   4.704 -0.5373 -0.1869 -0.4079
25203SOL     OW78563   9.117  10.243   8.541  0.4886  0.2732  0.4408
25203SOL    HW178564   9.067  10.162   8.557  1.1095 -0.2579 -0.2797
25203SOL    HW278565   9.207  10.214   8.529  0.7280  1.0870  0.2226
25204SOL     OW78566   1.788  10.581   4.055 -0.0613 -0.6167  0.1581
25204SOL    HW178567   1.792  10.510   4.118  0.8952  0.4725  1.3834
25204SOL    HW278568   1.717  10.638   4.087  1.2517  0.5952  1.0342
25205SOL     OW78569   8.140   9.147   8.447 -0.1249 -0.6251  0.0578
25205SOL    HW178570   8.143   9.097   8.365  1.4571 -1.5563  0.6532
25205SOL    HW278571   8.216   9.117   8.496 -0.6867  0.4017  1.6084
25206SOL     OW78572   7.765   3.258   3.743  0.4492  0.1656  0.1573
25206SOL    HW178573   7.725   3.284   3.660  0.7403  0.9395  0.2447
25206SOL    HW278574   7.757   3.163   3.745 -2.4370  0.3009  0.6811
25207SOL     OW78575   5.396   2.075   5.386 -0.0864  0.7418 -0.3953
25207SOL    HW178576   5.396   2.154   5.440  1.5477  0.3463  0.2319
25207SOL    HW278577   5.382   2.004   5.448 -0.0628  0.4210 -0.7544
25208SOL     OW78578   4.577  10.261   8.043 -0.5831  0.2826  0.1587
25208SOL    HW178579   4.489  10.228   8.025 -0.3442 -0.3833  0.1988
25208SOL    HW278580   4.589  10.331   7.979 -0.7722 -0.2664 -0.4844
25209SOL     OW78581   4.893   4.147   4.936 -0.5584 -0.0936  0.5993
25209SOL    HW178582   4.976   4.155   4.983  0.4116 -0.4465 -0.9667
25209SOL    HW278583   4.868   4.055   4.948 -0.6644 -0.0211  0.9583
25210SOL     OW78584   0.825   4.138  10.422 -0.0382 -0.2095 -0.1500
25210SOL    HW178585   0.845   4.140  10.329 -1.4403 -3.1138 -0.6400
25210SOL    HW278586   0.759   4.206  10.434  1.2212  1.2139 -0.9032
25211SOL     OW78587   9.374  10.268   2.022 -0.2738 -0.3828 -0.5297
25211SOL    HW178588   9.384  10.254   2.116 -1.6956 -0.2833 -0.3310
25211SOL    HW278589   9.293  10.319   2.014  0.3198  0.4401 -1.7558
25212SOL     OW78590   0.156   5.497   6.643 -0.1935 -0.2894  0.0704
25212SOL    HW178591   0.151   5.451   6.727 -0.4857  0.3647  0.4202
25212SOL    HW278592   0.170   5.588   6.667 -0.8970 -0.0008 -0.5749
25213SOL     OW78593   2.850  10.598   5.877 -0.0362 -0.1546 -0.2201
25213SOL    HW178594   2.944  10.609   5.872  0.0113 -0.3047  0.2587
25213SOL    HW278595   2.814  10.674   5.830  0.3123  0.2272  0.1218
25214SOL     OW78596   3.111   7.430   3.099  0.1190 -0.0321 -0.3103
25214SOL    HW178597   3.183   7.402   3.155 -0.0251 -1.6588 -0.8853
25214SOL    HW278598   3.097   7.522   3.122  1.8086  0.0883  0.4083
25215SOL     OW78599   2.008   3.009   4.490  0.2434 -0.1587 -0.5466
25215SOL    HW178600   2.055   2.951   4.429  1.2723  1.2668 -1.1871
25215SOL    HW278601   2.037   3.097   4.465 -3.1762  0.9079 -1.3357
25216SOL     OW78602   2.535   7.185   0.067 -0.1465 -0.5224  0.0803
25216SOL    HW178603   2.494   7.251   0.123  0.2724 -1.6079  1.7446
25216SOL    HW278604   2.476   7.176  -0.007 -0.7476  0.9324  0.3447
25217SOL     OW78605   8.986   2.534   5.528  0.1125 -0.0105  0.7176
25217SOL    HW178606   9.008   2.517   5.437  0.0982 -0.4279  0.7874
25217SOL    HW278607   8.991   2.629   5.537  3.6606 -0.1051  1.1719
25218SOL     OW78608   6.896   7.496   2.607  0.0936  0.1096 -0.7991
25218SOL    HW178609   6.976   7.500   2.658 -0.4196 -0.1415  0.0423
25218SOL    HW278610   6.846   7.573   2.635 -0.2271 -0.0745 -0.8571
25219SOL     OW78611   8.445   6.807   6.670  0.6956 -0.1660 -0.1101
25219SOL    HW178612   8.487   6.866   6.733  0.0755  0.2992 -0.1237
25219SOL    HW278613   8.438   6.858   6.590 -0.4395 -0.0193  0.0699
25220SOL     OW78614   9.339   4.458   5.029  0.0397 -0.6081 -0.3045
25220SOL    HW178615   9.313   4.379   4.980 -1.7215  0.1733 -0.6833
25220SOL    HW278616   9.427   4.478   4.996 -0.3225 -1.2386 -1.7217
25221SOL     OW78617   8.901   6.133   1.151 -0.7884 -0.1025  0.1295
25221SOL    HW178618   8.969   6.115   1.085 -1.9614 -0.4895 -1.0286
25221SOL    HW278619   8.869   6.046   1.175 -0.3066  0.0352  1.3123
25222SOL     OW78620   1.800   7.260   3.323 -0.0474 -0.3209 -0.4259
25222SOL    HW178621   1.809   7.285   3.231 -0.5527 -1.1401 -0.7075
25222SOL    HW278622   1.772   7.169   3.320 -0.8327 -0.1292  0.5243
25223SOL     OW78623   3.323   5.323   8.041 -0.2732  0.1906  0.8640
25223SOL    HW178624   3.364   5.279   8.116  0.7045  0.9069  0.7773
25223SOL    HW278625   3.367   5.408   8.038  0.4225 -0.1933 -1.1154
25224SOL     OW78626   2.901   2.829   5.525  0.4125  1.1474  0.5021
25224SOL    HW178627   2.916   2.851   5.617 -0.3169  0.6741  0.7483
25224SOL    HW278628   2.813   2.789   5.524  0.2927  1.4055 -0.4399
25225SOL     OW78629   4.871   6.055   8.275 -0.2440 -0.4460 -0.5389
25225SOL    HW178630   4.831   6.044   8.188  1.0951 -0.4353 -1.1723
25225SOL    HW278631   4.939   6.121   8.262 -1.5983  1.3784  1.0619
25226SOL     OW78632   8.489   6.755   3.738 -0.1732  0.1055 -0.3489
25226SOL    HW178633   8.512   6.767   3.831 -0.6477 -0.1260 -0.1976
25226SOL    HW278634   8.573   6.749   3.693  0.1067 -2.1815  0.3718
25227SOL     OW78635   2.358   7.206   8.023  0.3655 -0.3582 -0.3353
25227SOL    HW178636   2.396   7.152   7.953  0.3912 -1.2076  0.3127
25227SOL    HW278637   2.358   7.148   8.100  0.8245  0.7185  0.5026
25228SOL     OW78638   1.320   9.699   1.746 -0.0061  0.4612  0.3566
25228SOL    HW178639   1.293   9.639   1.815 -1.2572  0.5341 -0.0511
25228SOL    HW278640   1.240   9.721   1.700  0.9871 -0.9804 -2.2943
25229SOL     OW78641   6.885   4.894   8.600  0.2178  0.3973 -0.2665
25229SOL    HW178642   6.798   4.892   8.560  0.8452 -0.0452 -1.6360
25229SOL    HW278643   6.918   4.981   8.581  0.0325  0.6140  0.3764
25230SOL     OW78644   5.437   6.712   8.966  0.1366  0.1819 -0.1459
25230SOL    HW178645   5.517   6.676   9.005  0.4563  0.1607 -0.8015
25230SOL    HW278646   5.383   6.635   8.947 -0.2949  0.2279  0.8056
25231SOL     OW78647   2.249   6.344  10.328  0.0540  0.5867  0.1481
25231SOL    HW178648   2.306   6.354  10.252  0.0709 -2.7507 -0.4383
25231SOL    HW278649   2.179   6.285  10.298 -0.9079  0.5703  2.2215
25232SOL     OW78650   4.589   6.630   1.802 -0.1615 -0.1845 -0.1798
25232SOL    HW178651   4.568   6.704   1.745 -3.9061  0.1876  1.3896
25232SOL    HW278652   4.573   6.553   1.748 -1.0899  0.1759 -0.4482
25233SOL     OW78653   4.446  10.267   6.701  0.0530 -0.2278  0.3618
25233SOL    HW178654   4.442  10.236   6.610  1.3868  0.8069 -0.0935
25233SOL    HW278655   4.532  10.308   6.708 -0.1721  0.0342  2.0081
25234SOL     OW78656   5.258   2.547   6.957 -0.1095  0.2063 -0.4801
25234SOL    HW178657   5.246   2.536   7.051 -1.7810  3.0295 -0.2563
25234SOL    HW278658   5.176   2.517   6.918  0.1772  0.0303 -0.9748
25235SOL     OW78659   9.205   3.944   4.646  0.0753 -0.0945 -0.5347
25235SOL    HW178660   9.299   3.929   4.643 -0.2430 -2.4591 -3.0481
25235SOL    HW278661   9.196   4.038   4.660  2.7960  0.1868 -0.1794
25236SOL     OW78662   5.838   3.469   8.206 -0.3900  0.0701 -0.0627
25236SOL    HW178663   5.753   3.456   8.163 -1.2734 -1.1138  1.8980
25236SOL    HW278664   5.818   3.471   8.299  1.8834 -1.7894  0.5773
25237SOL     OW78665   9.532  10.353   5.832  0.1098  0.4079 -0.6616
25237SOL    HW178666   9.479  10.427   5.801 -1.4758  0.0155  0.9105
25237SOL    HW278667   9.477  10.276   5.817 -0.3047  0.0923  1.9435
25238SOL     OW78668   4.677   0.291   6.780 -0.2836  0.0571  0.8513
25238SOL    HW178669   4.650   0.346   6.853 -1.0861 -1.1422  1.4761
25238SOL    HW278670   4.608   0.225   6.772 -0.9989  1.0378 -1.9735
25239SOL     OW78671   7.600   2.617   5.725  0.0595 -0.0512  0.0985
25239SOL    HW178672   7.638   2.704   5.738  0.2707 -0.0134 -0.7208
25239SOL    HW278673   7.625   2.568   5.803  3.5392 -0.6349 -1.2130
25240SOL     OW78674   7.662   5.595   5.246 -0.0813  0.5893  0.1050
25240SOL    HW178675   7.665   5.526   5.312 -0.5876 -0.3425 -0.8208
25240SOL    HW278676   7.754   5.608   5.222 -0.0460 -0.3863 -0.3351
25241SOL     OW78677   4.876   9.985   5.796 -0.9997 -0.2800  0.1415
25241SOL    HW178678   4.947   9.988   5.732  1.4880 -2.2280  2.5573
25241SOL    HW278679   4.891  10.062   5.852 -3.0557  1.3136 -1.3101
25242SOL     OW78680   4.871   3.862   4.909 -0.2138 -0.2042 -0.5164
25242SOL    HW178681   4.789   3.836   4.868 -0.0181 -0.1368 -0.9573
25242SOL    HW278682   4.934   3.867   4.837  0.6393 -2.0808  0.0322
25243SOL     OW78683   8.613   1.171   0.119 -0.2359 -0.3761 -0.0329
25243SOL    HW178684   8.670   1.101   0.087  2.9970  0.7401  2.6581
25243SOL    HW278685   8.612   1.160   0.214 -3.0391  0.8711  0.1953
25244SOL     OW78686   4.222   0.883   2.696  0.3444 -0.9432 -0.6505
25244SOL    HW178687   4.221   0.791   2.720  1.2944 -0.4499  1.4706
25244SOL    HW278688   4.231   0.883   2.600 -1.0952 -3.0206 -0.8412
25245SOL     OW78689   0.249   1.258   5.341  0.4089 -0.0089  0.1353
25245SOL    HW178690   0.167   1.282   5.297 -0.5765  1.4814  2.5740
25245SOL    HW278691   0.234   1.169   5.372 -0.0778  0.0527  0.0887
25246SOL     OW78692   7.245   4.843   4.882  0.2902  0.8233  0.0916
25246SOL    HW178693   7.200   4.897   4.816  0.5822 -1.1487 -1.8430
25246SOL    HW278694   7.313   4.798   4.833  1.2866  0.1266  2.0294
25247SOL     OW78695   3.965  10.515   3.176 -0.1847 -0.5950 -0.0154
25247SOL    HW178696   4.013  10.489   3.098  1.8240 -2.3764  1.6681
25247SOL    HW278697   3.894  10.450   3.183 -0.2441 -0.5554 -0.2386
25248SOL     OW78698   9.870   6.615   2.620  0.0572  0.2090  0.3592
25248SOL    HW178699   9.777   6.616   2.640 -0.3532 -1.3113 -1.2019
25248SOL    HW278700   9.902   6.532   2.655  1.0145  0.9983  1.4659
25249SOL     OW78701   6.202   2.955   9.300  0.1669  0.4934  0.0458
25249SOL    HW178702   6.201   3.008   9.220  1.4086 -0.4097 -0.6148
25249SOL    HW278703   6.236   3.013   9.368 -1.2857  1.3910  0.0442
25250SOL     OW78704   6.231   6.757   8.498  0.2338  0.1319 -0.2845
25250SOL    HW178705   6.268   6.690   8.440  1.0101  0.4671 -0.2031
25250SOL    HW278706   6.276   6.838   8.472  1.2397  0.1461  1.3162
25251SOL     OW78707   4.159   2.578   8.417 -0.1396  0.1149 -0.0564
25251SOL    HW178708   4.085   2.628   8.382 -0.7199  1.0924  2.4052
25251SOL    HW278709   4.189   2.628   8.493 -0.6459 -3.1031  2.4889
25252SOL     OW78710   0.548   8.043   8.178 -0.9557 -0.4688  0.0761
25252SOL    HW178711   0.614   8.073   8.116 -0.2002 -0.4285  0.8700
25252SOL    HW278712   0.467   8.038   8.127 -0.7260  1.1456 -0.5153
25253SOL     OW78713   2.469   8.410   8.594 -0.0355  0.3638 -0.3043
25253SOL    HW178714   2.524   8.484   8.570  0.3256  0.1748 -0.0657
25253SOL    HW278715   2.419   8.442   8.670 -2.3110  1.5045 -2.1435
25254SOL     OW78716   5.397   4.476   9.652  0.0431 -0.4423  0.5837
25254SOL    HW178717   5.323   4.451   9.706  0.3800 -0.4510  1.0505
25254SOL    HW278718   5.360   4.492   9.565 -0.2816 -1.9133  0.4304
25255SOL     OW78719   6.232   7.427   5.483  0.1931 -0.2191 -0.2259
25255SOL    HW178720   6.181   7.494   5.528 -0.5290 -1.1210  0.3371
25255SOL    HW278721   6.283   7.384   5.552 -0.2576 -1.0303 -0.3794
25256SOL     OW78722   2.470   3.012   8.770 -0.1736  0.1586  0.0850
25256SOL    HW178723   2.435   3.088   8.816  0.7800 -0.3612  1.7517
25256SOL    HW278724   2.412   2.940   8.794  0.5218 -0.1832  0.7568
25257SOL     OW78725  10.352   5.195   4.939 -0.3097 -0.3765 -0.2987
25257SOL    HW178726  10.372   5.280   4.899  0.4965 -0.4948 -0.1657
25257SOL    HW278727  10.416   5.135   4.900 -0.3040 -0.7368  0.2599
25258SOL     OW78728   1.984   9.802   5.183 -0.6597 -0.0568  1.0108
25258SOL    HW178729   2.036   9.723   5.168  0.2838  0.2078  2.5819
25258SOL    HW278730   1.905   9.770   5.227 -0.6850 -0.2179  0.8495
25259SOL     OW78731   8.430   4.199   0.761 -0.0125 -0.3016 -0.0562
25259SOL    HW178732   8.481   4.126   0.798  0.7545 -0.0102 -0.5081
25259SOL    HW278733   8.487   4.235   0.693 -0.1412  1.0591  0.5181
25260SOL     OW78734   8.551   2.762   2.535  0.1220 -0.2925  0.0274
25260SOL    HW178735   8.570   2.789   2.625  1.2018 -0.5984 -0.0900
25260SOL    HW278736   8.495   2.685   2.544  1.7981 -1.5139  0.5151
25261SOL     OW78737  10.019   1.331   4.469  0.0402 -0.4893  0.4932
25261SOL    HW178738   9.941   1.283   4.442 -0.2180  0.4414 -0.4524
25261SOL    HW278739  10.092   1.277   4.439 -0.2441 -0.4576 -0.2581
25262SOL     OW78740   4.980   3.730   7.840 -0.0372  0.1061 -0.1821
25262SOL    HW178741   4.964   3.655   7.783  0.1427 -0.2172  0.1905
25262SOL    HW278742   4.930   3.802   7.800 -1.1382 -0.4950  0.0834
25263SOL     OW78743   0.169  10.379   3.717  0.0916  0.0434 -0.0153
25263SOL    HW178744   0.088  10.429   3.706  1.5415  2.7292  0.7397
25263SOL    HW278745   0.220  10.397   3.638  1.4174  1.3698  1.1050
25264SOL     OW78746   4.274   3.341  10.220  0.3495 -0.1398 -0.1141
25264SOL    HW178747   4.366   3.360  10.238  0.8244 -0.7240 -1.7825
25264SOL    HW278748   4.267   3.344  10.125 -1.4186  0.1351 -0.0021
25265SOL     OW78749   3.402   8.245  10.180  0.0427  0.2211 -0.1913
25265SOL    HW178750   3.460   8.281  10.247 -0.0405 -0.0885  0.0508
25265SOL    HW278751   3.326   8.212  10.229  0.1309 -0.3063 -0.3983
25266SOL     OW78752   9.203   8.079   7.666 -0.0861 -0.1312  0.2991
25266SOL    HW178753   9.281   8.101   7.716 -1.6069  1.7558  2.0526
25266SOL    HW278754   9.188   7.986   7.683  0.6935 -0.0428  1.5631
25267SOL     OW78755   8.978   9.539   6.524  0.3309 -0.2034 -0.2768
25267SOL    HW178756   9.046   9.586   6.476  1.4781  0.5218  1.9458
25267SOL    HW278757   9.017   9.454   6.543  0.2043 -0.1847  0.0739
25268SOL     OW78758   0.806   8.305   1.795  0.0902 -0.0707 -0.2029
25268SOL    HW178759   0.758   8.348   1.866  0.0923  0.6403 -0.6258
25268SOL    HW278760   0.894   8.342   1.801  0.2688 -0.4925 -0.1757
25269SOL     OW78761   8.883   9.388  10.519 -0.2809  0.4485 -0.2874
25269SOL    HW178762   8.961   9.427  10.481 -0.8095  0.7140 -1.1283
25269SOL    HW278763   8.873   9.432  10.604  0.3118  0.6249 -0.3084
25270SOL     OW78764   7.749   4.794   5.348 -0.1188 -0.0594  0.0366
25270SOL    HW178765   7.671   4.770   5.397  1.3136 -1.7548  1.6259
25270SOL    HW278766   7.750   4.734   5.274 -0.0293 -0.4266  0.3328
25271SOL     OW78767   7.556   8.812   3.225  0.0544  0.4107  0.3673
25271SOL    HW178768   7.526   8.868   3.297 -1.0187  3.3606 -2.1744
25271SOL    HW278769   7.475   8.781   3.184  0.5890  0.5755 -0.8633
25272SOL     OW78770   9.110  10.172   1.581  0.0965  0.0216 -0.6452
25272SOL    HW178771   9.067  10.257   1.576 -0.2074 -0.1589 -1.2408
25272SOL    HW278772   9.184  10.186   1.640 -0.6658  0.3797  0.2440
25273SOL     OW78773   2.897   4.954  10.489 -0.2631  0.6553  0.5568
25273SOL    HW178774   2.878   4.969  10.582  0.7162 -0.7825  1.0274
25273SOL    HW278775   2.990   4.977  10.480  0.4929 -2.0102  0.6732
25274SOL     OW78776   3.987  10.012   9.320 -0.2838  0.5235  0.0731
25274SOL    HW178777   3.923  10.000   9.391 -0.6978  0.5636 -0.2873
25274SOL    HW278778   3.969  10.101   9.287  0.1053  0.6176  0.1138
25275SOL     OW78779   6.756   4.229   4.137 -0.5895 -0.0428  0.6576
25275SOL    HW178780   6.717   4.150   4.173 -0.4101  0.3702  1.7902
25275SOL    HW278781   6.696   4.256   4.068 -0.3664 -1.4554 -0.1258
25276SOL     OW78782   5.717  10.547   4.217 -0.2523 -0.2233 -0.2061
25276SOL    HW178783   5.785  10.494   4.257 -1.0690 -1.4918 -0.4117
25276SOL    HW278784   5.690  10.496   4.140 -0.2550  1.0751 -1.0948
25277SOL     OW78785   9.966   7.495   2.226 -0.0017  0.3142  0.5140
25277SOL    HW178786   9.898   7.537   2.174  0.3343  0.5127  0.2354
25277SOL    HW278787   9.947   7.401   2.219 -0.7786  0.4068  1.1727
25278SOL     OW78788   3.121   7.893   8.711 -0.2533  0.1057 -0.4653
25278SOL    HW178789   3.040   7.944   8.704 -3.3803 -4.1902  0.4177
25278SOL    HW278790   3.109   7.819   8.652  3.2546 -0.6081 -0.5091
25279SOL     OW78791  10.540   8.241   4.088 -0.0780 -0.1463  0.0833
25279SOL    HW178792  10.471   8.221   4.025  0.5569  0.4050 -0.8085
25279SOL    HW278793  10.560   8.333   4.074  1.6708 -0.5826 -0.5390
25280SOL     OW78794   2.435   4.850   8.087  0.7671 -0.1456 -0.1484
25280SOL    HW178795   2.407   4.837   8.177  0.5352  0.1618 -0.1752
25280SOL    HW278796   2.478   4.936   8.087  0.6441 -0.0834 -0.3594
25281SOL     OW78797   0.334   3.372  10.399 -0.2372  0.1023  0.2322
25281SOL    HW178798   0.247   3.402  10.426 -0.2405  1.2005 -0.8894
25281SOL    HW278799   0.322   3.281  10.375 -1.8444  0.9821 -2.8495
25282SOL     OW78800   3.759   4.380   1.102  0.0266 -0.5889 -0.2875
25282SOL    HW178801   3.827   4.392   1.167 -0.0022 -1.0389 -0.1670
25282SOL    HW278802   3.805   4.375   1.018  0.0724 -0.1148 -0.2909
25283SOL     OW78803   9.211   9.990   7.878 -0.0022  0.7259  0.4257
25283SOL    HW178804   9.288  10.028   7.921  0.1706  0.1459  0.6376
25283SOL    HW278805   9.156   9.959   7.951 -0.7668  1.7483  0.3060
25284SOL     OW78806   2.286   6.460   0.363  0.1108  0.4202  0.1139
25284SOL    HW178807   2.301   6.519   0.289 -0.3255  1.9911  1.2255
25284SOL    HW278808   2.192   6.442   0.362  0.0942  0.4932  0.3199
25285SOL     OW78809   4.194   5.331   2.227 -0.1445 -0.2463 -0.2435
25285SOL    HW178810   4.211   5.249   2.180 -2.2478 -1.2676  0.6617
25285SOL    HW278811   4.263   5.391   2.197  0.6944 -1.9480 -1.8797
25286SOL     OW78812   2.023   0.342   7.791 -0.1669  0.0226 -0.1877
25286SOL    HW178813   2.017   0.250   7.816  1.3189 -0.8151 -2.5313
25286SOL    HW278814   2.025   0.340   7.695  2.2484  2.2787 -0.2902
25287SOL     OW78815   9.576   3.398   2.650  0.1177  0.5862 -0.0280
25287SOL    HW178816   9.642   3.450   2.604  1.4432 -1.5520 -0.6782
25287SOL    HW278817   9.565   3.320   2.595 -0.2037 -0.8380  1.9771
25288SOL     OW78818   1.557   3.506  10.224 -0.5231 -0.4280 -0.2670
25288SOL    HW178819   1.528   3.597  10.230 -3.7448 -1.3620  0.0983
25288SOL    HW278820   1.652   3.511  10.229 -0.6604  2.7653  1.7160
25289SOL     OW78821   3.574   2.373   1.835  0.1858 -0.3068  0.5775
25289SOL    HW178822   3.579   2.280   1.813 -0.5786  0.0146 -1.1131
25289SOL    HW278823   3.481   2.389   1.852  0.0236  0.5104 -0.9785
25290SOL     OW78824   6.882   3.584   0.766  0.2427 -0.6940  0.0501
25290SOL    HW178825   6.790   3.601   0.746  0.6832 -0.3653 -1.8812
25290SOL    HW278826   6.882   3.499   0.809 -1.1310  0.1659  1.8867
25291SOL     OW78827   1.246   4.166   0.253  0.2113 -0.0462  0.4102
25291SOL    HW178828   1.234   4.179   0.347 -0.7807  1.0203  0.1666
25291SOL    HW278829   1.222   4.074   0.238  0.3019 -0.1999  1.1774
25292SOL     OW78830   8.848   8.225  10.099 -0.5621 -0.5077  0.0590
25292SOL    HW178831   8.831   8.157  10.034 -1.5945 -0.0437 -0.1716
25292SOL    HW278832   8.931   8.264  10.071 -1.3510  0.1663 -1.4051
25293SOL     OW78833   1.795   8.911   2.837  0.1194  0.0228  0.4013
25293SOL    HW178834   1.854   8.842   2.868  1.4983  0.4590 -1.1251
25293SOL    HW278835   1.775   8.886   2.747 -2.7806 -0.5552  1.1134
25294SOL     OW78836   2.398   7.235   6.341  0.1305  0.6833 -0.1849
25294SOL    HW178837   2.477   7.184   6.324  0.3037  1.0626 -0.5304
25294SOL    HW278838   2.333   7.170   6.368  0.6333  0.4038  0.3547
25295SOL     OW78839   1.400   9.784   2.137  0.4936 -0.9159  0.5669
25295SOL    HW178840   1.457   9.726   2.087  0.0787 -0.0676 -0.9528
25295SOL    HW278841   1.358   9.727   2.202 -1.1927 -2.7464 -1.9322
25296SOL     OW78842   5.337   3.885   7.857  0.0238 -0.1300 -0.2455
25296SOL    HW178843   5.347   3.894   7.952  2.1148 -1.4986 -0.2758
25296SOL    HW278844   5.277   3.812   7.846  0.2463 -0.3562  0.0279
25297SOL     OW78845   2.251   0.249   6.078 -0.3228  0.0768 -0.0136
25297SOL    HW178846   2.293   0.291   6.003 -2.5273  1.6447 -0.4729
25297SOL    HW278847   2.238   0.320   6.141 -2.9555 -0.0898 -0.2620
25298SOL     OW78848   9.135   5.814   2.514 -0.3065 -0.2089 -0.3980
25298SOL    HW178849   9.166   5.862   2.591 -1.0354  0.2270 -0.3701
25298SOL    HW278850   9.065   5.868   2.479 -2.0320 -1.8514  0.3459
25299SOL     OW78851   5.977   6.039   2.374 -0.9627 -0.6203  0.2441
25299SOL    HW178852   5.993   6.063   2.465  1.1935  2.1088 -0.7022
25299SOL    HW278853   5.911   6.103   2.344 -0.4418 -0.4268 -0.5146
25300SOL     OW78854  10.694   9.305   0.949  0.1945 -0.6689 -0.0334
25300SOL    HW178855  10.668   9.396   0.962 -0.7318 -1.0832  1.2289
25300SOL    HW278856  10.623   9.267   0.896  0.3323 -0.7857 -0.1353
25301SOL     OW78857   2.563   7.644   9.004 -0.3571  0.2749  0.2965
25301SOL    HW178858   2.495   7.605   8.949 -0.6091  0.0373  0.7681
25301SOL    HW278859   2.607   7.707   8.947 -1.1346  0.6124  0.0590
25302SOL     OW78860   6.343   7.327   7.914 -0.1239  0.1877 -0.4967
25302SOL    HW178861   6.430   7.308   7.951 -0.0601  2.4953  0.7030
25302SOL    HW278862   6.359   7.398   7.852 -1.2783  1.4153  0.5612
25303SOL     OW78863  10.385   2.811  10.173 -0.4105  0.0164 -0.2364
25303SOL    HW178864  10.424   2.830  10.258  0.3361  0.3639 -0.6413
25303SOL    HW278865  10.443   2.854  10.110 -1.6423  0.8743 -0.8480
25304SOL     OW78866   4.712   9.735   1.195  0.1319  0.3434 -0.3817
25304SOL    HW178867   4.801   9.734   1.231  0.1306  0.5023 -0.3729
25304SOL    HW278868   4.702   9.822   1.157 -0.1523  0.4643 -0.0456
25305SOL     OW78869   9.948   5.632   0.371 -0.2633  0.0286 -0.2089
25305SOL    HW178870   9.949   5.721   0.336 -0.0080  1.1208  2.3695
25305SOL    HW278871   9.989   5.579   0.303 -1.6447  1.5985 -2.4004
25306SOL     OW78872   8.776   8.066   9.877 -0.1490 -0.2828  0.2764
25306SOL    HW178873   8.823   8.102   9.801 -0.9794  1.7657  0.6710
25306SOL    HW278874   8.769   7.972   9.859  3.1232 -0.5287 -0.3073
25307SOL     OW78875   3.297   8.654  10.531 -0.3810  0.5864  0.1207
25307SOL    HW178876   3.382   8.649  10.575 -0.4682 -0.3317  0.1994
25307SOL    HW278877   3.281   8.748  10.522 -0.0012  0.7983  1.3633
25308SOL     OW78878   6.068   7.458   9.311 -0.5046 -0.2606 -0.1494
25308SOL    HW178879   6.003   7.388   9.306 -1.0507  0.2557 -0.2489
25308SOL    HW278880   6.020   7.534   9.344 -0.4329  0.7121 -2.1742
25309SOL     OW78881   3.637   6.451   0.115 -0.2624  0.3590 -0.6043
25309SOL    HW178882   3.676   6.438   0.201  0.5369 -1.4771 -1.1944
25309SOL    HW278883   3.707   6.492   0.063 -0.2052  0.0208 -0.7959
25310SOL     OW78884   7.038   5.414   7.662  0.4932  0.3649  0.3296
25310SOL    HW178885   7.013   5.449   7.748  1.2277  0.7660  0.3926
25310SOL    HW278886   6.957   5.378   7.626 -0.1010  1.3318  0.6495
25311SOL     OW78887   6.284   2.174   3.143 -0.8866 -0.3426 -0.1640
25311SOL    HW178888   6.325   2.120   3.211 -1.0554  0.3135  0.4583
25311SOL    HW278889   6.278   2.261   3.181 -0.7874  0.0876 -1.1020
25312SOL     OW78890   3.046   3.451   4.075  0.2946  0.1380 -0.0977
25312SOL    HW178891   3.070   3.360   4.064  2.6316  0.7900 -0.8638
25312SOL    HW278892   3.044   3.487   3.986 -1.5548  0.6426  0.1073
25313SOL     OW78893   5.179   1.443   3.170 -0.2917 -0.8696 -0.2223
25313SOL    HW178894   5.104   1.467   3.116  1.3532  0.6083 -2.0111
25313SOL    HW278895   5.202   1.355   3.140 -1.8910 -1.7898  1.1012
25314SOL     OW78896   8.497   1.984   3.141  0.0426 -0.2144  0.1036
25314SOL    HW178897   8.511   2.003   3.234  0.6700 -2.6292  0.5707
25314SOL    HW278898   8.548   1.904   3.125 -1.2738 -0.7155 -1.9532
25315SOL     OW78899   9.823   8.533   5.937 -0.6536 -0.3329  0.1387
25315SOL    HW178900   9.741   8.502   5.976 -0.9813 -0.0496 -0.3136
25315SOL    HW278901   9.808   8.625   5.918  0.2811  0.0910  1.3568
25316SOL     OW78902   2.885   3.999   1.919  0.5063  0.0678  0.0295
25316SOL    HW178903   2.928   4.024   2.001 -1.6645  0.1307  1.2143
25316SOL    HW278904   2.957   3.970   1.863  2.3067  2.0461  1.1644
25317SOL     OW78905   7.641   4.329   9.344  0.9021 -0.2312 -0.4889
25317SOL    HW178906   7.680   4.244   9.325 -0.7969 -1.1185 -0.1791
25317SOL    HW278907   7.565   4.334   9.286  0.5441  0.7351  0.0445
25318SOL     OW78908   0.359   6.311   4.404 -0.8273  0.4412 -0.1626
25318SOL    HW178909   0.304   6.385   4.378  0.5438  1.9418  0.9724
25318SOL    HW278910   0.329   6.289   4.492  0.1594  1.0903  0.3541
25319SOL     OW78911   1.829   9.732   5.601  0.3853 -0.1798  0.1476
25319SOL    HW178912   1.890   9.797   5.567 -0.2917 -0.5167 -1.8382
25319SOL    HW278913   1.747   9.781   5.615 -0.2018 -0.5812 -1.5935
25320SOL     OW78914   1.770   7.190   7.368 -0.0784  0.0618 -0.8035
25320SOL    HW178915   1.707   7.262   7.376 -0.8528 -0.5597 -1.2636
25320SOL    HW278916   1.788   7.164   7.459  1.5368  1.9366 -0.5047
25321SOL     OW78917   0.809   6.455   2.382 -0.2017 -0.6148 -0.2479
25321SOL    HW178918   0.808   6.551   2.389  0.8694 -0.4984 -1.3304
25321SOL    HW278919   0.745   6.426   2.447 -1.1215  0.8614 -0.4319
25322SOL     OW78920   5.703  10.147   0.336  0.0392 -0.3775 -0.4119
25322SOL    HW178921   5.779  10.101   0.299  0.8092  0.0161  0.6184
25322SOL    HW278922   5.636  10.079   0.344  0.6776 -1.0023 -0.2585
25323SOL     OW78923   7.271   2.219   6.932 -0.3124  0.3648  0.5095
25323SOL    HW178924   7.214   2.293   6.913 -0.0698  0.1033 -1.4191
25323SOL    HW278925   7.360   2.256   6.931 -0.3340  0.6136  2.6950
25324SOL     OW78926   7.556   4.136   9.595  0.0151  0.1097  0.2709
25324SOL    HW178927   7.569   4.195   9.521 -1.3075 -0.1782 -0.2320
25324SOL    HW278928   7.530   4.193   9.667  2.2836  0.5030  0.8405
25325SOL     OW78929   2.964   3.302   4.523 -0.2090  0.3464 -0.7551
25325SOL    HW178930   3.050   3.321   4.486  0.6480 -0.8304  0.5543
25325SOL    HW278931   2.978   3.301   4.618 -1.4563 -0.8221 -0.5553
25326SOL     OW78932   7.111   6.855   9.076 -0.2087 -0.0633  0.7911
25326SOL    HW178933   7.099   6.851   9.171 -2.4224  1.5116  0.6483
25326SOL    HW278934   7.103   6.764   9.047  0.2860 -0.5393  2.0687
25327SOL     OW78935   8.716  10.316   8.353 -0.3806 -0.3425 -0.2153
25327SOL    HW178936   8.696  10.378   8.423 -1.0828  1.0237 -1.5379
25327SOL    HW278937   8.630  10.284   8.325 -0.1570 -0.5042 -0.7348
25328SOL     OW78938   0.646   6.163   1.678 -0.0342  0.2312  0.2639
25328SOL    HW178939   0.692   6.166   1.762  0.5173  0.8913 -0.0517
25328SOL    HW278940   0.654   6.073   1.648  2.2537  0.6156 -0.4246
25329SOL     OW78941   2.845   0.750   8.681  0.4708  0.3606 -0.1964
25329SOL    HW178942   2.887   0.683   8.628  0.2451 -0.2674  0.4011
25329SOL    HW278943   2.751   0.735   8.668  0.3975 -0.2205  0.8666
25330SOL     OW78944  10.081   2.861   3.626 -0.8537 -0.0411 -0.1695
25330SOL    HW178945  10.098   2.944   3.580  0.9003 -0.0064  0.4600
25330SOL    HW278946  10.109   2.793   3.565 -2.1490 -0.1974 -0.6242
25331SOL     OW78947   7.226  10.172   3.952  0.1844 -0.0987  0.1643
25331SOL    HW178948   7.214  10.078   3.944 -0.1166  0.0672 -1.9219
25331SOL    HW278949   7.303  10.182   4.008 -0.0610 -1.5440  0.7945
25332SOL     OW78950   2.376  10.190   0.458 -0.1277  0.1743 -0.4057
25332SOL    HW178951   2.451  10.177   0.517  1.1738 -0.8838 -2.2038
25332SOL    HW278952   2.345  10.102   0.438 -0.2964  0.4865 -1.5919
25333SOL     OW78953   5.235   4.650   7.303  0.2373 -0.0095 -0.1324
25333SOL    HW178954   5.150   4.694   7.301 -0.1371 -0.6113  1.5535
25333SOL    HW278955   5.285   4.698   7.369  1.6384  1.0024 -1.8169
25334SOL     OW78956   5.226   3.926   5.002  0.6076  0.3032  0.6472
25334SOL    HW178957   5.132   3.924   4.985  1.0924 -0.5453 -2.5554
25334SOL    HW278958   5.266   3.895   4.921  3.7532  2.3282  1.2476
25335SOL     OW78959   6.799   2.593   6.784 -0.4148  0.3021  0.2165
25335SOL    HW178960   6.811   2.532   6.857  1.2818  0.7594  0.3664
25335SOL    HW278961   6.823   2.678   6.820  0.9244  0.4635 -0.9961
25336SOL     OW78962   3.442   7.234   3.559  0.5213 -0.0876  0.0107
25336SOL    HW178963   3.506   7.234   3.630  0.0285  1.4704  0.5065
25336SOL    HW278964   3.484   7.285   3.489 -0.6800  2.2664  0.9021
25337SOL     OW78965   5.851   8.208  10.688 -0.0012 -0.0268 -0.2460
25337SOL    HW178966   5.878   8.163  10.607 -0.3073 -1.2604  0.3220
25337SOL    HW278967   5.812   8.290  10.657 -0.4520 -0.6361 -1.3838
25338SOL     OW78968   2.839   3.733   4.236 -0.0846 -0.2746  0.5623
25338SOL    HW178969   2.867   3.666   4.299  0.0466 -0.2808  0.4980
25338SOL    HW278970   2.874   3.815   4.272  0.3663 -0.3359  0.2717
25339SOL     OW78971   8.388   2.093   2.163 -0.0992 -0.0452  0.0299
25339SOL    HW178972   8.300   2.126   2.180 -1.3985 -1.4286 -3.1716
25339SOL    HW278973   8.400   2.105   2.069  2.5358 -1.2957  0.1258
25340SOL     OW78974   4.739   5.097   0.233 -0.1385  0.0750  0.2436
25340SOL    HW178975   4.812   5.152   0.203 -0.7655  1.2992  0.8783
25340SOL    HW278976   4.781   5.017   0.264  0.9492  0.7451  0.5668
25341SOL     OW78977   1.027   0.801   1.988 -0.2038 -0.1426  0.9641
25341SOL    HW178978   1.083   0.799   2.066 -1.6613  1.9351  2.1582
25341SOL    HW278979   1.040   0.888   1.951  0.6771 -1.1925 -1.3582
25342SOL     OW78980   7.665   9.677   9.842  0.1513  0.8024  0.6137
25342SOL    HW178981   7.646   9.585   9.858 -2.2609  1.3784  1.5397
25342SOL    HW278982   7.645   9.689   9.749 -0.7443  0.6141  0.7654
25343SOL     OW78983   8.375   3.251   4.613  0.1751  0.0449 -0.0306
25343SOL    HW178984   8.380   3.278   4.522 -2.8612 -1.5073 -0.7700
25343SOL    HW278985   8.465   3.228   4.636  1.2208  1.6129 -2.2200
25344SOL     OW78986   0.519   4.090   0.699 -0.0656  0.4238 -0.0485
25344SOL    HW178987   0.471   4.164   0.663  0.8666  2.2773  2.2625
25344SOL    HW278988   0.566   4.053   0.624 -2.0961  0.8909 -1.6234
25345SOL     OW78989   2.724   7.912   8.386 -0.0723 -0.5209  0.1191
25345SOL    HW178990   2.776   7.910   8.305  0.5706 -0.1191  0.5162
25345SOL    HW278991   2.733   8.002   8.418 -1.1584 -0.4021  0.1053
25346SOL     OW78992   6.643   2.703   6.342  0.0186 -0.0814  0.5202
25346SOL    HW178993   6.670   2.656   6.263  1.0026 -0.6243  1.1656
25346SOL    HW278994   6.723   2.709   6.395 -1.1822 -2.1460  2.7145
25347SOL     OW78995   4.475   1.442   9.822 -0.2799 -0.0487  0.5290
25347SOL    HW178996   4.455   1.445   9.915 -0.6191  1.7544  0.4323
25347SOL    HW278997   4.550   1.501   9.811  2.9576 -3.7710  0.3104
25348SOL     OW78998   0.695   0.954   8.667  0.3351  0.4070  0.6024
25348SOL    HW178999   0.624   0.909   8.713  0.4640 -0.0279  0.3879
25348SOL    HW279000   0.740   0.884   8.619  1.8682  0.4145  1.9495
25349SOL     OW79001   0.630   9.338   0.178  0.7416  0.0461  0.8283
25349SOL    HW179002   0.631   9.352   0.083  1.9954 -3.9514  0.0416
25349SOL    HW279003   0.546   9.373   0.207 -0.0244  0.6869 -1.8643
25350SOL     OW79004   2.005   6.398   1.569  0.4719  0.0549 -0.0046
25350SOL    HW179005   2.050   6.457   1.630  1.5260 -0.2130 -0.5057
25350SOL    HW279006   1.912   6.410   1.589  0.6951  1.4125  0.3276
25351SOL     OW79007   7.217   7.373   0.519 -0.3994  0.1384  0.2154
25351SOL    HW179008   7.288   7.430   0.491  0.4998 -0.3374  1.4447
25351SOL    HW279009   7.218   7.299   0.458 -0.6194  0.6973 -0.4800
25352SOL     OW79010   3.440   3.349  10.406  0.0687 -0.1094 -0.4883
25352SOL    HW179011   3.369   3.394  10.359 -0.2088  2.3119  2.0158
25352SOL    HW279012   3.396   3.290  10.466  0.2294  0.1819 -0.0815
25353SOL     OW79013   6.701   5.445   8.275 -0.0779 -0.1561 -0.1365
25353SOL    HW179014   6.754   5.476   8.348  0.3236  2.7902 -1.5590
25353SOL    HW279015   6.764   5.413   8.211 -0.4454 -3.1384  0.8232
25354SOL     OW79016   8.955   7.097   1.166  0.0127  0.2089 -0.1623
25354SOL    HW179017   8.930   7.014   1.207  2.1588 -0.5993 -0.3368
25354SOL    HW279018   9.011   7.139   1.231 -0.5293  1.2478 -0.3420
25355SOL     OW79019   1.057   4.664   2.243 -0.2587 -0.0602  0.1151
25355SOL    HW179020   1.049   4.672   2.338 -3.3259 -2.6036  0.2295
25355SOL    HW279021   1.061   4.754   2.211 -1.2968  0.9343  2.5535
25356SOL     OW79022   7.243   8.333   4.121  0.3508  0.4498  0.4354
25356SOL    HW179023   7.182   8.265   4.091  0.4173 -0.0825  1.4828
25356SOL    HW279024   7.251   8.392   4.045  0.7644 -1.0221 -0.7122
25357SOL     OW79025   2.535   3.349   0.738  0.0513 -0.2180 -0.5172
25357SOL    HW179026   2.585   3.357   0.819 -2.6110 -0.6802  1.3008
25357SOL    HW279027   2.541   3.435   0.697  0.4967  0.3938  0.7932
25358SOL     OW79028   5.142   0.192   2.015  0.1542  0.6669  0.6092
25358SOL    HW179029   5.099   0.125   1.962  0.4020  0.5080  0.6117
25358SOL    HW279030   5.106   0.178   2.103 -2.6645  2.8876 -0.0289
25359SOL     OW79031   8.797   5.022   8.083  0.1045 -0.0487 -0.5203
25359SOL    HW179032   8.756   5.087   8.140  1.3756 -0.2560  0.6627
25359SOL    HW279033   8.785   4.939   8.129 -0.6203 -0.5451 -1.5449
25360SOL     OW79034   6.732   9.598   9.829  0.2811  0.2868 -0.2456
25360SOL    HW179035   6.718   9.691   9.809  0.1074  0.2313 -0.3838
25360SOL    HW279036   6.797   9.570   9.764 -3.4401 -1.0316 -3.8920
25361SOL     OW79037   6.884   0.708  10.433  0.2071 -0.0033  0.0242
25361SOL    HW179038   6.810   0.658  10.468  1.1107 -0.9871  0.5967
25361SOL    HW279039   6.889   0.682  10.341  0.4226 -0.6983  0.2189
25362SOL     OW79040   9.483   6.814   8.510  0.4834  0.3238  0.4143
25362SOL    HW179041   9.554   6.750   8.506  0.7576  0.5954  0.8486
25362SOL    HW279042   9.513   6.886   8.454  0.5015  0.3903  0.5097
25363SOL     OW79043   4.889   7.705  10.355 -0.3260  0.9391 -0.1206
25363SOL    HW179044   4.935   7.737  10.433  0.1775  0.9776 -0.4289
25363SOL    HW279045   4.929   7.620  10.336 -0.6579  0.7880 -0.1602
25364SOL     OW79046   3.307   2.440   0.076 -0.3510 -0.0418  0.3936
25364SOL    HW179047   3.223   2.465   0.039  0.0854  0.1749 -0.4550
25364SOL    HW279048   3.369   2.449   0.005  1.3465  4.6045  2.1288
25365SOL     OW79049   3.276   1.110   9.148  0.0686  0.0476  0.1099
25365SOL    HW179050   3.290   1.159   9.229  0.9535  0.3581 -0.2196
25365SOL    HW279051   3.251   1.176   9.084  0.2697 -0.0644 -0.0867
25366SOL     OW79052   8.115   6.947   1.065  0.3420 -0.6251  0.4396
25366SOL    HW179053   8.030   6.986   1.087  0.2036 -1.0213  0.6163
25366SOL    HW279054   8.162   6.942   1.148  1.7593  2.3868 -0.0436
25367SOL     OW79055   8.372   2.219   4.869  0.4159 -0.1669 -0.1373
25367SOL    HW179056   8.312   2.276   4.918  0.3225  0.5484 -1.0516
25367SOL    HW279057   8.412   2.163   4.935 -0.0565  0.4557  0.6916
25368SOL     OW79058   8.292   1.048   4.154  0.2159 -0.4136  0.0766
25368SOL    HW179059   8.297   0.959   4.119 -0.4084 -0.2261 -0.5056
25368SOL    HW279060   8.289   1.104   4.076  2.9006  0.2903  0.3719
25369SOL     OW79061   2.683   3.539   6.776 -0.0084  0.3162  0.0537
25369SOL    HW179062   2.676   3.466   6.838  2.1612  0.1270  0.1709
25369SOL    HW279063   2.689   3.617   6.832 -0.6705  0.4145 -0.0122
25370SOL     OW79064   0.620   1.364   2.678 -0.3006  0.0391  0.0009
25370SOL    HW179065   0.535   1.344   2.638  0.2236  1.9198 -2.2202
25370SOL    HW279066   0.683   1.359   2.606  1.1412  0.8651  1.1465
25371SOL     OW79067   7.856   2.657  10.640  0.3275 -0.9098 -0.0864
25371SOL    HW179068   7.833   2.596  10.710 -1.2808 -0.3231 -0.0643
25371SOL    HW279069   7.890   2.601  10.570  2.3223 -1.4665  1.2635
25372SOL     OW79070   1.608   6.289   6.257  0.6269  0.1523 -0.1179
25372SOL    HW179071   1.520   6.326   6.260  0.3150 -0.5720 -0.1150
25372SOL    HW279072   1.595   6.194   6.262  1.4427  0.0600  0.7044
25373SOL     OW79073   0.020   6.221   8.725 -0.0798  0.1854  0.6952
25373SOL    HW179074   0.035   6.214   8.820  1.6655 -1.6716  0.3647
25373SOL    HW279075   0.103   6.192   8.686 -1.2788 -0.6077 -1.3997
25374SOL     OW79076   8.638   2.710   1.201 -0.0225 -0.2237 -0.3648
25374SOL    HW179077   8.582   2.759   1.141 -1.7608  0.2981  1.5238
25374SOL    HW279078   8.623   2.618   1.179  0.1514 -0.0121 -1.3717
25375SOL     OW79079   1.689   5.202  10.362  0.1054  0.5136  0.2242
25375SOL    HW179080   1.627   5.185  10.291 -0.4672 -0.5304  0.9409
25375SOL    HW279081   1.668   5.289  10.393 -1.0280  0.1585  0.4739
25376SOL     OW79082   6.459   6.672   4.576  0.2321  0.3362 -0.3227
25376SOL    HW179083   6.479   6.683   4.483  1.9872  2.5862  0.2258
25376SOL    HW279084   6.373   6.713   4.587  0.4265  0.8877 -0.7966
25377SOL     OW79085   6.597   6.390   8.003  0.0703 -0.5428 -0.1575
25377SOL    HW179086   6.606   6.303   7.964 -2.1022 -1.8149  1.9050
25377SOL    HW279087   6.686   6.423   8.008  1.1968 -3.3799  0.4897
25378SOL     OW79088   5.877   0.505   1.226 -0.3637 -0.6546  0.1520
25378SOL    HW179089   5.806   0.461   1.273 -0.7425 -0.5482 -0.3017
25378SOL    HW279090   5.955   0.490   1.279 -0.3110 -2.5705 -0.3741
25379SOL     OW79091   0.412   2.082   2.735  0.2983  0.3016 -0.2341
25379SOL    HW179092   0.468   2.006   2.718 -0.0564  0.1428 -0.7241
25379SOL    HW279093   0.392   2.117   2.648 -2.0335 -0.8616 -0.2674
25380SOL     OW79094   4.569   1.557   2.381  0.0185 -0.4126  0.0086
25380SOL    HW179095   4.597   1.532   2.293  0.1742 -0.8834  0.1885
25380SOL    HW279096   4.477   1.582   2.371  0.0026 -0.5757 -0.2688
25381SOL     OW79097   9.044   4.708   0.435  0.4368 -0.5885 -0.0657
25381SOL    HW179098   9.140   4.705   0.439  0.5189 -0.0621 -1.3387
25381SOL    HW279099   9.024   4.728   0.344 -0.8450  0.7852  0.4767
25382SOL     OW79100   6.101  10.072   1.605  1.1343  0.1466 -0.1576
25382SOL    HW179101   6.186  10.032   1.583  1.3930  0.3352  0.4916
25382SOL    HW279102   6.097  10.070   1.700 -0.4869 -1.7120 -0.1994
25383SOL     OW79103   5.061   9.184   9.720 -0.0495 -0.4656 -0.5611
25383SOL    HW179104   5.085   9.107   9.772 -1.8259 -0.1630  0.7612
25383SOL    HW279105   4.982   9.158   9.673 -0.1804  0.2852 -0.7682
25384SOL     OW79106   8.936   3.349   2.190  0.4615 -0.3126  0.0804
25384SOL    HW179107   8.957   3.370   2.281 -1.9426 -0.4274  0.7279
25384SOL    HW279108   8.841   3.355   2.185  0.5108 -0.5408 -2.3925
25385SOL     OW79109   5.274   4.142   9.306 -0.3377 -0.4203 -0.3335
25385SOL    HW179110   5.247   4.180   9.390  2.1404 -0.3558  0.5306
25385SOL    HW279111   5.321   4.062   9.330 -0.1239 -0.7362 -1.7105
25386SOL     OW79112  10.213   5.818   1.529 -0.4844 -0.2502 -0.8089
25386SOL    HW179113  10.231   5.835   1.621 -2.1322 -1.6244 -0.1940
25386SOL    HW279114  10.189   5.903   1.492 -0.4077  0.1966  0.1571
25387SOL     OW79115   5.750   0.523   0.179  0.8546  0.4317  0.3127
25387SOL    HW179116   5.724   0.431   0.179  0.9162  0.4077  1.3055
25387SOL    HW279117   5.755   0.547   0.271  1.3788  1.2827  0.0754
25388SOL     OW79118  10.152   1.996   9.040  0.1857  0.5025 -0.2511
25388SOL    HW179119  10.227   2.047   9.008  1.6128 -0.4381  1.4196
25388SOL    HW279120  10.123   2.043   9.118 -0.9862  0.8308 -0.8551
25389SOL     OW79121   0.503   6.081   6.501  0.4119 -0.4169 -0.2042
25389SOL    HW179122   0.587   6.052   6.537 -0.3379 -1.8245  0.4953
25389SOL    HW279123   0.463   6.133   6.570  1.2126  1.3064 -0.9968
25390SOL     OW79124   7.653   9.323   7.152 -0.4565 -0.4734  0.5892
25390SOL    HW179125   7.568   9.361   7.174 -0.3367 -0.3045  0.7683
25390SOL    HW279126   7.643   9.230   7.171 -0.8033 -0.5626 -0.0088
25391SOL     OW79127   9.232   6.773   6.776  1.3190  0.4391 -0.3952
25391SOL    HW179128   9.152   6.761   6.829  2.1704 -1.0900  0.6373
25391SOL    HW279129   9.259   6.863   6.793  0.4601  0.5984  0.1956
25392SOL     OW79130   0.543  10.024   7.006 -0.4635 -0.2424 -0.0957
25392SOL    HW179131   0.478  10.014   6.936  0.3472 -1.8587 -0.6554
25392SOL    HW279132   0.490  10.032   7.085 -1.3666 -0.5129 -0.6467
25393SOL     OW79133   7.213   2.932   4.472 -0.2796  0.2653  0.1931
25393SOL    HW179134   7.238   2.876   4.545 -1.4457  0.7483  0.9779
25393SOL    HW279135   7.294   2.940   4.420  1.0175  1.1576  2.2400
25394SOL     OW79136   8.603   9.309   9.838  0.6548  0.4419 -0.3553
25394SOL    HW179137   8.525   9.309   9.894  0.3049 -0.7595 -0.8113
25394SOL    HW279138   8.675   9.287   9.897  0.2794 -0.8790 -0.3773
25395SOL     OW79139   1.903   5.236   8.565 -0.3442  0.7464  0.2196
25395SOL    HW179140   1.993   5.213   8.587  0.1375  0.7578 -1.5428
25395SOL    HW279141   1.884   5.185   8.486 -1.4935  1.5586 -0.0535
25396SOL     OW79142   5.749   9.828   2.369  0.1795 -0.2254 -0.1699
25396SOL    HW179143   5.782   9.774   2.441  0.0972  1.3735  1.1505
25396SOL    HW279144   5.760   9.918   2.401 -3.2656  0.4837 -0.5934
25397SOL     OW79145   7.176   3.635   0.113 -0.0189  0.4665  0.3930
25397SOL    HW179146   7.204   3.580   0.187 -2.2237  0.3677  1.2232
25397SOL    HW279147   7.248   3.629   0.050  0.6550 -1.8195  1.2831
25398SOL     OW79148   7.735   5.618   1.837  0.1167  0.0041  0.3218
25398SOL    HW179149   7.648   5.587   1.813  0.2401 -0.2446  0.1998
25398SOL    HW279150   7.729   5.713   1.830 -0.4710  0.0675  1.3759
25399SOL     OW79151   8.313   4.249   5.851 -0.0588 -0.2205  0.0098
25399SOL    HW179152   8.323   4.285   5.939 -0.3886 -1.9105  0.7777
25399SOL    HW279153   8.269   4.165   5.864 -0.1241 -0.5039 -1.7774
25400SOL     OW79154   3.451   8.772   6.768 -0.5732 -0.0644  0.3398
25400SOL    HW179155   3.464   8.855   6.721 -1.3292  0.7346  1.5047
25400SOL    HW279156   3.506   8.710   6.720 -0.3119  1.0000 -0.8222
25401SOL     OW79157   7.504   2.740  10.322 -0.1834  0.1732  0.0972
25401SOL    HW179158   7.480   2.649  10.342 -1.3583  0.8959  2.3548
25401SOL    HW279159   7.528   2.777  10.407  0.2486  1.9986 -0.7716
25402SOL     OW79160   7.822   7.237   6.732 -0.3653  0.4149  0.6528
25402SOL    HW179161   7.855   7.203   6.648 -1.6618 -0.5480  0.5008
25402SOL    HW279162   7.901   7.249   6.785  0.2720 -3.6823  0.9952
25403SOL     OW79163   0.596   7.939  10.500 -0.3486  0.1384  0.0980
25403SOL    HW179164   0.631   7.883  10.570  2.3608  2.5884  0.8585
25403SOL    HW279165   0.527   7.990  10.543  0.0447  0.3323  0.5074
25404SOL     OW79166   3.405   5.232   2.999 -0.6213 -0.3536  0.4011
25404SOL    HW179167   3.436   5.155   3.047  0.8167 -0.7367 -1.0995
25404SOL    HW279168   3.457   5.234   2.919 -1.9438  1.1217 -0.4733
25405SOL     OW79169   0.103   4.894   8.157  0.4480 -0.6260 -0.1902
25405SOL    HW179170   0.186   4.887   8.204  0.5031 -0.6029 -0.2834
25405SOL    HW279171   0.128   4.892   8.064  0.5086  1.0980 -0.2452
25406SOL     OW79172   2.820   2.655   4.899 -0.5850 -0.1358 -0.0025
25406SOL    HW179173   2.824   2.661   4.804 -0.7585 -0.0020 -0.0026
25406SOL    HW279174   2.891   2.711   4.930  0.2064 -1.0891 -0.0722
25407SOL     OW79175   3.294   4.106   0.486 -0.1096 -0.1299 -0.1228
25407SOL    HW179176   3.347   4.058   0.549  0.7106 -1.2600 -1.5887
25407SOL    HW279177   3.221   4.047   0.467  0.3698 -0.4103 -1.1941
25408SOL     OW79178   9.626   1.340  10.616  0.3001  0.1854  0.2426
25408SOL    HW179179   9.620   1.329  10.711 -1.2896 -1.2702  0.0295
25408SOL    HW279180   9.691   1.409  10.603 -0.7683  1.7020  2.4415
25409SOL     OW79181   7.049   2.755   9.852 -0.4944  0.4228  0.6298
25409SOL    HW179182   7.051   2.660   9.868  2.3277 -0.1827 -2.1904
25409SOL    HW279183   7.134   2.786   9.882 -0.6522  1.7058 -0.1818
25410SOL     OW79184   6.941  10.129   5.156  0.4385 -0.0276 -0.0758
25410SOL    HW179185   6.896  10.105   5.075  0.8974 -1.6233  0.1124
25410SOL    HW279186   7.011  10.189   5.128  0.2040 -0.0680 -0.7689
25411SOL     OW79187   1.189   9.611   4.975 -0.2677  0.0828 -0.2414
25411SOL    HW179188   1.219   9.617   5.065  1.4839  0.6153 -0.8127
25411SOL    HW279189   1.194   9.518   4.954 -0.7012 -0.0450  0.2010
25412SOL     OW79190   5.643   0.280   8.731 -0.0266  0.4401  0.1380
25412SOL    HW179191   5.652   0.350   8.795 -2.3325  0.2051  0.8217
25412SOL    HW279192   5.597   0.320   8.657 -0.3078 -0.0597  0.0343
25413SOL     OW79193   6.954   5.490   0.207  0.0924 -0.0007  0.2442
25413SOL    HW179194   6.893   5.526   0.142  0.9632 -0.0657 -0.6294
25413SOL    HW279195   7.004   5.566   0.237  0.1234 -0.0705  0.3682
25414SOL     OW79196   7.318   6.892   0.738  0.0024  0.1118 -0.1908
25414SOL    HW179197   7.403   6.854   0.717 -1.0368 -2.4968 -0.1253
25414SOL    HW279198   7.331   6.936   0.821  0.9029 -1.9285  0.8221
25415SOL     OW79199   5.930   2.908   3.472  0.8144 -0.4611  0.6767
25415SOL    HW179200   5.945   3.001   3.483 -1.4881  0.3531 -1.7381
25415SOL    HW279201   5.881   2.882   3.550  2.2785  0.0901  1.8096
25416SOL     OW79202   9.659   3.333   5.845 -0.3384  0.9374 -0.0760
25416SOL    HW179203   9.639   3.409   5.899 -2.0199 -0.3526  1.2209
25416SOL    HW279204   9.588   3.328   5.781  0.6191  1.3454 -1.2082
25417SOL     OW79205   4.105   8.465   2.140  0.1046  0.3466  0.3099
25417SOL    HW179206   4.159   8.396   2.100 -0.0895  0.4578 -0.1462
25417SOL    HW279207   4.154   8.491   2.218  0.2267 -0.2459  0.4363
25418SOL     OW79208   2.261   8.076   4.467  0.4496 -0.4277 -0.4827
25418SOL    HW179209   2.188   8.083   4.529  0.3833 -0.5651 -0.5447
25418SOL    HW279210   2.233   8.010   4.404  0.7321 -0.6680 -0.3622
25419SOL     OW79211   5.070  10.690   5.064 -0.1372 -0.0361 -0.3740
25419SOL    HW179212   5.087  10.627   4.993 -1.0535 -0.6177 -0.0924
25419SOL    HW279213   5.155  10.730   5.080  0.1808 -0.2025 -1.5124
25420SOL     OW79214   5.471   9.780   7.930 -0.4935 -0.0356  0.0684
25420SOL    HW179215   5.485   9.726   8.009 -1.1739  0.0241  0.2347
25420SOL    HW279216   5.435   9.862   7.963 -0.1646  0.2414 -0.2543
25421SOL     OW79217  10.238   0.277   3.372  0.2194 -0.0885  0.0968
25421SOL    HW179218  10.320   0.242   3.339  0.5225 -0.8530  1.6069
25421SOL    HW279219  10.261   0.362   3.410  0.4004 -0.4689  0.8580
25422SOL     OW79220   9.843   3.076   2.348  0.0614 -0.7682 -0.4857
25422SOL    HW179221   9.802   3.093   2.433 -3.1545 -0.7674 -1.8915
25422SOL    HW279222   9.826   2.983   2.332  1.0750 -0.8854 -0.9316
25423SOL     OW79223   9.231   2.372   0.194  0.1040 -0.5628 -0.5382
25423SOL    HW179224   9.301   2.426   0.231 -0.7692 -0.2210  0.6694
25423SOL    HW279225   9.158   2.383   0.254 -0.8629 -1.2459 -1.5515
25424SOL     OW79226   5.739  10.583   9.661 -0.4017  0.1508  0.0321
25424SOL    HW179227   5.744  10.636   9.581 -0.5859  1.6922  0.9964
25424SOL    HW279228   5.656  10.610   9.702  0.2795  0.3145  1.3490
25425SOL     OW79229   8.674   3.147   2.359 -0.0762  0.1048 -0.1588
25425SOL    HW179230   8.732   3.081   2.321  0.0606 -0.1392  0.4729
25425SOL    HW279231   8.586   3.114   2.341 -0.0468  0.7025 -1.5233
25426SOL     OW79232   6.462   5.558   6.157 -0.0762 -0.6982  0.2030
25426SOL    HW179233   6.525   5.631   6.150 -0.3505 -0.5017 -0.2557
25426SOL    HW279234   6.454   5.543   6.251  1.6597 -1.6085  0.2532
25427SOL     OW79235   0.184   5.420   1.355 -0.4820 -0.3008 -0.6362
25427SOL    HW179236   0.127   5.483   1.398 -0.4025 -1.1972  0.8338
25427SOL    HW279237   0.195   5.454   1.266  0.6196  2.4764  0.4570
25428SOL     OW79238   4.635   7.200   6.455 -0.1577 -0.7519  0.2921
25428SOL    HW179239   4.650   7.247   6.373 -1.8898 -0.8932 -0.1345
25428SOL    HW279240   4.687   7.120   6.447 -0.2043 -0.6943 -0.6020
25429SOL     OW79241   4.475   7.800   6.590  0.5175 -0.2148 -0.3960
25429SOL    HW179242   4.473   7.840   6.677 -1.4741 -0.0896 -0.4637
25429SOL    HW279243   4.385   7.770   6.575  1.1405 -1.5048 -1.8425
25430SOL     OW79244   6.023   8.305   6.482  0.0709 -0.1404 -0.2619
25430SOL    HW179245   6.106   8.352   6.474 -0.3907  0.6923 -0.2663
25430SOL    HW279246   5.983   8.340   6.562 -0.2372 -0.5991 -0.2116
25431SOL     OW79247   8.697   7.230   4.190 -0.1108 -0.2161  0.1615
25431SOL    HW179248   8.756   7.196   4.257  2.0466 -0.6173 -1.8122
25431SOL    HW279249   8.705   7.325   4.197  0.5035 -0.2608  0.1596
25432SOL     OW79250   5.258   5.672   9.168 -0.3756 -0.7457 -0.0801
25432SOL    HW179251   5.256   5.580   9.142 -0.5773 -0.6736 -0.3177
25432SOL    HW279252   5.345   5.703   9.142  0.1144 -1.1607  0.9996
25433SOL     OW79253   0.336   6.332  10.453  0.0825  0.0172  0.2296
25433SOL    HW179254   0.244   6.355  10.466  0.1949 -0.2027  1.5461
25433SOL    HW279255   0.384   6.406  10.490  0.4356 -0.3032  0.4166
25434SOL     OW79256  10.439   8.020   9.496  0.2465  0.2867  0.0930
25434SOL    HW179257  10.376   8.088   9.473  0.6041  0.7765  0.5180
25434SOL    HW279258  10.457   8.036   9.589 -0.8064 -1.3221  0.6325
25435SOL     OW79259   2.318  10.105   2.452  0.0273  0.4333 -0.6322
25435SOL    HW179260   2.256  10.052   2.401  2.6656 -0.1216 -3.5667
25435SOL    HW279261   2.385  10.132   2.389  1.9375  2.4068  1.9774
25436SOL     OW79262   7.934   4.090   0.616 -0.2179  0.0535  0.1499
25436SOL    HW179263   7.946   4.022   0.549 -1.1662  0.7202 -0.7243
25436SOL    HW279264   7.887   4.160   0.571  0.3023  1.0864  1.1736
25437SOL     OW79265   0.639   2.037   0.658 -0.0242  0.5513 -0.7298
25437SOL    HW179266   0.548   2.062   0.644  0.4099  2.1083 -1.0216
25437SOL    HW279267   0.678   2.040   0.571  0.3752  0.2151 -0.5636
25438SOL     OW79268   3.115   0.100   1.201  0.2370  0.5294 -0.1522
25438SOL    HW179269   3.152   0.024   1.157 -0.4274  0.1548 -0.0782
25438SOL    HW279270   3.126   0.172   1.139  0.2007  0.2166 -0.5229
25439SOL     OW79271   5.943   9.205   5.726 -0.1601 -0.0906 -0.0480
25439SOL    HW179272   5.971   9.296   5.724 -1.6832  0.4043  0.4481
25439SOL    HW279273   5.865   9.204   5.782 -0.5235 -1.5956 -0.5300
25440SOL     OW79274   5.149   8.889   5.188 -0.5126  0.8950  0.2757
25440SOL    HW179275   5.237   8.901   5.152 -0.3003 -0.2239  0.3874
25440SOL    HW279276   5.164   8.868   5.280 -0.7577 -1.0938 -0.0776
25441SOL     OW79277   0.053  10.058   6.056  0.7104  0.3050 -0.4551
25441SOL    HW179278   0.005  10.036   5.977  0.3099  1.4196 -0.5346
25441SOL    HW279279   0.087  10.146   6.040  0.4513  0.6307  0.6923
25442SOL     OW79280   4.730   3.229  10.134  0.1289 -0.2868  0.4746
25442SOL    HW179281   4.747   3.191  10.220  1.5085  0.8558  0.7546
25442SOL    HW279282   4.817   3.236  10.094 -0.6103 -2.1935 -1.6671
25443SOL     OW79283   8.859   3.889   6.745 -0.3087  0.3718  0.5117
25443SOL    HW179284   8.788   3.945   6.776 -0.2737  0.0918  1.1099
25443SOL    HW279285   8.938   3.941   6.760 -0.4355  1.1170 -1.1173
25444SOL     OW79286   5.461   1.628   5.156 -0.2164 -0.3688  0.0311
25444SOL    HW179287   5.366   1.616   5.152 -0.5412  1.9462 -0.7252
25444SOL    HW279288   5.491   1.615   5.066  0.2315 -1.3192  0.3095
25445SOL     OW79289   7.746   9.540   5.012 -0.4820  0.9351 -0.6716
25445SOL    HW179290   7.769   9.613   4.955 -0.1517  2.0421  0.8146
25445SOL    HW279291   7.780   9.463   4.967  0.0391  1.7930 -1.8116
25446SOL     OW79292   3.397   9.396   2.482 -0.2462 -0.2686  0.3158
25446SOL    HW179293   3.492   9.386   2.490 -0.1449 -0.2822 -0.7099
25446SOL    HW279294   3.385   9.483   2.445 -0.6957  0.1201  1.3389
25447SOL     OW79295   8.551   3.669   7.412 -0.5191  0.0594 -0.4629
25447SOL    HW179296   8.460   3.643   7.395 -1.7444  3.4032  0.1661
25447SOL    HW279297   8.586   3.693   7.326 -0.5213 -0.4052 -0.5948
25448SOL     OW79298   4.913   9.615   5.268 -0.2220 -0.7892 -0.0828
25448SOL    HW179299   4.933   9.527   5.236 -0.3673 -0.8040 -0.1347
25448SOL    HW279300   4.831   9.639   5.223 -0.4157 -0.8010  0.2644
25449SOL     OW79301   2.269   2.723   8.029 -0.2006 -0.0285  0.5260
25449SOL    HW179302   2.253   2.772   7.948 -0.5684 -0.2046  0.4949
25449SOL    HW279303   2.188   2.677   8.047 -0.0358 -0.1958  0.8588
25450SOL     OW79304   5.349   9.616   1.529  0.0306  0.7272 -0.7114
25450SOL    HW179305   5.375   9.694   1.578 -1.3624  1.5137 -1.1502
25450SOL    HW279306   5.429   9.586   1.486  0.8290  1.2419  0.3770
25451SOL     OW79307   7.111   4.145   8.012  0.0382 -0.3324  0.3778
25451SOL    HW179308   7.206   4.145   8.002  0.0578  0.3954  0.5317
25451SOL    HW279309   7.087   4.052   8.011  0.5866 -0.4926 -1.1884
25452SOL     OW79310   6.001   6.542   9.959  0.2871  0.1005 -0.1860
25452SOL    HW179311   5.927   6.510   9.907 -1.8606  2.4451  1.2441
25452SOL    HW279312   5.976   6.525  10.050  1.6439  0.7062  0.3289
25453SOL     OW79313   6.674   0.703   8.061  0.4312  0.1785 -0.2600
25453SOL    HW179314   6.587   0.669   8.045  0.6051 -0.2493 -0.3081
25453SOL    HW279315   6.714   0.708   7.974  0.6773 -0.2389 -0.1728
25454SOL     OW79316   1.940   6.592   7.287 -0.2637  0.3566  0.0077
25454SOL    HW179317   1.862   6.574   7.339  0.0450 -1.7750 -0.1628
25454SOL    HW279318   2.005   6.621   7.350 -1.4341  3.4294  0.0161
25455SOL     OW79319   2.316   4.208   0.488  0.2779  0.0108  0.0158
25455SOL    HW179320   2.240   4.184   0.434  0.2424  0.6563 -0.2317
25455SOL    HW279321   2.338   4.297   0.460  1.5068 -0.3889 -0.3591
25456SOL     OW79322   5.087   3.177   7.346 -0.1818 -1.0991 -0.0193
25456SOL    HW179323   5.069   3.090   7.310 -2.0784 -0.0177 -1.9089
25456SOL    HW279324   5.045   3.177   7.433 -0.3816 -1.9799 -0.1146
25457SOL     OW79325   2.597   2.182   9.550  0.0916 -0.2134 -0.1670
25457SOL    HW179326   2.570   2.238   9.623  1.8658 -1.1782  1.3464
25457SOL    HW279327   2.545   2.102   9.561 -1.2363  0.4393 -1.3386
25458SOL     OW79328   4.426   9.955   7.783 -0.5886  0.3193 -0.2529
25458SOL    HW179329   4.344   9.905   7.778 -0.0324 -0.4843 -2.1314
25458SOL    HW279330   4.452   9.968   7.692  1.7032  0.0234  0.2972
25459SOL     OW79331   6.925  10.511   5.695 -0.5214  0.6283 -0.4401
25459SOL    HW179332   6.989  10.511   5.624 -1.4178 -0.8096 -1.2938
25459SOL    HW279333   6.881  10.426   5.687 -0.9788  0.6363  1.5342
25460SOL     OW79334   7.129   8.400   6.340 -0.1290 -0.1680 -0.6736
25460SOL    HW179335   7.168   8.487   6.350  0.6024 -0.6978  2.0214
25460SOL    HW279336   7.195   8.340   6.376 -2.0833 -1.4058  1.0950
25461SOL     OW79337   9.401   1.875   1.386 -0.3412 -0.1094 -0.4259
25461SOL    HW179338   9.382   1.822   1.463  1.0344 -0.9247 -0.6123
25461SOL    HW279339   9.449   1.951   1.419  2.6953 -1.7559 -0.6245
25462SOL     OW79340   8.288   2.784   0.267 -0.1641  1.1823  0.3287
25462SOL    HW179341   8.290   2.697   0.226 -1.4622  1.2644  0.0571
25462SOL    HW279342   8.343   2.838   0.210  0.7387  0.5285  0.5531
25463SOL     OW79343   0.075   1.186   5.955 -0.1184 -0.4080  0.1417
25463SOL    HW179344   0.098   1.268   5.911  1.4448 -0.5609  0.6056
25463SOL    HW279345   0.041   1.130   5.885  0.0492  0.1798 -0.4214
25464SOL     OW79346   9.760   9.474   4.779  0.6445  0.4851 -0.2135
25464SOL    HW179347   9.672   9.478   4.742  0.4671  0.0707  0.1576
25464SOL    HW279348   9.817   9.465   4.703  0.1058 -3.5293 -0.3507
25465SOL     OW79349  10.484   5.142   2.791  0.0459  0.0210  0.1367
25465SOL    HW179350  10.501   5.182   2.706  2.9540 -0.6699  0.2784
25465SOL    HW279351  10.474   5.049   2.772 -1.1274  0.0861  0.3823
25466SOL     OW79352   3.238   6.467   6.431 -0.4224  0.1073 -0.0664
25466SOL    HW179353   3.222   6.410   6.507 -0.3781  0.2685  0.0641
25466SOL    HW279354   3.166   6.530   6.433 -0.5797 -0.0635 -0.3255
25467SOL     OW79355   5.528   0.274  10.043 -0.1365 -0.3307 -0.0831
25467SOL    HW179356   5.534   0.213  10.116 -1.7431 -0.2213  0.1770
25467SOL    HW279357   5.576   0.352  10.073 -0.1672 -0.5522  0.5541
25468SOL     OW79358   7.089   8.081   0.628  0.4642  0.3175 -0.1357
25468SOL    HW179359   7.173   8.038   0.616  0.7409  1.4073 -2.6990
25468SOL    HW279360   7.041   8.063   0.547  0.0509  3.5388 -0.7465
25469SOL     OW79361   0.264   2.281   8.437  0.2123 -0.7555  0.0461
25469SOL    HW179362   0.234   2.195   8.466 -1.0068  0.2398  2.0212
25469SOL    HW279363   0.185   2.323   8.403  1.2819 -1.2388 -3.3486
25470SOL     OW79364   1.044   8.697   1.733 -0.2062 -0.2345 -0.1650
25470SOL    HW179365   1.099   8.701   1.811 -0.9817 -0.1929  0.3966
25470SOL    HW279366   0.957   8.675   1.767 -1.2559  2.7698 -0.6631
25471SOL     OW79367   1.137   3.282   3.346  0.1599 -0.2705 -0.1991
25471SOL    HW179368   1.221   3.319   3.372  0.9657 -1.4324 -1.0379
25471SOL    HW279369   1.155   3.237   3.263 -1.1701 -0.9729 -0.1356
25472SOL     OW79370  10.520   9.619   7.684 -0.0669  0.1860  0.0474
25472SOL    HW179371  10.540   9.569   7.605 -0.9823 -0.9092  0.4832
25472SOL    HW279372  10.431   9.651   7.670 -0.8872 -1.4082  1.2873
25473SOL     OW79373   6.665   4.864   7.742  0.3969  0.1248 -0.0727
25473SOL    HW179374   6.738   4.856   7.803 -0.4201 -0.5696  0.8340
25473SOL    HW279375   6.684   4.800   7.674  1.5774  1.2596 -0.8715
25474SOL     OW79376   7.627   8.577   5.206 -0.3860 -0.3709 -0.2926
25474SOL    HW179377   7.717   8.579   5.176  0.0342 -1.9769  0.7406
25474SOL    HW279378   7.589   8.499   5.164 -0.3782 -1.4486  1.5678
25475SOL     OW79379   1.826   7.492   4.707  0.3146  0.4431 -0.6460
25475SOL    HW179380   1.733   7.488   4.687  0.5094 -0.9056 -1.4087
25475SOL    HW279381   1.834   7.453   4.794 -0.0752  2.7399  0.4871
25476SOL     OW79382   6.919   3.541   9.834  0.2977  0.1983  0.1961
25476SOL    HW179383   6.851   3.485   9.795  0.9359 -0.8227  0.4969
25476SOL    HW279384   6.986   3.479   9.864  0.2604  1.0053  2.0880
25477SOL     OW79385   3.149   3.837   4.488 -0.0670 -0.0285 -0.1206
25477SOL    HW179386   3.136   3.771   4.419 -0.8416  0.3057 -0.3082
25477SOL    HW279387   3.177   3.915   4.442 -0.6258  0.2079 -0.0718
25478SOL     OW79388   6.187   0.086  10.593  0.8937  0.3649  0.1662
25478SOL    HW179389   6.247   0.044  10.654  0.9561 -1.8152 -1.2670
25478SOL    HW279390   6.101   0.076  10.633  0.9362 -1.0188 -0.0351
25479SOL     OW79391   9.715   8.028   3.276 -0.0526  0.1692  0.6606
25479SOL    HW179392   9.726   7.938   3.308 -0.9103 -0.1032  0.2045
25479SOL    HW279393   9.676   8.075   3.350  0.6551  0.2481  0.9966
25480SOL     OW79394   0.371   6.250   2.961 -0.6093  0.1007  0.3241
25480SOL    HW179395   0.409   6.308   2.895  0.0333 -1.0548 -0.3531
25480SOL    HW279396   0.309   6.305   3.009  1.0489  1.7246  0.6821
25481SOL     OW79397   6.691   8.536   1.890  0.0177  0.1950 -0.2474
25481SOL    HW179398   6.693   8.510   1.798  0.8147  0.7043 -0.3831
25481SOL    HW279399   6.635   8.470   1.932 -0.4651  0.0306 -1.1090
25482SOL     OW79400   5.418   6.118   6.138  0.1466 -0.1781 -0.1944
25482SOL    HW179401   5.420   6.152   6.227  1.3856 -0.3268 -0.1418
25482SOL    HW279402   5.362   6.041   6.143 -1.7249  1.1407 -0.0690
25483SOL     OW79403   9.830   3.670   8.939 -0.0603 -0.2837 -0.3486
25483SOL    HW179404   9.908   3.615   8.948 -1.3395 -2.6556 -2.7011
25483SOL    HW279405   9.855   3.736   8.875  0.6056  0.2820  0.4582
25484SOL     OW79406   3.274   2.814   9.164  0.4583 -0.5053 -0.6830
25484SOL    HW179407   3.197   2.851   9.121  0.1204  0.5315  0.7595
25484SOL    HW279408   3.348   2.855   9.119  0.1922 -1.1658 -1.7703
25485SOL     OW79409   9.618   1.559   8.894 -0.4079  0.0776 -0.2844
25485SOL    HW179410   9.690   1.524   8.945  0.1382 -1.0054 -1.7337
25485SOL    HW279411   9.546   1.498   8.909  0.3875 -1.5076 -2.3961
25486SOL     OW79412   9.568   8.791   7.608  0.7176 -0.7302  0.3973
25486SOL    HW179413   9.625   8.764   7.536 -0.0480 -2.3023  0.3206
25486SOL    HW279414   9.565   8.714   7.665 -0.3436 -0.2413  1.0273
25487SOL     OW79415  10.168   1.621   6.428  0.4412  0.3717 -0.3262
25487SOL    HW179416  10.216   1.557   6.376  0.7131  0.5179 -0.2572
25487SOL    HW279417  10.079   1.585   6.435  0.6716 -0.1435 -0.0269
25488SOL     OW79418   3.141  10.526   8.486 -0.0940  0.0152 -0.2423
25488SOL    HW179419   3.192  10.458   8.530  0.0169 -0.5318 -1.1907
25488SOL    HW279420   3.205  10.591   8.460 -0.1234  0.1998  0.1352
25489SOL     OW79421   2.549   3.640   2.825 -0.1368 -0.2643 -0.1444
25489SOL    HW179422   2.473   3.584   2.839 -1.5534  1.6934  0.4334
25489SOL    HW279423   2.516   3.729   2.835  2.1574  0.6894 -0.3098
25490SOL     OW79424   4.064   2.603  10.110  0.4659 -0.3486  0.4188
25490SOL    HW179425   4.074   2.694  10.082  0.4176 -0.2503  0.7188
25490SOL    HW279426   4.149   2.582  10.151  0.8639 -0.7759 -0.5983
25491SOL     OW79427   1.091   1.691   6.030  0.3530 -0.2544  0.0601
25491SOL    HW179428   1.179   1.692   5.992  0.1386 -0.7207 -0.4575
25491SOL    HW279429   1.086   1.772   6.080  1.2939 -0.5081  0.5877
25492SOL     OW79430   2.554   8.826   1.908 -0.6094  0.7605  0.3042
25492SOL    HW179431   2.510   8.816   1.824 -1.1389 -0.3035  0.6848
25492SOL    HW279432   2.540   8.917   1.933  0.8468  1.5197 -1.4502
25493SOL     OW79433   7.193   8.091   1.065  0.2027 -0.0030  0.0624
25493SOL    HW179434   7.242   8.142   1.001 -0.3812  0.7323  0.1896
25493SOL    HW279435   7.111   8.069   1.020 -0.4238  0.9348  0.7095
25494SOL     OW79436   2.593   5.279   7.150  0.1475 -0.4783 -0.0055
25494SOL    HW179437   2.510   5.327   7.144  0.4117 -0.0832 -0.6432
25494SOL    HW279438   2.627   5.278   7.061  0.7946 -0.6948  0.2335
25495SOL     OW79439  10.307   3.116   4.104 -0.1444  0.5408  1.0270
25495SOL    HW179440  10.387   3.081   4.142  0.9452  0.4929 -1.1292
25495SOL    HW279441  10.333   3.199   4.064 -0.7661 -0.1822 -1.0102
25496SOL     OW79442   2.619   9.731   3.148  0.0311 -0.0911 -0.3877
25496SOL    HW179443   2.640   9.821   3.171  0.7840 -0.5410  0.7709
25496SOL    HW279444   2.542   9.710   3.202 -1.0676  0.3101 -1.7510
25497SOL     OW79445   6.313   7.046   2.475 -0.5602 -0.3961  0.2713
25497SOL    HW179446   6.362   7.031   2.394  0.5342  0.3465  0.7711
25497SOL    HW279447   6.372   7.099   2.530 -1.5489 -0.2930  1.2799
25498SOL     OW79448   1.919  10.571   4.511  0.9202  0.4409 -0.0728
25498SOL    HW179449   1.969  10.589   4.590  1.3373 -1.7542  0.2412
25498SOL    HW279450   1.927  10.476   4.499  0.7710  0.6783 -2.6740
25499SOL     OW79451   1.327   5.100   4.154 -0.2867 -0.1142  0.5197
25499SOL    HW179452   1.345   5.176   4.099 -0.2740  0.9366  1.9338
25499SOL    HW279453   1.243   5.066   4.122 -1.0477  1.4042  0.8531
25500SOL     OW79454   4.780   0.919   6.855  0.3848  0.0012  0.3966
25500SOL    HW179455   4.709   0.856   6.839  0.1293 -0.1820  2.0274
25500SOL    HW279456   4.757   0.996   6.803  0.4164 -1.0294 -1.2058
25501SOL     OW79457   6.515   9.740   1.430 -0.1265 -0.6281  0.2695
25501SOL    HW179458   6.473   9.680   1.492  1.4560 -1.5443  0.5114
25501SOL    HW279459   6.504   9.699   1.345 -0.4392 -0.4616  0.2322
25502SOL     OW79460   4.987   6.211  10.320 -0.4361 -0.1555  0.0528
25502SOL    HW179461   5.018   6.290  10.365 -0.7208 -0.2800  0.4689
25502SOL    HW279462   5.058   6.189  10.259 -0.8585  1.1101 -0.9410
25503SOL     OW79463   0.849   5.557   7.957  0.1163 -0.0981  0.1481
25503SOL    HW179464   0.878   5.543   7.867 -1.4933 -0.2433 -0.3775
25503SOL    HW279465   0.763   5.599   7.949  0.3608  0.8041  1.6308
25504SOL     OW79466   6.785   8.095   2.494 -0.2263 -0.4751 -0.3377
25504SOL    HW179467   6.689   8.099   2.495 -0.3124 -1.9040 -0.9468
25504SOL    HW279468   6.812   8.182   2.462 -1.2824  0.1690  0.4755
25505SOL     OW79469   8.807   8.769   9.849  0.1878 -0.1803  0.0386
25505SOL    HW179470   8.728   8.810   9.886 -0.9207 -1.0384 -1.2863
25505SOL    HW279471   8.805   8.679   9.882  0.8563 -0.0974  0.3248
25506SOL     OW79472   6.508   0.347   0.929 -0.4514 -0.3975 -0.5852
25506SOL    HW179473   6.514   0.395   0.847 -0.4496 -0.7048 -0.7662
25506SOL    HW279474   6.581   0.285   0.927  0.2586  0.3807  0.1687
25507SOL     OW79475   4.385   3.711   9.606 -0.0220  0.0665  0.5368
25507SOL    HW179476   4.441   3.691   9.680  0.3475 -1.2780 -0.0875
25507SOL    HW279477   4.345   3.796   9.628  1.1197  0.3353  1.6337
25508SOL     OW79478   8.017   5.483   0.765  0.1071  0.0532  0.1899
25508SOL    HW179479   8.017   5.524   0.851  0.0685 -0.1615  0.2902
25508SOL    HW279480   7.981   5.396   0.779 -0.0116  0.0593 -0.0620
25509SOL     OW79481   0.662   7.616   9.736  0.3766  0.3414  0.4610
25509SOL    HW179482   0.753   7.640   9.717  0.5736  0.2598  1.2677
25509SOL    HW279483   0.613   7.698   9.723  0.6433  0.5155  0.5314
25510SOL     OW79484   2.238   2.025   9.000 -0.3327 -0.0133  0.3125
25510SOL    HW179485   2.270   2.040   9.089 -0.3140  1.6334  0.0596
25510SOL    HW279486   2.275   1.941   8.975  0.6239  0.0489  1.4392
25511SOL     OW79487   3.059   4.614   6.690 -0.2101 -0.0420  0.3457
25511SOL    HW179488   3.136   4.557   6.688 -1.1549 -1.4768  2.1546
25511SOL    HW279489   3.095   4.702   6.703  1.1472 -0.5448  0.1555
25512SOL     OW79490  10.456   9.329   1.770  0.3562 -0.5696  0.0420
25512SOL    HW179491  10.469   9.244   1.812 -1.3179 -1.2099 -0.6439
25512SOL    HW279492  10.455   9.310   1.677  1.8601  0.5162 -0.2376
25513SOL     OW79493   7.021   1.232   3.961 -0.2633 -0.1490 -0.3880
25513SOL    HW179494   7.053   1.146   3.934 -0.0612 -0.5079  0.9240
25513SOL    HW279495   7.092   1.269   4.014 -1.1905 -0.1005  0.8718
25514SOL     OW79496   4.567   3.859   6.915  0.4480 -0.2644 -0.1688
25514SOL    HW179497   4.508   3.862   6.840 -0.8600 -1.7251  0.7317
25514SOL    HW279498   4.545   3.777   6.959  2.7516 -0.5682  0.5603
25515SOL     OW79499   3.291   0.890   9.758 -0.0938  0.2279  0.4067
25515SOL    HW179500   3.325   0.913   9.671 -0.9316  0.6590  0.1866
25515SOL    HW279501   3.352   0.932   9.819  0.9403 -0.6973  0.0630
25516SOL     OW79502   7.242   7.280   6.111 -0.6120 -0.0055  0.3568
25516SOL    HW179503   7.319   7.326   6.078 -0.0192 -0.9018  0.4449
25516SOL    HW279504   7.230   7.315   6.200 -0.6924  0.5960  0.1140
25517SOL     OW79505   9.753   0.654   8.858  0.0835  0.0831 -0.3146
25517SOL    HW179506   9.847   0.667   8.869  0.1652  0.6264 -1.5101
25517SOL    HW279507   9.745   0.613   8.772 -0.6962 -1.1880  0.3310
25518SOL     OW79508   3.920   2.963   4.325 -0.5819  0.2931  0.0655
25518SOL    HW179509   3.955   2.918   4.248  1.2096  0.2689  0.8482
25518SOL    HW279510   3.952   3.052   4.318 -0.0342  0.1794  0.9919
25519SOL     OW79511   7.814   6.141   8.079 -0.1969 -0.4496 -0.1224
25519SOL    HW179512   7.802   6.180   7.993  0.4506  1.6951  0.6900
25519SOL    HW279513   7.898   6.095   8.073  1.1966  1.8729  0.0090
25520SOL     OW79514   1.727   6.607   1.425  0.6430 -0.4050 -0.0889
25520SOL    HW179515   1.746   6.572   1.339 -1.8740 -1.8727 -0.1494
25520SOL    HW279516   1.735   6.702   1.415  2.3848 -0.6444 -1.3399
25521SOL     OW79517   3.996   3.155   2.928 -0.2283  0.0686 -0.2062
25521SOL    HW179518   3.984   3.246   2.953 -1.7508 -0.0189 -0.5137
25521SOL    HW279519   4.090   3.147   2.910  0.0526  1.3716  0.5468
25522SOL     OW79520   1.883   2.783   5.622 -0.0818  0.7442  0.1201
25522SOL    HW179521   1.838   2.747   5.698 -0.3627  0.6123 -0.1070
25522SOL    HW279522   1.833   2.863   5.601  0.2801  1.0362  0.3622
25523SOL     OW79523   3.695   5.439   1.719  0.1375  0.5086 -0.2109
25523SOL    HW179524   3.665   5.375   1.783  0.5791 -0.1032 -0.5974
25523SOL    HW279525   3.621   5.452   1.660 -0.3997  1.3699  0.6457
25524SOL     OW79526   2.842   9.526   0.484 -0.5346  0.1009  0.1501
25524SOL    HW179527   2.919   9.584   0.482  0.9272 -1.6905 -3.1341
25524SOL    HW279528   2.781   9.567   0.423 -0.1628 -0.9147 -0.9289
25525SOL     OW79529  10.660   9.654   8.797  0.2467 -0.2791  0.3519
25525SOL    HW179530  10.603   9.724   8.764 -0.3642 -1.0447 -0.2337
25525SOL    HW279531  10.603   9.601   8.852  1.0614  0.5070  2.0026
25526SOL     OW79532   5.056   7.001   9.320  0.7597  0.0597  0.6876
25526SOL    HW179533   5.115   7.050   9.263 -0.7956  1.3095  0.0590
25526SOL    HW279534   5.108   6.927   9.351  2.4016  0.6990 -0.4024
25527SOL     OW79535   9.334   2.296   5.016 -0.0180 -0.1855  0.1748
25527SOL    HW179536   9.264   2.238   5.046 -1.6046  0.6976 -1.5445
25527SOL    HW279537   9.365   2.341   5.095 -3.7239  1.8173  0.7199
25528SOL     OW79538  10.324   6.926   1.599  0.5131  0.0344 -0.0906
25528SOL    HW179539  10.353   6.835   1.596  1.6055  0.3972 -1.5390
25528SOL    HW279540  10.390   6.971   1.653 -0.3935 -0.1118  1.2091
25529SOL     OW79541   7.106  10.302   9.713  0.9306 -0.5860  0.4077
25529SOL    HW179542   7.100  10.364   9.785  2.5466 -0.8629  0.8104
25529SOL    HW279543   7.015  10.280   9.693  0.3248  1.6249  0.4648
25530SOL     OW79544   3.820   6.384   1.522 -0.3204 -0.2296 -0.3806
25530SOL    HW179545   3.727   6.382   1.500 -0.0399  0.1968 -1.7104
25530SOL    HW279546   3.856   6.454   1.467  0.7937 -0.4055  0.0944
25531SOL     OW79547   8.865   4.305   7.070  0.0277 -0.0951  0.2355
25531SOL    HW179548   8.842   4.373   7.007  1.8355 -0.3884 -0.8063
25531SOL    HW279549   8.872   4.225   7.016 -0.0369 -0.6920  1.0965
25532SOL     OW79550   4.201   5.112   2.069 -0.1928 -0.1095 -0.0672
25532SOL    HW179551   4.219   5.092   1.977  0.9328 -1.4862  0.4125
25532SOL    HW279552   4.283   5.091   2.114 -0.5527  1.0556  1.1825
25533SOL     OW79553   5.680   6.277   4.920 -0.6469 -0.5964  0.2859
25533SOL    HW179554   5.705   6.333   4.993 -0.9835  0.4185 -0.3496
25533SOL    HW279555   5.750   6.212   4.914  0.3028  0.3870  0.4097
25534SOL     OW79556   5.182   3.315   4.966  0.7079 -0.0421 -0.3737
25534SOL    HW179557   5.193   3.403   5.002  0.0293 -0.3618  0.6652
25534SOL    HW279558   5.252   3.264   5.006 -0.9969 -0.7786  1.8682
25535SOL     OW79559   2.230   4.499   4.278  0.1241  0.0609 -0.0302
25535SOL    HW179560   2.281   4.501   4.197  0.3886  2.6731  0.1313
25535SOL    HW279561   2.174   4.422   4.268  0.5349 -0.0148 -2.4549
25536SOL     OW79562   7.498   8.179   8.801  0.1547 -0.5080  0.7324
25536SOL    HW179563   7.447   8.183   8.720  2.3427 -1.9655 -0.8301
25536SOL    HW279564   7.508   8.271   8.826  2.3888  0.4134 -2.7325
25537SOL     OW79565   0.802   9.379   4.752 -0.0423  0.1777 -0.2234
25537SOL    HW179566   0.772   9.375   4.661 -0.0773 -2.2519 -0.1574
25537SOL    HW279567   0.734   9.429   4.797 -1.7692 -1.3952 -0.9292
25538SOL     OW79568   3.757   5.912   0.956 -0.0587 -0.1036 -0.0314
25538SOL    HW179569   3.841   5.931   0.914  0.4465 -0.4783  0.7901
25538SOL    HW279570   3.692   5.952   0.898  0.6985  0.3933 -0.5577
25539SOL     OW79571   3.681   8.614  10.070  0.1754  0.0606  0.5696
25539SOL    HW179572   3.596   8.589  10.034 -0.0756  2.0720 -0.3285
25539SOL    HW279573   3.745   8.587  10.004  0.0430  0.3957  0.3022
25540SOL     OW79574  10.345   7.060   6.095  0.1019 -0.3315  0.0985
25540SOL    HW179575  10.263   7.091   6.058 -0.2814 -2.9137 -1.5037
25540SOL    HW279576  10.411   7.085   6.030  0.7545  2.0521  1.5441
25541SOL     OW79577  10.229   7.482   8.467  0.7221 -0.5228  0.2247
25541SOL    HW179578  10.261   7.452   8.382  1.0276  0.8059 -0.1429
25541SOL    HW279579  10.134   7.480   8.459  0.7526  0.7045 -0.5546
25542SOL     OW79580   0.185   5.329   7.576  0.3859 -0.3260 -0.1083
25542SOL    HW179581   0.216   5.380   7.501 -0.1077 -0.0173 -0.1055
25542SOL    HW279582   0.135   5.392   7.629  1.4900 -0.3066  0.9525
25543SOL     OW79583   6.299   5.739   5.657  0.3465  0.6117  0.3809
25543SOL    HW179584   6.223   5.682   5.649  1.3304 -0.5740 -1.0212
25543SOL    HW279585   6.272   5.821   5.615 -0.0607  0.0813 -0.4077
25544SOL     OW79586  10.385  10.215   9.966  0.1395  0.1565  0.2121
25544SOL    HW179587  10.418  10.292   9.920 -0.3454 -0.8633 -2.0248
25544SOL    HW279588  10.324  10.249  10.031  0.5142  1.6877 -0.2042
25545SOL     OW79589   2.071   1.746   6.557  0.2049  0.1170  0.1351
25545SOL    HW179590   2.015   1.766   6.632 -0.4962 -0.3600 -0.2593
25545SOL    HW279591   2.050   1.814   6.493 -1.5814 -1.2947 -0.8850
25546SOL     OW79592   1.347   7.680   8.438 -0.3966 -0.7594 -0.3380
25546SOL    HW179593   1.442   7.674   8.454 -0.3165 -0.8412 -0.8424
25546SOL    HW279594   1.329   7.774   8.439  0.0981 -0.5818 -2.5187
25547SOL     OW79595   7.293  10.108  10.588 -0.0121 -0.4161  0.0125
25547SOL    HW179596   7.197  10.105  10.589 -0.0042 -2.1174 -0.8485
25547SOL    HW279597   7.318  10.067  10.506  1.4821 -2.5844  1.4369
25548SOL     OW79598   0.066   9.302   7.472 -0.1760  0.3943  0.8002
25548SOL    HW179599   0.075   9.217   7.514  0.0827  1.6014  3.3315
25548SOL    HW279600  -0.014   9.340   7.508 -1.0617  0.7147 -1.3435
25549SOL     OW79601   7.168   4.341  10.285  0.1105 -0.0561  0.0023
25549SOL    HW179602   7.077   4.313  10.275  0.1656 -0.0196 -0.6190
25549SOL    HW279603   7.219   4.269  10.248  0.3706 -0.4043  1.0101
25550SOL     OW79604   6.287   2.087   0.872 -0.7606  0.2220 -0.2151
25550SOL    HW179605   6.368   2.138   0.869 -0.4079 -0.2500  0.9178
25550SOL    HW279606   6.258   2.083   0.780  1.0021 -0.4093 -0.7830
25551SOL     OW79607   6.425   6.443  10.463  0.6766 -0.1523 -0.6577
25551SOL    HW179608   6.351   6.402  10.508  0.0974  2.4837  1.0059
25551SOL    HW279609   6.498   6.382  10.477 -0.0895 -0.6395  1.7814
25552SOL     OW79610   4.523   6.630   6.044  0.0951  0.6799  0.2107
25552SOL    HW179611   4.584   6.634   5.970  0.8210  2.4330  0.8645
25552SOL    HW279612   4.557   6.559   6.099  0.1564  0.0773 -0.5747
25553SOL     OW79613   8.359   6.972   3.817  0.4122  0.0890 -0.3775
25553SOL    HW179614   8.430   6.991   3.879 -0.5541 -2.4424  1.6504
25553SOL    HW279615   8.380   6.886   3.782 -0.2185  0.5496 -2.0000
25554SOL     OW79616   8.196   3.682   3.427  0.2885  0.7576 -0.2244
25554SOL    HW179617   8.112   3.650   3.459  1.2050 -1.3186  0.3174
25554SOL    HW279618   8.245   3.705   3.506  0.3354  1.7125 -0.5181
25555SOL     OW79619   8.872  10.432   5.179 -0.2400 -0.4317  0.3079
25555SOL    HW179620   8.791  10.481   5.168  1.1007  1.8153 -0.2851
25555SOL    HW279621   8.896  10.407   5.090  0.6492  0.6115  0.2281
25556SOL     OW79622   2.762   4.904   7.744 -0.7466  0.4744 -0.2908
25556SOL    HW179623   2.768   4.882   7.837 -1.1806 -0.7405 -0.5309
25556SOL    HW279624   2.761   5.000   7.742  2.5619  0.6548  0.7375
25557SOL     OW79625   6.701   9.388   5.421 -0.4017  0.3731  0.0405
25557SOL    HW179626   6.637   9.451   5.388 -1.2126 -0.0124  0.8450
25557SOL    HW279627   6.710   9.324   5.350  0.1847  1.2008 -0.6524
25558SOL     OW79628   1.873   1.868   7.731  0.0522  0.1730  0.2300
25558SOL    HW179629   1.870   1.872   7.636 -1.9881 -0.7773  0.1924
25558SOL    HW279630   1.928   1.791   7.750 -1.6103 -1.2272 -0.3083
25559SOL     OW79631   6.465   2.948   6.431 -0.8292  0.1034  0.1659
25559SOL    HW179632   6.555   2.943   6.398 -1.2943 -0.8196 -1.0509
25559SOL    HW279633   6.472   2.994   6.515  0.5696  1.4628 -0.6491
25560SOL     OW79634   2.661   6.308   1.555 -0.1029 -0.7336 -0.1862
25560SOL    HW179635   2.629   6.228   1.596 -2.1238 -0.0716 -0.3236
25560SOL    HW279636   2.586   6.368   1.560 -0.2048 -0.3102 -3.9222
25561SOL     OW79637   6.775   1.264   6.558  0.6127  0.2675 -0.4610
25561SOL    HW179638   6.693   1.228   6.525  0.7610  1.6900 -2.5259
25561SOL    HW279639   6.794   1.339   6.501  3.3520 -0.0255 -0.0812
25562SOL     OW79640   3.945   4.907   1.808 -0.1471 -0.6336 -0.4413
25562SOL    HW179641   3.992   4.990   1.808 -1.4555  0.1884  1.3932
25562SOL    HW279642   3.897   4.907   1.726 -1.2707  1.1804  0.1464
25563SOL     OW79643   2.735   6.300   7.222 -0.1973  0.2042  0.0398
25563SOL    HW179644   2.768   6.390   7.220  1.1859 -0.1379  2.4407
25563SOL    HW279645   2.654   6.305   7.273  0.3514  0.0211  0.9643
25564SOL     OW79646   8.323   8.807   2.250 -0.5449 -0.1855 -0.2650
25564SOL    HW179647   8.393   8.793   2.313 -0.4934  0.1975 -0.2355
25564SOL    HW279648   8.243   8.815   2.303 -0.5861 -0.4598 -0.2873
25565SOL     OW79649   3.862   2.420   0.966  0.4904  0.0486  0.2262
25565SOL    HW179650   3.848   2.328   0.987 -1.2457  0.1882 -0.1512
25565SOL    HW279651   3.812   2.434   0.885 -2.2704  2.0644  2.0815
25566SOL     OW79652   6.431   3.309   2.345 -0.4706  0.2068 -0.1557
25566SOL    HW179653   6.491   3.251   2.391 -2.8247 -2.8979 -0.6364
25566SOL    HW279654   6.394   3.365   2.414  1.0008  0.3601  0.5371
25567SOL     OW79655   3.541   9.852   1.499  0.5643 -0.3933 -0.1850
25567SOL    HW179656   3.491   9.771   1.509 -2.0703  1.1744  0.1507
25567SOL    HW279657   3.610   9.845   1.566  2.5436 -3.6902 -2.2505
25568SOL     OW79658  10.313   8.763   6.588  0.4418 -0.3143 -0.0551
25568SOL    HW179659  10.387   8.740   6.532  0.1170 -1.5240 -0.0215
25568SOL    HW279660  10.352   8.804   6.664  0.9553  0.5278 -0.7573
25569SOL     OW79661   0.692   6.697   1.015  0.2332 -0.4227  0.1800
25569SOL    HW179662   0.600   6.684   0.992  0.1826  0.4095 -0.1196
25569SOL    HW279663   0.738   6.625   0.971  0.2676  1.5460 -3.3688
25570SOL     OW79664   0.661   0.556   2.187  0.1429  0.1361  0.0378
25570SOL    HW179665   0.607   0.616   2.136 -1.0148 -0.1458  0.8887
25570SOL    HW279666   0.692   0.609   2.261  1.0864  0.3051 -0.4587
25571SOL     OW79667   7.335   1.839   7.410  0.7331 -0.1511  0.0971
25571SOL    HW179668   7.323   1.800   7.324 -0.2654 -1.6433  0.8669
25571SOL    HW279669   7.430   1.844   7.422  0.8773 -1.0475 -0.6061
25572SOL     OW79670   2.319   8.493   1.941 -0.4357  0.7081 -0.2225
25572SOL    HW179671   2.319   8.400   1.919  0.7729  0.9465 -1.3195
25572SOL    HW279672   2.393   8.530   1.893 -0.6362  2.1699  0.5178
25573SOL     OW79673   1.362   0.484   1.724 -0.7433 -0.2602 -0.2120
25573SOL    HW179674   1.378   0.565   1.676  0.6853 -0.2899  0.1712
25573SOL    HW279675   1.422   0.488   1.799  1.5116 -2.9153 -1.6842
25574SOL     OW79676   9.921   1.327   4.147 -0.4984  0.4542 -1.2098
25574SOL    HW179677   9.975   1.380   4.089 -1.0510 -0.0878 -2.2633
25574SOL    HW279678   9.844   1.381   4.165  0.2409  1.1247  0.0835
25575SOL     OW79679   1.322   9.016   7.382  0.4390  0.3840  0.0008
25575SOL    HW179680   1.390   9.079   7.360 -0.5267  1.2785 -0.5063
25575SOL    HW279681   1.308   8.965   7.302 -1.7182  2.3643 -1.0192
25576SOL     OW79682   7.628   7.324   3.341 -0.2634 -0.4346  0.3206
25576SOL    HW179683   7.612   7.407   3.295  0.1560 -1.0651 -1.0270
25576SOL    HW279684   7.704   7.342   3.396  0.0388 -0.0099 -0.2193
25577SOL     OW79685   0.665   4.961   4.275  0.0371  0.1141 -0.0556
25577SOL    HW179686   0.626   4.926   4.354 -0.8136  2.0838  0.4666
25577SOL    HW279687   0.735   5.020   4.306  0.6456 -0.1753 -0.8313
25578SOL     OW79688   9.561   8.310   9.260  0.3212 -0.0357 -0.4752
25578SOL    HW179689   9.592   8.394   9.294  0.1115  0.6323 -1.8638
25578SOL    HW279690   9.640   8.258   9.249  0.5067  0.1588 -0.0561
25579SOL     OW79691   3.999   5.316   9.168  0.1155 -0.3368 -0.1933
25579SOL    HW179692   3.970   5.267   9.091 -2.1999  0.7470 -0.0783
25579SOL    HW279693   3.921   5.324   9.222  1.4764 -0.2742  1.8807
25580SOL     OW79694   9.772   3.932   0.778 -0.8320  0.3640 -0.3463
25580SOL    HW179695   9.804   3.979   0.701 -0.5912  2.0053  0.7210
25580SOL    HW279696   9.738   4.000   0.836  0.1438 -0.6869  1.5680
25581SOL     OW79697   0.552   9.477   3.065  0.4350  0.2018  0.2906
25581SOL    HW179698   0.570   9.571   3.057  0.2474  0.2798  0.7449
25581SOL    HW279699   0.485   9.460   2.999  0.9132  0.2609 -0.2168
25582SOL     OW79700   7.840   2.795   2.579  0.5719  0.4732  0.7824
25582SOL    HW179701   7.819   2.746   2.500  1.7257  1.1836  0.0044
25582SOL    HW279702   7.782   2.759   2.646 -0.8890  0.3137 -0.5269
25583SOL     OW79703   4.588   8.712   3.349  0.2028  0.6820 -0.0167
25583SOL    HW179704   4.651   8.778   3.377 -2.4447  2.8344  1.4085
25583SOL    HW279705   4.537   8.692   3.428  0.3236 -2.4991 -0.6169
25584SOL     OW79706   7.691   8.687  10.129  0.4587  0.5036 -0.1291
25584SOL    HW179707   7.648   8.680  10.044  0.1503 -0.6808  0.1098
25584SOL    HW279708   7.629   8.648  10.191  0.8304  1.0281  0.5933
25585SOL     OW79709   1.128   1.322   0.239  0.1262 -0.0439 -0.8033
25585SOL    HW179710   1.115   1.235   0.275 -2.4480  0.0868 -1.2074
25585SOL    HW279711   1.051   1.372   0.269  0.4372  1.4624 -2.3424
25586SOL     OW79712   4.073   1.473   0.856  0.1451  0.5522  0.0518
25586SOL    HW179713   4.078   1.492   0.763  0.4289 -1.4081 -0.3799
25586SOL    HW279714   4.165   1.471   0.885  0.2281 -1.2724 -0.2144
25587SOL     OW79715   0.081   4.988   8.627  0.0908 -0.0780  0.0829
25587SOL    HW179716   0.085   5.027   8.714 -1.1693 -2.8209  1.5159
25587SOL    HW279717   0.123   4.902   8.637 -0.5903 -0.7018 -1.8376
25588SOL     OW79718   0.516  10.288   3.539  0.0965  0.0371 -0.5901
25588SOL    HW179719   0.533  10.269   3.632  0.6755  2.7781 -0.0287
25588SOL    HW279720   0.603  10.294   3.500 -0.1508 -1.1703 -1.3588
25589SOL     OW79721   3.090   9.421   8.210 -0.5508 -0.3201 -0.7425
25589SOL    HW179722   3.162   9.371   8.173  0.8684 -0.1606  1.5919
25589SOL    HW279723   3.065   9.482   8.141  0.3159 -1.6211 -2.2495
25590SOL     OW79724   3.492  10.362   0.388 -0.1680 -0.1087  0.6490
25590SOL    HW179725   3.525  10.450   0.407 -0.4747  0.1323  0.1020
25590SOL    HW279726   3.499  10.316   0.471  2.8046 -0.5034  0.2884
25591SOL     OW79727   4.649   8.167   6.615 -0.1177 -0.1912  0.0754
25591SOL    HW179728   4.648   8.116   6.695  0.3134  0.2973  0.3933
25591SOL    HW279729   4.721   8.229   6.626 -0.0089 -0.1674 -0.7133
25592SOL     OW79730   5.346   1.467  10.627  0.5965 -0.4007  0.4150
25592SOL    HW179731   5.371   1.451  10.537 -2.3755 -0.4058 -0.5149
25592SOL    HW279732   5.273   1.529  10.622  2.0196  1.7370  3.0189
25593SOL     OW79733   0.363   8.992  10.642 -0.1928  0.4955  0.0778
25593SOL    HW179734   0.439   8.972  10.696 -0.6084 -0.2565  0.4134
25593SOL    HW279735   0.388   9.068  10.591  0.6150  0.5335  0.5212
25594SOL     OW79736   2.919   0.937   4.582  0.2974  0.1662 -0.3923
25594SOL    HW179737   3.012   0.917   4.572  0.7964  2.7881 -2.1788
25594SOL    HW279738   2.914   0.983   4.666  0.8332  0.9029 -0.7499
25595SOL     OW79739   6.270   4.878   3.453 -0.0891  0.1835  0.4530
25595SOL    HW179740   6.298   4.838   3.535  2.9894 -0.0832 -0.5994
25595SOL    HW279741   6.263   4.804   3.392 -0.2169  0.5910 -0.0337
25596SOL     OW79742   0.646   9.530   8.556 -0.0158  0.2004 -0.1597
25596SOL    HW179743   0.647   9.624   8.577 -0.1636  0.6681 -2.1068
25596SOL    HW279744   0.553   9.507   8.554  0.0375 -0.4591  2.0604
25597SOL     OW79745   4.177   2.782   2.071 -0.2890 -0.3089  0.1575
25597SOL    HW179746   4.258   2.733   2.057 -1.2245 -1.7097 -0.5467
25597SOL    HW279747   4.146   2.802   1.983 -0.3526  0.8805  0.4254
25598SOL     OW79748   8.037   0.029   2.159 -0.6142  0.9906 -0.3721
25598SOL    HW179749   8.020  -0.011   2.245  0.1488  0.6360 -0.3732
25598SOL    HW279750   8.043  -0.046   2.099 -0.2129  1.1724 -0.5620
25599SOL     OW79751   0.974   4.142   2.885 -0.2642 -0.1864 -0.2147
25599SOL    HW179752   1.004   4.219   2.836 -0.9800  1.3979  1.6887
25599SOL    HW279753   0.975   4.071   2.821 -1.6288  1.8424 -2.6610
25600SOL     OW79754   7.498   0.670   3.328  0.4080 -0.5623  0.5298
25600SOL    HW179755   7.529   0.737   3.389  0.4729 -0.5465  0.4798
25600SOL    HW279756   7.572   0.609   3.320  1.1743  0.5279 -1.1287
25601SOL     OW79757   0.451   0.899   6.084 -0.3837 -0.2485 -0.8327
25601SOL    HW179758   0.472   0.810   6.110 -2.7194 -0.3703  0.9141
25601SOL    HW279759   0.475   0.953   6.159 -0.7695  0.3491 -1.1274
25602SOL     OW79760   9.852   0.262   5.730  0.3533  0.6363 -0.2214
25602SOL    HW179761   9.945   0.269   5.751  0.5994 -0.2032 -0.9571
25602SOL    HW279762   9.836   0.332   5.667  0.9647 -0.4048 -1.5877
25603SOL     OW79763   9.744  10.382   3.771  0.0371 -0.6703 -0.5229
25603SOL    HW179764   9.777  10.305   3.724  3.4515  0.3404 -0.0734
25603SOL    HW279765   9.785  10.456   3.727 -1.6151  0.8026  0.2862
25604SOL     OW79766   6.184   5.664   2.866  0.4673 -0.4448  0.2110
25604SOL    HW179767   6.233   5.640   2.945  3.9320  2.2837 -0.8820
25604SOL    HW279768   6.231   5.620   2.795  0.0397  0.5474 -0.7042
25605SOL     OW79769   1.646   9.305   4.874 -0.6753 -0.7726 -0.0774
25605SOL    HW179770   1.650   9.211   4.893 -0.2311 -0.5134  1.2059
25605SOL    HW279771   1.560   9.317   4.834 -1.0510 -1.6103  0.4506
25606SOL     OW79772   7.506   1.314   1.944 -0.5016  0.0725 -0.3561
25606SOL    HW179773   7.419   1.339   1.976 -0.2557  1.9538 -1.0755
25606SOL    HW279774   7.566   1.341   2.013 -0.3529  0.0020 -0.4581
25607SOL     OW79775   1.026   4.158   7.694  0.1790  0.1407  0.5318
25607SOL    HW179776   0.937   4.164   7.727  0.2902 -0.4819  0.9593
25607SOL    HW279777   1.081   4.159   7.772  0.4450 -1.3922  0.4002
25608SOL     OW79778   1.103   5.532   8.706  0.4970 -0.4741  0.4035
25608SOL    HW179779   1.110   5.534   8.610  4.0069  2.4572  0.4928
25608SOL    HW279780   1.031   5.591   8.726  1.0113  0.5099 -0.4781
25609SOL     OW79781   3.692   2.747   5.216 -0.4013 -1.0165 -0.2797
25609SOL    HW179782   3.766   2.686   5.222  1.0099  0.7044  1.6434
25609SOL    HW279783   3.730   2.826   5.178 -1.9664 -0.9631 -1.8519
25610SOL     OW79784   7.380   0.349   6.543 -0.0985 -0.1676  0.3866
25610SOL    HW179785   7.288   0.331   6.523 -0.5217  2.0431  0.0157
25610SOL    HW279786   7.376   0.425   6.602  1.4941  0.8641 -0.7538
25611SOL     OW79787   0.047   3.664   4.373 -0.1928 -0.1580  0.0330
25611SOL    HW179788  -0.026   3.667   4.311 -1.2860  0.5911  1.2875
25611SOL    HW279789   0.044   3.749   4.417  1.3396 -0.1872  0.2510
25612SOL     OW79790   8.322  10.297   9.681 -0.1837 -0.0401 -0.1477
25612SOL    HW179791   8.291  10.210   9.706 -0.9576  0.3048  0.1357
25612SOL    HW279792   8.409  10.304   9.720 -0.1287 -0.6689 -0.1403
25613SOL     OW79793   7.977   2.237   0.857  0.2021 -0.0086  0.1261
25613SOL    HW179794   8.045   2.247   0.924  0.8303  2.2899 -0.7784
25613SOL    HW279795   8.024   2.215   0.777 -0.1194  1.2436 -0.4278
25614SOL     OW79796   0.509   4.298   7.835  0.4435  0.1433  0.0265
25614SOL    HW179797   0.463   4.359   7.778  0.5813 -0.1096 -0.3614
25614SOL    HW279798   0.441   4.242   7.872  0.6060 -2.1913 -2.8462
25615SOL     OW79799   3.905   2.651   0.731 -0.0379 -0.5580  0.0134
25615SOL    HW179800   3.833   2.588   0.738 -0.0864 -0.6397 -1.0100
25615SOL    HW279801   3.870   2.732   0.768  0.6398 -1.5610  3.0915
25616SOL     OW79802   1.251   5.412   2.852 -0.0059 -0.5402  0.4359
25616SOL    HW179803   1.188   5.354   2.895  0.9059 -1.1814  0.9184
25616SOL    HW279804   1.216   5.500   2.868  0.1290 -0.7759  2.2165
25617SOL     OW79805   9.209   4.732   8.186 -0.0788  0.6148  0.0214
25617SOL    HW179806   9.121   4.695   8.189 -1.5716  3.7504 -1.1917
25617SOL    HW279807   9.196   4.826   8.190  3.4366  1.2094  2.6826
25618SOL     OW79808   1.920   5.201   0.749 -0.1088  0.5016  0.1479
25618SOL    HW179809   1.902   5.222   0.841 -0.5018 -0.1791  0.2358
25618SOL    HW279810   2.014   5.217   0.739 -0.0089  0.3300  0.7414
25619SOL     OW79811   6.431   9.819   7.154  0.4249 -0.7481  0.1040
25619SOL    HW179812   6.396   9.892   7.205  1.0019  0.3131 -0.9604
25619SOL    HW279813   6.361   9.799   7.091  1.0073  0.2205 -0.8872
25620SOL     OW79814   8.436   4.386   5.646 -0.2733  0.2224 -1.0663
25620SOL    HW179815   8.405   4.353   5.731  1.5418 -1.7247 -1.0627
25620SOL    HW279816   8.466   4.475   5.664 -2.1129  0.7184 -0.2336
25621SOL     OW79817   8.639  10.301  10.457 -0.3829  0.4305 -0.6640
25621SOL    HW179818   8.706  10.330  10.519  0.4729  0.3518 -1.5291
25621SOL    HW279819   8.565  10.274  10.512 -0.1917  1.7047  0.2643
25622SOL     OW79820   9.874   8.435   4.007  0.1788  0.0662 -0.4877
25622SOL    HW179821   9.821   8.508   3.973  0.3384 -0.3489 -1.6637
25622SOL    HW279822   9.810   8.371   4.037  0.0043  1.4993  2.4903
25623SOL     OW79823   5.204   2.037   7.438  0.0088  0.4921 -0.1685
25623SOL    HW179824   5.120   2.040   7.485 -0.7805 -2.7335 -1.1227
25623SOL    HW279825   5.211   1.947   7.409  2.5455  1.3432 -2.5315
25624SOL     OW79826   3.474   2.138   4.741  0.0573  0.0224  0.6855
25624SOL    HW179827   3.468   2.173   4.652 -0.9242  0.2538  0.8279
25624SOL    HW279828   3.560   2.165   4.772  0.8847 -1.0366 -0.5975
25625SOL     OW79829   4.922   7.656   0.915  0.5385 -0.5397 -0.3158
25625SOL    HW179830   5.016   7.659   0.935  0.1118  0.9502  1.8232
25625SOL    HW279831   4.880   7.636   0.999 -1.1747  1.3577 -0.6249
25626SOL     OW79832   9.819   4.647   8.625  0.3328  0.1168  0.2623
25626SOL    HW179833   9.821   4.616   8.535 -1.3933  0.5218  0.0479
25626SOL    HW279834   9.856   4.736   8.621 -0.2278  0.3351 -0.1391
25627SOL     OW79835  10.511   9.965   3.330  0.1358  0.2123  0.6247
25627SOL    HW179836  10.580   9.898   3.337 -0.2999 -0.3013  0.0411
25627SOL    HW279837  10.509   9.987   3.237 -1.4366 -0.8088  0.3799
25628SOL     OW79838   7.228   5.707   0.956  0.6167 -0.2409 -0.1305
25628SOL    HW179839   7.314   5.665   0.958  0.1233 -1.2991 -0.4368
25628SOL    HW279840   7.170   5.642   0.916 -0.1822  0.7307 -0.5955
25629SOL     OW79841   2.090   8.783   3.073 -0.4564 -0.3155 -0.1609
25629SOL    HW179842   2.134   8.840   3.010 -0.8589 -0.2435 -0.3774
25629SOL    HW279843   2.035   8.725   3.020  0.7027 -1.5976 -0.0263
25630SOL     OW79844   0.294   5.368   2.442  0.1007 -0.3920  0.0612
25630SOL    HW179845   0.339   5.449   2.418 -0.7377  0.4826  1.2949
25630SOL    HW279846   0.357   5.320   2.496  0.3798 -0.2662 -0.1506
25631SOL     OW79847   0.669   3.300   1.121  0.4007 -0.0680 -0.6090
25631SOL    HW179848   0.592   3.281   1.175 -1.0115  0.6952 -2.2620
25631SOL    HW279849   0.650   3.384   1.079  2.2888  0.3009 -0.8382
25632SOL     OW79850   1.145   3.096   4.973  0.1767  0.2316 -0.2011
25632SOL    HW179851   1.227   3.109   4.925 -0.2512  0.3716 -0.9135
25632SOL    HW279852   1.170   3.045   5.049  1.0669  0.9667  0.0223
25633SOL     OW79853   8.495   4.250   3.255  0.2797 -0.9149 -0.0338
25633SOL    HW179854   8.508   4.314   3.185 -0.5521 -0.9723 -0.2536
25633SOL    HW279855   8.580   4.244   3.299  0.2620  0.6345  0.2460
25634SOL     OW79856  10.562   9.770   3.619 -0.6406  0.4741 -0.2832
25634SOL    HW179857  10.528   9.792   3.706  1.0266 -0.6606  0.7113
25634SOL    HW279858  10.639   9.825   3.608  1.2270 -1.8276  0.5321
25635SOL     OW79859   3.680   1.215  10.361  0.4557  0.1686  0.1998
25635SOL    HW179860   3.640   1.264  10.290  1.8225  2.3018  0.7721
25635SOL    HW279861   3.770   1.249  10.365  0.6827 -0.5200  2.3277
25636SOL     OW79862   9.212   4.587   5.739 -0.3313 -0.6000 -0.3406
25636SOL    HW179863   9.286   4.632   5.698  0.0798 -1.3617 -0.4569
25636SOL    HW279864   9.161   4.554   5.665 -2.4159  2.3626 -0.3940
25637SOL     OW79865   0.662   1.317   7.213  0.1522 -0.1172 -0.2587
25637SOL    HW179866   0.643   1.230   7.249  1.4011  0.0155  0.7835
25637SOL    HW279867   0.754   1.332   7.234  0.0144  1.3630 -0.6243
25638SOL     OW79868   2.653   3.887   2.336 -0.8461 -0.4452 -0.5920
25638SOL    HW179869   2.744   3.856   2.330  0.0476  1.8127  0.0525
25638SOL    HW279870   2.661   3.982   2.349 -3.3015 -0.2444 -0.0300
25639SOL     OW79871  10.435   7.024   7.268  0.0612  0.6747  0.7635
25639SOL    HW179872  10.477   7.017   7.354  0.0243  0.1498  0.7377
25639SOL    HW279873  10.447   6.938   7.228 -0.8524  0.5837  0.6722
25640SOL     OW79874   7.431   8.672   5.541  0.2194  0.2938 -0.3246
25640SOL    HW179875   7.412   8.685   5.634  2.8732  0.2957  0.2964
25640SOL    HW279876   7.347   8.687   5.497 -1.2180 -0.1159  2.0732
25641SOL     OW79877   3.364   3.053   3.680 -0.7679  0.6932  0.2294
25641SOL    HW179878   3.426   3.099   3.736 -0.1270 -1.5279  1.4659
25641SOL    HW279879   3.304   3.121   3.650 -0.9317  2.0829  3.3105
25642SOL     OW79880   8.927   3.402   7.498 -0.2884  0.1681  0.0362
25642SOL    HW179881   8.849   3.452   7.520  0.8374  1.7949  0.5238
25642SOL    HW279882   8.933   3.336   7.567 -2.2750 -1.3239 -1.1014
25643SOL     OW79883   0.696   4.402   0.611 -0.6186  0.1509 -0.3633
25643SOL    HW179884   0.658   4.408   0.699  0.4791 -1.3405  0.2414
25643SOL    HW279885   0.645   4.464   0.559 -0.3723  2.1362  1.6334
25644SOL     OW79886   8.621  10.407   2.190  0.2572  0.1654 -0.2701
25644SOL    HW179887   8.616  10.318   2.155  0.5582 -0.1868  0.5779
25644SOL    HW279888   8.624  10.396   2.285 -0.1864  1.1040 -0.1378
25645SOL     OW79889   0.279   0.350   9.305  0.2017 -0.5512  0.2483
25645SOL    HW179890   0.295   0.285   9.374  0.4437  1.7392  2.4708
25645SOL    HW279891   0.210   0.406   9.340  0.9101  1.2008 -1.0076
25646SOL     OW79892   5.368   2.784   0.969 -0.1137  0.0091 -0.3341
25646SOL    HW179893   5.325   2.704   0.936 -0.6995 -0.2877  1.0687
25646SOL    HW279894   5.296   2.841   0.995  0.3037 -0.0113  0.9557
25647SOL     OW79895   4.658   3.092   3.359 -0.2213  0.2717 -0.4955
25647SOL    HW179896   4.581   3.077   3.304  0.0104 -0.3604 -0.6591
25647SOL    HW279897   4.722   3.028   3.328  0.1196  0.3061  0.1225
25648SOL     OW79898   4.218   3.124   5.402  0.3161 -0.1508 -0.4940
25648SOL    HW179899   4.286   3.070   5.443 -0.4756 -0.9974 -0.2531
25648SOL    HW279900   4.165   3.156   5.475  1.5492  2.0769 -0.5299
25649SOL     OW79901   3.523   0.261   6.348  0.3617  0.0251  0.1985
25649SOL    HW179902   3.594   0.266   6.284 -0.7066 -2.2748 -1.3300
25649SOL    HW279903   3.553   0.196   6.411 -0.3078 -0.9273 -0.4319
25650SOL     OW79904   7.816   7.592   1.129  0.4842  0.7738 -0.0705
25650SOL    HW179905   7.769   7.669   1.098 -1.5180 -0.5099 -0.4248
25650SOL    HW279906   7.856   7.620   1.211 -0.7277  2.0330  0.1369
25651SOL     OW79907   7.958   6.391   9.023 -0.7993  0.0835 -0.4270
25651SOL    HW179908   8.030   6.344   9.064 -1.2224 -0.4848 -0.3130
25651SOL    HW279909   8.000   6.448   8.958 -0.2211  0.0898 -0.0537
25652SOL     OW79910   7.170   9.015   3.084  0.1210 -0.4127 -0.4264
25652SOL    HW179911   7.076   9.005   3.100 -0.0539  1.1688 -0.3390
25652SOL    HW279912   7.202   9.059   3.162  0.9863 -1.0762 -0.3940
25653SOL     OW79913   9.932   5.153   1.238  0.1688 -0.4489 -0.4202
25653SOL    HW179914   9.974   5.102   1.170 -0.5459 -0.1680 -1.0893
25653SOL    HW279915   9.998   5.217   1.265  0.7752 -1.1746 -0.1655
25654SOL     OW79916   0.619   7.675   1.591 -0.3478  0.1870 -0.2856
25654SOL    HW179917   0.690   7.667   1.655 -0.0291 -1.1706 -0.7822
25654SOL    HW279918   0.662   7.707   1.512 -0.4887  0.4152 -0.2716
25655SOL     OW79919   5.842   5.426   6.562 -0.3829 -0.2807  0.5054
25655SOL    HW179920   5.863   5.518   6.580 -0.3151  1.0572 -4.6957
25655SOL    HW279921   5.924   5.379   6.578  1.3929  1.6910 -2.0331
25656SOL     OW79922   4.153   3.852  10.560  0.7472 -0.1616 -0.6929
25656SOL    HW179923   4.131   3.898  10.479 -0.3393 -0.2963 -0.4897
25656SOL    HW279924   4.084   3.877  10.622  1.0726 -0.7555 -0.0731
25657SOL     OW79925   3.685   6.066   9.690  0.5074  0.5798  0.3769
25657SOL    HW179926   3.756   6.008   9.720  0.6072  1.3839  1.8107
25657SOL    HW279927   3.611   6.007   9.675  1.1690 -0.1451 -0.1345
25658SOL     OW79928   4.707   8.881   8.584  0.6817  0.2317  0.0098
25658SOL    HW179929   4.767   8.888   8.509  0.0765 -1.4471 -0.6930
25658SOL    HW279930   4.761   8.897   8.660  1.7018  0.2453 -0.7008
25659SOL     OW79931   0.197   1.735   0.043 -0.1596 -0.0972  0.7199
25659SOL    HW179932   0.282   1.691   0.046  0.1597  0.3276 -1.2037
25659SOL    HW279933   0.151   1.695  -0.030 -1.4014  0.0940  1.3708
25660SOL     OW79934   2.344  10.235   6.202 -0.7894  0.2593  0.0605
25660SOL    HW179935   2.352  10.251   6.296  1.3589  1.6245 -0.2967
25660SOL    HW279936   2.418  10.178   6.181  1.2601  3.2213 -1.4008
25661SOL     OW79937   5.608   5.798   9.187  0.0413  0.2671  0.0850
25661SOL    HW179938   5.676   5.743   9.149  0.3759  2.1613 -2.3570
25661SOL    HW279939   5.640   5.820   9.274  1.6029 -0.4972 -0.2592
25662SOL     OW79940   6.150   4.375   5.110 -0.5857 -0.0057  0.1786
25662SOL    HW179941   6.115   4.459   5.142  0.6266  1.0518 -1.1596
25662SOL    HW279942   6.074   4.330   5.073 -1.0537  1.0513 -0.1878
25663SOL     OW79943   1.214   2.425   3.198 -0.3330 -0.6400 -0.6334
25663SOL    HW179944   1.181   2.341   3.228  0.1582 -0.6321 -0.0486
25663SOL    HW279945   1.265   2.459   3.272 -1.0168  0.4420 -0.6304
25664SOL     OW79946   6.523   1.615   2.952  0.3523 -0.0381  0.1664
25664SOL    HW179947   6.440   1.661   2.968 -0.2327 -1.3296  0.9994
25664SOL    HW279948   6.546   1.638   2.862 -1.7124 -0.8196 -0.6257
25665SOL     OW79949   1.307   4.506   8.155  0.6022 -0.1993  0.2645
25665SOL    HW179950   1.385   4.512   8.100 -0.0554 -1.4248 -0.8850
25665SOL    HW279951   1.286   4.412   8.154 -1.1456  0.1712  0.1374
25666SOL     OW79952   9.497   9.870   4.079  0.5647  0.0791 -0.0519
25666SOL    HW179953   9.482   9.841   4.169  1.6285 -1.6298 -0.3776
25666SOL    HW279954   9.409   9.877   4.042  0.1431  0.2429  0.9473
25667SOL     OW79955   2.166   7.198   2.062  0.2754  0.0354  0.2829
25667SOL    HW179956   2.224   7.253   2.113  1.1000 -0.0977 -0.4997
25667SOL    HW279957   2.156   7.118   2.114  0.3254  0.2882  0.6811
25668SOL     OW79958   8.730   0.114   8.419 -0.6790 -0.1215 -0.0261
25668SOL    HW179959   8.798   0.083   8.479 -0.2640  0.8946  0.0405
25668SOL    HW279960   8.759   0.085   8.332  1.3796  2.7086 -0.4146
25669SOL     OW79961   3.041   7.007   4.883  0.6812  0.1209 -0.5249
25669SOL    HW179962   3.072   7.090   4.848  1.8393 -0.9753 -2.2403
25669SOL    HW279963   2.947   7.007   4.867  0.6873  1.0448 -0.5860
25670SOL     OW79964   9.947  10.257   1.815 -0.0887 -0.2112  0.4550
25670SOL    HW179965   9.942  10.185   1.878  0.4990  0.1516  0.9286
25670SOL    HW279966  10.035  10.293   1.827  0.2158 -0.4410 -0.9132
25671SOL     OW79967   2.700  10.123   9.274  0.3758 -0.4809 -0.8965
25671SOL    HW179968   2.757  10.160   9.341  0.2860 -1.5832 -0.1687
25671SOL    HW279969   2.758  10.105   9.200  0.6931 -0.2608 -0.7046
25672SOL     OW79970   6.266   9.227   8.423  0.1567 -0.0590  0.0747
25672SOL    HW179971   6.296   9.142   8.391  0.5007  0.5471 -1.3155
25672SOL    HW279972   6.176   9.235   8.389 -0.0701 -0.0877  0.6572
25673SOL     OW79973   7.940   1.576  10.088  0.0884 -0.0176  0.6335
25673SOL    HW179974   7.859   1.613  10.123 -0.4687  1.9451 -2.3411
25673SOL    HW279975   7.911   1.509  10.026  0.6708  0.6116 -0.3598
25674SOL     OW79976   3.898   0.379   9.677  0.5983 -0.2278  0.3776
25674SOL    HW179977   3.819   0.430   9.660  1.0331  1.1047  1.9979
25674SOL    HW279978   3.917   0.335   9.594 -1.5894 -0.2812 -0.1689
25675SOL     OW79979   2.242   2.514   0.394 -0.6346 -0.0746 -0.0354
25675SOL    HW179980   2.279   2.541   0.478  0.9024 -0.2863 -0.6264
25675SOL    HW279981   2.217   2.595   0.351 -0.3765  0.1033  0.1483
25676SOL     OW79982   0.265   6.972   7.095  0.5116  0.7794 -0.3202
25676SOL    HW179983   0.243   6.947   7.006  0.6301  1.1276 -0.4484
25676SOL    HW279984   0.182   6.967   7.143  0.8083 -1.4992  0.0669
25677SOL     OW79985   9.379   5.456   3.421  0.2273 -0.2839  0.5637
25677SOL    HW179986   9.439   5.394   3.380 -2.0047 -1.1642 -1.5613
25677SOL    HW279987   9.375   5.530   3.360 -0.4888 -0.0066  0.9337
25678SOL     OW79988   0.639   9.064  10.256 -0.5963  0.4350  0.4167
25678SOL    HW179989   0.654   9.150  10.217  0.0350  1.0361  1.9050
25678SOL    HW279990   0.546   9.047  10.244 -0.7300  1.3385  0.1437
25679SOL     OW79991   2.614   2.384   3.526 -0.5505 -0.5351 -0.2722
25679SOL    HW179992   2.580   2.429   3.449 -0.2381 -0.4556 -0.3632
25679SOL    HW279993   2.687   2.332   3.493 -0.0833 -0.0976  0.0607
25680SOL     OW79994   3.539   6.194   3.096 -0.0565  0.0136  0.1729
25680SOL    HW179995   3.611   6.162   3.151  0.1300 -0.6209 -0.4390
25680SOL    HW279996   3.466   6.135   3.114 -0.4503  0.6573  0.7942
25681SOL     OW79997   9.038   3.685   9.930  0.3469 -0.2427 -0.4328
25681SOL    HW179998   9.022   3.669   9.837  1.2890 -0.6586 -0.5440
25681SOL    HW279999   9.129   3.716   9.933 -0.1371  1.2041  0.2077
25682SOL     OW80000   4.920   7.748   2.634 -0.1785  0.1625 -0.6233
25682SOL    HW180001   4.907   7.725   2.542  2.3189  0.0407 -1.0239
25682SOL    HW280002   5.014   7.733   2.649 -0.1570  1.9181  1.4553
25683SOL     OW80003   8.545   4.448   2.187  0.2341  0.6032  0.0339
25683SOL    HW180004   8.626   4.486   2.153  0.0781 -0.5919 -1.8302
25683SOL    HW280005   8.572   4.403   2.268  1.6942 -0.6991 -1.1072
25684SOL     OW80006   2.661   7.380   1.512 -0.1344  0.2276 -0.6697
25684SOL    HW180007   2.639   7.362   1.603  1.2853 -0.8646 -0.4952
25684SOL    HW280008   2.584   7.352   1.463 -1.0531  1.1439  0.2030
25685SOL     OW80009   8.039   9.345   1.103 -0.2729  0.2203  0.5121
25685SOL    HW180010   8.029   9.363   1.009 -0.2113 -0.5582  0.3531
25685SOL    HW280011   8.133   9.327   1.114 -0.2498  0.4880  0.7549
25686SOL     OW80012   1.971   5.059   5.703 -0.4292  0.4903  0.6079
25686SOL    HW180013   1.903   5.051   5.636  0.0922 -0.1591  0.1422
25686SOL    HW280014   1.950   4.990   5.766 -1.2583  1.4749  1.4378
25687SOL     OW80015  10.057   8.046   0.888 -0.5905  0.4483 -0.1438
25687SOL    HW180016  10.092   8.003   0.966  1.9326  1.3965 -0.6781
25687SOL    HW280017  10.043   7.974   0.826 -0.8786 -0.0923  0.5203
25688SOL     OW80018   7.176   7.857   5.670  0.1482  0.3316 -0.0161
25688SOL    HW180019   7.265   7.819   5.667 -0.8231 -2.0960 -1.1801
25688SOL    HW280020   7.150   7.864   5.578 -0.3507  2.4976  0.2356
25689SOL     OW80021   8.018   4.808   3.580 -0.0031  0.4048 -0.4928
25689SOL    HW180022   8.103   4.813   3.536 -0.1029 -0.5919 -0.8381
25689SOL    HW280023   7.979   4.895   3.568  1.7651  1.5396  1.3981
25690SOL     OW80024   4.843   7.384   3.256 -0.5982  0.1203 -0.0219
25690SOL    HW180025   4.881   7.454   3.310 -1.4043  0.6323 -0.0996
25690SOL    HW280026   4.749   7.395   3.266 -0.7418 -0.6192 -0.4829
25691SOL     OW80027   5.096   3.944   3.491  0.6882 -0.6765 -0.3879
25691SOL    HW180028   5.167   3.916   3.549 -0.5437 -0.9645  1.0411
25691SOL    HW280029   5.086   4.038   3.509  0.2472 -0.7840 -0.0441
25692SOL     OW80030   6.679   5.024   8.399 -0.3081 -0.0104 -0.4879
25692SOL    HW180031   6.735   5.091   8.438  0.8935 -0.5858 -1.1876
25692SOL    HW280032   6.591   5.061   8.405  0.1579  1.0231  0.3971
25693SOL     OW80033   2.542   9.824   5.474 -0.0644 -0.0327 -0.4185
25693SOL    HW180034   2.454   9.803   5.507 -0.6988 -0.2480 -2.1100
25693SOL    HW280035   2.583   9.738   5.460 -0.5532 -0.0517 -1.9826
25694SOL     OW80036   7.900   5.521   2.444  0.6339  0.1641 -0.5168
25694SOL    HW180037   7.851   5.525   2.362 -3.1820 -1.5781  1.4017
25694SOL    HW280038   7.877   5.602   2.490  0.8726  0.0477 -0.1878
25695SOL     OW80039   2.614   7.152   3.368  0.0136 -0.4719  0.3220
25695SOL    HW180040   2.626   7.245   3.352  2.4289 -0.3741  2.0302
25695SOL    HW280041   2.637   7.109   3.285  2.7328  0.3505  0.5550
25696SOL     OW80042   1.661   0.594   0.691 -0.4793  0.5974 -0.5498
25696SOL    HW180043   1.606   0.601   0.769 -0.5424 -2.1191 -0.2536
25696SOL    HW280044   1.601   0.611   0.618 -1.6945 -1.8105 -0.2105
25697SOL     OW80045  10.406  10.323   6.198 -0.1736  0.5964  0.0736
25697SOL    HW180046  10.460  10.401   6.212  0.9036 -0.0257 -0.4376
25697SOL    HW280047  10.425  10.267   6.273 -1.0155  0.8499  0.4863
25698SOL     OW80048   6.009   9.684   5.838  0.3605  0.1001 -0.0429
25698SOL    HW180049   6.038   9.658   5.926  1.1770 -0.2977 -0.4219
25698SOL    HW280050   5.960   9.608   5.806  1.4494 -0.4043 -0.5556
25699SOL     OW80051   3.960   9.036   9.559 -0.2748  1.2210  0.0973
25699SOL    HW180052   4.025   8.992   9.504 -1.7594  0.5897 -1.1955
25699SOL    HW280053   4.013   9.087   9.622  1.4589 -0.1166 -0.2086
25700SOL     OW80054   2.656   3.192   3.734  0.0869  0.0328  0.0232
25700SOL    HW180055   2.590   3.179   3.666 -0.3330  0.3953  0.3560
25700SOL    HW280056   2.740   3.189   3.687 -0.1440 -0.7014 -0.3612
25701SOL     OW80057   3.097   8.150   5.583  0.1976 -0.2214 -0.3869
25701SOL    HW180058   3.119   8.236   5.549  1.8489 -0.9799 -1.3702
25701SOL    HW280059   3.048   8.107   5.513 -1.0227  0.0477  0.2728
25702SOL     OW80060   9.977   4.819   1.196  0.9344 -0.1536  0.1839
25702SOL    HW180061   9.963   4.824   1.102  1.7655 -1.4346 -0.0368
25702SOL    HW280062   9.932   4.896   1.232  0.8402  0.4988 -1.2731
25703SOL     OW80063   9.904   1.288  10.106 -0.8382 -0.0531 -0.4405
25703SOL    HW180064   9.854   1.335  10.172 -4.2080 -2.4411 -1.0290
25703SOL    HW280065   9.951   1.220  10.155  0.5703  1.1522 -0.0648
25704SOL     OW80066   4.811   7.138   1.357 -0.0325 -0.3118  0.2294
25704SOL    HW180067   4.751   7.084   1.306  0.0316 -1.3917  1.2623
25704SOL    HW280068   4.839   7.206   1.296 -3.2503  1.0147  0.0384
25705SOL     OW80069   9.368   9.823   5.748 -0.2538 -0.1174 -0.1799
25705SOL    HW180070   9.451   9.813   5.795  1.3927  1.3226 -2.5336
25705SOL    HW280071   9.330   9.735   5.746  2.0968 -1.1984 -0.5018
25706SOL     OW80072   9.064   9.174   5.580 -0.4103  0.0014  0.2354
25706SOL    HW180073   8.977   9.176   5.619 -0.1534  2.1023  0.8458
25706SOL    HW280074   9.073   9.086   5.543 -2.5436 -0.4326  0.6683
25707SOL     OW80075   4.587   2.715   0.059  0.2322  0.5642  0.3605
25707SOL    HW180076   4.574   2.661  -0.019 -0.5905 -1.5584  1.8928
25707SOL    HW280077   4.522   2.784   0.051  0.5012  0.6926 -1.0571
25708SOL     OW80078   8.695   7.482   8.145  0.5409  0.4232 -0.0231
25708SOL    HW180079   8.676   7.573   8.164 -1.5014 -0.2156  1.2996
25708SOL    HW280080   8.689   7.475   8.050 -1.6341  1.2350  0.0097
25709SOL     OW80081   6.765   8.296   8.394 -0.3741  0.4046  0.3916
25709SOL    HW180082   6.784   8.229   8.459  0.0395  1.4989  1.4262
25709SOL    HW280083   6.681   8.269   8.356  0.6217 -1.6588 -0.5155
25710SOL     OW80084   2.026   1.413   6.226 -0.2741 -0.3483  0.1423
25710SOL    HW180085   1.992   1.447   6.309 -1.7786 -0.0616 -0.5515
25710SOL    HW280086   2.117   1.443   6.224  0.5527 -2.3166  2.7134
25711SOL     OW80087   8.926   6.866   0.576 -0.2057 -0.3350 -0.7693
25711SOL    HW180088   8.904   6.828   0.491  0.7966 -0.1282 -1.1305
25711SOL    HW280089   8.879   6.811   0.639 -0.2183 -1.0596 -1.3893
25712SOL     OW80090   2.704   5.518   7.946  0.3413 -0.6509 -0.0225
25712SOL    HW180091   2.742   5.541   7.861 -1.4231  0.0344 -0.6712
25712SOL    HW280092   2.711   5.422   7.950  3.2176 -0.5027  0.4740
25713SOL     OW80093   9.091   2.239   6.129  0.3920  0.3960 -0.5060
25713SOL    HW180094   9.075   2.327   6.094 -1.7206  0.9261  1.5452
25713SOL    HW280095   9.129   2.255   6.216  0.8679 -0.7578 -0.4894
25714SOL     OW80096   7.266   6.377   0.463 -0.5552 -0.1667  0.5211
25714SOL    HW180097   7.213   6.353   0.539 -1.5269 -0.6243 -0.2862
25714SOL    HW280098   7.224   6.333   0.389  0.1438  0.5875 -0.3472
25715SOL     OW80099   5.023   9.468   0.129  0.0941 -0.0330  0.1240
25715SOL    HW180100   4.928   9.473   0.122 -0.1493 -1.0598  2.0427
25715SOL    HW280101   5.052   9.558   0.111 -1.2254  0.3150 -0.4298
25716SOL     OW80102  10.227   7.095   1.857 -0.1646  0.5206 -0.3810
25716SOL    HW180103  10.272   7.173   1.887  0.3763  0.0709 -0.0026
25716SOL    HW280104  10.290   7.024   1.869 -1.5219 -0.4202  1.8625
25717SOL     OW80105   6.747   8.371   6.971 -0.1534  0.2851 -0.4653
25717SOL    HW180106   6.820   8.394   7.028 -0.3819  0.2994 -0.1760
25717SOL    HW280107   6.787   8.328   6.896  0.1354  0.1179 -0.2149
25718SOL     OW80108   1.726   1.047   2.922 -0.1775  0.5241  0.5316
25718SOL    HW180109   1.659   1.010   2.864  0.6949  0.0991 -0.2550
25718SOL    HW280110   1.797   0.982   2.919  0.6988  1.4639  0.4691
25719SOL     OW80111   2.737  10.190   2.819  0.0568  1.1276  0.0835
25719SOL    HW180112   2.813  10.146   2.857 -1.2450  0.1780  1.7046
25719SOL    HW280113   2.669  10.123   2.815 -0.7713  1.9883 -1.1796
25720SOL     OW80114   8.072   1.111   2.050  0.7310 -0.4033 -0.4720
25720SOL    HW180115   8.077   1.177   1.982 -0.3409  2.0662  1.6759
25720SOL    HW280116   7.984   1.074   2.041  0.4416  0.2087 -0.2032
25721SOL     OW80117   2.840   7.307   8.939  0.6991 -0.3182 -0.6746
25721SOL    HW180118   2.770   7.321   9.002  1.0304 -0.0038 -0.3775
25721SOL    HW280119   2.805   7.341   8.856  0.1309 -1.0556 -0.7451
25722SOL     OW80120   0.064   8.247   9.989  0.7457 -0.3701 -0.3771
25722SOL    HW180121   0.089   8.241  10.081 -0.0469  0.5645 -0.0805
25722SOL    HW280122  -0.026   8.214   9.987  1.4776 -2.4782 -1.2067
25723SOL     OW80123   1.519   5.530   0.455 -0.1108 -0.5128 -0.0632
25723SOL    HW180124   1.577   5.465   0.494 -0.2720 -2.9800 -3.4042
25723SOL    HW280125   1.451   5.545   0.520  1.6581 -1.1956  2.0629
25724SOL     OW80126   3.816   8.909   1.325 -0.1616 -0.0454  0.1049
25724SOL    HW180127   3.816   8.941   1.415  0.0066 -2.5802  1.0985
25724SOL    HW280128   3.849   8.819   1.331  0.4276 -0.1063 -2.5866
25725SOL     OW80129   4.874   6.491   5.142 -0.6157 -0.2820 -0.3047
25725SOL    HW180130   4.897   6.424   5.078  0.4750  0.6927 -0.9784
25725SOL    HW280131   4.943   6.487   5.207 -1.0327 -0.4015  0.1360
25726SOL     OW80132   5.902   1.267   2.607  0.1756 -0.2484 -0.6344
25726SOL    HW180133   5.881   1.352   2.645 -2.7192 -1.7950  1.6154
25726SOL    HW280134   5.914   1.285   2.514 -1.2840  2.4857 -0.3972
25727SOL     OW80135  10.548  10.018   2.184 -0.2678 -0.2499 -0.8356
25727SOL    HW180136  10.638   9.993   2.166  0.3190  0.8108  0.4772
25727SOL    HW280137  10.495   9.959   2.130  1.1451 -1.8709 -0.5148
25728SOL     OW80138   2.937   2.652   6.431  0.0952  0.0933  0.1397
25728SOL    HW180139   2.926   2.637   6.525 -0.1210  1.7805  0.4264
25728SOL    HW280140   2.870   2.718   6.410 -0.7529 -1.2280 -1.4927
25729SOL     OW80141   0.336   4.480   8.642 -0.6855 -0.1816 -0.3215
25729SOL    HW180142   0.288   4.408   8.602 -1.7038  0.0133  0.4945
25729SOL    HW280143   0.412   4.438   8.683 -1.2692 -0.8028  0.1494
25730SOL     OW80144   9.994   8.904   4.505  0.4791  0.0303 -0.1844
25730SOL    HW180145  10.079   8.898   4.549 -0.0766  1.0344  1.0973
25730SOL    HW280146   9.933   8.931   4.574 -1.5176 -3.4964 -0.3632
25731SOL     OW80147   1.116   8.684   1.988 -0.1660 -0.1909 -0.0248
25731SOL    HW180148   1.138   8.767   2.029  0.6893 -1.0691  1.4113
25731SOL    HW280149   1.192   8.628   2.004 -0.4482 -1.0737 -1.5070
25732SOL     OW80150   9.690   8.917   9.017 -0.1071 -0.1739  0.0483
25732SOL    HW180151   9.641   8.921   8.935 -0.7322 -1.9250  0.2912
25732SOL    HW280152   9.776   8.953   8.996  0.2353 -1.8957 -1.7806
25733SOL     OW80153   8.615   4.979   5.643 -0.4530 -0.1452 -0.5125
25733SOL    HW180154   8.666   4.898   5.640  0.7738  0.5954 -0.7046
25733SOL    HW280155   8.610   5.007   5.551  0.1881  0.6051 -0.3314
25734SOL     OW80156  10.352   1.730   0.238 -0.0144  0.4132 -0.0296
25734SOL    HW180157  10.339   1.670   0.312 -0.2957  0.2316 -0.2262
25734SOL    HW280158  10.348   1.817   0.278 -1.0253  0.3462  0.0528
25735SOL     OW80159   5.053   5.864   7.421 -0.5787  0.1266 -0.0602
25735SOL    HW180160   5.124   5.838   7.480 -1.6714 -1.9430  0.4220
25735SOL    HW280161   5.090   5.855   7.333  0.4254  1.2615  0.2216
25736SOL     OW80162   8.911   2.338   3.030 -0.2308 -0.6906  0.4347
25736SOL    HW180163   8.859   2.403   2.984 -1.2157 -2.2207 -0.7061
25736SOL    HW280164   8.861   2.319   3.110 -0.0182 -0.1831  0.6926
25737SOL     OW80165   6.645   9.615   9.160  0.1171  0.1186  0.3026
25737SOL    HW180166   6.686   9.534   9.190 -0.8322 -0.3610  0.3484
25737SOL    HW280167   6.708   9.684   9.183  0.2420 -0.4317  1.7047
25738SOL     OW80168   7.154   1.832   3.704 -0.6791  0.3321  0.0090
25738SOL    HW180169   7.170   1.859   3.614 -1.3500  0.0781 -0.1917
25738SOL    HW280170   7.058   1.829   3.712 -0.6472  1.2322  0.9998
25739SOL     OW80171   8.377   6.956   8.643 -0.4684  0.1830  0.3163
25739SOL    HW180172   8.472   6.950   8.629 -0.4934 -0.0922  0.2691
25739SOL    HW280173   8.361   7.050   8.652  0.0961  0.1381  2.3392
25740SOL     OW80174   8.700   2.839   2.029  0.0515  0.2825  0.2994
25740SOL    HW180175   8.638   2.901   1.990  0.2964  0.6970  0.5561
25740SOL    HW280176   8.752   2.892   2.090  0.1966 -0.2002  0.6020
25741SOL     OW80177   1.153   8.891   0.187 -0.3263  0.2465  0.2166
25741SOL    HW180178   1.080   8.840   0.150 -0.4516  2.1142 -2.4174
25741SOL    HW280179   1.142   8.884   0.281 -3.3403 -0.3714 -0.0709
25742SOL     OW80180   9.540   2.495   0.576  0.2960  0.2337 -0.1397
25742SOL    HW180181   9.566   2.407   0.604 -1.0114 -0.8612 -2.0996
25742SOL    HW280182   9.612   2.552   0.604  1.4911 -1.5541  0.5878
25743SOL     OW80183   1.887   7.202   6.510  0.0844 -0.4970  0.1185
25743SOL    HW180184   1.885   7.150   6.429  1.0439  0.4540 -0.5443
25743SOL    HW280185   1.827   7.156   6.569 -0.3350 -1.4405 -0.9901
25744SOL     OW80186   7.009   8.115   9.573 -0.0829 -0.1908  0.5755
25744SOL    HW180187   6.990   8.142   9.483  0.4666 -1.3400  0.0855
25744SOL    HW280188   7.089   8.162   9.596 -1.2145  1.5167  1.1534
25745SOL     OW80189   2.219   4.469   9.343  0.0776  0.1860 -0.2660
25745SOL    HW180190   2.302   4.513   9.323  0.4591 -0.3811  0.0261
25745SOL    HW280191   2.156   4.509   9.283  0.9114 -0.5355 -1.6791
25746SOL     OW80192   6.390   9.500   2.852  0.1579  0.1551 -0.4970
25746SOL    HW180193   6.317   9.457   2.897  0.9744 -0.2349  0.5106
25746SOL    HW280194   6.439   9.543   2.923  0.8821  0.4412 -1.1590
25747SOL     OW80195   4.859  10.315   0.601 -0.7477  0.2088 -0.4540
25747SOL    HW180196   4.894  10.398   0.568 -1.7447  1.4438  1.3897
25747SOL    HW280197   4.895  10.249   0.542  1.5647  1.7405 -0.9284
25748SOL     OW80198  10.096   4.766  10.437 -0.1036 -0.2105 -0.3531
25748SOL    HW180199  10.090   4.834  10.505  1.1581  1.3815 -1.7311
25748SOL    HW280200  10.168   4.710  10.465 -1.8123 -1.6891  1.3229
25749SOL     OW80201   8.165  10.079   5.179  0.6507 -0.4442 -0.3503
25749SOL    HW180202   8.085  10.080   5.126  0.2129  1.1112  0.2964
25749SOL    HW280203   8.150  10.145   5.247  0.1146 -3.8960  3.3496
25750SOL     OW80204   0.664   9.753   1.287  0.0048 -0.2921 -0.1247
25750SOL    HW180205   0.665   9.680   1.224 -0.3648  0.3761 -0.9263
25750SOL    HW280206   0.571   9.766   1.306  0.0496  0.1488 -0.2079
25751SOL     OW80207   9.410   5.632   8.478  0.3624 -0.1133 -0.3735
25751SOL    HW180208   9.315   5.629   8.475  0.2526  1.2515  0.6671
25751SOL    HW280209   9.439   5.563   8.417 -1.2670 -0.6651 -0.5556
25752SOL     OW80210   4.633   7.745   5.823 -0.2072  0.5173  0.3704
25752SOL    HW180211   4.572   7.817   5.844 -0.4364  0.6124 -0.5444
25752SOL    HW280212   4.608   7.719   5.734  0.5576 -0.0019  0.3007
25753SOL     OW80213   1.908   9.782   2.936  0.6586  0.3767  0.2844
25753SOL    HW180214   1.927   9.696   2.898  0.7150 -0.3248  1.8194
25753SOL    HW280215   1.901   9.765   3.030 -0.8063  1.8039  0.4657
25754SOL     OW80216   0.915   9.765   0.436 -0.4299 -0.0662 -0.9661
25754SOL    HW180217   0.852   9.702   0.471  0.6141 -1.3107 -1.2846
25754SOL    HW280218   0.860   9.832   0.395 -1.5646 -0.7687 -0.6565
25755SOL     OW80219  10.486   9.867   8.585  0.4265 -0.1272  0.1847
25755SOL    HW180220  10.502   9.955   8.551 -0.3789  0.1562  0.5239
25755SOL    HW280221  10.395   9.849   8.563 -0.5232  0.5231  3.1334
25756SOL     OW80222   0.429   0.703   5.622  0.0550 -0.3518 -0.1874
25756SOL    HW180223   0.516   0.742   5.628 -1.0797  2.1346  1.4004
25756SOL    HW280224   0.420   0.653   5.703  0.0139 -0.6554 -0.3778
25757SOL     OW80225  10.053   5.296   8.696  0.6075  0.0720  0.5042
25757SOL    HW180226  10.021   5.379   8.660  2.1094  1.4776  2.1899
25757SOL    HW280227  10.141   5.287   8.660  0.2812 -1.0932 -0.0508
25758SOL     OW80228   5.752   6.317   2.758  0.2153 -0.3263  0.0726
25758SOL    HW180229   5.710   6.317   2.672  1.1537 -0.5475 -0.4043
25758SOL    HW280230   5.826   6.256   2.749  0.2460 -0.4659  1.0794
25759SOL     OW80231  10.090   1.853   1.341 -0.6977  0.5279 -0.2707
25759SOL    HW180232  10.102   1.763   1.311 -0.2741 -0.5803  2.8394
25759SOL    HW280233  10.172   1.898   1.317 -0.4003 -0.2653 -0.7682
25760SOL     OW80234   2.613   7.089   2.854  0.1602 -0.2467 -0.5590
25760SOL    HW180235   2.585   7.149   2.924  1.8155 -1.4594  1.2627
25760SOL    HW280236   2.693   7.128   2.819  0.0406 -0.2856 -0.8730
25761SOL     OW80237   6.042   5.236   4.902  0.7381  0.6537  0.1964
25761SOL    HW180238   6.110   5.266   4.963  0.6264 -0.9511  1.1685
25761SOL    HW280239   5.961   5.239   4.952  0.5450 -0.0702 -0.0472
25762SOL     OW80240   1.399   9.503   7.831  0.6838  0.2869  0.1997
25762SOL    HW180241   1.307   9.495   7.855  0.9635  0.3235  1.3131
25762SOL    HW280242   1.411   9.438   7.761 -0.2402  0.4836 -0.1538
25763SOL     OW80243   2.188   6.067   1.364  0.1233 -0.0918  0.4903
25763SOL    HW180244   2.097   6.089   1.387 -0.2920 -2.3653  1.2871
25763SOL    HW280245   2.227   6.038   1.446  0.0750 -3.6766 -0.5611
25764SOL     OW80246   9.135   0.740   4.457 -0.5404  0.6534 -0.1815
25764SOL    HW180247   9.125   0.782   4.372 -3.3167 -0.8621 -0.7173
25764SOL    HW280248   9.163   0.651   4.437  1.8616  1.1264  0.7444
25765SOL     OW80249   0.518   2.063   6.524  0.2730  0.7254 -0.0204
25765SOL    HW180250   0.586   1.997   6.539  0.2168  0.0527 -2.3015
25765SOL    HW280251   0.568   2.144   6.511  0.4748  0.7327  0.7655
25766SOL     OW80252   9.248   3.451   9.962  0.2113 -0.6338  0.2303
25766SOL    HW180253   9.270   3.373   9.911  0.9947  0.1591 -0.6773
25766SOL    HW280254   9.226   3.517   9.896  0.8940  0.3113  0.9284
25767SOL     OW80255   8.048   2.624   4.582 -0.3817  0.2783  0.4347
25767SOL    HW180256   8.024   2.716   4.574  0.0802  0.2987 -0.8767
25767SOL    HW280257   8.117   2.611   4.517 -0.3152 -0.9475  0.7299
25768SOL     OW80258   0.156   6.243   9.928 -0.1981  0.1108  0.5251
25768SOL    HW180259   0.075   6.192   9.923  0.1573 -0.5550  1.3989
25768SOL    HW280260   0.168   6.276   9.839  0.4139 -2.6805 -0.5331
25769SOL     OW80261  10.684   3.262   0.929 -0.4869  0.2703 -0.3575
25769SOL    HW180262  10.679   3.205   1.007  1.8571  1.0306  0.4194
25769SOL    HW280263  10.689   3.201   0.856  0.2455 -0.5245  0.3266
25770SOL     OW80264   1.322   4.004  10.161  0.2644 -0.0868  0.1230
25770SOL    HW180265   1.276   3.947  10.222  0.5666  0.4382  0.8565
25770SOL    HW280266   1.406   3.960  10.145  0.8443  0.5470  1.3429
25771SOL     OW80267   6.626   7.140   2.050  0.0715  0.9247  0.2733
25771SOL    HW180268   6.635   7.222   2.002 -0.2038  1.4752  1.1548
25771SOL    HW280269   6.633   7.072   1.982  0.5946  1.6527 -0.4229
25772SOL     OW80270   1.703   2.500   5.358 -0.2043 -0.2005 -0.2521
25772SOL    HW180271   1.647   2.577   5.366 -1.0542 -0.6535 -1.5040
25772SOL    HW280272   1.709   2.485   5.263 -0.5169 -2.0092 -0.0147
25773SOL     OW80273   1.864   2.477   0.408 -0.0253 -0.5080  0.6301
25773SOL    HW180274   1.877   2.405   0.346  1.6447 -0.4471  0.8468
25773SOL    HW280275   1.930   2.462   0.476  2.9101  3.0375 -1.0504
25774SOL     OW80276   0.365   9.117   7.282  0.4694  0.3372  0.0775
25774SOL    HW180277   0.279   9.125   7.242  1.0567 -0.1871 -1.3600
25774SOL    HW280278   0.359   9.039   7.338 -0.4432  1.2385  1.2908
25775SOL     OW80279   6.331   7.027   5.499 -0.0480 -0.1894  0.4275
25775SOL    HW180280   6.422   7.021   5.469 -0.2928 -0.2339 -0.3383
25775SOL    HW280281   6.335   7.078   5.579  0.6001  0.2110  0.1445
25776SOL     OW80282   2.614   9.053   0.039  0.2772 -0.3117 -0.3438
25776SOL    HW180283   2.535   9.013   0.075  0.9582 -0.4701  1.0509
25776SOL    HW280284   2.591   9.145   0.026  0.0160 -0.2449  0.5436
25777SOL     OW80285   5.719   0.217   4.992 -0.6343  0.1020 -0.2979
25777SOL    HW180286   5.766   0.299   5.009  0.0921  0.0339 -1.7844
25777SOL    HW280287   5.787   0.157   4.961 -0.5271 -2.1281  3.5982
25778SOL     OW80288   9.173   7.131   7.117  0.2450 -0.4205  0.1301
25778SOL    HW180289   9.177   7.226   7.120 -0.1661 -0.4163  0.8716
25778SOL    HW280290   9.087   7.109   7.153 -0.1229 -1.0388 -1.0684
25779SOL     OW80291   9.121   2.955   9.969  0.3232  0.5275  0.1515
25779SOL    HW180292   9.080   2.877  10.007 -0.6678  0.0304 -1.8063
25779SOL    HW280293   9.055   3.024   9.981  1.0464  1.0212  1.5416
25780SOL     OW80294   2.278   2.479   4.701  0.4394  0.1980 -0.5124
25780SOL    HW180295   2.293   2.389   4.671 -2.4536 -1.3015  1.9749
25780SOL    HW280296   2.306   2.534   4.628  1.7494 -2.7148 -2.3846
25781SOL     OW80297   9.561  10.250   6.088  0.0717  0.0519 -0.8171
25781SOL    HW180298   9.649  10.287   6.090 -0.5294  1.5095 -0.4388
25781SOL    HW280299   9.523  10.284   6.008 -0.0027 -0.9519 -1.2160
25782SOL     OW80300   7.092   2.767  10.249  0.0420  0.6743  0.1546
25782SOL    HW180301   7.131   2.782  10.335  2.2930 -0.8102 -0.5391
25782SOL    HW280302   7.153   2.708  10.204 -3.3291 -2.4562 -0.7970
25783SOL     OW80303   7.373   8.291   6.988 -0.3935  0.1074 -0.2154
25783SOL    HW180304   7.352   8.382   7.009  0.8721  0.2627  0.4865
25783SOL    HW280305   7.350   8.243   7.068  0.3373  0.0407 -0.0404
25784SOL     OW80306   4.603   5.180   6.917 -0.5127  0.9601 -0.0704
25784SOL    HW180307   4.527   5.238   6.918 -0.2538  1.3125  1.7476
25784SOL    HW280308   4.673   5.233   6.956  0.3811  0.2600 -0.7004
25785SOL     OW80309   8.046   0.194   0.449  0.4303 -0.2431 -0.2776
25785SOL    HW180310   8.048   0.274   0.501  0.2636 -0.7847  0.5805
25785SOL    HW280311   7.990   0.215   0.375 -1.6711 -0.3131  1.2173
25786SOL     OW80312   7.567   3.605   7.235  0.4345 -0.1125 -0.0949
25786SOL    HW180313   7.491   3.652   7.199  1.1953  1.1708 -0.0785
25786SOL    HW280314   7.564   3.625   7.329  0.7835 -0.0778 -0.0929
25787SOL     OW80315   8.940   2.099   0.101 -0.0743 -0.2387  0.5951
25787SOL    HW180316   8.879   2.170   0.120  0.8404  0.4831  0.9319
25787SOL    HW280317   8.884   2.023   0.084 -1.1231  0.8561 -1.1505
25788SOL     OW80318  10.511   5.003   5.716  0.1871 -0.0372 -0.2184
25788SOL    HW180319  10.478   4.919   5.749 -0.9740  0.6635  0.4939
25788SOL    HW280320  10.438   5.064   5.729  1.5243  1.4408  0.7418
25789SOL     OW80321   2.664   1.958   6.202 -0.1018  0.0263 -0.4565
25789SOL    HW180322   2.634   2.022   6.266  0.2998  0.7512 -0.9773
25789SOL    HW280323   2.648   2.000   6.117  0.7052 -0.3225 -0.7893
25790SOL     OW80324   2.661   7.050   6.570  0.3363  0.1959  0.0675
25790SOL    HW180325   2.628   7.047   6.480  1.3925 -0.7629 -0.3025
25790SOL    HW280326   2.687   6.960   6.589  3.6843  1.0284 -0.0342
25791SOL     OW80327   7.712   2.963   0.300  0.6830  0.2839  0.0250
25791SOL    HW180328   7.754   2.963   0.386 -2.4527 -0.7478  1.6859
25791SOL    HW280329   7.638   2.904   0.309  0.3210  0.0185 -3.4852
25792SOL     OW80330   3.870   8.684  10.284 -0.1572  0.3129 -0.3791
25792SOL    HW180331   3.820   8.664  10.205 -0.1771  0.1366 -0.3213
25792SOL    HW280332   3.822   8.757  10.325 -0.2506  0.2802 -0.4315
25793SOL     OW80333   8.543   3.710   3.216  0.2374 -0.1449  0.4085
25793SOL    HW180334   8.632   3.698   3.180  0.8706  0.0497  1.8560
25793SOL    HW280335   8.490   3.732   3.139  1.4931  0.0222 -0.4569
25794SOL     OW80336   7.439   8.638   7.307  0.5602 -0.4315 -0.6115
25794SOL    HW180337   7.409   8.622   7.217  1.0026 -0.5874 -0.7293
25794SOL    HW280338   7.519   8.689   7.297  0.7111 -0.6066 -0.3066
25795SOL     OW80339   5.987   9.801  10.315 -0.3872 -0.0085  0.0284
25795SOL    HW180340   5.995   9.816  10.221  0.2733  1.7766  0.3373
25795SOL    HW280341   5.894   9.783  10.329 -0.4288 -0.6498 -0.9970
25796SOL     OW80342   7.845   2.346   6.475 -0.4850  0.4874 -0.1329
25796SOL    HW180343   7.848   2.411   6.546  1.3459  0.3933 -0.0918
25796SOL    HW280344   7.770   2.373   6.422 -1.0807  1.3418  1.0964
25797SOL     OW80345   6.516   7.123   3.765 -0.1018 -0.5057  0.1171
25797SOL    HW180346   6.566   7.048   3.733  1.1918  1.0251 -1.5841
25797SOL    HW280347   6.445   7.133   3.702 -0.0601 -0.0952  0.1339
25798SOL     OW80348   1.495   2.394   2.317 -0.2648 -0.1084 -0.0059
25798SOL    HW180349   1.550   2.471   2.302 -0.5968  0.0581 -0.3991
25798SOL    HW280350   1.452   2.411   2.401 -2.3421  1.3830 -1.2595
25799SOL     OW80351   6.331   8.205  10.481 -0.6357  0.0916  0.2408
25799SOL    HW180352   6.416   8.178  10.445  0.3098  1.5895  1.2596
25799SOL    HW280353   6.319   8.294  10.450 -0.0642  1.2397  2.9982
25800SOL     OW80354   2.861   8.684   2.331  0.1341 -0.3482 -0.0390
25800SOL    HW180355   2.796   8.628   2.288 -2.0280  1.4648  0.6715
25800SOL    HW280356   2.882   8.638   2.413  0.6998 -1.5229 -0.8173
25801SOL     OW80357   0.321   7.872   3.812  0.1514  0.0257 -0.1258
25801SOL    HW180358   0.296   7.787   3.775  0.3255 -0.4101  0.7051
25801SOL    HW280359   0.411   7.859   3.842  0.0157  0.3540  0.4352
25802SOL     OW80360   4.664   6.052   0.929 -0.1831  0.2779 -0.4020
25802SOL    HW180361   4.727   6.051   0.857 -0.3017  0.3483 -0.5077
25802SOL    HW280362   4.627   5.964   0.931  1.8231 -0.6381  1.3607
25803SOL     OW80363   3.157   7.099   9.241 -0.4655 -0.1618  0.1109
25803SOL    HW180364   3.130   7.020   9.193  0.0593 -0.2770 -0.0058
25803SOL    HW280365   3.248   7.113   9.213  0.5631 -1.4052  2.5643
25804SOL     OW80366   9.293   3.228   4.866  0.0598 -0.1192  0.4281
25804SOL    HW180367   9.254   3.202   4.949 -0.9321  1.0948  0.3688
25804SOL    HW280368   9.341   3.150   4.837  0.0555 -0.7048  1.9014
25805SOL     OW80369   5.252   0.834   1.317  0.3455  0.5183 -0.1599
25805SOL    HW180370   5.198   0.854   1.394 -1.9532 -0.5306 -1.4101
25805SOL    HW280371   5.330   0.791   1.353 -0.0553  1.2087  1.6408
25806SOL     OW80372  10.519   5.761   3.812 -0.5996 -0.1316  0.1683
25806SOL    HW180373  10.578   5.757   3.737 -1.0619 -0.3559 -0.1829
25806SOL    HW280374  10.549   5.690   3.869 -0.6955 -0.4198 -0.1368
25807SOL     OW80375   8.248   0.984   9.977 -0.2586  0.2180 -0.5620
25807SOL    HW180376   8.183   1.055   9.971  1.1679  1.7996  1.4939
25807SOL    HW280377   8.310   1.003   9.906 -0.8021 -0.0042 -1.1094
25808SOL     OW80378   6.313   6.957   0.328 -0.0510 -0.1369  0.1719
25808SOL    HW180379   6.243   6.974   0.392  0.8402 -1.5354  1.6031
25808SOL    HW280380   6.270   6.907   0.259 -0.4714 -1.1327  1.1159
25809SOL     OW80381   7.796   0.663   9.108  0.4162  0.2504 -0.2285
25809SOL    HW180382   7.780   0.693   9.198  1.8785  0.4203 -0.0007
25809SOL    HW280383   7.712   0.625   9.081 -0.6728  2.0100  0.4585
25810SOL     OW80384   2.773  10.244   4.002 -0.0356 -0.0228 -0.6127
25810SOL    HW180385   2.825  10.250   4.083 -0.7322 -0.5173 -0.1137
25810SOL    HW280386   2.683  10.227   4.033 -0.6208  1.4335 -1.4289
25811SOL     OW80387   1.425   7.926   8.754  0.4286 -0.3779  0.3790
25811SOL    HW180388   1.505   7.882   8.727  0.0393  0.1880 -1.8773
25811SOL    HW280389   1.355   7.865   8.732  0.0268  0.5187 -0.9575
25812SOL     OW80390  10.562   3.477  10.078 -0.1048 -0.1081  0.2451
25812SOL    HW180391  10.490   3.468  10.016 -0.4122 -0.0565  0.5934
25812SOL    HW280392  10.521   3.476  10.164 -0.0029  2.5997  0.4206
25813SOL     OW80393   8.901   1.601   3.933  0.1333 -0.5531  0.0084
25813SOL    HW180394   8.996   1.593   3.923 -0.0758 -0.5763 -2.4495
25813SOL    HW280395   8.872   1.512   3.955  0.7036 -0.4070  1.4842
25814SOL     OW80396   3.867   6.853   4.694 -0.6473  0.0633 -0.2119
25814SOL    HW180397   3.954   6.842   4.734 -0.7468 -1.0915 -0.2858
25814SOL    HW280398   3.869   6.941   4.657  0.0408  0.5382  0.9010
25815SOL     OW80399   4.800   5.840   9.919  0.2688 -0.0208 -0.0688
25815SOL    HW180400   4.727   5.852   9.979  0.0239  0.4790 -0.4624
25815SOL    HW280401   4.776   5.889   9.840  1.2253  0.5275 -0.0411
25816SOL     OW80402   6.514   2.980   4.007 -0.1084 -0.6778  0.1675
25816SOL    HW180403   6.603   3.002   4.035  0.1486  0.7624 -1.5986
25816SOL    HW280404   6.508   3.013   3.917 -2.9327  0.6776  0.7618
25817SOL     OW80405   6.643   3.941   3.305 -0.3092  0.1010  0.4837
25817SOL    HW180406   6.690   3.883   3.365 -1.3515 -0.3792  0.8611
25817SOL    HW280407   6.705   3.958   3.235  1.1592  1.1320  1.9426
25818SOL     OW80408  10.005   1.768   5.059 -0.5433 -0.2288  0.2990
25818SOL    HW180409   9.931   1.822   5.031  0.3402  0.0619 -1.5741
25818SOL    HW280410  10.077   1.793   5.001  0.9455 -0.7767  1.8245
25819SOL     OW80411   3.905   0.186   7.981  0.1563 -0.1391 -0.0148
25819SOL    HW180412   3.956   0.264   7.961  0.7126 -0.5177 -0.1096
25819SOL    HW280413   3.839   0.215   8.044 -0.4834  0.6814 -1.0450
25820SOL     OW80414   3.106   6.057   4.983 -0.4718 -0.1398 -0.5325
25820SOL    HW180415   3.124   6.146   4.952 -1.0446  0.5250  0.9322
25820SOL    HW280416   3.159   6.050   5.063 -0.7488 -0.9610 -0.4194
25821SOL     OW80417   8.123   5.781   9.819  0.4105 -0.0439 -0.2233
25821SOL    HW180418   8.195   5.834   9.787 -1.6000  2.6950 -0.5857
25821SOL    HW280419   8.073   5.759   9.741 -0.1316 -0.3373  0.1969
25822SOL     OW80420   4.610   3.249   0.527  0.1729 -0.0065 -0.6913
25822SOL    HW180421   4.574   3.201   0.452 -2.6035  0.6802  0.0855
25822SOL    HW280422   4.549   3.232   0.598  2.4602 -0.2298  1.3628
25823SOL     OW80423   9.969  10.033   4.039 -0.3153  0.0959 -0.0259
25823SOL    HW180424   9.950  10.124   4.062 -0.9611  0.0419 -0.3216
25823SOL    HW280425   9.891  10.004   3.991  0.1569 -0.4144 -0.4951
25824SOL     OW80426   8.550  10.508   7.161 -0.0175 -0.0007  0.1787
25824SOL    HW180427   8.639  10.511   7.196  0.2978 -0.0362 -0.5966
25824SOL    HW280428   8.498  10.465   7.230  1.2220 -3.0854 -0.6234
25825SOL     OW80429   3.370   4.950   9.116 -0.0185  0.3365 -0.4523
25825SOL    HW180430   3.336   4.868   9.152 -1.3113  0.5193 -1.2058
25825SOL    HW280431   3.428   4.923   9.046  0.8785  0.0353  0.3854
25826SOL     OW80432   1.019   6.376   7.280 -0.8098 -0.0596  0.2769
25826SOL    HW180433   1.065   6.377   7.364 -0.9216 -1.0210  0.3630
25826SOL    HW280434   1.052   6.452   7.233  0.4549 -0.4171  0.5541
25827SOL     OW80435   7.961   1.487   7.309  0.7430  0.2973  0.2294
25827SOL    HW180436   8.020   1.542   7.257  2.6950 -0.2218  1.7714
25827SOL    HW280437   8.003   1.481   7.395 -1.1171 -0.8771  1.1219
25828SOL     OW80438   2.091   9.290   6.696  0.3125 -0.0570  0.2913
25828SOL    HW180439   2.048   9.308   6.612 -0.3546 -1.3111  0.3397
25828SOL    HW280440   2.019   9.290   6.759  1.0247  2.7506  1.2233
25829SOL     OW80441   4.142   6.956   7.945 -0.8479  0.5478  0.2326
25829SOL    HW180442   4.194   6.934   7.867 -1.1131  0.2227  0.1408
25829SOL    HW280443   4.099   7.039   7.923  1.1335  1.8600  1.0579
25830SOL     OW80444   0.831   7.011   4.584  0.2207  0.5228 -0.8348
25830SOL    HW180445   0.853   6.918   4.590  0.5402  0.6609  0.4595
25830SOL    HW280446   0.897   7.055   4.639 -0.7808  1.3631 -0.2630
25831SOL     OW80447   6.746   3.000   3.580  0.1744 -0.2663 -0.4649
25831SOL    HW180448   6.774   2.973   3.493 -1.6240 -0.2217 -1.0927
25831SOL    HW280449   6.753   3.095   3.580 -0.7321 -0.1924 -0.9098
25832SOL     OW80450   2.622   8.472   1.093  0.1552  0.7232  0.0135
25832SOL    HW180451   2.666   8.534   1.150  2.0967 -0.5465 -0.0063
25832SOL    HW280452   2.653   8.386   1.123 -1.5944 -0.1824 -0.6475
25833SOL     OW80453   4.510   8.492   1.432  0.1312  0.6139 -0.6595
25833SOL    HW180454   4.534   8.565   1.490 -0.0863 -0.6541  1.0946
25833SOL    HW280455   4.414   8.490   1.435  0.1592 -0.2729  0.0292
25834SOL     OW80456   2.053   4.695   2.987  0.1101  0.0288 -0.1372
25834SOL    HW180457   1.961   4.683   2.964  0.4422 -1.5020 -0.7633
25834SOL    HW280458   2.089   4.750   2.917 -0.1331 -0.0977 -0.3605
25835SOL     OW80459   8.713   0.873  10.523  0.3898 -0.0425  0.1208
25835SOL    HW180460   8.632   0.923  10.528  0.8636  0.7113  0.4535
25835SOL    HW280461   8.781   0.939  10.511  0.9802 -0.6495  0.0450
25836SOL     OW80462   0.358   2.446   6.626  0.1962 -0.0107  0.1127
25836SOL    HW180463   0.439   2.494   6.608  0.1572 -0.4447 -1.3535
25836SOL    HW280464   0.341   2.398   6.545 -0.1886 -1.8869  1.2647
25837SOL     OW80465   6.903   1.183   5.283 -0.0790 -0.1900  0.6048
25837SOL    HW180466   6.849   1.215   5.211 -0.1816 -3.4070 -0.9176
25837SOL    HW280467   6.851   1.114   5.324  0.5346  0.6471  2.9820
25838SOL     OW80468   0.784   9.953   3.919  0.4425 -0.2853  1.0328
25838SOL    HW180469   0.752   9.863   3.927  0.6370 -0.4756 -0.1226
25838SOL    HW280470   0.877   9.948   3.941  0.6014 -0.4898  0.3197
25839SOL     OW80471   8.434   4.509   7.162 -0.0936  0.0139  0.0642
25839SOL    HW180472   8.478   4.460   7.092 -1.6651  0.2839 -1.1751
25839SOL    HW280473   8.387   4.443   7.212  0.7543 -0.1405  0.6739
25840SOL     OW80474   0.588   8.508   9.126  0.8534 -0.1015  0.1982
25840SOL    HW180475   0.558   8.575   9.187 -0.7002 -0.5943  0.0010
25840SOL    HW280476   0.679   8.492   9.152  0.3023 -0.1927  2.3103
25841SOL     OW80477   7.958  10.152   0.948  0.3358  0.3949  0.4526
25841SOL    HW180478   7.945  10.246   0.938  1.7061  0.3783 -2.7226
25841SOL    HW280479   8.052  10.139   0.936  0.0069 -1.4903 -0.4989
25842SOL     OW80480   4.642   7.178   6.966  0.3065 -0.7057  0.3014
25842SOL    HW180481   4.628   7.214   6.879  1.0761 -1.4629 -0.1474
25842SOL    HW280482   4.735   7.193   6.984 -0.1571  0.9258  1.6990
25843SOL     OW80483   8.275   8.150   9.591  0.5029  0.1105 -0.2338
25843SOL    HW180484   8.323   8.195   9.660 -0.2535  1.0139 -0.2679
25843SOL    HW280485   8.229   8.079   9.636 -0.4437  1.0454  0.3090
25844SOL     OW80486   6.899   0.628   0.495  0.1038 -0.5389  0.0453
25844SOL    HW180487   6.928   0.569   0.425 -0.7806 -0.1550 -0.6576
25844SOL    HW280488   6.887   0.712   0.451 -1.2342 -0.4832  0.4988
25845SOL     OW80489  10.007   8.769   8.612  0.0364  0.1953  0.5130
25845SOL    HW180490   9.996   8.860   8.635 -1.2444 -0.0896  1.0699
25845SOL    HW280491   9.927   8.726   8.641  0.8478 -1.2091  0.7673
25846SOL     OW80492   6.397   8.871   5.566 -0.8308  0.5941  0.1713
25846SOL    HW180493   6.356   8.818   5.498 -1.3621  0.3045  0.7091
25846SOL    HW280494   6.374   8.827   5.648 -0.4346  1.0950  0.5583
25847SOL     OW80495   0.047   4.459   4.611  0.0623  0.0058  0.3090
25847SOL    HW180496   0.043   4.428   4.520 -0.8370 -0.6299  0.5583
25847SOL    HW280497  -0.020   4.526   4.616  0.6220  0.5751  0.3175
25848SOL     OW80498   2.888  10.034   8.613  0.3039 -0.0500 -0.2037
25848SOL    HW180499   2.952  10.097   8.647  0.0367 -0.7869  1.7911
25848SOL    HW280500   2.807  10.085   8.606  0.1953 -0.0360  0.9744
25849SOL     OW80501   4.706   9.328   3.749  0.1600 -0.4086 -0.0659
25849SOL    HW180502   4.675   9.283   3.828 -0.8237  0.4511  0.0668
25849SOL    HW280503   4.770   9.391   3.781  2.5767 -2.5700 -0.4025
25850SOL     OW80504   6.775   0.867   5.926 -0.1958 -0.1610  0.0242
25850SOL    HW180505   6.743   0.931   5.863 -1.1351 -1.5919 -0.9947
25850SOL    HW280506   6.870   0.882   5.929 -0.3432  0.9579 -0.5348
25851SOL     OW80507   1.327  10.382   0.731 -0.7539  0.0559 -0.4155
25851SOL    HW180508   1.304  10.412   0.818  1.0116 -1.2482  0.5583
25851SOL    HW280509   1.385  10.450   0.696 -1.9642  0.8921 -0.8829
25852SOL     OW80510   2.949   2.967   0.155 -0.0971  0.5981  0.2764
25852SOL    HW180511   2.881   2.910   0.120 -0.2821  0.9057  0.1410
25852SOL    HW280512   2.976   2.924   0.237  1.6458 -1.1535 -1.0994
25853SOL     OW80513   9.260   1.649   3.931  0.5546  0.0213 -0.3905
25853SOL    HW180514   9.257   1.560   3.966 -0.2564 -0.2314 -1.0814
25853SOL    HW280515   9.294   1.702   4.004  2.2231 -1.0206 -0.3642
25854SOL     OW80516   9.285   9.642   7.520 -0.1543  0.0105  0.1687
25854SOL    HW180517   9.329   9.566   7.483 -2.7657 -1.9699  0.8224
25854SOL    HW280518   9.214   9.660   7.458 -0.7131  0.6855  0.9880
25855SOL     OW80519   3.801  10.122   0.881  0.3710  0.2604  0.3205
25855SOL    HW180520   3.708  10.138   0.868  0.2837  0.2181  0.8621
25855SOL    HW280521   3.809  10.102   0.974  1.0420  1.1579  0.4659
25856SOL     OW80522   7.520   0.621   4.370 -0.0258  0.1909  0.1866
25856SOL    HW180523   7.436   0.586   4.339  0.0427  0.6536 -0.5345
25856SOL    HW280524   7.564   0.652   4.291  0.4606  0.7337  0.6624
25857SOL     OW80525  10.480   5.569   7.323  0.4951 -0.3761  0.4572
25857SOL    HW180526  10.493   5.658   7.356  1.0389  0.6664 -2.3465
25857SOL    HW280527  10.411   5.533   7.379  0.1368  1.8356  1.5497
25858SOL     OW80528   6.377   5.924   9.866 -0.2810 -0.0001 -0.4022
25858SOL    HW180529   6.448   5.909   9.929 -1.3867 -1.7740  0.5307
25858SOL    HW280530   6.403   6.002   9.818  2.2981 -0.5767 -0.1115
25859SOL     OW80531   6.034   0.506   5.554  0.4778  0.0065  0.2014
25859SOL    HW180532   6.113   0.549   5.586  1.9556 -1.4729 -1.2471
25859SOL    HW280533   6.054   0.412   5.559 -0.5570 -0.3553 -1.6579
25860SOL     OW80534   6.986   5.983  10.551  0.3553  0.5549  0.0721
25860SOL    HW180535   7.042   5.953  10.479 -0.6560 -2.3198  0.3462
25860SOL    HW280536   6.904   5.935  10.540 -1.0404  2.4845  1.3320
25861SOL     OW80537   0.594   2.417   4.721  0.0354 -0.4473 -0.0394
25861SOL    HW180538   0.638   2.501   4.737  1.3140 -1.0304 -0.3898
25861SOL    HW280539   0.664   2.357   4.698 -0.9987 -1.3344 -0.9959
25862SOL     OW80540   1.812   6.041   6.399  0.1933  0.9278 -0.3247
25862SOL    HW180541   1.770   6.051   6.314 -0.8721  0.2217  0.1007
25862SOL    HW280542   1.885   5.981   6.383  0.3390  1.2390 -0.8427
25863SOL     OW80543   3.921   1.844   0.258 -0.0179  0.1719 -0.2727
25863SOL    HW180544   3.900   1.877   0.345 -0.6650 -2.0584  0.4855
25863SOL    HW280545   4.013   1.866   0.245 -0.2424  1.6461  0.3953
25864SOL     OW80546   1.664   6.904   2.836  0.1832  0.2504 -0.0432
25864SOL    HW180547   1.678   6.945   2.921 -1.7459  1.0550 -0.0554
25864SOL    HW280548   1.655   6.977   2.775  1.2018 -0.3145 -0.9087
25865SOL     OW80549   8.337   5.535   8.025 -0.2158 -0.4454 -0.7040
25865SOL    HW180550   8.324   5.493   7.940  2.4472  1.6344 -2.3044
25865SOL    HW280551   8.365   5.624   8.003 -0.3862  0.4639  2.3964
25866SOL     OW80552   8.056   2.900   2.993 -0.7704 -0.1975 -0.0253
25866SOL    HW180553   8.032   2.870   3.081  1.9465 -2.9233 -0.0301
25866SOL    HW280554   7.984   2.870   2.938 -2.3550  1.2533  1.1322
25867SOL     OW80555   3.763   4.958   2.049  0.2123  0.4657  0.2007
25867SOL    HW180556   3.794   4.880   2.095  0.6319 -0.1473 -1.0544
25867SOL    HW280557   3.829   4.973   1.981 -0.0081  1.7674  0.2495
25868SOL     OW80558   0.593   6.130   2.391 -0.3362 -0.4086  0.4607
25868SOL    HW180559   0.653   6.061   2.362  0.1440  0.2778 -0.2060
25868SOL    HW280560   0.515   6.083   2.422  0.1600 -1.2642  0.4235
25869SOL     OW80561   7.493   3.772  10.572  0.4428  0.0994  0.1611
25869SOL    HW180562   7.542   3.707  10.622  0.3820  0.2898  0.4728
25869SOL    HW280563   7.409   3.729  10.554  0.6926 -0.1993 -0.3117
25870SOL     OW80564   0.218   1.126   4.648  0.4643  0.0753  0.5747
25870SOL    HW180565   0.145   1.086   4.600  1.3283  0.1410 -0.8332
25870SOL    HW280566   0.227   1.213   4.610  1.7802 -0.2202  0.1676
25871SOL     OW80567   4.972   3.122   7.586  0.3882  0.0831 -0.0090
25871SOL    HW180568   4.920   3.181   7.640 -2.1517 -0.7307 -1.4031
25871SOL    HW280569   4.941   3.034   7.609  1.2621 -0.4413 -0.7625
25872SOL     OW80570   5.275   3.502   8.727 -0.2931 -0.1179  0.7303
25872SOL    HW180571   5.238   3.572   8.781  0.1603 -0.6590  1.7668
25872SOL    HW280572   5.316   3.443   8.790 -1.1145 -1.5904 -0.0874
25873SOL     OW80573   9.385   8.587   9.326  0.0465 -0.2942  0.3333
25873SOL    HW180574   9.480   8.577   9.333  0.0198 -0.2302  0.8269
25873SOL    HW280575   9.361   8.635   9.405 -0.0742  1.9440 -0.9711
25874SOL     OW80576   0.153  10.593   0.375 -0.2087  0.0393 -0.8406
25874SOL    HW180577   0.209  10.525   0.338 -0.5921  0.4007 -2.1464
25874SOL    HW280578   0.065  10.557   0.371 -0.2004 -0.1304  0.2696
25875SOL     OW80579   1.112   0.247   1.216  0.2108 -0.2020 -0.1534
25875SOL    HW180580   1.147   0.165   1.181 -3.3527 -1.7498 -0.5122
25875SOL    HW280581   1.094   0.228   1.308 -1.8294 -0.3466 -0.5369
25876SOL     OW80582   2.106   2.974   1.672  0.0508  0.0048  0.5045
25876SOL    HW180583   2.170   3.041   1.648 -2.1384  1.4373 -1.7566
25876SOL    HW280584   2.072   3.003   1.756  0.6433  0.5127  0.5775
25877SOL     OW80585   9.021   4.753   5.309 -0.1238  0.1582 -0.5795
25877SOL    HW180586   8.937   4.783   5.274 -0.8827 -1.0339  0.1430
25877SOL    HW280587   9.038   4.671   5.264 -0.5650 -0.8283  0.9700
25878SOL     OW80588   2.342   5.795  10.045 -0.5009 -0.0368  0.6447
25878SOL    HW180589   2.271   5.855  10.070 -0.6034 -0.5740  1.7028
25878SOL    HW280590   2.311   5.709  10.074  0.2794 -0.3755  0.4701
25879SOL     OW80591   8.059   7.197   8.401 -0.0594  0.2235 -0.0111
25879SOL    HW180592   8.135   7.151   8.366 -0.1256  0.2890 -0.2434
25879SOL    HW280593   8.095   7.273   8.445  0.0607 -0.1106  0.4771
25880SOL     OW80594  10.437   1.837   4.044 -0.0163  0.6248 -0.5255
25880SOL    HW180595  10.495   1.858   3.972 -0.3025  0.5712 -0.7748
25880SOL    HW280596  10.493   1.837   4.121  0.7855 -1.7328 -1.0394
25881SOL     OW80597   0.610   3.327   6.661 -0.8782 -0.3768 -0.0259
25881SOL    HW180598   0.588   3.415   6.630 -1.1011 -0.5862 -0.4741
25881SOL    HW280599   0.608   3.273   6.582  1.1023 -0.4465 -0.0814
25882SOL     OW80600   9.407   2.887   7.584  0.0603  0.7088 -0.2672
25882SOL    HW180601   9.439   2.977   7.570 -3.3239  2.1384  0.1876
25882SOL    HW280602   9.312   2.896   7.588 -0.4679 -3.0765 -0.9543
25883SOL     OW80603   4.753   1.427   7.514 -0.7100  0.0551  0.5613
25883SOL    HW180604   4.766   1.519   7.492 -2.3533  0.0090 -0.7754
25883SOL    HW280605   4.835   1.401   7.555 -0.4420  2.2731  1.5989
25884SOL     OW80606  10.321   8.339   4.284 -0.2876 -1.0564 -0.2543
25884SOL    HW180607  10.388   8.276   4.256  0.1744 -0.1680 -1.2206
25884SOL    HW280608  10.272   8.358   4.204  1.6114  2.2309 -0.8093
25885SOL     OW80609   0.538   6.745   2.411  0.4884  0.2951  0.1628
25885SOL    HW180610   0.607   6.798   2.450 -0.5202  0.1919  2.1681
25885SOL    HW280611   0.456   6.782   2.443 -0.2767 -2.0973  1.2382
25886SOL     OW80612   9.210   1.908   5.738  0.3857  0.1095  0.3150
25886SOL    HW180613   9.163   1.892   5.656 -0.6694 -0.7688  1.0665
25886SOL    HW280614   9.231   2.002   5.736 -1.7442  0.6302  0.1008
25887SOL     OW80615   4.532   7.485   1.986 -0.3088  0.4026  0.1210
25887SOL    HW180616   4.528   7.417   1.919 -0.2015 -1.2374  1.7055
25887SOL    HW280617   4.456   7.540   1.969 -0.6439 -0.3526 -0.9387
25888SOL     OW80618   4.400   2.799   2.509 -0.1549  0.4567  0.7575
25888SOL    HW180619   4.403   2.764   2.420 -1.9750  0.4250  0.6758
25888SOL    HW280620   4.472   2.862   2.512  1.5847 -1.3808  0.1120
25889SOL     OW80621   6.053   9.236   0.329 -0.0738  0.5647 -0.2444
25889SOL    HW180622   6.072   9.187   0.409  0.1890 -0.2008 -0.7638
25889SOL    HW280623   5.962   9.215   0.309 -0.3010  1.1608  0.1194
25890SOL     OW80624   9.887  10.031   1.107 -0.4743  0.5258 -0.0157
25890SOL    HW180625   9.923   9.943   1.100 -0.6345  0.4331  0.3001
25890SOL    HW280626   9.818  10.024   1.174 -0.3706  0.9272  0.1383
25891SOL     OW80627   1.301   7.342   3.898 -0.7499 -0.0242  0.4849
25891SOL    HW180628   1.263   7.405   3.959  0.0719 -1.0934  2.1986
25891SOL    HW280629   1.247   7.263   3.909 -2.0644  0.4121 -1.9708
25892SOL     OW80630   7.425   8.277   5.319  0.3737 -0.4097  0.3476
25892SOL    HW180631   7.360   8.329   5.367 -0.2490 -1.1435  0.3224
25892SOL    HW280632   7.424   8.313   5.230 -0.2789 -0.6612  0.2486
25893SOL     OW80633   9.817   6.166   0.298 -0.3908  1.1045 -0.2521
25893SOL    HW180634   9.818   6.247   0.246  1.4386  0.9478 -0.5351
25893SOL    HW280635   9.883   6.111   0.257 -1.8979 -0.7508 -0.3281
25894SOL     OW80636   9.338   7.697   6.391  0.1244 -0.2058  0.1227
25894SOL    HW180637   9.367   7.607   6.403  2.0993  0.2970 -0.3493
25894SOL    HW280638   9.246   7.691   6.366 -0.2786 -1.9659  1.7901
25895SOL     OW80639   3.041   0.419   7.982 -0.3857 -0.3927 -0.2115
25895SOL    HW180640   3.003   0.352   7.925 -0.0906 -0.3309 -0.4859
25895SOL    HW280641   2.983   0.494   7.973  0.1907 -0.0466 -1.2016
25896SOL     OW80642   6.204   5.721   4.100  0.0489  0.4066 -0.2403
25896SOL    HW180643   6.247   5.751   4.020  2.5989 -0.6576  0.6402
25896SOL    HW280644   6.263   5.655   4.136 -1.7064 -0.1675  1.8129
25897SOL     OW80645   9.478   8.272   8.650 -0.4237  0.0638 -0.6361
25897SOL    HW180646   9.505   8.354   8.693 -0.4957  0.5562 -1.5050
25897SOL    HW280647   9.404   8.297   8.595 -0.9933 -0.7679 -0.2668
25898SOL     OW80648   2.428   7.363   7.778  0.4471 -0.0540  0.0384
25898SOL    HW180649   2.389   7.330   7.697  0.9967 -0.4665 -0.0563
25898SOL    HW280650   2.383   7.316   7.847  0.7099 -0.4623 -0.0675
25899SOL     OW80651  10.494   5.459  10.038 -0.4496 -0.2057 -0.0159
25899SOL    HW180652  10.503   5.515   9.961  0.2736 -2.3782 -1.6282
25899SOL    HW280653  10.489   5.370  10.002 -1.5751 -1.1948  2.4025
25900SOL     OW80654   5.024  10.551   1.497  0.2371 -0.8470 -0.3076
25900SOL    HW180655   4.987  10.470   1.462 -0.5131 -0.9639  0.7177
25900SOL    HW280656   5.009  10.616   1.428 -0.8802 -1.1609 -0.3815
25901SOL     OW80657   3.439   6.439   1.728 -0.0399 -0.5256 -0.0974
25901SOL    HW180658   3.486   6.483   1.799 -0.3854  0.4141 -0.4421
25901SOL    HW280659   3.424   6.507   1.663 -0.1784 -1.2653 -0.8570
25902SOL     OW80660   0.639   7.236   6.725  0.1466 -0.4913  0.4282
25902SOL    HW180661   0.731   7.218   6.741  0.1969  0.3421  1.1736
25902SOL    HW280662   0.637   7.327   6.696 -0.4117 -0.6063  0.0929
25903SOL     OW80663   4.793   4.394   5.097 -0.0085 -0.0175  0.1528
25903SOL    HW180664   4.816   4.303   5.081  0.4848 -0.0074  0.7495
25903SOL    HW280665   4.835   4.415   5.181  0.6784  1.0255 -0.4261
25904SOL     OW80666   0.417   0.528   0.422 -0.0960 -1.0557  0.1791
25904SOL    HW180667   0.339   0.506   0.372  0.7906 -0.3400 -1.5887
25904SOL    HW280668   0.430   0.621   0.407  0.4928 -0.9266  1.3558
25905SOL     OW80669   6.399   0.185   7.844  0.4665  0.0842  0.3736
25905SOL    HW180670   6.453   0.226   7.777 -1.8555 -1.8152 -2.9904
25905SOL    HW280671   6.432   0.096   7.851 -1.1531 -0.6764 -0.7218
25906SOL     OW80672  10.175   8.785   9.371  0.2894 -0.1570 -0.3676
25906SOL    HW180673  10.242   8.718   9.387  0.7902  0.4110 -0.0214
25906SOL    HW280674  10.118   8.746   9.305  2.1694  0.1254 -2.2920
25907SOL     OW80675   9.618   9.760   1.377  0.3929 -0.0362  0.1181
25907SOL    HW180676   9.611   9.854   1.358 -0.2738 -0.2518 -0.8207
25907SOL    HW280677   9.548   9.720   1.324  1.1434 -1.1362 -0.0860
25908SOL     OW80678   2.093   0.880   7.721 -0.1408  0.3490  0.0896
25908SOL    HW180679   2.015   0.928   7.694 -0.8696 -1.0550 -0.3709
25908SOL    HW280680   2.081   0.867   7.816 -1.1563 -0.9991 -0.1856
25909SOL     OW80681   3.893   1.115   4.927 -0.3724 -0.4456 -0.4292
25909SOL    HW180682   3.927   1.052   4.863 -0.9896 -0.3683 -0.8408
25909SOL    HW280683   3.905   1.073   5.012 -0.5568 -1.0169 -0.6847
25910SOL     OW80684   4.038   2.805   0.042  0.4555  0.2694  0.0823
25910SOL    HW180685   4.005   2.876  -0.014  0.9208  0.4909  0.0874
25910SOL    HW280686   3.969   2.739   0.040  0.2713  0.4741 -0.3857
25911SOL     OW80687   3.513   0.427   3.198 -1.0865  0.1945 -0.5622
25911SOL    HW180688   3.561   0.474   3.265  0.5812 -2.4451  0.2392
25911SOL    HW280689   3.440   0.485   3.175  0.2338  2.6390  1.0207
25912SOL     OW80690   6.623   3.869   9.866 -0.2348 -0.0953 -0.1016
25912SOL    HW180691   6.691   3.800   9.866 -0.8185 -0.6825 -0.6267
25912SOL    HW280692   6.556   3.837   9.805 -0.2342  1.2363 -0.8403
25913SOL     OW80693   5.890   8.279   2.200  0.7137 -0.6768 -0.1025
25913SOL    HW180694   5.878   8.200   2.148  0.4699 -0.6289 -0.1216
25913SOL    HW280695   5.972   8.317   2.168  0.6345 -0.7196 -0.3593
25914SOL     OW80696   0.496   1.354   5.332 -0.0767  1.0766  0.1756
25914SOL    HW180697   0.495   1.341   5.237 -0.2718  0.8689  0.2048
25914SOL    HW280698   0.406   1.335   5.360  0.3667 -0.5417  0.6158
25915SOL     OW80699   2.623   2.318   8.817  0.3652  1.1001 -0.0939
25915SOL    HW180700   2.540   2.275   8.795 -1.3687  2.3090  3.3398
25915SOL    HW280701   2.666   2.257   8.877  0.6193  1.6709  0.3120
25916SOL     OW80702   0.537   0.884   9.189  0.1097  0.1374 -0.1547
25916SOL    HW180703   0.473   0.847   9.128  1.1333  0.1179 -1.2397
25916SOL    HW280704   0.488   0.951   9.237 -0.4355  0.9271 -1.7637
25917SOL     OW80705   1.270  10.101   2.389 -0.6517  0.1039 -0.1896
25917SOL    HW180706   1.207  10.109   2.317 -0.3930  1.5206 -0.2875
25917SOL    HW280707   1.218  10.115   2.468 -0.6552  0.1730 -0.2037
25918SOL     OW80708   1.831  10.362   4.217 -0.5982 -0.3876 -0.0213
25918SOL    HW180709   1.762  10.299   4.200 -0.5367 -0.6564  0.6821
25918SOL    HW280710   1.865  10.338   4.303 -1.1114  1.0774  0.6328
25919SOL     OW80711   7.441   6.816   5.784 -0.0668 -0.2147 -0.1124
25919SOL    HW180712   7.374   6.750   5.766 -0.0521 -0.5132  0.8335
25919SOL    HW280713   7.393   6.898   5.789 -0.1009 -0.1665 -1.1968
25920SOL     OW80714   0.465   7.082   8.376  0.0193  0.5692 -0.4668
25920SOL    HW180715   0.408   7.125   8.440  1.4235  0.7501  0.7058
25920SOL    HW280716   0.533   7.147   8.358 -0.2372  0.4368 -2.0213
25921SOL     OW80717   1.838   2.891  10.505  0.2800 -0.6903  0.2828
25921SOL    HW180718   1.747   2.881  10.534  0.1948  1.7342  1.0263
25921SOL    HW280719   1.864   2.978  10.535  2.2680 -0.5759 -1.5112
25922SOL     OW80720   3.052   4.960   7.772  0.3777  0.0468  0.3602
25922SOL    HW180721   3.030   4.867   7.781  2.0006 -0.4255 -0.0527
25922SOL    HW280722   3.025   4.982   7.683 -0.8377  0.2288  0.7667
25923SOL     OW80723   8.127   2.829   5.197 -0.3688 -0.0980 -0.0508
25923SOL    HW180724   8.078   2.826   5.115 -1.6044  2.1017  0.5198
25923SOL    HW280725   8.175   2.911   5.193 -1.4040  0.6814  1.8753
25924SOL     OW80726   9.463   8.059   3.163 -0.4712 -0.3076 -0.2739
25924SOL    HW180727   9.486   8.094   3.077  0.8061 -2.5583 -0.9287
25924SOL    HW280728   9.547   8.054   3.210 -1.1582  0.9739  1.2099
25925SOL     OW80729  10.446   6.712   9.234 -0.5557 -0.7563  0.4737
25925SOL    HW180730  10.541   6.715   9.244 -0.5961 -2.0688  1.6310
25925SOL    HW280731  10.418   6.803   9.242  0.6103 -0.3349 -0.0341
25926SOL     OW80732   8.286   9.367   9.150  0.2016  0.2209 -0.2906
25926SOL    HW180733   8.339   9.342   9.225  1.4792  1.9132 -0.5617
25926SOL    HW280734   8.331   9.330   9.074  0.6472  1.0729 -0.4600
25927SOL     OW80735   5.878   3.536   6.870  0.9808 -0.0748 -0.3670
25927SOL    HW180736   5.966   3.499   6.880  0.8948 -0.1526  0.0731
25927SOL    HW280737   5.879   3.572   6.781  1.5246  0.0966 -0.2999
25928SOL     OW80738   3.564   4.701   2.902  0.4380  0.5869 -0.3539
25928SOL    HW180739   3.625   4.733   2.836  0.0342 -0.2191 -1.1536
25928SOL    HW280740   3.618   4.645   2.959  0.4473 -0.2521 -1.1497
25929SOL     OW80741   8.458   1.483   3.763 -0.2304 -0.4736  0.0991
25929SOL    HW180742   8.388   1.512   3.821  0.2988  0.3998  0.3131
25929SOL    HW280743   8.414   1.427   3.699 -0.8218 -1.4942  1.3411
25930SOL     OW80744   6.321   8.075   0.077  0.2162 -0.6142  0.1158
25930SOL    HW180745   6.326   8.156   0.026  1.3286  0.1202  1.3560
25930SOL    HW280746   6.232   8.042   0.060 -0.0529  0.5440 -0.8599
25931SOL     OW80747   6.775   2.477   9.759  0.5370 -0.2723  0.1040
25931SOL    HW180748   6.735   2.520   9.834 -1.1374  0.7535 -1.3101
25931SOL    HW280749   6.779   2.385   9.784 -0.0586  0.0267  1.4011
25932SOL     OW80750   3.441   8.502   5.557  0.3452  0.0334 -0.5584
25932SOL    HW180751   3.449   8.597   5.554  1.4192 -0.0202  0.1149
25932SOL    HW280752   3.449   8.480   5.650 -0.7122 -0.6577 -0.6140
25933SOL     OW80753   3.248   6.605   9.661  0.2710  0.3612 -0.1362
25933SOL    HW180754   3.264   6.643   9.575  0.2720 -0.6207 -0.5811
25933SOL    HW280755   3.180   6.659   9.700  0.1618  0.7135 -0.8195
25934SOL     OW80756   9.510   7.991   6.732  0.4304  0.2214 -0.5062
25934SOL    HW180757   9.477   8.079   6.716  1.6007  1.1972  1.8786
25934SOL    HW280758   9.560   7.969   6.654 -0.6328  1.2769 -1.5252
25935SOL     OW80759  10.129   3.162   9.981  0.2622  0.5701  0.1388
25935SOL    HW180760  10.116   3.104  10.056 -1.2981 -0.3485 -0.7886
25935SOL    HW280761  10.211   3.132   9.942 -0.5136 -1.0544 -0.3187
25936SOL     OW80762   8.974   7.788   2.111  0.5575  0.1761 -0.1439
25936SOL    HW180763   8.989   7.719   2.047  1.3736 -0.6570  0.9092
25936SOL    HW280764   8.890   7.766   2.151  1.1687 -0.6666  0.7189
25937SOL     OW80765   5.227   4.185   6.059  0.0269 -0.1406  0.4373
25937SOL    HW180766   5.271   4.129   6.123  0.3008  1.1521  1.4184
25937SOL    HW280767   5.293   4.201   5.992 -0.4026 -1.8736 -0.4594
25938SOL     OW80768   0.165   8.906   9.001 -0.2523 -0.0252 -1.0547
25938SOL    HW180769   0.143   8.839   9.065  2.4741  0.0449  0.0672
25938SOL    HW280770   0.186   8.983   9.053  1.0329  0.3435 -2.0692
25939SOL     OW80771  10.171   3.959   6.842 -0.0964 -0.1537 -0.3973
25939SOL    HW180772  10.143   3.949   6.933  0.4247  0.9895 -0.0913
25939SOL    HW280773  10.266   3.967   6.848 -0.0322 -0.3795 -1.0787
25940SOL     OW80774   8.203   6.772   0.389  0.3707  0.3011  0.3497
25940SOL    HW180775   8.171   6.862   0.399 -0.2606  0.1288 -0.0510
25940SOL    HW280776   8.141   6.731   0.329  1.4541 -0.0023 -0.6012
25941SOL     OW80777   0.546   3.000  10.624  0.2908 -0.4169 -0.2962
25941SOL    HW180778   0.479   3.062  10.653 -0.4559 -1.0043 -0.7317
25941SOL    HW280779   0.591   3.045  10.552  0.4138  0.0082  0.0432
25942SOL     OW80780   6.739   7.577   2.968 -0.3117 -0.7119 -0.2887
25942SOL    HW180781   6.777   7.636   2.903  0.3129 -0.2660  0.4727
25942SOL    HW280782   6.803   7.574   3.039 -0.9715 -1.2074  0.2998
25943SOL     OW80783   5.275   6.699   7.183 -0.1159  0.0451  0.0876
25943SOL    HW180784   5.185   6.721   7.204 -0.1448 -0.7660  0.8675
25943SOL    HW280785   5.310   6.778   7.142 -2.6229 -1.0394 -5.0793
25944SOL     OW80786   5.649   3.034   1.106 -0.1472 -0.1970  0.6576
25944SOL    HW180787   5.619   3.120   1.079  1.3407  0.0706 -0.2921
25944SOL    HW280788   5.740   3.047   1.131 -0.0845 -1.3748  1.1097
25945SOL     OW80789   9.276   4.080   8.534  0.3786  0.5377 -0.0812
25945SOL    HW180790   9.362   4.106   8.500  0.6364  1.9354  1.4747
25945SOL    HW280791   9.229   4.163   8.544 -0.2406  0.0415  1.3819
25946SOL     OW80792   0.833   5.437   8.953  0.0226 -0.4962 -0.2496
25946SOL    HW180793   0.820   5.405   9.042 -0.1337  1.7346  0.5864
25946SOL    HW280794   0.922   5.471   8.952 -0.3077  0.3850 -0.6374
25947SOL     OW80795   1.352   8.000   7.654  0.1091  0.3223 -0.6431
25947SOL    HW180796   1.321   8.058   7.724  1.4381 -0.0489  0.3157
25947SOL    HW280797   1.410   8.054   7.601  2.1104 -0.2741  0.8086
25948SOL     OW80798  10.352   3.233   0.799  0.4323 -0.0521 -0.2902
25948SOL    HW180799  10.348   3.327   0.784  1.6877  0.1547  0.5741
25948SOL    HW280800  10.426   3.203   0.746  0.7665 -0.3565  0.3398
25949SOL     OW80801   7.442   4.235   5.207 -0.1021  0.1385 -0.0196
25949SOL    HW180802   7.459   4.290   5.284 -0.9657  1.2991 -0.6165
25949SOL    HW280803   7.433   4.297   5.135  1.7944 -0.9988 -1.3131
25950SOL     OW80804   0.257   0.648   4.647  0.1249 -0.1212  0.6902
25950SOL    HW180805   0.252   0.712   4.576 -1.2318 -0.4414  0.4612
25950SOL    HW280806   0.290   0.568   4.605  3.5355  0.7873  1.3042
25951SOL     OW80807   2.790   8.448   8.503 -0.4690  0.4602 -0.4201
25951SOL    HW180808   2.828   8.527   8.463  0.0628 -0.8511 -2.6569
25951SOL    HW280809   2.848   8.429   8.577 -0.1620  1.7208 -0.3103
25952SOL     OW80810   5.207   5.007   8.006  0.4495 -0.3343 -0.6575
25952SOL    HW180811   5.188   4.956   8.085  0.2911  0.4699 -0.1511
25952SOL    HW280812   5.178   5.096   8.029  2.1165  0.3189 -0.9339
25953SOL     OW80813   2.492   8.115   5.994  0.1484  0.0918  0.2732
25953SOL    HW180814   2.476   8.101   5.901  2.3882 -0.1572 -0.1347
25953SOL    HW280815   2.475   8.208   6.008 -0.2396  0.1214 -0.3673
25954SOL     OW80816   8.383   8.031   8.297 -0.4704  0.2026 -0.3553
25954SOL    HW180817   8.335   8.076   8.228  0.5301  0.8118 -0.6761
25954SOL    HW280818   8.418   7.952   8.255 -0.6582  0.0826 -0.2877
25955SOL     OW80819   3.565   0.055  10.493 -0.4877  0.1816  0.7537
25955SOL    HW180820   3.623   0.072  10.418 -0.6911 -1.9040  0.0508
25955SOL    HW280821   3.615   0.086  10.569  0.7195  0.2564 -0.0384
25956SOL     OW80822  10.630   7.546   4.937 -0.0881 -0.3470 -0.6106
25956SOL    HW180823  10.555   7.542   4.996  1.1613 -0.0018  1.0648
25956SOL    HW280824  10.685   7.471   4.962  1.5267  1.0346  0.2380
25957SOL     OW80825   8.016   5.362   5.738  0.0828  0.8989 -0.3884
25957SOL    HW180826   8.020   5.278   5.692 -3.1611  0.9814 -1.0685
25957SOL    HW280827   8.056   5.425   5.678  2.6214 -0.0870  0.1620
25958SOL     OW80828   9.472   2.344   0.886 -0.3479  0.2156  0.3658
25958SOL    HW180829   9.455   2.432   0.854 -0.6994  0.4037  1.0515
25958SOL    HW280830   9.385   2.304   0.896 -0.1740 -0.3795 -0.3901
25959SOL     OW80831   5.139   0.870   9.987  1.3423  0.3555  0.0736
25959SOL    HW180832   5.106   0.821  10.063  1.3005 -0.2889 -0.3503
25959SOL    HW280833   5.138   0.961  10.015  1.1624  0.1417  0.7889
25960SOL     OW80834   9.077   8.779   4.027  0.3057 -0.3091 -0.4645
25960SOL    HW180835   8.984   8.802   4.031 -0.8890 -4.4211  1.0132
25960SOL    HW280836   9.104   8.774   4.119  1.1342 -1.9147 -0.7642
25961SOL     OW80837   1.779  10.425  10.455  0.0194 -0.2914 -0.1775
25961SOL    HW180838   1.749  10.339  10.425 -0.4873 -0.2352  0.1598
25961SOL    HW280839   1.702  10.481  10.446  0.1175 -0.0631  0.3677
25962SOL     OW80840   5.560   5.080   4.741 -0.0380  0.1832 -0.3549
25962SOL    HW180841   5.508   5.015   4.695  0.3150 -0.1835 -0.2410
25962SOL    HW280842   5.651   5.057   4.721  0.0798  0.9150 -0.6891
25963SOL     OW80843   0.506   3.473   1.860 -0.1045  0.2546 -0.1178
25963SOL    HW180844   0.501   3.399   1.799  0.1483 -0.1301  0.3292
25963SOL    HW280845   0.599   3.480   1.881 -0.4088 -0.9589  1.8610
25964SOL     OW80846   9.365   8.368   3.339 -0.4133 -0.3436 -0.4359
25964SOL    HW180847   9.451   8.379   3.299  0.2992  2.1083  1.5231
25964SOL    HW280848   9.308   8.427   3.291 -0.2200  0.4274  0.2535
25965SOL     OW80849   0.757   8.865  10.612 -0.3757 -1.0340 -1.0605
25965SOL    HW180850   0.731   8.957  10.621  2.2788 -0.0760 -2.3830
25965SOL    HW280851   0.710   8.835  10.535  0.3851 -0.1044 -1.9136
25966SOL     OW80852   5.712   6.601   7.675 -0.4385  0.0905 -0.0510
25966SOL    HW180853   5.723   6.601   7.770 -2.0010  2.4208  0.2177
25966SOL    HW280854   5.800   6.612   7.641  0.4586 -2.8827  0.9449
25967SOL     OW80855   9.896   6.270  10.412  0.4940  0.0627  0.8204
25967SOL    HW180856   9.810   6.264  10.454  0.3030  0.8158  0.5518
25967SOL    HW280857   9.938   6.186  10.432 -0.9340 -1.0266 -0.4356
25968SOL     OW80858   3.936   7.576   0.245 -0.3957 -0.2189  0.5069
25968SOL    HW180859   3.885   7.579   0.325 -4.2318  0.0187 -1.6822
25968SOL    HW280860   3.884   7.521   0.186  2.3358 -0.5758 -1.7844
25969SOL     OW80861   2.200   8.480   2.956 -0.6327 -0.1797  0.5134
25969SOL    HW180862   2.168   8.391   2.967 -0.7916 -0.0627  1.0525
25969SOL    HW280863   2.158   8.512   2.877 -1.9350 -0.0028  1.2447
25970SOL     OW80864   0.239   8.589   6.936  0.0119  0.4589  0.0579
25970SOL    HW180865   0.297   8.643   6.882  0.8998 -0.1952  0.3229
25970SOL    HW280866   0.177   8.551   6.873  0.6418  0.1987 -0.4154
25971SOL     OW80867   8.321   5.224  10.465 -0.1598  0.4528 -0.4459
25971SOL    HW180868   8.238   5.271  10.470 -0.1197  0.4410  0.4005
25971SOL    HW280869   8.320   5.165  10.540 -0.4868 -1.3760 -1.7950
25972SOL     OW80870   4.756   0.778   9.714  0.4174 -0.1771 -0.5785
25972SOL    HW180871   4.697   0.844   9.750 -2.3192 -2.8956  0.4107
25972SOL    HW280872   4.844   0.813   9.728 -0.7655  1.9291  2.5699
25973SOL     OW80873   3.814   6.082   6.985 -0.2807 -0.4421 -0.2490
25973SOL    HW180874   3.722   6.058   6.981  0.0691 -2.2386  1.2022
25973SOL    HW280875   3.839   6.070   7.077  1.0489  1.4559 -0.3077
25974SOL     OW80876   5.983   3.655   0.986  0.2177 -0.2425 -0.3485
25974SOL    HW180877   5.987   3.572   1.032  0.8742  0.1569  0.3326
25974SOL    HW280878   5.893   3.660   0.953 -0.8433  0.2236  2.3855
25975SOL     OW80879   3.920  10.296   4.952  0.1495 -0.0566  0.2201
25975SOL    HW180880   3.989  10.304   4.887 -1.2541  0.5595 -1.2710
25975SOL    HW280881   3.895  10.386   4.973 -0.8893 -0.2668 -0.0495
25976SOL     OW80882   9.766   5.795   6.552  0.4423  0.2262 -0.0970
25976SOL    HW180883   9.797   5.868   6.605 -0.1270 -0.3966  1.1427
25976SOL    HW280884   9.705   5.748   6.609  0.1008 -0.6984 -1.1789
25977SOL     OW80885   8.592   3.110   5.435  0.2059  0.2610 -0.3523
25977SOL    HW180886   8.683   3.140   5.438  0.7211 -1.2523  0.0288
25977SOL    HW280887   8.541   3.191   5.430  1.5372  1.1733  0.0572
25978SOL     OW80888   7.797   1.744   2.366  0.3869  0.3836  0.1165
25978SOL    HW180889   7.728   1.763   2.429  0.7342  2.2606 -0.0035
25978SOL    HW280890   7.826   1.656   2.387 -2.0845 -0.4909  0.1160
25979SOL     OW80891   7.171   3.945   2.454  0.1399 -0.2078  0.3345
25979SOL    HW180892   7.102   3.981   2.509 -0.9235  0.3920 -1.3054
25979SOL    HW280893   7.251   3.960   2.504 -0.5041  2.3991  0.7561
25980SOL     OW80894   8.062   5.197   0.183 -0.5631 -0.2138  0.5509
25980SOL    HW180895   7.991   5.259   0.163 -0.1830  0.1198  0.2439
25980SOL    HW280896   8.122   5.247   0.238  1.2244  0.6288 -2.0210
25981SOL     OW80897   6.026   0.770   9.367  0.1608  0.2111 -0.1743
25981SOL    HW180898   6.036   0.675   9.361  0.6374  0.2694 -0.3358
25981SOL    HW280899   5.937   0.786   9.336 -0.6468 -0.3547  1.7015
25982SOL     OW80900   6.777   7.176  10.027 -0.3684  0.2661  0.1258
25982SOL    HW180901   6.846   7.110  10.016 -0.9493 -0.6015  1.4711
25982SOL    HW280902   6.765   7.212   9.939  0.9313 -0.4340 -0.3769
25983SOL     OW80903   6.540   3.260   1.106 -0.2354  0.1240  0.3579
25983SOL    HW180904   6.505   3.259   1.017 -0.1497  0.8970  0.3093
25983SOL    HW280905   6.470   3.225   1.161  0.4776 -2.4547 -0.2640
25984SOL     OW80906   5.316  10.694   9.112 -0.5244  0.2169  0.3000
25984SOL    HW180907   5.334  10.733   9.198 -0.6233  0.5946  0.1514
25984SOL    HW280908   5.389  10.634   9.097  0.5499  1.6240 -0.2292
25985SOL     OW80909   5.611   3.705   3.984  0.3049 -0.2435 -0.4380
25985SOL    HW180910   5.587   3.761   4.058  1.9813 -1.0628  0.7945
25985SOL    HW280911   5.703   3.685   3.998  0.7335 -0.2851 -2.8790
25986SOL     OW80912   7.715   0.478   1.293 -0.2096 -0.5864  0.0436
25986SOL    HW180913   7.752   0.511   1.374 -1.2055  0.8799 -0.0475
25986SOL    HW280914   7.639   0.535   1.277 -0.3031 -1.1343 -1.6589
25987SOL     OW80915   6.886   0.095  10.383  0.3569 -0.6172  0.1364
25987SOL    HW180916   6.807   0.042  10.395  0.3250 -0.3590  1.1723
25987SOL    HW280917   6.888   0.116  10.290 -0.1996 -1.5502 -0.0933
25988SOL     OW80918   2.328   7.642   4.493  0.3565 -0.1945  0.2623
25988SOL    HW180919   2.379   7.665   4.416 -0.5438  0.0899 -0.2642
25988SOL    HW280920   2.237   7.639   4.462  0.0175 -0.4021  1.2330
25989SOL     OW80921   8.428   5.252   7.988  0.4016  0.7935 -0.2601
25989SOL    HW180922   8.337   5.262   7.962  0.6582  1.0082 -1.0952
25989SOL    HW280923   8.452   5.164   7.961 -0.1684 -0.0946  1.9094
25990SOL     OW80924   8.285   9.455   8.545  0.4739 -0.1212  0.2518
25990SOL    HW180925   8.339   9.512   8.491 -1.5923  1.3743 -0.3687
25990SOL    HW280926   8.265   9.380   8.489  1.9527 -0.7508  0.5343
25991SOL     OW80927   2.858   5.265   3.537 -0.4653  0.1128  0.5453
25991SOL    HW180928   2.883   5.216   3.615 -1.1186 -1.2810 -0.0712
25991SOL    HW280929   2.770   5.298   3.557 -0.6781 -0.3380  0.3723
25992SOL     OW80930   4.883   9.321  10.104 -0.3859  0.1139  0.0959
25992SOL    HW180931   4.934   9.392  10.065  0.8314 -0.6456  0.2448
25992SOL    HW280932   4.949   9.258  10.132 -1.3055  0.0477  2.2320
25993SOL     OW80933   2.461   8.346   0.550 -0.3458  0.5410 -0.0543
25993SOL    HW180934   2.499   8.263   0.521 -0.9882 -0.6695  2.3294
25993SOL    HW280935   2.368   8.339   0.527 -0.2401  0.9873 -0.6337
25994SOL     OW80936   8.025  10.226   6.994  0.1178  0.1623  0.2584
25994SOL    HW180937   8.062  10.289   7.055 -1.6808  1.1556  0.3878
25994SOL    HW280938   8.036  10.267   6.908 -0.0503  0.1432  0.2271
25995SOL     OW80939   5.348  10.452   6.745 -0.6028 -0.4796  0.2004
25995SOL    HW180940   5.362  10.476   6.654 -1.5949 -0.7011 -0.0205
25995SOL    HW280941   5.261  10.485   6.766 -0.6066 -0.9092  0.9050
25996SOL     OW80942   4.657   2.988   6.078  0.1928 -0.6059  0.0038
25996SOL    HW180943   4.723   3.031   6.133 -0.0484  0.1480 -0.2808
25996SOL    HW280944   4.603   3.060   6.045  0.5764 -0.9912 -1.5411
25997SOL     OW80945   5.180   4.635   6.140  0.2922  0.2269 -0.1243
25997SOL    HW180946   5.145   4.553   6.175  2.4609 -1.1326 -0.9369
25997SOL    HW280947   5.181   4.695   6.215 -0.8852 -0.6351  0.6046
25998SOL     OW80948   8.543   9.096   4.230 -0.2196  0.0154 -0.1312
25998SOL    HW180949   8.498   9.132   4.154 -1.8431 -0.7424  0.4277
25998SOL    HW280950   8.572   9.173   4.279  0.2488  0.5123 -1.1586
25999SOL     OW80951   3.414   3.424   2.029 -0.3288  0.2108  0.4675
25999SOL    HW180952   3.389   3.514   2.050  2.8903  1.2437  0.5175
25999SOL    HW280953   3.457   3.430   1.944 -1.3308 -1.5986 -0.2278
26000SOL     OW80954   3.005   7.872   8.993  0.5478 -0.3072  0.5754
26000SOL    HW180955   3.085   7.898   9.038  0.4690  1.2327 -0.0915
26000SOL    HW280956   3.025   7.883   8.900  0.0016 -1.2898  0.3206
26001SOL     OW80957   6.016   6.294   1.430 -0.3493 -0.0523  1.0425
26001SOL    HW180958   6.043   6.224   1.369  0.5846 -0.2594  1.6769
26001SOL    HW280959   6.027   6.255   1.517 -2.5296 -0.0685  1.3641
26002SOL     OW80960   4.237   8.578  10.563 -0.1808  0.4956 -0.0508
26002SOL    HW180961   4.242   8.563  10.469 -1.5706  2.5685 -0.5496
26002SOL    HW280962   4.293   8.511  10.602  1.2017  0.1773 -2.3965
26003SOL     OW80963   2.431   3.715   0.990 -0.4481 -0.2294 -0.0523
26003SOL    HW180964   2.473   3.679   1.068 -0.7960 -0.2364  0.1352
26003SOL    HW280965   2.337   3.712   1.010 -0.4960  0.6990 -0.0633
26004SOL     OW80966   4.048   7.701   9.004 -0.4638 -0.0449 -0.4499
26004SOL    HW180967   3.969   7.679   9.054  0.3584 -1.9523  0.1104
26004SOL    HW280968   4.076   7.617   8.967  2.0633  0.3133  0.5039
26005SOL     OW80969   2.200   0.668   5.378  0.0424 -0.4695  0.2557
26005SOL    HW180970   2.179   0.757   5.349 -1.4758 -0.9650 -0.2376
26005SOL    HW280971   2.203   0.617   5.298 -1.9214 -1.4056  0.7314
26006SOL     OW80972   3.855   7.398   0.892 -0.4405  0.4405 -0.1583
26006SOL    HW180973   3.816   7.410   0.979 -0.8743  0.4727 -0.3556
26006SOL    HW280974   3.804   7.327   0.853  0.2122 -0.0631 -0.1181
26007SOL     OW80975   4.853   8.346   6.655  0.2013  0.0151  0.2977
26007SOL    HW180976   4.893   8.431   6.676 -0.4302  0.1488  0.9591
26007SOL    HW280977   4.857   8.297   6.737 -0.0506 -0.3523  0.0886
26008SOL     OW80978   3.646   6.609   5.632 -0.5487  0.1707  0.0397
26008SOL    HW180979   3.734   6.570   5.631  0.4268  2.2612 -0.1723
26008SOL    HW280980   3.625   6.622   5.539 -1.9291 -1.9636 -0.0279
26009SOL     OW80981   4.520   3.329   5.020  0.1059  0.2049  0.1272
26009SOL    HW180982   4.504   3.272   4.945  1.3838  0.2257 -0.1797
26009SOL    HW280983   4.437   3.329   5.068 -0.5211 -0.3263 -0.9268
26010SOL     OW80984   2.467   1.864  10.595 -0.2958  0.3751 -0.4073
26010SOL    HW180985   2.448   1.819  10.513  0.9135  1.0792 -1.1127
26010SOL    HW280986   2.504   1.796  10.651 -1.9500 -0.3122 -0.0957
26011SOL     OW80987   8.177   0.790   7.943  0.2466 -0.5894  0.4544
26011SOL    HW180988   8.110   0.729   7.914  0.0783 -0.3714  0.3806
26011SOL    HW280989   8.180   0.780   8.038 -1.6924  1.2139  0.7693
26012SOL     OW80990   8.053   7.160   4.329 -0.0760 -0.2886 -0.3332
26012SOL    HW180991   8.117   7.151   4.260  0.3004 -1.0993  0.1174
26012SOL    HW280992   7.997   7.083   4.322  1.3518 -1.5892  1.6701
26013SOL     OW80993   6.416   5.127   3.347 -0.3755  0.5744  0.0870
26013SOL    HW180994   6.372   5.192   3.292 -0.2797  0.5368 -0.0339
26013SOL    HW280995   6.362   5.048   3.340 -0.0535  0.3980 -0.4030
26014SOL     OW80996   6.080   8.926   5.518 -0.0113  0.1460 -0.2436
26014SOL    HW180997   6.048   8.960   5.435  0.7091  0.8456 -0.2421
26014SOL    HW280998   6.171   8.902   5.501  0.4013  1.0796  0.5476
26015SOL     OW80999   0.519   6.339   1.250  0.2319 -0.2641 -0.1548
26015SOL    HW181000   0.514   6.432   1.272 -1.7738 -0.0624 -1.2507
26015SOL    HW281001   0.474   6.295   1.323 -1.0421 -0.1248 -0.8312
26016SOL     OW81002   5.325  10.628   0.935  0.1911  0.4934  0.1647
26016SOL    HW181003   5.269  10.705   0.930  0.2394  0.4681 -1.4715
26016SOL    HW281004   5.320  10.589   0.847  0.7189 -0.9693  0.7505
26017SOL     OW81005   6.851   4.807   7.971  0.4153 -0.5324  0.0190
26017SOL    HW181006   6.942   4.837   7.975  0.5994 -1.1492  0.5262
26017SOL    HW281007   6.817   4.820   8.059 -0.7112  1.8337 -0.6712
26018SOL     OW81008   7.574   0.698   9.310  0.0858  0.1649  0.5657
26018SOL    HW181009   7.541   0.633   9.371 -1.2124  0.3959  0.1554
26018SOL    HW281010   7.646   0.741   9.356  0.0577 -0.6236  1.3627
26019SOL     OW81011   3.016   4.046   5.974 -0.1602 -0.1249 -0.1084
26019SOL    HW181012   2.925   4.029   5.951 -0.7598  1.2129  1.1232
26019SOL    HW281013   3.031   4.137   5.948  0.6068 -0.1145  0.3452
26020SOL     OW81014   6.912   4.979   7.531  0.4217  0.2408  0.1532
26020SOL    HW181015   6.864   5.061   7.546 -0.2855 -0.3401  1.1436
26020SOL    HW281016   6.923   4.975   7.436 -0.9059  0.7254 -0.0465
26021SOL     OW81017   9.248   4.552   9.497 -0.0240  0.0248 -0.0447
26021SOL    HW181018   9.174   4.596   9.453 -0.4743  0.2692  0.9298
26021SOL    HW281019   9.252   4.466   9.455 -1.1591 -0.1634  0.1850
26022SOL     OW81020   1.679   3.071   1.285 -0.4330  0.1916 -0.1346
26022SOL    HW181021   1.673   2.979   1.311  1.5246  0.4587  1.5624
26022SOL    HW281022   1.603   3.085   1.228 -1.4539 -2.1410  0.5226
26023SOL     OW81023   8.384   5.717   1.587 -0.7562 -0.1157 -0.3587
26023SOL    HW181024   8.342   5.689   1.505 -1.6039 -0.3535  0.1497
26023SOL    HW281025   8.315   5.764   1.635 -0.4963 -0.6577  0.5652
26024SOL     OW81026   0.200   4.612   6.131 -0.3818 -0.2524  0.3050
26024SOL    HW181027   0.162   4.547   6.191 -0.4880 -0.3762  0.1055
26024SOL    HW281028   0.288   4.628   6.166 -0.5173 -0.1708  0.6114
26025SOL     OW81029   0.854  10.041   1.581 -0.2214  0.1221 -0.5266
26025SOL    HW181030   0.815   9.954   1.577 -0.4606  0.2167 -0.2655
26025SOL    HW281031   0.798  10.095   1.525 -0.1702  0.1458 -0.5553
26026SOL     OW81032   2.116   2.133   7.873 -0.5666  0.5626 -0.1944
26026SOL    HW181033   2.209   2.121   7.891 -0.6861  0.6611  0.5047
26026SOL    HW281034   2.111   2.139   7.778  0.1161  0.3487 -0.2497
26027SOL     OW81035   7.759   0.854   9.423 -0.7042 -0.1194  0.0898
26027SOL    HW181036   7.835   0.911   9.417  0.5306 -1.6646  0.2080
26027SOL    HW281037   7.723   0.871   9.510  0.4118 -0.3972  0.6274
26028SOL     OW81038   7.027   1.880   9.990  0.0369  0.7306 -0.2602
26028SOL    HW181039   7.094   1.944  10.013  2.5099 -1.9106  0.4092
26028SOL    HW281040   6.988   1.855  10.074  0.6326 -0.2029 -0.2519
26029SOL     OW81041   1.193   0.157   3.977  0.3365  0.4278 -0.1120
26029SOL    HW181042   1.149   0.152   3.892  0.4937  0.2866 -0.1863
26029SOL    HW281043   1.234   0.071   3.987  0.5723  0.5508 -0.0305
26030SOL     OW81044   0.050   1.379   4.775 -0.0381  0.3054  0.1606
26030SOL    HW181045   0.036   1.350   4.685 -0.5687  1.5472 -0.1853
26030SOL    HW281046   0.116   1.319   4.810  0.3275 -0.0697 -1.1219
26031SOL     OW81047  10.578   8.268   2.226 -0.3228  0.2459  0.4245
26031SOL    HW181048  10.510   8.326   2.258 -0.8005 -0.1499  0.1449
26031SOL    HW281049  10.592   8.205   2.297 -0.2765  0.3066  0.4684
26032SOL     OW81050   6.046   7.056   5.442  0.2027  0.5481 -0.3402
26032SOL    HW181051   5.984   7.003   5.492 -0.8415  1.4909 -0.5885
26032SOL    HW281052   6.132   7.037   5.481 -0.2377 -0.7676  0.0180
26033SOL     OW81053   9.262   7.668   0.627  0.1046 -0.3347  0.3521
26033SOL    HW181054   9.292   7.745   0.675  1.5182  0.7402 -2.0235
26033SOL    HW281055   9.167   7.679   0.619  0.2301  0.9255  0.4695
26034SOL     OW81056   3.746   4.240   3.795  0.2265  0.3023 -0.2381
26034SOL    HW181057   3.676   4.243   3.859 -0.0732 -2.9497 -0.2317
26034SOL    HW281058   3.820   4.283   3.838 -0.8760  1.0205  0.9988
26035SOL     OW81059   1.718   3.600   1.525 -0.2569  0.5565 -0.5255
26035SOL    HW181060   1.683   3.667   1.466 -0.1586 -0.6393 -2.0078
26035SOL    HW281061   1.812   3.602   1.510 -0.0904  1.0349  0.4906
26036SOL     OW81062   7.096   7.781   4.919 -0.5173 -0.8036 -0.5534
26036SOL    HW181063   7.105   7.687   4.930 -2.3065 -1.1713 -1.8286
26036SOL    HW281064   7.027   7.807   4.980 -0.1112 -0.3195 -0.2856
26037SOL     OW81065   1.261   9.338   4.307  0.4129 -0.4567 -0.6171
26037SOL    HW181066   1.325   9.394   4.264  0.1171  1.0695  0.8346
26037SOL    HW281067   1.280   9.345   4.401 -0.1789 -2.1424 -0.3158
26038SOL     OW81068   6.311   9.609   8.196 -0.3990  0.2811 -0.0499
26038SOL    HW181069   6.225   9.575   8.221 -0.5393  1.8283  1.7974
26038SOL    HW281070   6.297   9.644   8.108 -1.3769 -0.3790 -0.1869
26039SOL     OW81071   5.349   7.546   3.246 -0.4549 -0.1724  0.2316
26039SOL    HW181072   5.376   7.548   3.337  1.2753  0.4264 -0.2520
26039SOL    HW281073   5.306   7.631   3.232 -2.1568 -0.8782  0.8399
26040SOL     OW81074   8.365   6.859   9.163  0.0192  0.0111  0.4055
26040SOL    HW181075   8.387   6.890   9.075  1.4782  0.8926  1.0585
26040SOL    HW281076   8.272   6.881   9.174  0.9275  4.3666  0.8618
26041SOL     OW81077   3.164  10.186   9.443 -0.4918  0.0963  0.5633
26041SOL    HW181078   3.118  10.269   9.432 -1.0038 -0.1567  0.7668
26041SOL    HW281079   3.133  10.152   9.527 -0.2291 -0.2625  0.5177
26042SOL     OW81080   1.532   1.354   7.340 -0.2144  1.1318 -0.4447
26042SOL    HW181081   1.543   1.353   7.435 -0.4262  2.3227 -0.3837
26042SOL    HW281082   1.596   1.291   7.306 -1.0030 -0.2532  0.5562
26043SOL     OW81083   3.362   3.909   4.900 -0.4449 -0.5115  0.4549
26043SOL    HW181084   3.352   3.877   4.811  0.8858  1.4632 -0.4833
26043SOL    HW281085   3.431   3.854   4.938  1.1928  0.5780 -0.8230
26044SOL     OW81086   5.372   6.403   4.414 -0.3623  0.1280  0.1920
26044SOL    HW181087   5.416   6.426   4.496 -0.3770 -1.2220  0.6063
26044SOL    HW281088   5.392   6.310   4.402 -2.0534 -0.2071 -0.2683
26045SOL     OW81089   4.008   9.724   3.576 -0.3224  0.0869 -0.1883
26045SOL    HW181090   4.031   9.815   3.554 -1.4877  0.0816 -1.6341
26045SOL    HW281091   3.928   9.731   3.628  0.2118 -0.0839  0.6756
26046SOL     OW81092   5.122   2.929   4.777  0.1986 -0.4647 -0.1883
26046SOL    HW181093   5.066   2.900   4.705  0.9211 -0.1230 -0.9122
26046SOL    HW281094   5.128   3.024   4.766  1.3020 -0.5470 -0.4268
26047SOL     OW81095   1.990   2.091   8.617  0.0363 -0.2873 -0.2138
26047SOL    HW181096   2.009   2.153   8.688  0.0180 -0.2801 -0.2144
26047SOL    HW281097   1.977   2.147   8.541  0.8841 -0.3360 -0.4085
26048SOL     OW81098   0.740   0.037   4.385  0.6895  0.6047 -0.3695
26048SOL    HW181099   0.710  -0.049   4.417 -2.5932  1.6048 -0.3758
26048SOL    HW281100   0.822   0.052   4.431 -0.2054 -1.1948  2.0558
26049SOL     OW81101   4.199   9.619  10.212  0.3313 -0.3114  0.2578
26049SOL    HW181102   4.255   9.648  10.140 -0.5017 -0.5110 -0.4805
26049SOL    HW281103   4.139   9.692  10.227  0.7763 -0.0915  1.0601
26050SOL     OW81104   6.792   1.158   2.291 -0.6330 -0.0209  0.1993
26050SOL    HW181105   6.835   1.089   2.341 -0.9373 -0.1774  0.2453
26050SOL    HW281106   6.845   1.167   2.212 -0.1060  0.2798  0.5777
26051SOL     OW81107   4.347   9.191   9.547  0.0200 -0.7143 -0.4849
26051SOL    HW181108   4.275   9.184   9.608  0.6871 -0.1089  0.3941
26051SOL    HW281109   4.426   9.182   9.601  0.6606  1.5322 -0.9703
26052SOL     OW81110   8.091   7.976   0.173 -0.1042 -0.2626 -0.2624
26052SOL    HW181111   8.033   8.051   0.187  0.1630 -0.2169  0.6434
26052SOL    HW281112   8.136   7.964   0.256 -0.4887 -1.7315 -0.2392
26053SOL     OW81113   4.986   2.548   0.655 -0.8291 -0.2746  0.4856
26053SOL    HW181114   4.939   2.560   0.737  0.1104 -0.0370  0.9986
26053SOL    HW281115   4.922   2.571   0.587 -2.1783 -2.1267  1.0321
26054SOL     OW81116   7.968   5.685   3.899  0.1519 -0.0353  0.1317
26054SOL    HW181117   7.924   5.623   3.841 -1.7169  0.5898  0.8144
26054SOL    HW281118   8.059   5.655   3.901  0.1839 -0.3807 -2.6855
26055SOL     OW81119   7.898   5.352   1.635  1.2519 -0.5182 -0.0479
26055SOL    HW181120   7.823   5.411   1.637  0.0555 -1.9392 -1.0858
26055SOL    HW281121   7.969   5.405   1.597  0.2849  0.3088 -0.7383
26056SOL     OW81122   7.287   6.585   2.090  0.5221 -0.5029  0.2194
26056SOL    HW181123   7.308   6.661   2.035 -2.3105  0.1888 -0.0755
26056SOL    HW281124   7.234   6.529   2.033  0.1992 -1.3292  1.3087
26057SOL     OW81125  10.155   0.879   2.008 -0.1773 -0.0640 -0.4860
26057SOL    HW181126  10.209   0.949   2.046 -1.2285  0.2167  0.5838
26057SOL    HW281127  10.211   0.802   2.009  1.0102  0.7404 -1.6888
26058SOL     OW81128   9.314   7.557   8.685 -0.3125  0.1007  0.1968
26058SOL    HW181129   9.357   7.627   8.636 -1.2369 -0.1123 -0.9860
26058SOL    HW281130   9.269   7.601   8.757 -1.1286  0.7860 -0.7010
26059SOL     OW81131   7.107   3.238   0.084 -0.2688  0.5918 -0.1642
26059SOL    HW181132   7.116   3.162   0.142  0.2102  2.0272  1.7774
26059SOL    HW281133   7.031   3.285   0.119 -1.0980  0.5786 -1.8867
26060SOL     OW81134   2.499   1.397   8.506 -0.3270 -0.1754  0.2071
26060SOL    HW181135   2.517   1.335   8.576  0.8470  1.0378  1.0245
26060SOL    HW281136   2.533   1.480   8.537 -0.7909  0.6505 -1.3464
26061SOL     OW81137   6.582   4.493   6.392 -0.1678  0.0260 -0.4241
26061SOL    HW181138   6.620   4.475   6.306 -2.7943 -0.9148 -1.4809
26061SOL    HW281139   6.564   4.407   6.429  0.1292  0.4407  0.7046
26062SOL     OW81140   2.456   1.687   3.695 -0.2169 -0.2371  0.0043
26062SOL    HW181141   2.397   1.763   3.691 -0.8076 -0.7401 -1.6311
26062SOL    HW281142   2.542   1.725   3.714 -0.4147  0.9101 -1.2490
26063SOL     OW81143   9.389   0.754   5.393 -0.1720  0.0517 -0.1517
26063SOL    HW181144   9.481   0.775   5.378 -0.3568  0.4018 -0.8405
26063SOL    HW281145   9.360   0.714   5.311 -0.0297 -2.2407  0.8360
26064SOL     OW81146   2.996   9.050   5.217  0.3266 -0.2706 -0.1877
26064SOL    HW181147   2.986   9.136   5.177  0.6275 -0.2176 -0.1529
26064SOL    HW281148   3.084   9.051   5.254  0.3236 -0.5844 -0.1682
26065SOL     OW81149   6.651   1.707   5.999  0.2360 -0.0253  0.1616
26065SOL    HW181150   6.723   1.645   6.010 -0.1079 -1.2579 -3.2448
26065SOL    HW281151   6.683   1.769   5.934 -0.9784  0.7784  0.2982
26066SOL     OW81152   1.307  10.179   8.668 -0.0119  0.9548  0.2428
26066SOL    HW181153   1.231  10.157   8.614 -0.4595  3.3931 -0.2049
26066SOL    HW281154   1.280  10.159   8.758 -0.0303 -1.0845 -0.1635
26067SOL     OW81155   5.763   1.740  10.019 -0.2291  0.1524 -0.0289
26067SOL    HW181156   5.715   1.741   9.937  0.2870 -0.1620 -0.3382
26067SOL    HW281157   5.806   1.826  10.023  0.2414 -0.0609 -0.3891
26068SOL     OW81158   0.938   2.397   6.147  0.5067 -0.2199  0.5300
26068SOL    HW181159   0.976   2.466   6.093  0.6765  0.4518  1.4894
26068SOL    HW281160   0.931   2.321   6.088  0.9130  0.4179 -0.3546
26069SOL     OW81161   1.993   4.710   6.950 -0.2468 -0.4426  0.0342
26069SOL    HW181162   1.988   4.776   6.881  0.4072 -1.3600 -0.9290
26069SOL    HW281163   1.909   4.715   6.995 -0.6584  0.2217 -0.7861
26070SOL     OW81164   8.194   5.109   4.810  0.0612 -0.2838  0.0593
26070SOL    HW181165   8.113   5.150   4.840 -1.4293 -0.9472 -2.6944
26070SOL    HW281166   8.254   5.182   4.795 -0.7871  0.4323  0.0925
26071SOL     OW81167   0.906   7.561   7.064 -0.4503 -0.0963  0.2153
26071SOL    HW181168   0.881   7.542   7.154  1.0172  2.6076  1.2986
26071SOL    HW281169   0.858   7.640   7.041  1.4832  0.9900 -0.2513
26072SOL     OW81170   2.676   3.800   7.571 -0.0315  0.0821  0.1386
26072SOL    HW181171   2.666   3.838   7.483  0.9621  0.1381  0.0435
26072SOL    HW281172   2.689   3.876   7.628  2.0092 -0.0721 -0.0586
26073SOL     OW81173   3.904   0.181   4.746  0.5201 -0.4886 -0.1567
26073SOL    HW181174   3.891   0.236   4.669  1.1121  0.9977  0.7658
26073SOL    HW281175   3.998   0.167   4.750  0.5706 -0.0055  0.6348
26074SOL     OW81176   7.574   3.859   2.238 -1.0167  1.1343  0.0308
26074SOL    HW181177   7.564   3.887   2.329 -0.1782  1.9191 -0.1100
26074SOL    HW281178   7.646   3.796   2.240 -1.9784 -0.0007  0.1247
26075SOL     OW81179   2.626   3.090   8.568  0.2206  0.6161 -0.0775
26075SOL    HW181180   2.672   3.016   8.528 -0.7224  0.0783 -0.1975
26075SOL    HW281181   2.584   3.054   8.645  1.1599  1.4219  0.8417
26076SOL     OW81182   8.138   2.955   9.323  0.4487 -0.3462  0.6278
26076SOL    HW181183   8.050   2.990   9.306  0.4773 -0.5860 -0.0405
26076SOL    HW281184   8.130   2.861   9.307  0.7686 -0.4054  0.8111
26077SOL     OW81185   6.321   8.743   8.437 -0.5960  0.1846  0.3107
26077SOL    HW181186   6.339   8.666   8.383  1.2648  0.8754 -0.1341
26077SOL    HW281187   6.276   8.708   8.515 -1.1841 -1.1222 -0.5801
26078SOL     OW81188   5.012   8.620   9.489  0.6900  0.0778  0.0921
26078SOL    HW181189   4.937   8.577   9.447  0.3615  1.0470 -0.3419
26078SOL    HW281190   5.080   8.620   9.421  1.3958 -1.5234  0.7426
26079SOL     OW81191  10.526   7.936   2.248  0.6125  0.6978  0.1663
26079SOL    HW181192  10.565   7.944   2.161 -1.2264  0.9167 -0.6877
26079SOL    HW281193  10.456   7.872   2.236  0.2244  0.8713  1.4392
26080SOL     OW81194   3.771   7.953   1.551  0.3253 -0.6414  0.0750
26080SOL    HW181195   3.819   7.971   1.633  0.6101  0.0991 -0.2487
26080SOL    HW281196   3.738   7.864   1.562  0.6244 -0.6604  0.8743
26081SOL     OW81197   1.727   2.709   7.866 -0.2533  0.5330  0.0680
26081SOL    HW181198   1.675   2.689   7.789  1.9520 -1.0185 -1.1498
26081SOL    HW281199   1.689   2.790   7.902 -1.5705  1.1003 -2.4287
26082SOL     OW81200   0.528   8.530   6.086 -0.4116 -0.1864  0.6926
26082SOL    HW181201   0.493   8.618   6.068 -0.8860 -0.1456  1.7630
26082SOL    HW281202   0.623   8.541   6.078 -0.5487 -0.4375 -2.8789
26083SOL     OW81203   3.890  10.014   3.834  0.0841  0.5903  0.3124
26083SOL    HW181204   3.928  10.077   3.774  1.7685 -0.3414  0.3488
26083SOL    HW281205   3.884   9.932   3.784  0.4635  0.0915  1.0570
26084SOL     OW81206   4.884   1.655   8.947 -0.4985  0.7031  0.4292
26084SOL    HW181207   4.895   1.736   8.996 -1.5055  0.3792  1.2381
26084SOL    HW281208   4.790   1.649   8.931 -0.3779 -0.0452 -0.0603
26085SOL     OW81209   0.114   1.908   0.242  0.9256  0.9115 -0.2604
26085SOL    HW181210   0.020   1.910   0.226  0.8797 -2.0522 -1.0476
26085SOL    HW281211   0.149   1.852   0.172  3.2912  1.9619 -0.0132
26086SOL     OW81212   7.460   4.065   0.807  0.0600 -0.4998  0.1963
26086SOL    HW181213   7.395   4.112   0.756  0.0919  0.3101  0.8737
26086SOL    HW281214   7.411   3.994   0.849 -0.5637  0.4923  1.2284
26087SOL     OW81215  10.134  10.469  10.540  0.1332  0.1072 -0.4919
26087SOL    HW181216  10.176  10.387  10.515  0.7906  0.2443  0.1378
26087SOL    HW281217  10.104  10.507  10.457 -0.0799 -0.7090 -0.7953
26088SOL     OW81218   3.895   5.767   1.135 -0.7829 -0.2734  0.1085
26088SOL    HW181219   3.846   5.696   1.177 -1.3252 -0.0265 -0.1013
26088SOL    HW281220   3.833   5.806   1.073 -0.5428  0.4849  0.3339
26089SOL     OW81221   5.283  10.323  10.467  0.4515  0.1647 -0.3215
26089SOL    HW181222   5.236  10.311  10.550 -1.0762 -0.6970 -1.2684
26089SOL    HW281223   5.257  10.409  10.437 -0.5330 -0.2960 -0.8247
26090SOL     OW81224   3.760   6.373   7.015 -0.2024 -0.2330 -0.2697
26090SOL    HW181225   3.758   6.346   7.107  1.7855  0.8298  0.1227
26090SOL    HW281226   3.689   6.438   7.008  0.6421  0.8623  0.9346
26091SOL     OW81227   4.385   1.299   0.776 -0.1777 -0.4655  0.8300
26091SOL    HW181228   4.457   1.236   0.785 -0.1948 -0.4344  1.2057
26091SOL    HW281229   4.313   1.248   0.739  0.4005 -0.2302 -0.6878
26092SOL     OW81230   0.910   1.600   0.096 -0.1961  0.3426 -0.1894
26092SOL    HW181231   0.946   1.583   0.183 -1.0446 -0.3449  0.0421
26092SOL    HW281232   0.886   1.693   0.097 -0.3906  0.2893  0.3822
26093SOL     OW81233   8.263   2.992   0.452  0.0745 -0.2171  0.0422
26093SOL    HW181234   8.317   2.917   0.427  0.9847  0.5703 -0.4720
26093SOL    HW281235   8.204   3.005   0.378 -0.7039 -0.9611  0.5202
26094SOL     OW81236   9.969   0.486   9.881 -0.5597 -0.2629  0.2633
26094SOL    HW181237   9.893   0.445   9.841  0.9415 -0.9559 -2.0655
26094SOL    HW281238  10.004   0.418   9.940 -0.2467 -0.9644 -0.7017
26095SOL     OW81239   9.377   8.686   9.566 -0.0277 -0.2341 -0.2870
26095SOL    HW181240   9.310   8.754   9.555 -0.0503 -0.4895 -2.1471
26095SOL    HW281241   9.439   8.724   9.628 -1.1246  0.6019  0.3403
26096SOL     OW81242   4.963   4.309   7.656 -0.4844  0.5382 -0.1541
26096SOL    HW181243   4.954   4.405   7.655 -3.2958  0.3399 -1.1649
26096SOL    HW281244   4.947   4.283   7.565 -0.9200 -0.9750  0.3327
26097SOL     OW81245   3.375   5.982   2.398  0.3003  0.1667 -0.2532
26097SOL    HW181246   3.379   5.929   2.319  0.7247 -0.7438  0.3598
26097SOL    HW281247   3.282   6.003   2.409 -0.3111 -2.7432  0.9343
26098SOL     OW81248   5.533   6.978   0.672  0.0883  0.2733 -0.2883
26098SOL    HW181249   5.544   7.073   0.670 -3.0572  0.8163  1.6807
26098SOL    HW281250   5.497   6.956   0.586 -0.5754  1.1136 -0.2367
26099SOL     OW81251  10.240   9.843   3.527  0.7488  0.5407 -0.4088
26099SOL    HW181252  10.202   9.883   3.605  0.4594 -0.6833  0.0936
26099SOL    HW281253  10.330   9.875   3.525  0.2885  1.9011 -0.5176
26100SOL     OW81254   8.706   0.148   2.809 -0.2807 -0.3046  0.2693
26100SOL    HW181255   8.756   0.069   2.790  0.0677 -0.3077  1.1471
26100SOL    HW281256   8.615   0.119   2.813 -0.6668  0.0122 -3.1827
26101SOL     OW81257   3.743  10.089   0.166 -0.0637  0.3127 -0.3089
26101SOL    HW181258   3.832  10.116   0.143  0.0362 -1.0217 -1.6106
26101SOL    HW281259   3.695  10.172   0.174  1.1500  1.0304 -0.1222
26102SOL     OW81260   6.572   6.049   2.723  0.1027  0.1853  0.5094
26102SOL    HW181261   6.627   6.029   2.799  0.0578  0.4918  0.6260
26102SOL    HW281262   6.610   5.998   2.651  1.6856  1.7815  0.1468
26103SOL     OW81263   2.203   2.249   0.456  0.2843 -0.1723 -0.1108
26103SOL    HW181264   2.275   2.202   0.413  1.1744  0.5594  0.5257
26103SOL    HW281265   2.222   2.341   0.439 -0.1888  0.0518  0.5478
26104SOL     OW81266   7.841   7.438  10.274 -0.2922  0.6667  0.3300
26104SOL    HW181267   7.756   7.476  10.252 -1.4058 -2.6567 -1.9354
26104SOL    HW281268   7.904   7.485  10.218 -1.2284  0.8352 -0.6109
26105SOL     OW81269   5.308   5.897   8.530 -0.5579 -0.0630  0.0334
26105SOL    HW181270   5.267   5.968   8.480  1.3731  2.4219  1.7043
26105SOL    HW281271   5.326   5.829   8.464 -3.2806  0.5206 -1.4927
26106SOL     OW81272   9.547   1.316  10.177  0.0410  0.4627 -0.3085
26106SOL    HW181273   9.589   1.262  10.109 -0.1049 -1.6953  1.2122
26106SOL    HW281274   9.619   1.347  10.231  0.0821  1.4235 -0.8966
26107SOL     OW81275   3.918   6.177   7.768  0.6405 -0.1217  0.2469
26107SOL    HW181276   3.933   6.265   7.734 -1.3554  0.6040  1.0859
26107SOL    HW281277   3.905   6.124   7.689 -0.3265  0.8109 -0.2608
26108SOL     OW81278   7.363   0.979   8.193 -0.1661 -0.0324 -0.4884
26108SOL    HW181279   7.404   0.940   8.116  3.8516  1.5700  0.5734
26108SOL    HW281280   7.408   0.938   8.268  0.4630  2.6644  0.7521
26109SOL     OW81281   1.291   0.187   0.955 -0.1835 -0.7899  0.1072
26109SOL    HW181282   1.269   0.131   1.030 -4.3392  0.2097 -0.1273
26109SOL    HW281283   1.215   0.181   0.898  0.0476  3.3886 -0.9621
26110SOL     OW81284   5.292   0.062   0.262 -0.2308 -0.1251  0.0148
26110SOL    HW181285   5.312   0.152   0.286  2.7325 -0.2603 -1.5415
26110SOL    HW281286   5.339   0.009   0.326 -1.6814 -0.6240  0.7169
26111SOL     OW81287   7.764   7.515   3.769 -0.7064  0.4065  0.2883
26111SOL    HW181288   7.670   7.510   3.788 -0.9911  2.1017 -0.5219
26111SOL    HW281289   7.803   7.541   3.853 -1.4550  3.4690 -0.1858
26112SOL     OW81290   1.002   8.692  10.485 -0.4703 -0.2112 -0.5499
26112SOL    HW181291   0.924   8.709  10.537 -0.4822 -1.5390 -0.0814
26112SOL    HW281292   0.969   8.654  10.403 -0.3173 -1.6803  0.0310
26113SOL     OW81293  10.038   4.746   8.289 -0.1180  0.4289  0.0399
26113SOL    HW181294  10.104   4.732   8.358 -0.2618 -0.5522 -0.0111
26113SOL    HW281295  10.040   4.840   8.273  2.3331  0.2785 -0.9913
26114SOL     OW81296   2.311   5.752   8.321 -0.0642 -0.1699 -0.0027
26114SOL    HW181297   2.226   5.791   8.300 -0.3820  0.3248  1.9440
26114SOL    HW281298   2.367   5.775   8.247 -1.3951  0.2836 -0.9004
26115SOL     OW81299   7.496   3.216   0.649  0.3110 -0.0189  0.4974
26115SOL    HW181300   7.516   3.282   0.715 -2.4047  1.8960 -0.4286
26115SOL    HW281301   7.529   3.252   0.567  0.1650 -0.5252  0.2106
26116SOL     OW81302   3.689   7.907   4.179 -0.3225  0.6139  0.4777
26116SOL    HW181303   3.684   7.874   4.090 -1.8786 -1.3056  1.2069
26116SOL    HW281304   3.603   7.947   4.194  0.5084  2.4679  0.6055
26117SOL     OW81305   4.021   0.345   2.056  0.0132 -0.0012 -0.3159
26117SOL    HW181306   3.953   0.328   1.990 -0.2822  0.0883 -0.0349
26117SOL    HW281307   4.099   0.304   2.020 -0.5662 -1.5821  0.1157
26118SOL     OW81308   3.805   0.082   0.547 -0.0231  0.2023 -0.2200
26118SOL    HW181309   3.760   0.157   0.587 -0.5426  0.2126 -0.7952
26118SOL    HW281310   3.893   0.114   0.528 -0.9102  1.4902 -2.6268
26119SOL     OW81311   7.913   2.088   5.200 -0.0900  0.2078 -0.2599
26119SOL    HW181312   7.850   2.133   5.257 -1.9807 -1.0710 -1.2279
26119SOL    HW281313   7.877   1.999   5.191  0.8544 -0.0089 -2.3634
26120SOL     OW81314   8.421  10.261   4.606  0.3157  0.9285 -0.0344
26120SOL    HW181315   8.345  10.301   4.648 -0.6534  0.0192 -0.8355
26120SOL    HW281316   8.493  10.322   4.621 -0.6326  1.9295  0.5467
26121SOL     OW81317   4.082   9.581   2.208  0.2075  0.2189  0.0686
26121SOL    HW181318   4.050   9.494   2.232 -1.4157  0.8799  0.4283
26121SOL    HW281319   4.126   9.613   2.287 -0.0308  0.1058  0.2485
26122SOL     OW81320   7.370   2.801   6.800  0.4074  0.4684  0.5585
26122SOL    HW181321   7.421   2.882   6.795 -0.5592  1.0336 -0.4166
26122SOL    HW281322   7.377   2.763   6.713 -1.5923  1.0427  0.1116
26123SOL     OW81323   3.140   4.571   4.255  0.2082  0.5611  0.0932
26123SOL    HW181324   3.148   4.659   4.293  1.2328  1.1655 -1.4130
26123SOL    HW281325   3.104   4.586   4.168 -2.3734 -0.8154  0.8245
26124SOL     OW81326   4.730   9.550   0.138  0.0666  0.0950 -0.4332
26124SOL    HW181327   4.671   9.495   0.086  1.0943 -1.6973  0.1990
26124SOL    HW281328   4.717   9.521   0.228  0.5096  1.0469 -0.0483
26125SOL     OW81329   5.816   5.014   4.686 -0.2393  0.2819 -0.6614
26125SOL    HW181330   5.843   4.928   4.655  0.5340  0.5872 -0.8465
26125SOL    HW281331   5.835   5.074   4.614 -2.2606  0.3938 -1.1579
26126SOL     OW81332   8.523   6.447   2.774  0.3353  0.1550  0.2159
26126SOL    HW181333   8.549   6.530   2.734  1.1344  0.0144  0.4234
26126SOL    HW281334   8.604   6.395   2.775  0.0795 -0.2423  1.0181
26127SOL     OW81335  10.106   2.110   9.949 -0.1640  0.1089  0.4455
26127SOL    HW181336  10.160   2.031   9.945 -0.9111 -0.4216  0.7080
26127SOL    HW281337  10.055   2.101  10.029 -1.5067  0.0244 -0.3871
26128SOL     OW81338   4.586   6.979   8.941 -0.2195  0.1754 -0.3035
26128SOL    HW181339   4.596   6.934   9.025  0.0815  2.5036  0.9837
26128SOL    HW281340   4.523   6.925   8.893  0.3578 -1.7690  0.9736
26129SOL     OW81341   1.041   9.518   5.887  0.8149 -0.0007 -0.1269
26129SOL    HW181342   0.981   9.444   5.879 -0.6294  1.0199  0.6758
26129SOL    HW281343   1.091   9.500   5.967  0.5521 -0.1712  0.0014
26130SOL     OW81344   5.093   2.127   1.602  0.0697 -0.1370 -0.3046
26130SOL    HW181345   5.127   2.046   1.563  0.8317 -0.1665  0.3948
26130SOL    HW281346   5.000   2.128   1.577  0.7866  0.6574 -3.4571
26131SOL     OW81347   6.497   4.397   7.604 -0.7033 -0.2146 -0.3919
26131SOL    HW181348   6.538   4.471   7.649 -1.7535 -0.7281  1.5343
26131SOL    HW281349   6.533   4.320   7.647 -0.7098 -0.7839 -1.3869
26132SOL     OW81350  10.642   7.335   5.772 -0.2759  0.1796 -0.0303
26132SOL    HW181351  10.564   7.346   5.718  0.3876  1.9059 -0.6990
26132SOL    HW281352  10.704   7.400   5.739  1.5315 -1.2753  0.3496
26133SOL     OW81353   7.294   8.857   2.858  0.3221  0.1976 -0.5018
26133SOL    HW181354   7.283   8.898   2.944 -0.7263  1.1176 -1.0526
26133SOL    HW281355   7.230   8.786   2.856  0.9246 -0.3668 -0.2209
26134SOL     OW81356   7.990   4.239   6.179 -0.5866  0.3034 -0.3636
26134SOL    HW181357   7.904   4.266   6.147 -0.1731  0.8529 -1.0539
26134SOL    HW281358   8.031   4.196   6.104  0.4770  1.7894 -0.6771
26135SOL     OW81359   1.755   3.925   0.479 -0.4512 -0.1235 -0.1061
26135SOL    HW181360   1.708   4.008   0.473 -1.1672 -0.2623  2.4646
26135SOL    HW281361   1.686   3.858   0.479 -0.0798 -0.5200  0.6309
26136SOL     OW81362   8.432   8.805   7.813 -0.5812  0.1938  0.6517
26136SOL    HW181363   8.400   8.760   7.735 -2.1138  0.9100  0.8284
26136SOL    HW281364   8.492   8.872   7.779 -0.2788 -0.2899  0.2057
26137SOL     OW81365   9.498   8.994   4.305  0.1939 -0.0205  0.3385
26137SOL    HW181366   9.583   9.038   4.302  2.0043 -3.2082  0.4328
26137SOL    HW281367   9.443   9.043   4.244  2.5098  1.4213 -0.6929
26138SOL     OW81368   4.413   5.693   1.543  0.1305 -0.2083  0.6235
26138SOL    HW181369   4.498   5.720   1.579  0.6198 -0.8007 -0.0710
26138SOL    HW281370   4.401   5.748   1.466  1.5290 -2.4530 -1.2960
26139SOL     OW81371   6.246   0.491   0.281 -0.7793 -0.3693  0.2948
26139SOL    HW181372   6.206   0.576   0.293  1.5290  0.8995 -0.3072
26139SOL    HW281373   6.276   0.492   0.190  0.1440 -1.4244  0.5667
26140SOL     OW81374   3.065   7.672   8.537  0.1835 -0.2599 -0.2392
26140SOL    HW181375   3.127   7.690   8.467 -1.4777  1.7355 -1.3309
26140SOL    HW281376   3.069   7.577   8.549  2.3921 -0.3495 -1.1982
26141SOL     OW81377   5.722   7.164   1.331  0.1963  0.4500  0.2259
26141SOL    HW181378   5.725   7.070   1.349 -0.2826  0.5187  0.7154
26141SOL    HW281379   5.770   7.204   1.403  1.7483  0.4966 -0.8099
26142SOL     OW81380   6.080   3.884   8.675  0.6781  0.3342 -0.0431
26142SOL    HW181381   6.085   3.870   8.580  0.2909  1.0647 -0.1827
26142SOL    HW281382   6.064   3.978   8.684 -0.9623  0.0297  0.6793
26143SOL     OW81383  10.420   4.737   4.003 -0.0481 -0.4595 -0.4600
26143SOL    HW181384  10.505   4.779   4.013  0.0980 -0.2948 -2.0792
26143SOL    HW281385  10.390   4.765   3.917 -1.6206 -0.7515 -0.0363
26144SOL     OW81386   2.088   8.659   7.957 -0.4366 -0.5742  0.3033
26144SOL    HW181387   2.155   8.652   7.889 -0.3595 -0.5657  0.3791
26144SOL    HW281388   2.121   8.725   8.017  0.0127 -1.3560  0.9376
26145SOL     OW81389   4.768   0.563   7.395 -0.5079  0.2501  0.2738
26145SOL    HW181390   4.741   0.471   7.389  1.0949 -0.4388  2.4507
26145SOL    HW281391   4.724   0.605   7.321 -1.1232 -2.2907 -0.9293
26146SOL     OW81392   4.142   8.937   9.346 -0.2104  0.3358  0.7390
26146SOL    HW181393   4.073   8.874   9.324 -0.1186  0.2750  0.6228
26146SOL    HW281394   4.217   8.882   9.371  0.0720  0.3890  0.0266
26147SOL     OW81395   4.327  10.557   7.827 -0.0810 -0.2491  0.0602
26147SOL    HW181396   4.385  10.491   7.866  0.0341 -0.1224  0.1032
26147SOL    HW281397   4.288  10.602   7.902 -2.6418 -2.3686  0.1468
26148SOL     OW81398   1.058   5.537   1.362 -0.5229  0.4124  0.0979
26148SOL    HW181399   1.134   5.580   1.323 -0.6529  0.1806 -0.4079
26148SOL    HW281400   1.008   5.503   1.288 -0.5725 -0.3560  0.4785
26149SOL     OW81401   1.982   4.026   5.428  0.1333 -0.9576  0.3070
26149SOL    HW181402   1.914   3.960   5.439  1.2602 -2.2532 -0.2538
26149SOL    HW281403   2.033   4.022   5.509 -0.9321  0.6579  1.1273
26150SOL     OW81404  10.444   3.333   4.698  0.0050  0.2189  0.3420
26150SOL    HW181405  10.522   3.289   4.730 -0.7738 -0.4714  1.3366
26150SOL    HW281406  10.372   3.294   4.747 -1.2792 -0.9275 -2.2659
26151SOL     OW81407   6.608   4.003   4.178 -0.3322 -0.5309  0.1911
26151SOL    HW181408   6.549   3.944   4.224 -2.3907  0.9826 -0.3847
26151SOL    HW281409   6.606   3.972   4.087 -2.7367  1.2469 -0.4790
26152SOL     OW81410   5.538   1.883   6.803  0.2471 -0.0741  0.0927
26152SOL    HW181411   5.506   1.803   6.762  0.6785  0.0369 -0.4680
26152SOL    HW281412   5.473   1.902   6.872  1.0551 -1.8612  1.4221
26153SOL     OW81413   6.703   4.953   3.046  0.1512  0.2904 -0.5376
26153SOL    HW181414   6.658   4.868   3.042  1.0451 -0.2157  0.0038
26153SOL    HW281415   6.634   5.016   3.027 -0.8066 -0.4635  0.3139
26154SOL     OW81416   9.510   7.382   7.740  0.5055 -0.3210  0.0185
26154SOL    HW181417   9.543   7.466   7.772  0.8393 -0.5545  0.2844
26154SOL    HW281418   9.446   7.407   7.672  0.8912  0.1401 -0.1891
26155SOL     OW81419   4.619   8.311   9.129  0.1966 -0.1987  0.1833
26155SOL    HW181420   4.680   8.385   9.127  0.3403  0.0726  4.5284
26155SOL    HW281421   4.533   8.351   9.137 -0.0176 -0.5444 -0.3680
26156SOL     OW81422   2.939   5.509   8.319  0.5600  0.1765  0.4272
26156SOL    HW181423   2.857   5.459   8.327  0.4511  0.4345  0.9789
26156SOL    HW281424   2.981   5.473   8.241 -0.1059  0.0811  0.1015
26157SOL     OW81425   4.203   4.881   6.736  0.4006 -0.1750  0.5277
26157SOL    HW181426   4.297   4.883   6.755  0.5490  3.2022  0.1131
26157SOL    HW281427   4.161   4.873   6.822  1.0612 -0.4207  0.8346
26158SOL     OW81428   5.744   0.063   7.163  0.6867 -0.0617 -0.3932
26158SOL    HW181429   5.696  -0.020   7.171 -0.5165  0.6126 -0.3918
26158SOL    HW281430   5.676   0.129   7.153  1.6267  0.9649 -0.1812
26159SOL     OW81431   2.126   6.627   8.339  0.0521 -0.4085  0.0318
26159SOL    HW181432   2.059   6.560   8.353  0.1795 -1.0677 -2.0664
26159SOL    HW281433   2.172   6.633   8.423 -2.4663 -0.0428  1.4920
26160SOL     OW81434   2.557   9.722   5.147 -0.8585 -0.3443 -0.0840
26160SOL    HW181435   2.563   9.743   5.054 -1.1964 -0.5185 -0.1463
26160SOL    HW281436   2.475   9.762   5.176 -1.5047 -1.5363 -0.2041
26161SOL     OW81437   5.277   4.922   1.805  0.6149 -0.0238  0.0629
26161SOL    HW181438   5.212   4.992   1.793 -0.0381 -0.5472  0.4449
26161SOL    HW281439   5.224   4.844   1.820  1.3416 -0.3740  0.8534
26162SOL     OW81440   3.110   2.243   1.469  0.3813  0.2686  0.3252
26162SOL    HW181441   3.060   2.298   1.409  0.8074 -2.8765 -3.2689
26162SOL    HW281442   3.181   2.300   1.499 -0.2221  2.2315 -1.6896
26163SOL     OW81443   1.095   4.074  10.489  0.5947  0.1106 -0.7675
26163SOL    HW181444   1.130   4.152  10.447  0.6204 -0.2162 -1.3780
26163SOL    HW281445   1.001   4.091  10.497  0.8712  1.0423  0.9912
26164SOL     OW81446   8.854   0.534   7.867 -0.4186 -0.1897  0.1973
26164SOL    HW181447   8.904   0.498   7.940  0.4782 -1.0800 -0.8124
26164SOL    HW281448   8.763   0.524   7.892 -0.1562  1.8197  2.2610
26165SOL     OW81449   2.800   2.327   0.970 -0.0756  0.3761  0.2724
26165SOL    HW181450   2.773   2.416   0.995  0.2676  0.4335  0.4383
26165SOL    HW281451   2.760   2.313   0.884 -2.3384 -0.2878  1.3503
26166SOL     OW81452   2.290   3.449   2.055 -0.1189 -0.3837 -0.3589
26166SOL    HW181453   2.303   3.540   2.026 -0.3847  0.2365  1.3805
26166SOL    HW281454   2.369   3.429   2.106  0.2515 -1.3880 -1.2889
26167SOL     OW81455   4.642  10.511   9.087  0.3786  0.6318 -0.6876
26167SOL    HW181456   4.550  10.535   9.092  0.4209  0.6695  0.1172
26167SOL    HW281457   4.647  10.426   9.131  0.7855  0.8215 -0.3508
26168SOL     OW81458   9.296   9.468   1.985  0.2339  0.1458  0.4447
26168SOL    HW181459   9.349   9.430   2.055 -0.8153  0.8969  1.6970
26168SOL    HW281460   9.308   9.563   1.995  0.4592  0.2619 -0.7363
26169SOL     OW81461   7.156   2.932   0.952 -0.3494  0.0663 -0.4028
26169SOL    HW181462   7.072   2.937   0.907  0.0212  0.2319 -1.0843
26169SOL    HW281463   7.163   2.840   0.980 -1.3120  0.3245  0.7655
26170SOL     OW81464   7.102   5.399   0.956  0.1862  0.4605  0.2058
26170SOL    HW181465   7.024   5.425   0.908  0.2845 -0.1448 -0.2941
26170SOL    HW281466   7.076   5.402   1.048 -0.4600  0.1430  0.0355
26171SOL     OW81467   1.891   8.194   8.129 -0.0603 -0.5186  0.1257
26171SOL    HW181468   1.978   8.230   8.110 -0.0350 -0.4458  0.3784
26171SOL    HW281469   1.831   8.263   8.100  0.0058 -0.0008  1.1815
26172SOL     OW81470   3.872   6.179  10.007  0.0748  0.2106  0.0843
26172SOL    HW181471   3.881   6.101   9.953 -0.9670  0.2307 -0.1512
26172SOL    HW281472   3.953   6.184  10.057  0.1386 -1.0411  0.1301
26173SOL     OW81473   5.999   4.274   1.855  0.0828 -0.5468  0.6124
26173SOL    HW181474   5.981   4.186   1.821  0.0951 -0.5363  0.5787
26173SOL    HW281475   6.094   4.283   1.848  0.1289 -0.6918  1.0052
26174SOL     OW81476   5.520   6.877   2.099  0.3854  0.2405  0.2194
26174SOL    HW181477   5.534   6.899   2.007 -1.4829 -0.7320 -0.3586
26174SOL    HW281478   5.513   6.961   2.144 -1.3311  0.8130 -1.0097
26175SOL     OW81479   5.662   5.815  10.601  0.0125  0.3528  0.5214
26175SOL    HW181480   5.626   5.749  10.661 -0.7828  1.1287  0.9209
26175SOL    HW281481   5.665   5.895  10.653  1.5299  0.5078  0.2167
26176SOL     OW81482   8.347   0.938   3.149 -0.1400  0.8181 -0.0950
26176SOL    HW181483   8.315   0.900   3.230 -3.2320  1.1186 -1.0554
26176SOL    HW281484   8.435   0.901   3.138 -0.3309 -0.5883  2.4412
26177SOL     OW81485   1.161   4.016   3.978 -0.9969 -0.8854 -0.2409
26177SOL    HW181486   1.210   3.959   3.918  1.5415  1.6011 -0.7756
26177SOL    HW281487   1.220   4.090   3.994 -4.3815  2.1708 -0.4798
26178SOL     OW81488   5.005   7.654   8.340 -0.6001  0.2892  0.1354
26178SOL    HW181489   4.947   7.680   8.411 -1.3028 -0.8736  0.0103
26178SOL    HW281490   5.074   7.602   8.383  0.8329  2.2934  0.3955
26179SOL     OW81491   5.487   0.728  10.585 -0.1695 -0.1598  0.0839
26179SOL    HW181492   5.561   0.667  10.581 -0.5208 -0.8465  2.5604
26179SOL    HW281493   5.422   0.689  10.525  1.0969  0.0254 -1.4915
26180SOL     OW81494   9.918   4.743   2.783  0.4340  0.1032 -0.2661
26180SOL    HW181495   9.919   4.716   2.691  0.6933  0.1348 -0.2728
26180SOL    HW281496   9.826   4.737   2.808  0.2250  1.0020 -0.7941
26181SOL     OW81497   9.948   0.450   4.417 -0.4072 -0.3714  0.0362
26181SOL    HW181498   9.945   0.507   4.493  0.6959  0.5988 -0.6111
26181SOL    HW281499   9.911   0.502   4.346  0.5292 -0.4759 -0.5468
26182SOL     OW81500   1.471   9.278   0.608 -0.4323  0.2206  0.3105
26182SOL    HW181501   1.501   9.205   0.553  1.0516  1.1730 -0.1828
26182SOL    HW281502   1.380   9.292   0.581 -0.8693 -1.6338  0.6459
26183SOL     OW81503   3.770   3.073   1.937  0.4411 -0.0576  0.1795
26183SOL    HW181504   3.795   3.136   2.005  0.2025  0.1983  0.0257
26183SOL    HW281505   3.854   3.038   1.906  0.5315 -0.9682  1.3513
26184SOL     OW81506   8.423   5.387   8.259  0.7739  0.6541 -0.2890
26184SOL    HW181507   8.406   5.395   8.166  0.8855 -0.0477 -0.3737
26184SOL    HW281508   8.355   5.328   8.291  0.8060  0.7993  0.0524
26185SOL     OW81509   1.236   8.546   3.889 -0.3605 -0.0504  0.1603
26185SOL    HW181510   1.141   8.534   3.882 -0.3384  0.9520 -3.4964
26185SOL    HW281511   1.247   8.640   3.902  0.1364  0.0798 -1.1145
26186SOL     OW81512  10.406   2.519   9.809 -0.0977  0.4146 -0.0262
26186SOL    HW181513  10.326   2.467   9.810 -0.5747  1.0932  1.4891
26186SOL    HW281514  10.376   2.609   9.826  0.9354  0.7367  0.1891
26187SOL     OW81515   6.268   6.497   7.505  0.0019  0.1786 -0.5786
26187SOL    HW181516   6.312   6.581   7.493  2.1048 -0.8869 -0.8147
26187SOL    HW281517   6.268   6.483   7.600 -1.8618  1.1525 -0.3904
26188SOL     OW81518   9.538   3.218   9.254 -0.1096 -0.0190  0.0079
26188SOL    HW181519   9.603   3.150   9.271 -0.7756 -0.2358  1.9088
26188SOL    HW281520   9.569   3.262   9.175  2.0724 -0.4427  0.5761
26189SOL     OW81521   5.781   4.016   4.029 -0.2343  0.3100 -0.4174
26189SOL    HW181522   5.713   4.083   4.038 -1.4499 -0.7941 -1.1058
26189SOL    HW281523   5.799   3.988   4.119  0.7133  1.9246 -0.0608
26190SOL     OW81524   0.591   5.984   7.476  0.4866  0.0151 -1.0314
26190SOL    HW181525   0.585   6.066   7.427  0.6720 -0.3215 -1.6271
26190SOL    HW281526   0.626   6.009   7.561 -1.6255  0.8886 -0.3486
26191SOL     OW81527   5.186   9.082   6.918 -0.2978 -0.0360 -0.1719
26191SOL    HW181528   5.192   9.128   7.002  0.6379 -1.6414  0.6928
26191SOL    HW281529   5.238   9.135   6.857 -0.7386  0.9875  0.3324
26192SOL     OW81530   9.172   5.610   5.148  0.1453 -0.0004  0.4722
26192SOL    HW181531   9.194   5.529   5.194 -2.6981 -0.7382  0.6791
26192SOL    HW281532   9.158   5.584   5.057  1.2732  0.6838  0.0717
26193SOL     OW81533   7.241   5.808   8.877 -0.4629 -0.1037  0.2579
26193SOL    HW181534   7.293   5.728   8.873 -0.7195 -0.2774  0.3448
26193SOL    HW281535   7.290   5.871   8.824  0.5511  0.1635  1.4687
26194SOL     OW81536   6.374   8.468  10.371 -0.6273 -0.2703 -0.0690
26194SOL    HW181537   6.459   8.511  10.358  0.4779 -2.3299 -0.1229
26194SOL    HW281538   6.314   8.515  10.314 -0.1572  2.8489  1.7934
26195SOL     OW81539   6.196   8.222   4.064  0.2014 -0.0920  0.2427
26195SOL    HW181540   6.250   8.290   4.026  1.3452 -1.0329  0.1215
26195SOL    HW281541   6.114   8.266   4.086  0.5488  1.0971 -0.7059
26196SOL     OW81542   9.029   9.001   2.694  0.3472  0.1250 -0.4574
26196SOL    HW181543   9.007   9.088   2.727 -0.1067 -0.3060  0.4156
26196SOL    HW281544   8.991   8.941   2.758  1.7055 -0.7006 -0.3901
26197SOL     OW81545   2.479   8.952   1.652  0.1163 -0.4615 -0.2093
26197SOL    HW181546   2.418   9.014   1.612  0.1316 -1.0225 -1.1386
26197SOL    HW281547   2.487   8.882   1.587  0.4933 -1.1823  0.6056
26198SOL     OW81548  10.279   7.054   4.826 -0.0555 -0.1390  0.0779
26198SOL    HW181549  10.226   7.092   4.756  0.4444 -1.1335 -0.8620
26198SOL    HW281550  10.258   6.961   4.824  1.9039 -0.5912 -0.4785
26199SOL     OW81551   9.051   4.714   0.704  0.0313 -0.2524  0.3108
26199SOL    HW181552   9.037   4.724   0.610 -1.0416  3.1049  0.7255
26199SOL    HW281553   8.964   4.715   0.743  0.5288  0.8729  1.4943
26200SOL     OW81554   4.220   5.566   0.697  0.2902 -0.3529 -0.6610
26200SOL    HW181555   4.255   5.643   0.653  0.4507  1.2211  2.0273
26200SOL    HW281556   4.141   5.597   0.741  0.8924 -1.4188  1.3054
26201SOL     OW81557   0.802   1.633   3.975 -0.1178  0.1420 -0.2397
26201SOL    HW181558   0.721   1.591   4.003  0.3974  0.5891  2.1259
26201SOL    HW281559   0.780   1.726   3.968 -0.3411 -0.0117 -1.8356
26202SOL     OW81560   8.023  10.109   8.337  0.4543 -0.0643 -0.1954
26202SOL    HW181561   8.001  10.024   8.376  0.7391 -0.3553 -0.6532
26202SOL    HW281562   7.943  10.138   8.294 -0.4253  1.1145  2.0728
26203SOL     OW81563  10.533   1.058   0.750 -0.4458  0.7634  0.2212
26203SOL    HW181564  10.619   1.018   0.768 -0.7590  1.2855  3.6439
26203SOL    HW281565  10.479   0.986   0.718  1.0903  0.3388 -1.6330
26204SOL     OW81566   4.457   9.003   9.106  0.0066  0.4512 -0.4611
26204SOL    HW181567   4.508   8.928   9.074  0.7901  1.4374 -1.6332
26204SOL    HW281568   4.461   8.995   9.201  1.9754  0.1939 -0.5081
26205SOL     OW81569  10.067   6.652   3.752  0.2811 -0.7149 -0.5584
26205SOL    HW181570  10.150   6.660   3.704  0.0212 -0.9641 -1.0553
26205SOL    HW281571  10.074   6.570   3.799  0.7846 -0.1794  0.3215
26206SOL     OW81572   7.699   6.243   4.770 -0.1051 -0.1441  0.5818
26206SOL    HW181573   7.717   6.338   4.770  0.5431 -0.2628  0.1829
26206SOL    HW281574   7.643   6.229   4.695 -1.4987  0.1470  1.5263
26207SOL     OW81575   6.175  10.612   5.178  0.2851  0.2867  0.4546
26207SOL    HW181576   6.179  10.627   5.083  1.5336 -2.1415  0.0326
26207SOL    HW281577   6.249  10.661   5.214 -1.2822  2.7715  0.5086
26208SOL     OW81578   5.791   1.157   4.375  0.0753 -0.7443  0.7550
26208SOL    HW181579   5.826   1.092   4.314  3.5513  1.1651  0.4601
26208SOL    HW281580   5.800   1.240   4.329  0.8200  0.5224  3.0181
26209SOL     OW81581   1.149   0.305   0.334  0.0121  0.0318  0.3816
26209SOL    HW181582   1.106   0.288   0.418 -0.8150 -1.1639 -0.2530
26209SOL    HW281583   1.243   0.292   0.352 -0.3020 -2.3088  0.6938
26210SOL     OW81584   7.728   2.361   3.903  0.0137 -0.1158 -0.1621
26210SOL    HW181585   7.749   2.268   3.902 -1.1180 -0.3867 -0.4161
26210SOL    HW281586   7.636   2.365   3.928  0.5684  1.0589  1.9345
26211SOL     OW81587   8.547   6.613   0.424  0.7490 -0.5252  0.4033
26211SOL    HW181588   8.492   6.686   0.452 -1.3495 -1.5211 -0.8336
26211SOL    HW281589   8.616   6.654   0.373 -0.0761  0.6599  0.1831
26212SOL     OW81590   0.930  10.147   7.181 -0.6811  0.0585  0.1347
26212SOL    HW181591   0.864  10.082   7.156 -0.7015 -1.8084  4.2388
26212SOL    HW281592   0.983  10.103   7.248  3.0078  2.4418 -0.9081
26213SOL     OW81593  10.674   0.104   2.066 -0.2429 -0.3036  0.0750
26213SOL    HW181594  10.754   0.080   2.112 -0.2774 -2.0486 -0.7150
26213SOL    HW281595  10.686   0.197   2.044  1.7529 -0.6516 -0.4411
26214SOL     OW81596   6.395   7.200   0.704 -0.1438 -0.5730 -0.0321
26214SOL    HW181597   6.320   7.253   0.678 -0.8659 -2.5581 -2.4244
26214SOL    HW281598   6.471   7.246   0.667 -0.5723 -0.3291 -0.6296
26215SOL     OW81599   6.038   2.083   5.528  0.5127  0.1263 -0.4960
26215SOL    HW181600   6.023   1.988   5.532  1.9548 -0.0949  2.3756
26215SOL    HW281601   6.134   2.092   5.527  0.4002  1.5742 -0.4251
26216SOL     OW81602   0.867   5.729   0.988  1.0106 -0.1251 -0.6803
26216SOL    HW181603   0.781   5.706   0.953  0.8171 -2.0226  0.8702
26216SOL    HW281604   0.865   5.824   0.998 -1.4083 -0.2243  0.5038
26217SOL     OW81605   0.565   7.948   7.323  0.0172 -0.0366 -0.7796
26217SOL    HW181606   0.629   8.003   7.279  0.5985 -0.6029 -0.6538
26217SOL    HW281607   0.482   7.967   7.278  0.1643  1.0612 -0.6150
26218SOL     OW81608   1.880   4.298   4.955  0.1789  0.0598  0.3182
26218SOL    HW181609   1.858   4.391   4.962 -0.8498 -0.0217 -1.1688
26218SOL    HW281610   1.974   4.294   4.971  0.3530  1.4472 -0.1815
26219SOL     OW81611   1.134   6.651   3.474 -0.4556  0.4453  0.1326
26219SOL    HW181612   1.093   6.650   3.388 -0.3521 -0.8003  0.0826
26219SOL    HW281613   1.225   6.675   3.457 -0.2800 -0.4274 -0.1850
26220SOL     OW81614   9.015   3.572   0.366  0.4070  0.1583 -0.0450
26220SOL    HW181615   9.036   3.641   0.303  3.1215  0.6861  1.3027
26220SOL    HW281616   9.067   3.594   0.444 -0.2517 -2.2897  1.1776
26221SOL     OW81617   2.525   7.682   0.097 -0.2989 -0.4998 -0.1669
26221SOL    HW181618   2.532   7.624   0.173 -0.5043 -1.8124 -1.1342
26221SOL    HW281619   2.434   7.675   0.069 -0.4048  0.5421 -0.1097
26222SOL     OW81620   8.373   4.026   9.033  0.0301  0.5985 -0.2435
26222SOL    HW181621   8.440   3.960   9.020 -1.1440 -0.8235  0.5534
26222SOL    HW281622   8.380   4.049   9.126 -2.3489 -1.7436  0.6721
26223SOL     OW81623   4.526   0.903   8.059  0.1163 -0.3231 -0.3352
26223SOL    HW181624   4.594   0.861   8.007 -0.3236 -2.4063  0.6670
26223SOL    HW281625   4.563   0.908   8.147 -0.6653 -0.6115  0.0188
26224SOL     OW81626   6.901   4.761   3.364  0.7509  0.0369 -0.3471
26224SOL    HW181627   6.811   4.747   3.334  0.9446  1.4299 -1.6678
26224SOL    HW281628   6.953   4.702   3.309  0.6039 -1.5481  1.1139
26225SOL     OW81629   6.290   9.776   3.239 -0.3951  0.4977  0.4030
26225SOL    HW181630   6.358   9.714   3.210 -0.5772  0.3373  0.3171
26225SOL    HW281631   6.274   9.752   3.330 -0.4314  0.4498  0.3839
26226SOL     OW81632   9.574   5.822   3.312  0.2694 -0.1555 -0.1384
26226SOL    HW181633   9.620   5.903   3.333  0.2899 -0.4012  0.8259
26226SOL    HW281634   9.640   5.768   3.268  0.1054  0.5372 -1.2801
26227SOL     OW81635   3.674   5.299   0.276  0.4307 -0.1887 -0.0538
26227SOL    HW181636   3.694   5.361   0.346  0.4939  0.8179 -0.9211
26227SOL    HW281637   3.581   5.312   0.258 -0.3691 -2.6031  1.8289
26228SOL     OW81638   9.449   9.431   2.216 -0.7387  0.6595  0.3474
26228SOL    HW181639   9.422   9.522   2.234 -0.1027  0.6441  1.4801
26228SOL    HW281640   9.403   9.380   2.282  1.7533  0.6018  2.1808
26229SOL     OW81641   3.326  10.596   3.610 -0.2351  0.2072  0.1658
26229SOL    HW181642   3.388  10.525   3.627  0.5920  0.9130  0.2138
26229SOL    HW281643   3.328  10.608   3.515  0.2591  0.7063  0.2345
26230SOL     OW81644   2.821   0.226   4.878  0.0260 -0.3530  0.6716
26230SOL    HW181645   2.852   0.158   4.939 -1.0315 -0.6384  0.9124
26230SOL    HW281646   2.802   0.178   4.797 -1.5479 -0.5254  1.1078
26231SOL     OW81647   5.631   3.115   5.460  0.1767  0.6243 -0.2660
26231SOL    HW181648   5.577   3.043   5.494  0.5618  0.4445 -0.0407
26231SOL    HW281649   5.620   3.185   5.524  0.0427  0.6630 -0.3304
26232SOL     OW81650   1.877   8.529   4.751 -0.2278  0.5795  0.1367
26232SOL    HW181651   1.803   8.499   4.803  1.6520 -1.1306  1.9858
26232SOL    HW281652   1.862   8.491   4.664 -0.2581 -1.9811  1.1813
26233SOL     OW81653   1.821   4.847   3.340 -0.3067  0.2597  0.0488
26233SOL    HW181654   1.897   4.903   3.324 -0.4463  0.8840  1.3897
26233SOL    HW281655   1.745   4.904   3.328 -0.4564  0.3450  1.2654
26234SOL     OW81656   0.137   0.596   1.364  0.1438 -0.6853 -0.0788
26234SOL    HW181657   0.070   0.540   1.403  0.2652  0.4540  1.9317
26234SOL    HW281658   0.112   0.603   1.272 -0.5263 -3.0274 -0.1406
26235SOL     OW81659   3.570   9.698   3.109 -0.2791 -0.2796  0.3551
26235SOL    HW181660   3.555   9.610   3.075 -0.4531  0.5513 -1.8641
26235SOL    HW281661   3.490   9.718   3.158 -1.4599 -0.3506 -1.4494
26236SOL     OW81662   0.947   3.213   4.793  0.3827  0.7610  0.0662
26236SOL    HW181663   1.022   3.195   4.849  0.0001  0.9991  0.6681
26236SOL    HW281664   0.871   3.206   4.851 -0.0244  0.9893 -0.4252
26237SOL     OW81665   5.435   1.643   1.728 -0.0472  0.2169  0.1949
26237SOL    HW181666   5.522   1.652   1.768  1.3908  0.1032 -2.5724
26237SOL    HW281667   5.411   1.552   1.744  0.2939  0.2825  1.1020
26238SOL     OW81668   3.628   7.909   0.453  0.0540  0.8785  0.1300
26238SOL    HW181669   3.572   7.978   0.416  1.7146  1.2136 -1.9225
26238SOL    HW281670   3.715   7.948   0.458  1.0611 -1.0389 -1.1373
26239SOL     OW81671   1.249   1.544   5.095 -0.2761  0.1400 -0.1486
26239SOL    HW181672   1.234   1.623   5.148 -0.2588 -0.0324  0.1169
26239SOL    HW281673   1.334   1.559   5.054  0.3209 -0.2778  0.8906
26240SOL     OW81674   4.378  10.039   8.651  0.5520  0.6344 -0.5635
26240SOL    HW181675   4.321   9.975   8.693 -0.1174  1.9788  0.6879
26240SOL    HW281676   4.351  10.040   8.559 -0.2895  0.0447 -0.3298
26241SOL     OW81677   5.892   4.535   8.784 -0.4860  0.1252 -0.4430
26241SOL    HW181678   5.886   4.488   8.867  2.3059 -1.7940 -1.1562
26241SOL    HW281679   5.813   4.509   8.736 -0.8204 -0.9073  0.6222
26242SOL     OW81680   0.483   4.678   0.441  0.8235  0.2508 -0.6097
26242SOL    HW181681   0.402   4.719   0.411 -0.9471 -2.5591 -0.0879
26242SOL    HW281682   0.536   4.750   0.476 -1.5755  2.1519 -0.6592
26243SOL     OW81683   2.409   3.487   1.206  0.5280 -0.1149 -0.3181
26243SOL    HW181684   2.412   3.498   1.301  1.1807 -2.0022 -0.0934
26243SOL    HW281685   2.324   3.448   1.188  0.4457  0.1469 -0.5096
26244SOL     OW81686   3.243   8.917  10.475 -0.1756 -0.2924  0.0088
26244SOL    HW181687   3.304   8.990  10.462 -2.5300  1.7977 -0.1580
26244SOL    HW281688   3.163   8.959  10.507 -1.1447 -3.0398  1.5001
26245SOL     OW81689   5.109   6.027   4.786 -0.4401 -0.4583  0.5058
26245SOL    HW181690   5.121   5.976   4.706 -0.1334  0.1866  0.1323
26245SOL    HW281691   5.162   6.105   4.773 -0.4183 -0.3260  1.3260
26246SOL     OW81692   2.351   4.082   7.751  0.2316  0.0838 -0.0883
26246SOL    HW181693   2.272   4.135   7.750 -1.3299 -2.0614  0.8577
26246SOL    HW281694   2.392   4.097   7.665 -1.3221  1.0694 -0.6858
26247SOL     OW81695   0.128   9.467   3.864  0.6575  0.1808  0.2655
26247SOL    HW181696   0.063   9.448   3.932  1.5468 -2.2119  0.5202
26247SOL    HW281697   0.076   9.477   3.784 -0.1263 -0.6815  0.6468
26248SOL     OW81698   2.143   9.002   9.930 -0.2179  0.0468 -0.4112
26248SOL    HW181699   2.180   9.066   9.868 -0.8222 -0.0752 -0.9120
26248SOL    HW281700   2.141   9.048  10.014 -0.3533  0.5850 -0.7034
26249SOL     OW81701   9.111   8.311  10.381 -0.4887 -0.0586  0.5933
26249SOL    HW181702   9.139   8.374  10.448 -0.8831  0.8920 -0.1036
26249SOL    HW281703   9.020   8.292  10.403 -0.4830 -0.0866  0.5912
26250SOL     OW81704   1.541  10.130   3.859  0.2432 -0.0136 -0.0048
26250SOL    HW181705   1.533  10.036   3.844  1.4011  0.0051 -0.9017
26250SOL    HW281706   1.622  10.154   3.815 -1.0127  1.7718 -1.5110
26251SOL     OW81707  10.314   1.639   4.994 -0.3238  0.4816  0.1414
26251SOL    HW181708  10.388   1.699   4.988 -1.0360  1.4707  0.9818
26251SOL    HW281709  10.281   1.632   4.904  2.4484 -2.2076 -0.8419
26252SOL     OW81710   8.259   0.798   2.754  0.0952  0.1425  0.1888
26252SOL    HW181711   8.230   0.877   2.708 -0.7528 -0.3645 -0.1694
26252SOL    HW281712   8.284   0.737   2.685  1.5026  0.3638  0.4874
26253SOL     OW81713   8.043  10.327   0.359 -0.5067 -0.1858  0.0125
26253SOL    HW181714   7.974  10.379   0.402  1.2285  2.3200  0.0192
26253SOL    HW281715   8.077  10.272   0.429  0.9894  2.4576  1.5467
26254SOL     OW81716   3.363   7.783   4.690  0.4308 -0.0318 -0.3741
26254SOL    HW181717   3.424   7.812   4.623  4.1314  0.1303  2.7432
26254SOL    HW281718   3.350   7.690   4.672  1.7121 -0.0947 -1.0427
26255SOL     OW81719   1.154   3.960   8.785  0.0182 -0.1710 -0.4368
26255SOL    HW181720   1.204   4.027   8.831 -0.8209  0.0033  0.2640
26255SOL    HW281721   1.172   3.975   8.692 -0.2398  1.1086 -0.2985
26256SOL     OW81722   8.913   7.076   8.532  0.2100  0.0858 -0.2063
26256SOL    HW181723   8.921   6.995   8.581 -0.4951  0.0641 -0.1205
26256SOL    HW281724   8.917   7.145   8.598 -2.4168  0.0084  0.1246
26257SOL     OW81725   6.339   7.709   7.312  0.3167  0.3865  0.6212
26257SOL    HW181726   6.301   7.628   7.279  1.1946 -0.5433  1.8250
26257SOL    HW281727   6.325   7.772   7.241 -0.4015 -0.7895 -0.3257
26258SOL     OW81728   1.096   9.899   9.915  0.4728 -0.5624 -0.5049
26258SOL    HW181729   1.190   9.890   9.931  0.9049  1.7995 -1.2603
26258SOL    HW281730   1.090   9.964   9.845 -1.7804  0.7492  0.7907
26259SOL     OW81731   0.201   0.072  10.648  0.3707 -0.3940 -0.1853
26259SOL    HW181732   0.292   0.052  10.671  0.6092 -0.5547 -1.2119
26259SOL    HW281733   0.195   0.051  10.554 -0.5660  0.1796 -0.2634
26260SOL     OW81734   7.474   1.277   4.028  0.1454  0.2695 -0.6182
26260SOL    HW181735   7.436   1.192   4.002  0.2653 -0.5143  1.5580
26260SOL    HW281736   7.511   1.261   4.115  0.0232  2.6033 -0.0677
26261SOL     OW81737   7.659   7.443   5.425 -0.4752 -0.0800 -0.2638
26261SOL    HW181738   7.596   7.500   5.381  0.8212  0.5240 -1.4039
26261SOL    HW281739   7.674   7.484   5.510  0.5443  1.4056 -1.1172
26262SOL     OW81740   2.173   9.276   6.054 -0.0854  0.3397 -0.4878
26262SOL    HW181741   2.082   9.281   6.081 -0.4182  1.1401 -1.6741
26262SOL    HW281742   2.193   9.363   6.019  0.9377 -0.0088 -0.8300
26263SOL     OW81743   1.571   1.745   7.999 -0.4848 -0.4925 -0.4430
26263SOL    HW181744   1.666   1.755   8.003 -0.5658  0.4485 -0.6396
26263SOL    HW281745   1.556   1.675   7.936  0.0943 -1.0663  0.0421
26264SOL     OW81746   0.557   6.584   7.738  0.0093  0.2866 -0.4758
26264SOL    HW181747   0.520   6.669   7.764 -1.1674 -0.1657 -0.6167
26264SOL    HW281748   0.481   6.527   7.729  0.7520 -0.6572 -0.8736
26265SOL     OW81749   7.925   6.674   9.194 -0.2704 -0.4348 -0.5056
26265SOL    HW181750   7.906   6.584   9.165  0.4668 -1.0713  0.8543
26265SOL    HW281751   8.015   6.669   9.227 -0.3853  0.6938  0.0043
26266SOL     OW81752   0.583   0.332   4.215 -0.7946  0.5205  0.2923
26266SOL    HW181753   0.675   0.306   4.220 -1.0575 -0.2465  1.4487
26266SOL    HW281754   0.534   0.254   4.242 -1.8158  0.7689 -0.7646
26267SOL     OW81755   2.974   0.346   2.885  0.1146 -0.5165 -0.1725
26267SOL    HW181756   2.949   0.297   2.807 -0.3403 -1.2090  0.3935
26267SOL    HW281757   3.018   0.424   2.852 -2.3747  0.5450 -1.2089
26268SOL     OW81758   2.827   9.543   3.223 -0.4314  0.6175  0.2332
26268SOL    HW181759   2.737   9.576   3.218  0.1305  2.0435 -1.8628
26268SOL    HW281760   2.837   9.487   3.147  0.6886  1.1518 -0.0352
26269SOL     OW81761   4.575   3.908   7.401  0.1218 -0.2274  0.6847
26269SOL    HW181762   4.546   3.873   7.486  1.4313  0.1374  1.3133
26269SOL    HW281763   4.562   3.835   7.340  0.7300 -1.0719  1.5370
26270SOL     OW81764   2.358   0.676   1.689 -0.7076 -0.4765 -0.5089
26270SOL    HW181765   2.279   0.724   1.666  0.1076  0.9603 -0.4413
26270SOL    HW281766   2.371   0.615   1.616  0.2943  2.0650 -2.6194
26271SOL     OW81767   8.744  10.390   6.573 -0.3678 -0.3874  0.1970
26271SOL    HW181768   8.820  10.446   6.553 -1.1114 -0.1006 -2.1724
26271SOL    HW281769   8.670  10.437   6.535 -1.1925 -2.3522 -0.7404
26272SOL     OW81770   8.814   4.206   8.496  0.8600  0.4354 -0.3466
26272SOL    HW181771   8.852   4.225   8.582  1.7161  0.9413 -0.8213
26272SOL    HW281772   8.881   4.154   8.452  0.5813  0.4989 -0.8473
26273SOL     OW81773   7.631   9.675   9.566  0.7180  0.0385 -0.4900
26273SOL    HW181774   7.679   9.738   9.511 -2.4900  0.1503 -3.4941
26273SOL    HW281775   7.639   9.592   9.519 -0.4366 -0.3174 -0.0807
26274SOL     OW81776   7.522   3.910   2.491 -0.3493 -0.1213  0.5089
26274SOL    HW181777   7.538   3.946   2.578 -0.1070  0.0212  0.4082
26274SOL    HW281778   7.479   3.826   2.506  0.8023 -0.6802  0.8016
26275SOL     OW81779   6.378   7.014   8.936 -0.1738  0.4297 -0.9050
26275SOL    HW181780   6.471   7.034   8.952 -0.3227  1.2753 -1.0288
26275SOL    HW281781   6.364   6.929   8.977  0.7932  0.0410 -1.3634
26276SOL     OW81782  10.635  10.504   8.717  0.1586 -0.5781  0.0042
26276SOL    HW181783  10.558  10.481   8.665  1.2425 -2.9938 -0.6995
26276SOL    HW281784  10.621  10.459   8.801  1.0040 -1.4309 -0.3056
26277SOL     OW81785   5.192   8.164   8.139 -0.5238 -0.5212  0.0856
26277SOL    HW181786   5.279   8.184   8.103 -0.7633 -0.1707 -0.3072
26277SOL    HW281787   5.195   8.070   8.157 -0.8105 -1.0148 -2.0921
26278SOL     OW81788   7.508   0.391   6.253 -0.3685 -0.0071  0.0102
26278SOL    HW181789   7.501   0.297   6.238 -2.2228 -0.0307  0.8186
26278SOL    HW281790   7.494   0.401   6.348  0.2067  1.0556  0.0004
26279SOL     OW81791   8.547   7.233   5.407  0.9025 -0.0064  0.3158
26279SOL    HW181792   8.466   7.282   5.394  0.8478 -0.2538 -0.2936
26279SOL    HW281793   8.614   7.286   5.365  0.9250 -0.2000  0.1060
26280SOL     OW81794   9.384   8.559   6.656 -0.1590  1.0850 -0.2757
26280SOL    HW181795   9.306   8.615   6.655 -1.9259 -1.1937 -1.6882
26280SOL    HW281796   9.401   8.541   6.563  1.0720  0.2849  0.0830
26281SOL     OW81797   3.983   7.108   8.918  0.0218 -0.0909  0.3890
26281SOL    HW181798   3.902   7.125   8.966 -0.7015 -0.7815 -0.5496
26281SOL    HW281799   4.039   7.062   8.980 -1.0053 -1.2252  0.5015
26282SOL     OW81800   4.011   3.321   1.099  0.0817 -0.2117  0.8112
26282SOL    HW181801   4.054   3.301   1.016 -1.1511 -1.1192  0.3614
26282SOL    HW281802   3.920   3.294   1.086 -1.2499  3.6801  0.9450
26283SOL     OW81803   0.134   7.346   8.042 -0.0138  0.7101 -0.3412
26283SOL    HW181804   0.165   7.271   7.991  0.2716  1.4654 -1.3132
26283SOL    HW281805   0.209   7.372   8.095  0.8313  2.0432 -2.1006
26284SOL     OW81806   7.558   5.815   3.889 -0.1145 -0.2225  0.2688
26284SOL    HW181807   7.464   5.797   3.881 -0.3129  1.1066 -0.9417
26284SOL    HW281808   7.594   5.790   3.803  0.0942  2.0361 -0.3544
26285SOL     OW81809   6.218  10.187  10.167  0.0302  0.5242 -0.0109
26285SOL    HW181810   6.226  10.277  10.198 -1.0773  0.7385 -0.2929
26285SOL    HW281811   6.308  10.160  10.147  0.3178  1.7621 -0.4671
26286SOL     OW81812   5.337   9.818   3.893  0.3542 -0.0758  0.5388
26286SOL    HW181813   5.360   9.861   3.811 -2.3134  1.9794  0.7505
26286SOL    HW281814   5.412   9.762   3.912  2.3720  1.6363 -1.7408
26287SOL     OW81815   1.860   2.399   3.414 -0.2275  0.5216 -0.5476
26287SOL    HW181816   1.869   2.489   3.382  0.6461  0.1951 -1.2476
26287SOL    HW281817   1.806   2.355   3.349  0.5184  0.1822 -0.9537
26288SOL     OW81818   5.822   6.563   2.525 -0.5950 -0.2472 -0.0199
26288SOL    HW181819   5.805   6.627   2.456  0.8137 -0.6590 -0.7854
26288SOL    HW281820   5.744   6.509   2.528 -1.1926  0.5798 -0.4062
26289SOL     OW81821   0.807  10.250   1.373  0.5087  0.3152  0.0321
26289SOL    HW181822   0.721  10.256   1.331  0.6163 -0.0597 -0.2441
26289SOL    HW281823   0.856  10.188   1.319  0.5861 -0.3246  0.8099
26290SOL     OW81824   2.375   6.373   7.246 -0.0344 -0.3230  0.8815
26290SOL    HW181825   2.325   6.310   7.194  1.4201 -0.7071 -0.1095
26290SOL    HW281826   2.385   6.448   7.189  1.4292 -0.6766  0.6490
26291SOL     OW81827   0.356   6.179   9.374 -0.6171 -0.7318 -0.6760
26291SOL    HW181828   0.356   6.217   9.461 -0.6436 -0.7480 -0.6691
26291SOL    HW281829   0.282   6.118   9.374 -2.3355  1.2468 -1.5723
26292SOL     OW81830   0.572   8.453   7.008 -0.1661  0.1936  0.6205
26292SOL    HW181831   0.526   8.532   7.035  0.3361  0.5098  0.5666
26292SOL    HW281832   0.659   8.483   6.982 -0.0432 -0.3467  0.3818
26293SOL     OW81833   9.630   4.724   4.644 -0.2100  0.1642  0.1039
26293SOL    HW181834   9.594   4.660   4.582  0.8780  0.7059 -1.1232
26293SOL    HW281835   9.594   4.808   4.614 -0.9278  0.2576  1.1773
26294SOL     OW81836  10.120   4.785   1.957 -0.4038 -0.0945 -0.0134
26294SOL    HW181837  10.136   4.716   1.893 -2.3820 -1.3182  0.7131
26294SOL    HW281838  10.203   4.795   2.003 -0.4111 -3.0366  0.8217
26295SOL     OW81839   4.071   6.342   9.278  0.3055 -0.5231 -0.6954
26295SOL    HW181840   4.005   6.383   9.222  0.4456 -0.8480 -1.1000
26295SOL    HW281841   4.137   6.411   9.290  0.0424 -0.2961 -0.5378
26296SOL     OW81842   5.926   0.103   1.040 -0.1018  0.0249  0.1719
26296SOL    HW181843   5.993   0.168   1.020 -1.0630  1.1912  0.6564
26296SOL    HW281844   5.924   0.047   0.962  0.7196  0.5779 -0.2712
26297SOL     OW81845  10.425   4.263   4.293  0.1998  0.4997 -0.3507
26297SOL    HW181846  10.435   4.338   4.234 -0.5872  0.9824  0.1104
26297SOL    HW281847  10.514   4.245   4.323  0.5365  0.5980 -1.2418
26298SOL     OW81848   5.807  10.419   6.428 -0.2102  0.1334 -0.3759
26298SOL    HW181849   5.756  10.464   6.496  2.1794  0.6466  1.2187
26298SOL    HW281850   5.865  10.361   6.477  2.2096  1.1432 -1.8813
26299SOL     OW81851   4.719   9.949   5.373 -0.0940  1.0904  0.7497
26299SOL    HW181852   4.749  10.020   5.431  1.0536  1.1647  0.0902
26299SOL    HW281853   4.799   9.914   5.334 -0.7974  0.6963 -0.3946
26300SOL     OW81854   3.116   3.749   0.025  0.1895  0.0718 -0.0668
26300SOL    HW181855   3.125   3.656   0.046  0.7160 -0.4842 -2.4568
26300SOL    HW281856   3.201   3.787   0.048 -0.0222 -0.0328  0.8998
26301SOL     OW81857   8.954   2.688  10.391 -0.1479 -0.4456  0.3176
26301SOL    HW181858   9.038   2.644  10.406 -0.0561 -0.1229  0.7637
26301SOL    HW281859   8.946   2.750  10.463 -1.2964 -1.2460  0.9208
26302SOL     OW81860   2.456   4.292   9.080  0.0427 -0.0893  0.4718
26302SOL    HW181861   2.448   4.311   9.173 -1.8499  0.0085  0.3372
26302SOL    HW281862   2.504   4.209   9.076  0.9851  0.3972  1.4709
26303SOL     OW81863   8.911   8.546  10.504  0.0330  0.2062  0.0113
26303SOL    HW181864   8.869   8.606  10.565 -1.2109 -0.7871  0.1682
26303SOL    HW281865   8.841   8.486  10.477  1.4553 -1.8847  0.7401
26304SOL     OW81866   2.168  10.617   9.904 -0.0006 -0.1928  0.3344
26304SOL    HW181867   2.234  10.615   9.974  2.4647  0.6534 -1.8094
26304SOL    HW281868   2.087  10.589   9.947  1.1111  1.2479  3.7435
26305SOL     OW81869   8.781   6.405   8.676  0.8887  0.3618  0.0184
26305SOL    HW181870   8.697   6.405   8.630  0.1225  1.4483  1.3602
26305SOL    HW281871   8.809   6.313   8.674 -2.1176 -0.7937  2.6670
26306SOL     OW81872   1.550   5.900   8.110 -0.4753  0.6085 -0.2303
26306SOL    HW181873   1.475   5.887   8.169 -0.2342  1.5576  0.3027
26306SOL    HW281874   1.513   5.895   8.022 -1.2531  1.4956  0.0315
26307SOL     OW81875   3.836   3.487   0.252 -0.7946  1.0608 -0.2850
26307SOL    HW181876   3.888   3.563   0.229  0.7327  0.4998  1.0982
26307SOL    HW281877   3.853   3.424   0.181  1.8175  0.2820  0.9111
26308SOL     OW81878   5.496   6.408   0.705  0.2764  0.0686  0.0123
26308SOL    HW181879   5.498   6.490   0.657 -0.0028  0.2117  0.2397
26308SOL    HW281880   5.433   6.423   0.776  1.1540  0.0760  0.8092
26309SOL     OW81881   3.110  10.208   5.305  0.3693 -0.0049  0.0373
26309SOL    HW181882   3.072  10.275   5.364  1.1965  1.5068 -1.0731
26309SOL    HW281883   3.188  10.178   5.351 -0.2071 -0.5133  0.7142
26310SOL     OW81884  10.062   3.513   7.411 -0.3330  0.2020 -0.5538
26310SOL    HW181885  10.131   3.514   7.477 -0.0371  0.4190 -0.8588
26310SOL    HW281886   9.983   3.487   7.458 -0.0345 -0.0848 -0.2073
26311SOL     OW81887   0.033   6.854   2.623 -0.1916 -0.4737  0.0738
26311SOL    HW181888  -0.043   6.911   2.636  0.6754  0.9054 -0.6623
26311SOL    HW281889   0.022   6.820   2.534 -0.0943 -0.4887  0.0675
26312SOL     OW81890   0.556   3.148   9.681 -0.7433  0.1606  0.0947
26312SOL    HW181891   0.542   3.104   9.765  1.2962 -0.6723  0.0538
26312SOL    HW281892   0.520   3.236   9.694 -1.1530 -0.1967  1.5838
26313SOL     OW81893   1.353   6.878  10.485  0.4358 -0.7286 -0.0036
26313SOL    HW181894   1.296   6.815  10.529 -0.3769 -0.8434 -1.1716
26313SOL    HW281895   1.395   6.829  10.414 -1.8706  0.4138 -2.3564
26314SOL     OW81896   0.346   1.621   1.739 -0.8163 -0.3998 -0.8005
26314SOL    HW181897   0.334   1.528   1.755 -3.1818 -0.0353 -0.0058
26314SOL    HW281898   0.337   1.662   1.825 -2.8352  0.7502 -1.4779
26315SOL     OW81899   9.001   2.499   2.547  0.2271  0.0705 -0.1399
26315SOL    HW181900   9.002   2.575   2.605 -0.1916 -0.5986  0.7774
26315SOL    HW281901   9.000   2.424   2.606 -3.0520 -0.6472 -0.8736
26316SOL     OW81902   1.084   9.403   8.442  0.0502  0.1151 -0.3701
26316SOL    HW181903   1.028   9.480   8.456  0.6853  1.0027 -2.3179
26316SOL    HW281904   1.032   9.330   8.475 -0.6369  1.3325  1.4124
26317SOL     OW81905   4.186   0.924   0.201 -0.1871 -0.3694 -0.7116
26317SOL    HW181906   4.130   0.921   0.123  1.2717 -0.3234 -1.8077
26317SOL    HW281907   4.235   0.842   0.198  0.5869  0.0748 -0.3942
26318SOL     OW81908   9.629   6.634   1.243 -0.5881  0.0942 -0.4240
26318SOL    HW181909   9.664   6.556   1.200 -1.7703 -0.4579 -0.4245
26318SOL    HW281910   9.632   6.612   1.337 -0.8116  0.0878 -0.4174
26319SOL     OW81911   7.392   8.622   0.109 -0.1907  0.2967  0.2831
26319SOL    HW181912   7.447   8.579   0.174 -0.5934  1.0210  1.1325
26319SOL    HW281913   7.370   8.706   0.148 -1.9759  0.0013  0.0201
26320SOL     OW81914   2.741   3.803   8.248 -0.3200 -0.4435  0.3416
26320SOL    HW181915   2.686   3.812   8.326  0.7189 -1.4009  1.2117
26320SOL    HW281916   2.758   3.709   8.241 -0.8401 -0.4551 -1.3857
26321SOL     OW81917   4.551   9.130   4.390  0.1499 -0.0516 -0.7842
26321SOL    HW181918   4.460   9.104   4.401  0.1085 -0.8471 -2.6398
26321SOL    HW281919   4.586   9.132   4.480 -1.9021  1.2185  0.0520
26322SOL     OW81920   1.719   9.200   5.618 -0.0973 -0.0716  0.3603
26322SOL    HW181921   1.781   9.244   5.677  1.5587  0.3434 -1.5537
26322SOL    HW281922   1.692   9.269   5.557 -1.4483 -0.5807  0.3618
26323SOL     OW81923   5.019   6.498   2.466 -0.3662  0.1093 -0.1207
26323SOL    HW181924   4.928   6.469   2.456 -0.3976  0.3771 -0.6420
26323SOL    HW281925   5.032   6.562   2.396  0.4043 -0.3667 -0.4223
26324SOL     OW81926   3.561  10.124   4.447  0.2824  0.3143 -0.1348
26324SOL    HW181927   3.476  10.079   4.448 -0.4854  1.6837 -0.7926
26324SOL    HW281928   3.618  10.068   4.499 -0.7190 -1.2241 -0.6085
26325SOL     OW81929   5.352   0.341   1.024  0.3349 -0.4608  0.3703
26325SOL    HW181930   5.416   0.304   1.085  0.6268  0.7521  0.8246
26325SOL    HW281931   5.295   0.267   1.002 -1.1015 -0.5435  3.7571
26326SOL     OW81932   2.513   0.550   2.756 -0.0581 -0.2120 -0.8448
26326SOL    HW181933   2.539   0.560   2.847 -0.6864 -1.1147 -0.5565
26326SOL    HW281934   2.461   0.629   2.737 -1.3928 -0.8250  0.1092
26327SOL     OW81935   0.234   9.815   9.126  0.4353  0.3810  0.2449
26327SOL    HW181936   0.292   9.747   9.091  1.2506  1.0573  0.2227
26327SOL    HW281937   0.182   9.843   9.051  1.3671  1.0218 -0.1908
26328SOL     OW81938   1.847   3.117   0.194 -0.3166  0.1525 -0.3561
26328SOL    HW181939   1.868   3.203   0.157  1.4545 -1.6856 -4.0935
26328SOL    HW281940   1.768   3.090   0.148 -1.8002  0.2842  1.9405
26329SOL     OW81941   5.902   2.884   0.256  0.1590 -0.1978  0.0288
26329SOL    HW181942   5.866   2.960   0.302  1.4159 -0.2482  1.1712
26329SOL    HW281943   5.861   2.808   0.298 -0.0693 -0.1915 -0.1823
26330SOL     OW81944   7.444   6.073   5.629 -0.0018  0.4420  0.2556
26330SOL    HW181945   7.352   6.100   5.628  0.0631  0.6674 -0.0160
26330SOL    HW281946   7.463   6.051   5.537 -0.4015 -1.7628  0.6396
26331SOL     OW81947   9.381   0.463   6.514  0.1611 -0.1841  0.4092
26331SOL    HW181948   9.374   0.437   6.422 -1.7622  0.1872  0.4043
26331SOL    HW281949   9.471   0.442   6.538  0.8072  0.0286 -1.6436
26332SOL     OW81950   2.136   1.287   5.419  0.2518 -0.3600 -0.2053
26332SOL    HW181951   2.079   1.346   5.468 -1.4220 -1.2403 -0.9967
26332SOL    HW281952   2.221   1.330   5.419 -0.4140  1.0538  0.9592
26333SOL     OW81953   2.744   6.846   0.575 -0.5074  0.6358 -0.1839
26333SOL    HW181954   2.805   6.861   0.648  0.7399 -0.5981 -0.9226
26333SOL    HW281955   2.800   6.817   0.503 -2.0641 -2.0178 -0.4774
26334SOL     OW81956   1.880   4.368   4.679 -0.2568 -0.3139  0.7710
26334SOL    HW181957   1.853   4.314   4.754 -2.0759 -1.4221 -0.5994
26334SOL    HW281958   1.948   4.317   4.637 -1.4719 -1.2797 -0.1076
26335SOL     OW81959   0.611   1.750   2.444  0.0385 -0.6370  0.0059
26335SOL    HW181960   0.687   1.732   2.499  1.3210 -0.6769 -1.6661
26335SOL    HW281961   0.608   1.676   2.383  1.0433  1.1390 -2.3770
26336SOL     OW81962   1.005   6.450   2.998 -0.1394  0.0907  0.7915
26336SOL    HW181963   0.947   6.374   2.995  1.1649 -0.9369  0.5997
26336SOL    HW281964   1.081   6.425   2.945 -0.3817  2.1623 -0.6666
26337SOL     OW81965   6.156   7.076   6.787  0.2263  0.0342 -0.1835
26337SOL    HW181966   6.194   7.027   6.860 -1.4517 -1.7339 -0.3973
26337SOL    HW281967   6.205   7.158   6.785  0.6980 -0.0634  2.5879
26338SOL     OW81968  10.570   1.968   3.203  0.1061  0.1279  0.7380
26338SOL    HW181969  10.487   2.011   3.223 -0.6240 -0.1565 -1.4280
26338SOL    HW281970  10.597   2.005   3.120  2.3101  0.3655  1.4996
26339SOL     OW81971   3.935   0.320   5.083 -0.1766  0.1614  0.1697
26339SOL    HW181972   3.900   0.317   5.172 -0.0453 -1.0258  0.2020
26339SOL    HW281973   3.865   0.359   5.031 -0.6778 -0.1322  0.6124
26340SOL     OW81974   1.569   5.653   0.020  0.2805  0.4706  0.2096
26340SOL    HW181975   1.601   5.703  -0.055 -1.3425  2.8576  1.0020
26340SOL    HW281976   1.611   5.694   0.096  1.0735 -1.2343  0.7543
26341SOL     OW81977   9.882   5.900   3.323 -0.2702  0.2274 -0.0341
26341SOL    HW181978   9.903   5.906   3.230  0.3110 -0.5398  0.0339
26341SOL    HW281979   9.934   5.825   3.354 -1.5820 -0.4670  0.5757
26342SOL     OW81980   2.727   9.288   3.764  0.0403 -0.0878  0.1097
26342SOL    HW181981   2.696   9.343   3.836 -0.2971 -0.7153  0.4591
26342SOL    HW281982   2.659   9.221   3.755  2.4404 -3.2460  2.7571
26343SOL     OW81983   2.899   7.306   8.045  0.6049  0.4056  0.6257
26343SOL    HW181984   2.938   7.219   8.046  4.1487  1.7945  0.2254
26343SOL    HW281985   2.871   7.319   7.954 -0.4531 -0.4719  0.8129
26344SOL     OW81986   6.226   6.519   5.890  0.0895 -0.1558  0.1592
26344SOL    HW181987   6.228   6.495   5.797  2.2826 -0.8385  0.3181
26344SOL    HW281988   6.304   6.477   5.927  0.2783  1.6057  1.9295
26345SOL     OW81989   9.232   4.576   0.839  0.3897 -0.3734  0.3262
26345SOL    HW181990   9.169   4.618   0.780  0.0762 -2.0521 -0.6139
26345SOL    HW281991   9.251   4.492   0.797 -0.2281 -1.8854  2.8666
26346SOL     OW81992   7.176   4.958   1.706 -0.0239 -1.0025 -0.3113
26346SOL    HW181993   7.112   4.887   1.711  0.3431 -1.3271 -0.1819
26346SOL    HW281994   7.259   4.915   1.687  0.7077 -0.9162  2.3197
26347SOL     OW81995   6.640   8.183  10.433  0.4722 -0.0476  0.0965
26347SOL    HW181996   6.645   8.197  10.339 -2.1918  0.4020 -0.0627
26347SOL    HW281997   6.642   8.271  10.471 -0.8472 -0.0508  0.2338
26348SOL     OW81998   1.569  10.364   8.211  0.2736 -0.3503 -0.4316
26348SOL    HW181999   1.518  10.405   8.280 -1.2881 -3.1043  0.2235
26348SOL    HW282000   1.658  10.395   8.225 -0.3326  0.6547  1.6276
26349SOL     OW82001   1.188   8.687   4.252 -0.4969 -0.2554 -0.2456
26349SOL    HW182002   1.271   8.641   4.263 -0.1491  0.2482 -0.6662
26349SOL    HW282003   1.182   8.746   4.327 -0.0061  0.3873 -0.6968
26350SOL     OW82004   0.994   9.327   3.801  0.1188 -0.4354 -0.7107
26350SOL    HW182005   0.945   9.304   3.722  0.4946  0.8598 -1.3475
26350SOL    HW282006   1.085   9.307   3.779  0.6479  2.5976 -1.7555
26351SOL     OW82007   2.983   2.884  10.299 -0.4039 -0.1752 -0.0148
26351SOL    HW182008   2.940   2.849  10.376 -1.4217 -0.4137 -0.6656
26351SOL    HW282009   3.022   2.808  10.256  0.5850  0.0231  0.5061
26352SOL     OW82010   6.745   4.264   7.437  0.6276  0.2555  0.1953
26352SOL    HW182011   6.679   4.242   7.503  1.2070 -0.4707  0.5495
26352SOL    HW282012   6.708   4.340   7.391 -1.0278 -0.8668 -0.4504
26353SOL     OW82013   0.256   1.054   3.190  0.2896  0.0599 -0.5126
26353SOL    HW182014   0.252   0.959   3.185 -0.1057  0.1103 -1.3440
26353SOL    HW282015   0.218   1.075   3.276  0.0152 -0.5127 -0.4905
26354SOL     OW82016   7.335   1.915   8.275  0.1236  0.1302  0.6056
26354SOL    HW182017   7.339   1.830   8.231  1.5719  0.9994 -1.0853
26354SOL    HW282018   7.413   1.917   8.330  0.5383  0.6764  0.0046
26355SOL     OW82019   2.561   8.606   0.862  0.2604 -0.2880  0.2245
26355SOL    HW182020   2.508   8.555   0.801 -2.0059 -0.0502  1.8911
26355SOL    HW282021   2.585   8.544   0.931  1.0824 -0.0795  0.1379
26356SOL     OW82022   0.118  10.636   6.222  0.0592  0.4188  0.2400
26356SOL    HW182023   0.187  10.625   6.156  0.9974  1.5096  0.9891
26356SOL    HW282024   0.155  10.699   6.284 -2.2303  2.3428 -0.1840
26357SOL     OW82025   3.342   1.132   7.904 -0.1429 -0.0839 -0.0531
26357SOL    HW182026   3.435   1.127   7.926 -0.3068 -0.2219  0.6371
26357SOL    HW282027   3.339   1.112   7.810  0.4368 -1.0256  0.1036
26358SOL     OW82028   1.282   0.854   1.572 -0.0970 -0.2622  0.5937
26358SOL    HW182029   1.298   0.927   1.513 -0.0083  0.0589  1.0120
26358SOL    HW282030   1.199   0.876   1.615 -0.7133 -0.9991 -0.1715
26359SOL     OW82031   4.082   4.793   8.127 -0.5043 -0.1216 -0.0371
26359SOL    HW182032   4.106   4.839   8.208  0.6741  3.2892 -2.1354
26359SOL    HW282033   4.140   4.717   8.124  1.3382  1.1590  1.0602
26360SOL     OW82034   9.790   9.885   3.006  0.1905 -0.7854 -0.0101
26360SOL    HW182035   9.855   9.816   2.998 -0.4784 -1.2016 -3.8736
26360SOL    HW282036   9.839   9.966   2.993  0.6969 -0.5342  2.8187
26361SOL     OW82037   5.587   4.741   7.780  0.0231  1.0315 -0.1377
26361SOL    HW182038   5.554   4.687   7.851  3.2508  0.9194  1.4955
26361SOL    HW282039   5.578   4.831   7.812 -1.8786  1.2792 -1.2400
26362SOL     OW82040   1.380   7.346   5.012  0.0197 -0.1043  0.2678
26362SOL    HW182041   1.440   7.417   5.036  0.1393  0.2789 -1.0918
26362SOL    HW282042   1.402   7.325   4.921 -0.3212 -1.5856  0.4873
26363SOL     OW82043   4.148   9.394   3.757  0.0837  0.1252 -0.7438
26363SOL    HW182044   4.230   9.346   3.767 -0.2430 -0.2329  0.2848
26363SOL    HW282045   4.175   9.485   3.747  0.6073  0.0208 -0.3297
26364SOL     OW82046   5.157   4.265   9.522 -0.1892 -0.1213 -0.0666
26364SOL    HW182047   5.206   4.315   9.588 -2.6139  3.0125 -0.3941
26364SOL    HW282048   5.073   4.246   9.565 -0.1118 -2.1847 -0.7315
26365SOL     OW82049   4.190   2.693   3.745  0.3441  0.3745 -0.1470
26365SOL    HW182050   4.226   2.625   3.802  0.8839 -0.0168 -0.9391
26365SOL    HW282051   4.143   2.644   3.677 -1.2787  0.8520  0.5616
26366SOL     OW82052   8.324   0.080   7.527 -0.1289 -0.1736 -0.6842
26366SOL    HW182053   8.311   0.167   7.565 -0.2080 -0.4699 -0.0208
26366SOL    HW282054   8.397   0.091   7.466  1.6477 -0.2033  1.3368
26367SOL     OW82055   5.793   8.529   2.880 -0.6945 -0.2755  0.0374
26367SOL    HW182056   5.782   8.542   2.786  1.0336 -0.1754 -0.1883
26367SOL    HW282057   5.855   8.457   2.888 -0.6223 -0.1221  1.0901
26368SOL     OW82058   8.904   5.756   5.075  0.3725  0.2077  0.1310
26368SOL    HW182059   8.818   5.765   5.034  1.2985 -1.4809 -2.4610
26368SOL    HW282060   8.908   5.665   5.103  1.3914  0.1981 -0.0046
26369SOL     OW82061  10.390   7.853   4.374 -0.0436  0.6865  0.3792
26369SOL    HW182062  10.321   7.919   4.374 -0.1219  0.6473 -1.6376
26369SOL    HW282063  10.466   7.897   4.336 -0.0067 -0.2649 -0.6935
26370SOL     OW82064   4.392   6.765  10.041  0.2256  0.2574 -0.1331
26370SOL    HW182065   4.455   6.824   9.999  0.7652  0.5310  1.0229
26370SOL    HW282066   4.437   6.681  10.046 -0.6921 -0.4170 -2.1499
26371SOL     OW82067   8.035   8.854   6.308  0.5220  0.0242  0.5503
26371SOL    HW182068   7.981   8.781   6.339  0.4092 -0.7499 -1.3684
26371SOL    HW282069   8.120   8.814   6.288  0.8088  0.6429  0.5063
26372SOL     OW82070   9.464   9.311   1.245  0.1818  0.5908 -0.0847
26372SOL    HW182071   9.510   9.305   1.161 -0.3805  1.5147 -0.4799
26372SOL    HW282072   9.460   9.405   1.264 -0.1374  0.4268  0.7282
26373SOL     OW82073   0.955   2.869   3.621  0.9138  0.0917  0.0163
26373SOL    HW182074   1.038   2.914   3.636  0.3742  0.7223  1.1994
26373SOL    HW282075   0.976   2.802   3.556  2.4796 -0.1439  0.7290
26374SOL     OW82076   3.906   7.768  10.020 -0.0780  0.0276  0.1254
26374SOL    HW182077   3.978   7.755  10.081 -0.3620  0.1885  0.5024
26374SOL    HW282078   3.890   7.863  10.022 -1.1469 -0.1448  1.0404
26375SOL     OW82079   0.672   9.673   7.838 -0.6052  0.1544 -0.4717
26375SOL    HW182080   0.604   9.729   7.801  0.4638  0.6073 -1.8489
26375SOL    HW282081   0.712   9.631   7.762  0.6399 -0.1163  0.3073
26376SOL     OW82082   4.095   8.269   0.001  0.3283 -0.7968  0.0398
26376SOL    HW182083   4.081   8.178   0.027 -1.7777 -0.0117  1.9159
26376SOL    HW282084   4.183   8.290   0.033  0.8685 -2.1451 -0.4760
26377SOL     OW82085   8.245   5.560  10.614  0.2712  0.1538  0.6164
26377SOL    HW182086   8.213   5.537  10.701  0.3649  0.8121  0.8353
26377SOL    HW282087   8.339   5.541  10.617  0.1291 -0.6043  0.3826
26378SOL     OW82088   4.211   1.854   4.397  0.5177  0.2410  0.3639
26378SOL    HW182089   4.174   1.807   4.322 -2.1650 -0.2391  1.8333
26378SOL    HW282090   4.287   1.803   4.423 -0.3176 -1.3631 -0.1895
26379SOL     OW82091   2.143   3.607   1.770 -0.0042  0.2593  0.1614
26379SOL    HW182092   2.093   3.675   1.816  0.0231 -0.1075  0.7474
26379SOL    HW282093   2.084   3.532   1.768  0.5296 -0.1871  0.8881
26380SOL     OW82094   1.092   9.893   2.503  0.6306  0.2453  0.6889
26380SOL    HW182095   1.038   9.970   2.482  2.2395  0.7775 -2.0251
26380SOL    HW282096   1.028   9.823   2.518 -0.8498  1.6765  1.4273
26381SOL     OW82097   6.127   4.315  10.178 -0.0841 -0.0548  0.1177
26381SOL    HW182098   6.168   4.278  10.101  0.3795 -1.0649  0.8274
26381SOL    HW282099   6.194   4.373  10.215  0.4404 -1.0652  0.8141
26382SOL     OW82100   3.012   5.072   5.001 -0.7485 -0.0388  0.3449
26382SOL    HW182101   2.982   5.138   5.064 -1.6934 -0.0653 -0.0540
26382SOL    HW282102   3.067   5.121   4.940 -0.8600  0.2389  0.4618
26383SOL     OW82103   7.940   4.652   2.441 -0.2424  0.2068  0.6288
26383SOL    HW182104   7.994   4.695   2.375  0.3598 -1.1669  0.1848
26383SOL    HW282105   7.892   4.723   2.483  1.1165  1.3602  0.3028
26384SOL     OW82106   5.780   2.982   2.869  0.0443 -0.3020  0.2308
26384SOL    HW182107   5.763   2.910   2.809 -1.5716 -0.7508  1.1559
26384SOL    HW282108   5.861   2.957   2.914  0.1517 -0.9509 -0.3092
26385SOL     OW82109   1.532   5.543   6.453 -0.6316 -0.2493 -0.6379
26385SOL    HW182110   1.470   5.486   6.408 -0.1030 -1.1378 -0.2798
26385SOL    HW282111   1.586   5.483   6.505 -2.1733  0.7831  2.4003
26386SOL     OW82112   4.598  10.648   8.467  0.1608  0.1663  0.2032
26386SOL    HW182113   4.556  10.649   8.380  1.7256  0.4332 -0.5846
26386SOL    HW282114   4.564  10.726   8.510  0.0481  0.5372 -0.5292
26387SOL     OW82115   7.852   7.284   7.542  0.1539 -0.3038  0.1160
26387SOL    HW182116   7.918   7.310   7.606  1.3477 -1.0843 -0.7550
26387SOL    HW282117   7.898   7.226   7.482 -1.1899 -0.4077 -0.8677
26388SOL     OW82118   4.479   1.059   8.577 -0.4193 -0.2393 -0.8112
26388SOL    HW182119   4.517   1.090   8.494  0.1513  0.0026 -0.4628
26388SOL    HW282120   4.491   1.132   8.638 -0.2759 -0.6498 -0.3456
26389SOL     OW82121   4.545   2.702   5.564  0.4653 -0.1524  0.8168
26389SOL    HW182122   4.599   2.646   5.618  1.0388 -1.9084 -1.4296
26389SOL    HW282123   4.478   2.644   5.528 -0.2637  1.0663  0.1251
26390SOL     OW82124   4.736   9.160   4.883  0.1244 -0.0333 -0.2403
26390SOL    HW182125   4.706   9.240   4.926 -0.2123 -0.3200  0.0685
26390SOL    HW282126   4.695   9.162   4.797  0.4024  0.2991 -0.3678
26391SOL     OW82127   9.084   8.335   5.796 -0.1374 -0.6062 -0.9249
26391SOL    HW182128   9.161   8.280   5.780 -0.4909 -1.5757  0.5172
26391SOL    HW282129   9.082   8.346   5.891 -1.3844 -0.0251 -1.0024
26392SOL     OW82130   7.432   3.531   5.705  0.1163 -0.3410  0.5607
26392SOL    HW182131   7.406   3.536   5.796 -1.4882 -2.5630  0.3063
26392SOL    HW282132   7.525   3.553   5.705  0.1376 -0.2873  2.7114
26393SOL     OW82133   0.099   3.334   8.924 -0.7264 -0.4830 -0.1841
26393SOL    HW182134   0.083   3.276   8.850 -3.1384 -0.5488  0.2904
26393SOL    HW282135   0.158   3.401   8.890 -1.9958 -0.3369 -2.2960
26394SOL     OW82136  10.556   7.318   8.978  0.1112  0.3857  0.2884
26394SOL    HW182137  10.465   7.345   8.990  0.4135  1.0678  1.1938
26394SOL    HW282138  10.579   7.274   9.060  0.4139 -0.3371 -0.1756
26395SOL     OW82139   4.486   6.512   2.502  0.4870  0.3416 -0.6871
26395SOL    HW182140   4.391   6.501   2.506  0.6856 -1.5422 -0.3570
26395SOL    HW282141   4.511   6.543   2.589  0.3523 -0.8846 -0.2015
26396SOL     OW82142   1.245  10.692   8.643  0.3350  0.3811  0.2802
26396SOL    HW182143   1.286  10.622   8.694 -0.6378  2.1003  3.7875
26396SOL    HW282144   1.314  10.723   8.584  1.3645 -2.1541  0.0262
26397SOL     OW82145   3.414   3.938   4.174 -0.2754 -0.3727  0.0746
26397SOL    HW182146   3.345   3.965   4.235 -1.6442 -0.5220 -1.3413
26397SOL    HW282147   3.485   4.000   4.190 -2.2034  2.3492 -1.0727
26398SOL     OW82148   8.933   6.368   7.117  0.3156 -0.2393  0.5091
26398SOL    HW182149   8.958   6.315   7.041  0.7671 -0.1540  0.5974
26398SOL    HW282150   8.876   6.311   7.168 -0.9755  0.0991 -0.4882
26399SOL     OW82151   1.950   7.331   4.953 -0.3030 -0.1994 -0.0848
26399SOL    HW182152   1.999   7.384   5.015 -0.0155 -1.1504  0.5290
26399SOL    HW282153   1.983   7.242   4.967  1.7861 -0.1264 -3.4813
26400SOL     OW82154   6.903   7.580   1.987 -0.2204  0.5327 -0.0184
26400SOL    HW182155   6.921   7.642   2.058  1.3579  0.6976 -0.5037
26400SOL    HW282156   6.990   7.560   1.951 -0.4717 -3.2203  1.1208
26401SOL     OW82157   9.042   6.511  10.235 -0.6196 -0.3814  0.4465
26401SOL    HW182158   9.045   6.602  10.264 -0.6476  0.1898 -1.2309
26401SOL    HW282159   9.133   6.491  10.211 -0.8061 -0.4182 -0.2449
26402SOL     OW82160   5.910   5.020   5.459 -0.5826 -0.2467  0.0871
26402SOL    HW182161   5.894   4.929   5.435  1.4444 -0.8770  0.8556
26402SOL    HW282162   5.920   5.019   5.554  3.4536 -0.0511 -0.1663
26403SOL     OW82163   0.050   4.082   4.243 -0.2082  0.1897 -0.0483
26403SOL    HW182164  -0.036   4.046   4.265 -0.6620  1.9726  1.4006
26403SOL    HW282165   0.075   4.037   4.163 -3.0228  0.4074 -1.1718
26404SOL     OW82166   8.960   8.596   4.993  0.3046  1.0757  0.1232
26404SOL    HW182167   8.979   8.690   4.982 -1.3109  1.2358 -1.7793
26404SOL    HW282168   8.951   8.563   4.904  0.3381 -0.8134  0.7808
26405SOL     OW82169   8.989   5.073   4.213 -0.0254 -0.4427  0.6029
26405SOL    HW182170   8.895   5.067   4.200  0.4351 -1.5494 -3.8203
26405SOL    HW282171   9.006   5.167   4.224 -1.5311 -0.0104 -0.4114
26406SOL     OW82172   1.660   0.517   2.294 -0.2232  0.6460 -0.1151
26406SOL    HW182173   1.576   0.474   2.308 -0.5932  1.5507  0.5485
26406SOL    HW282174   1.724   0.460   2.337 -0.0993 -1.3354 -2.6621
26407SOL     OW82175   5.568   6.518   2.460  0.4200  0.1300 -0.3911
26407SOL    HW182176   5.559   6.567   2.378  0.6212  0.4912 -0.2012
26407SOL    HW282177   5.551   6.583   2.529 -0.3571 -0.3099 -0.1549
26408SOL     OW82178   0.402   4.425   2.124 -0.0498 -0.3532 -0.1815
26408SOL    HW182179   0.335   4.477   2.080  0.8812 -0.5355 -1.8940
26408SOL    HW282180   0.359   4.342   2.144 -0.7492  0.0663  0.0856
26409SOL     OW82181   2.431   4.511   6.025 -0.4212 -0.4655  0.4430
26409SOL    HW182182   2.411   4.454   6.099  1.5582  0.3711  1.6938
26409SOL    HW282183   2.467   4.590   6.064 -0.8148  0.6699 -1.3674
26410SOL     OW82184   3.534   5.935   4.268  0.0981  0.6018  0.4940
26410SOL    HW182185   3.604   5.995   4.293  1.3340 -0.5851  0.0390
26410SOL    HW282186   3.519   5.882   4.346  1.3169 -0.6203 -0.0651
26411SOL     OW82187   9.556   9.328   0.238 -0.0207 -0.5806 -0.1646
26411SOL    HW182188   9.566   9.257   0.175 -2.8559 -1.5974  0.3857
26411SOL    HW282189   9.510   9.397   0.190 -0.1620 -0.4340  0.1786
26412SOL     OW82190   3.017   5.329   3.046 -0.1465  0.2080 -0.5984
26412SOL    HW182191   2.939   5.292   3.087 -0.8937  0.4731 -1.7003
26412SOL    HW282192   2.988   5.414   3.013  0.2153 -0.2437 -2.1877
26413SOL     OW82193   6.372   3.061   6.687 -0.1540 -0.2088 -0.7630
26413SOL    HW182194   6.389   3.148   6.651 -1.7616 -0.3559 -1.9714
26413SOL    HW282195   6.386   3.072   6.781  4.5850  0.0716 -1.2715
26414SOL     OW82196   9.270   7.231   1.530 -0.0851 -0.0467  0.1318
26414SOL    HW182197   9.231   7.298   1.586  0.7476 -1.0877  2.0507
26414SOL    HW282198   9.201   7.164   1.521  0.8270 -1.4614  2.7790
26415SOL     OW82199   1.545   8.294   1.194  0.0363  0.1608 -0.1272
26415SOL    HW182200   1.640   8.278   1.187  0.0455  0.6115 -1.1671
26415SOL    HW282201   1.538   8.369   1.253  0.3134  0.0782  0.0180
26416SOL     OW82202   7.231   2.105   5.834 -0.6252  0.1835 -0.0240
26416SOL    HW182203   7.231   2.201   5.830 -1.3962  0.2359  0.9312
26416SOL    HW282204   7.281   2.078   5.756 -0.0635  1.3574 -0.0928
26417SOL     OW82205   6.700   8.602   3.586  0.4560  0.7550  0.0945
26417SOL    HW182206   6.689   8.594   3.681 -0.5848  1.3369  0.0398
26417SOL    HW282207   6.640   8.672   3.561  0.4825  0.3888 -1.0423
26418SOL     OW82208   6.464   6.049   3.719 -0.3713 -0.5384 -0.0139
26418SOL    HW182209   6.467   6.071   3.626  0.1114 -0.9835 -0.1073
26418SOL    HW282210   6.556   6.038   3.744 -0.4727 -0.1083  0.5942
26419SOL     OW82211   4.970  10.563   9.588  0.3573 -0.2507 -0.4442
26419SOL    HW182212   4.895  10.521   9.629  0.1099  1.6843  1.2642
26419SOL    HW282213   5.000  10.500   9.523 -1.6192 -1.8448  0.0701
26420SOL     OW82214   1.027   6.324   4.536 -0.7820 -0.1582  0.4695
26420SOL    HW182215   1.032   6.228   4.543  1.2959 -0.0069  1.8556
26420SOL    HW282216   1.117   6.351   4.519 -1.5548  1.4999 -1.4436
26421SOL     OW82217   8.060   4.555   4.301 -0.0564  0.7773 -0.6464
26421SOL    HW182218   7.972   4.518   4.289 -0.0211  0.3775  0.2419
26421SOL    HW282219   8.076   4.604   4.220 -0.0607 -1.2614 -1.9763
26422SOL     OW82220   6.129   0.907   4.324  0.4381 -0.6847 -0.3397
26422SOL    HW182221   6.048   0.919   4.275 -0.1825 -1.4039  0.4639
26422SOL    HW282222   6.179   0.987   4.309 -1.2015  0.5702  0.5919
26423SOL     OW82223   5.652  10.287   5.560 -0.2408  0.8042  0.0078
26423SOL    HW182224   5.590  10.214   5.562  0.0503  0.5422 -0.3299
26423SOL    HW282225   5.737  10.246   5.540  0.0565  1.1462  0.5426
26424SOL     OW82226   7.146   4.263   7.433  0.5040  0.5839  0.0427
26424SOL    HW182227   7.189   4.304   7.358  0.8945  1.2719  0.6342
26424SOL    HW282228   7.143   4.170   7.411  0.9231  0.7364 -0.6738
26425SOL     OW82229   5.794   5.992   3.225  0.1161  0.2154  0.6023
26425SOL    HW182230   5.853   5.968   3.154 -1.1791 -0.5036 -0.2775
26425SOL    HW282231   5.773   6.084   3.208  0.1369  0.1637  0.2824
26426SOL     OW82232   2.413   2.459   3.901  0.5372  0.5067  0.1018
26426SOL    HW182233   2.355   2.521   3.946  0.0031  0.1991 -0.1427
26426SOL    HW282234   2.354   2.388   3.874  1.2371 -0.4088  0.9220
26427SOL     OW82235  10.482   6.093   7.004  0.3120  0.1421 -0.7201
26427SOL    HW182236  10.404   6.054   6.963  0.6663 -0.9830 -0.3773
26427SOL    HW282237  10.454   6.113   7.094 -0.1014  1.4549 -1.1217
26428SOL     OW82238   6.798   7.593   5.746 -0.5581 -1.1945  0.9757
26428SOL    HW182239   6.889   7.566   5.759 -0.6016 -0.9468  1.8547
26428SOL    HW282240   6.758   7.587   5.833 -0.8899  0.4872  0.9810
26429SOL     OW82241   9.161   8.192   9.006 -0.6885  0.1573 -0.3998
26429SOL    HW182242   9.198   8.240   9.080 -0.1867 -0.1051 -0.4735
26429SOL    HW282243   9.158   8.256   8.935 -0.7354  0.2851 -0.2828
26430SOL     OW82244   0.229   8.244   7.800  0.4439 -0.6343  0.5363
26430SOL    HW182245   0.227   8.337   7.820  1.5728 -0.7897  1.4536
26430SOL    HW282246   0.138   8.215   7.811 -0.1874  0.5842 -1.0733
26431SOL     OW82247   4.273   6.107   4.499  0.6298  0.0574  0.3833
26431SOL    HW182248   4.312   6.031   4.456  2.9633  0.8777  0.8760
26431SOL    HW282249   4.246   6.076   4.585  1.1454 -0.3259  0.4098
26432SOL     OW82250   4.647   9.177   3.961  0.3726 -0.2883  0.0840
26432SOL    HW182251   4.658   9.082   3.962 -2.4410 -0.6901  1.9047
26432SOL    HW282252   4.681   9.207   4.045 -0.4017  0.0858  0.2695
26433SOL     OW82253  10.188   8.555   9.018 -0.2712  0.6151 -0.3275
26433SOL    HW182254  10.206   8.501   8.941 -1.0940 -0.7181  0.3865
26433SOL    HW282255  10.190   8.494   9.091 -0.7330  1.6506  0.5726
26434SOL     OW82256   1.110   1.394   1.659 -0.2457  0.3990 -0.1899
26434SOL    HW182257   1.084   1.400   1.751 -1.4522  0.6221 -0.5296
26434SOL    HW282258   1.028   1.380   1.612  0.4207 -0.2408 -1.1856
26435SOL     OW82259   7.979   7.258   7.774  0.0166 -0.0233 -1.1170
26435SOL    HW182260   8.020   7.279   7.858  0.4439  1.0046 -1.5676
26435SOL    HW282261   7.952   7.167   7.783 -1.1725  0.4417  0.6340
26436SOL     OW82262   5.932   2.045   0.641 -0.6847 -0.1464  0.1565
26436SOL    HW182263   5.904   2.047   0.733 -1.3890 -0.8695 -0.0289
26436SOL    HW282264   6.025   2.065   0.644 -0.0871 -2.6604  1.3087
26437SOL     OW82265   3.439   9.933   6.968 -0.0444 -0.3429 -0.0286
26437SOL    HW182266   3.372   9.929   7.037  1.2676  1.0037  1.4072
26437SOL    HW282267   3.489  10.012   6.988  0.1006  0.3712 -2.8603
26438SOL     OW82268   4.059   0.574   7.462  0.0238 -0.0555  1.0850
26438SOL    HW182269   4.082   0.633   7.391 -0.3467  0.0560  1.0564
26438SOL    HW282270   4.141   0.564   7.512  0.5876 -1.0277  0.0183
26439SOL     OW82271   0.561   8.797   0.333 -0.1936  0.0628 -0.1749
26439SOL    HW182272   0.496   8.829   0.395  1.5423  0.5979  1.4657
26439SOL    HW282273   0.586   8.874   0.282 -0.1179  0.0774 -0.1151
26440SOL     OW82274   7.808   1.456   2.379 -0.2300 -0.0054  0.2627
26440SOL    HW182275   7.846   1.466   2.466 -1.1591 -0.3140  0.7203
26440SOL    HW282276   7.733   1.398   2.392 -0.6639  0.3259 -0.6607
26441SOL     OW82277   3.720   9.656   8.872 -0.1250  0.5834 -0.4489
26441SOL    HW182278   3.793   9.599   8.846  0.2474  1.0124 -0.3440
26441SOL    HW282279   3.655   9.595   8.908  0.3920  0.2506 -0.0585
26442SOL     OW82280   4.677   2.496   0.773 -0.1211 -0.2245 -0.1843
26442SOL    HW182281   4.589   2.490   0.810 -0.7556  1.0898 -1.4042
26442SOL    HW282282   4.713   2.577   0.808 -0.6806  0.9749 -2.2182
26443SOL     OW82283   2.069   8.947   2.166  0.0516 -0.0850 -0.4322
26443SOL    HW182284   2.059   8.894   2.244 -0.9517  0.4826 -0.1591
26443SOL    HW282285   2.040   8.891   2.094  0.3741 -0.3916 -0.3234
26444SOL     OW82286   1.441   7.721   0.732 -0.1433  0.1641 -0.1310
26444SOL    HW182287   1.531   7.692   0.714 -0.0623 -0.5302  1.2911
26444SOL    HW282288   1.425   7.789   0.667  0.9769 -0.5474 -1.1912
26445SOL     OW82289   6.509   6.645  10.290 -0.6444  0.6850  0.1000
26445SOL    HW182290   6.480   6.568  10.340  1.1226 -0.2501 -0.2332
26445SOL    HW282291   6.496   6.719  10.349 -0.5946 -0.1174  1.1401
26446SOL     OW82292   2.796   2.856  10.477  0.1541  0.4774  0.1654
26446SOL    HW182293   2.764   2.782  10.427 -0.8733  1.5212 -0.7901
26446SOL    HW282294   2.765   2.841  10.566 -2.0992  0.8939 -0.4995
26447SOL     OW82295   5.684   1.140   8.030  0.3318  0.1024  0.2088
26447SOL    HW182296   5.643   1.071   8.083 -0.7672 -0.6431 -1.5167
26447SOL    HW282297   5.612   1.201   8.011  0.8032  0.5804 -0.0529
26448SOL     OW82298   2.683   9.456   4.036  0.1287 -0.3508 -0.4010
26448SOL    HW182299   2.589   9.439   4.043  0.2427 -1.3943 -1.1146
26448SOL    HW282300   2.694   9.544   4.072 -1.1759 -0.0416 -0.6892
26449SOL     OW82301   6.479   1.700   3.272 -0.1190 -0.1565 -0.1919
26449SOL    HW182302   6.542   1.711   3.201 -1.4318  0.4103 -1.3041
26449SOL    HW282303   6.490   1.779   3.326 -2.2340  1.7798 -2.3484
26450SOL     OW82304   6.106   5.315   6.529 -0.0589 -0.9788 -0.4341
26450SOL    HW182305   6.117   5.373   6.454 -0.6023  1.5260  1.2717
26450SOL    HW282306   6.191   5.318   6.574  0.1942 -2.2826 -0.7777
26451SOL     OW82307   5.859   7.551   2.445  0.9110  0.8021 -0.4197
26451SOL    HW182308   5.857   7.460   2.417 -0.6052  0.1318  1.6693
26451SOL    HW282309   5.801   7.596   2.383 -0.5289 -0.1969  0.1516
26452SOL     OW82310   5.636   8.111   3.286 -0.2739 -0.3621 -0.3239
26452SOL    HW182311   5.647   8.177   3.217 -0.2263  0.0480  0.0751
26452SOL    HW282312   5.706   8.048   3.269  0.5541  0.4046  0.0984
26453SOL     OW82313   4.025   3.257   8.133  0.3028  0.5348  0.4669
26453SOL    HW182314   4.063   3.247   8.046 -0.6139  0.1638  0.1011
26453SOL    HW282315   4.099   3.282   8.188  0.9762  0.3511 -0.3309
26454SOL     OW82316   5.616   8.643   6.830 -0.2036  0.1843  0.1013
26454SOL    HW182317   5.595   8.642   6.924 -0.2764 -1.1218  0.0852
26454SOL    HW282318   5.701   8.687   6.826  0.6228 -1.2326  0.9955
26455SOL     OW82319   5.335   4.823   8.654 -0.5606 -0.2828 -0.5005
26455SOL    HW182320   5.311   4.730   8.655  0.4934 -0.5766  0.6306
26455SOL    HW282321   5.278   4.862   8.588 -2.4006 -1.3718  0.3565
26456SOL     OW82322   6.459  10.377   0.153  0.3626 -0.8608  0.0804
26456SOL    HW182323   6.509  10.439   0.208  0.3955  0.7723 -1.6891
26456SOL    HW282324   6.523  10.310   0.129  1.1148 -0.0200 -0.3065
26457SOL     OW82325   8.915   8.411   6.364  0.2020 -0.0844 -0.3619
26457SOL    HW182326   8.894   8.347   6.432  0.6992  0.5138  0.3800
26457SOL    HW282327   8.835   8.419   6.313  0.0071 -0.9927 -0.2229
26458SOL     OW82328   1.940   6.695   8.637 -0.1945  0.2948  0.2420
26458SOL    HW182329   1.906   6.606   8.641  1.5748 -0.4082  0.2312
26458SOL    HW282330   1.974   6.705   8.548  1.3318  0.2935  0.7955
26459SOL     OW82331   5.868   4.917   1.529  0.1844  0.5240 -0.8015
26459SOL    HW182332   5.832   4.848   1.473 -1.8633 -0.7884  1.9065
26459SOL    HW282333   5.811   4.918   1.606  1.7698  3.4400  0.5056
26460SOL     OW82334   9.276   4.825   3.324 -0.0718 -0.2363 -0.4550
26460SOL    HW182335   9.300   4.760   3.391 -1.1517  2.0767  2.4051
26460SOL    HW282336   9.196   4.790   3.284  0.2828 -1.4240 -0.1545
26461SOL     OW82337  10.346   0.754   2.824  0.4602 -0.7203  0.1851
26461SOL    HW182338  10.332   0.683   2.888 -1.1513 -0.0335  0.6557
26461SOL    HW282339  10.303   0.830   2.863  0.4139  0.0073 -1.2196
26462SOL     OW82340   0.294   1.709   2.068  0.6571  0.2179 -0.1832
26462SOL    HW182341   0.221   1.650   2.048  0.6423 -0.7205  2.3478
26462SOL    HW282342   0.258   1.769   2.134  2.0225  0.0396  0.7534
26463SOL     OW82343   5.416   3.153   8.624  0.1162 -0.1086 -0.3507
26463SOL    HW182344   5.326   3.166   8.595 -0.2243 -1.5354 -0.0143
26463SOL    HW282345   5.416   3.185   8.715 -0.1611 -0.4918 -0.2143
26464SOL     OW82346   0.265   8.972   4.965 -0.1338 -0.3353 -0.1676
26464SOL    HW182347   0.347   8.964   5.013 -0.4339 -0.6321  0.2904
26464SOL    HW282348   0.206   9.017   5.025  0.6040  2.8114 -1.5779
26465SOL     OW82349   0.806   8.556   8.667 -0.2300 -0.3256 -0.2839
26465SOL    HW182350   0.773   8.474   8.704  2.0753 -1.1104  0.1683
26465SOL    HW282351   0.886   8.532   8.621 -0.2781  1.4713 -1.4154
26466SOL     OW82352   6.720   2.423   4.608  0.4026 -0.3385 -0.1949
26466SOL    HW182353   6.777   2.459   4.541  2.4878 -1.2882  0.9595
26466SOL    HW282354   6.715   2.492   4.675  0.2738 -0.2996 -0.2434
26467SOL     OW82355   4.097   9.882   3.998 -0.0837  0.2123 -0.3863
26467SOL    HW182356   4.009   9.912   3.975 -0.6779 -0.9417  0.2440
26467SOL    HW282357   4.121   9.934   4.074 -0.5047  0.0683 -0.1527
26468SOL     OW82358   3.476   5.119   1.578 -0.6788  0.4934 -0.1309
26468SOL    HW182359   3.464   5.057   1.506 -1.0380  1.9740 -1.4171
26468SOL    HW282360   3.444   5.073   1.655  0.0803 -1.2969 -0.8282
26469SOL     OW82361   6.139   4.426  10.633  0.1789 -0.8281 -0.8359
26469SOL    HW182362   6.138   4.521  10.621 -0.8618 -0.8498 -0.9778
26469SOL    HW282363   6.104   4.391  10.551 -0.0968 -1.3062 -0.5176
26470SOL     OW82364   3.181   6.587   1.101  0.2753 -0.3627 -0.3387
26470SOL    HW182365   3.142   6.537   1.172  1.4823  0.9376  1.3188
26470SOL    HW282366   3.192   6.675   1.137  0.3074  0.5364 -2.3875
26471SOL     OW82367   7.508   0.127   6.204  0.4755  0.3928  0.5689
26471SOL    HW182368   7.434   0.066   6.190 -0.5697  1.6940  0.2293
26471SOL    HW282369   7.562   0.084   6.270 -0.2187 -0.9149  0.3264
26472SOL     OW82370   0.984   9.760   5.253 -0.2527  0.3271  0.2900
26472SOL    HW182371   1.046   9.812   5.201 -1.4433  1.6901  0.1759
26472SOL    HW282372   0.939   9.705   5.189 -0.8043  1.0677  0.0204
26473SOL     OW82373   0.769   2.428   7.771 -0.0485  0.2110  0.0209
26473SOL    HW182374   0.771   2.384   7.686  0.1907 -0.0442  0.1595
26473SOL    HW282375   0.737   2.361   7.832 -1.1433  0.6588 -0.0248
26474SOL     OW82376   0.781   4.194   9.099 -0.0215  0.7865 -0.6588
26474SOL    HW182377   0.875   4.178   9.086  0.4050  2.4424  0.2077
26474SOL    HW282378   0.744   4.106   9.109  1.6418  0.1444  0.3472
26475SOL     OW82379   7.922   5.161   2.727 -1.1374 -0.2285  0.2966
26475SOL    HW182380   7.961   5.097   2.786 -1.5643 -0.9081 -0.1505
26475SOL    HW282381   7.861   5.211   2.781 -0.9270 -0.3091  0.6084
26476SOL     OW82382   5.008   1.671   4.689 -0.7959  0.2245 -0.2221
26476SOL    HW182383   5.019   1.589   4.737 -1.5207  0.2027 -0.0826
26476SOL    HW282384   5.088   1.679   4.637 -0.9153 -0.8069 -0.5993
26477SOL     OW82385   0.575   3.050   8.557 -0.0183  0.2513  0.2582
26477SOL    HW182386   0.606   2.982   8.617 -0.7338 -0.6100 -0.3142
26477SOL    HW282387   0.557   3.125   8.613  2.8534  0.7695  0.6715
26478SOL     OW82388   0.454   2.545   8.241 -0.1649  0.6048  0.3384
26478SOL    HW182389   0.397   2.553   8.317 -1.4805 -1.7234 -0.3052
26478SOL    HW282390   0.534   2.505   8.275 -1.0286 -1.1242  0.4623
26479SOL     OW82391   4.118   2.196  10.053 -0.0908  0.4942 -0.6713
26479SOL    HW182392   4.075   2.279  10.036 -0.0471  0.8634  0.9207
26479SOL    HW282393   4.049   2.130  10.041 -0.0157  0.6895 -2.3783
26480SOL     OW82394   7.928   5.514   9.944 -0.9901 -0.2248  0.9808
26480SOL    HW182395   7.968   5.474   9.867 -2.8088 -1.6756  0.7178
26480SOL    HW282396   7.939   5.450  10.013 -0.1995  0.6760  1.7200
26481SOL     OW82397   9.480   3.907   4.751 -0.2414  0.0583  0.3190
26481SOL    HW182398   9.506   3.936   4.664  0.8094 -1.1295  0.2132
26481SOL    HW282399   9.458   3.814   4.740  1.8137 -0.6534  1.6555
26482SOL     OW82400   4.144   8.294   8.375  0.6799  0.3877  0.4401
26482SOL    HW182401   4.102   8.275   8.291 -0.3285 -1.4295  1.2931
26482SOL    HW282402   4.178   8.210   8.404  0.6798  0.8999  2.0194
26483SOL     OW82403   6.060   0.449   5.861  0.2281  0.5056  0.1110
26483SOL    HW182404   5.997   0.509   5.820  1.6596  1.7775 -0.3540
26483SOL    HW282405   6.061   0.474   5.953  0.6657  1.0645 -0.0426
26484SOL     OW82406   9.848   4.882   2.096 -0.4406 -0.1873  0.0984
26484SOL    HW182407   9.885   4.901   2.182  1.5317  1.3337 -1.0109
26484SOL    HW282408   9.920   4.842   2.047 -1.5647 -1.1395 -0.8349
26485SOL     OW82409   5.168   3.675   0.287  0.1043  0.1615  0.0570
26485SOL    HW182410   5.129   3.748   0.336 -0.0375  0.0860  0.0585
26485SOL    HW282411   5.166   3.602   0.349  1.4506  0.4788  0.5135
26486SOL     OW82412   2.543   6.001   6.282  0.1428  0.7226  0.4556
26486SOL    HW182413   2.525   6.086   6.241  0.0691 -0.3540 -1.8832
26486SOL    HW282414   2.637   5.988   6.272 -0.2281 -0.7086 -1.9205
26487SOL     OW82415   4.799   5.539   3.570 -0.3291 -0.1907  0.7468
26487SOL    HW182416   4.887   5.577   3.568 -0.4994  0.1761 -0.5585
26487SOL    HW282417   4.812   5.449   3.597  0.4272 -0.0734  0.7931
26488SOL     OW82418   9.338   5.808  10.331  0.5768  0.6178 -0.1284
26488SOL    HW182419   9.269   5.834  10.271  0.1532 -1.2038 -0.4868
26488SOL    HW282420   9.371   5.725  10.295  0.4364 -0.4384  2.0152
26489SOL     OW82421   9.326   0.990   4.230  0.5018  0.0236  0.1318
26489SOL    HW182422   9.407   0.973   4.278  0.5503  2.5320  1.0904
26489SOL    HW282423   9.355   1.020   4.144  0.5732  0.1479  0.1987
26490SOL     OW82424   2.416   9.041   2.008  0.0167  0.3587 -0.2061
26490SOL    HW182425   2.380   9.040   2.096  1.0569 -0.2696  0.2394
26490SOL    HW282426   2.419   9.133   1.983  2.8009  0.9522  1.7802
26491SOL     OW82427   5.804   1.508   2.136  0.2326  0.7486 -0.6647
26491SOL    HW182428   5.829   1.569   2.207  0.2634 -0.8348  0.7485
26491SOL    HW282429   5.885   1.493   2.088  1.1543 -1.0701  1.3119
26492SOL     OW82430  10.465   8.562   4.377 -0.2170 -0.3640  1.1069
26492SOL    HW182431  10.400   8.491   4.380  0.0532 -0.6082  1.1984
26492SOL    HW282432  10.461   8.594   4.287  1.0051 -1.7566  0.5319
26493SOL     OW82433   8.326   7.606   4.182  0.0950  0.4363  0.0330
26493SOL    HW182434   8.375   7.601   4.100 -0.9136 -1.3707 -0.5150
26493SOL    HW282435   8.377   7.664   4.237  2.2697 -0.5064 -0.8828
26494SOL     OW82436   8.795   3.471   8.560 -0.1334 -0.5737 -0.2138
26494SOL    HW182437   8.836   3.469   8.473  1.4514  1.0158  0.4223
26494SOL    HW282438   8.816   3.386   8.599  1.5047 -0.2953 -0.4109
26495SOL     OW82439   6.724   0.650   3.112  0.1753  0.3249  0.1821
26495SOL    HW182440   6.756   0.573   3.159  0.8064  0.6924  0.3723
26495SOL    HW282441   6.702   0.618   3.025  0.1633 -0.1252  0.3505
26496SOL     OW82442   7.690   8.001   8.914 -0.5990 -0.2704 -0.2012
26496SOL    HW182443   7.636   8.011   8.836  0.3600  1.3181 -0.7094
26496SOL    HW282444   7.661   8.071   8.972  0.1937 -0.0498 -0.0607
26497SOL     OW82445   2.646   9.057   7.092  0.2461 -0.1358 -0.1519
26497SOL    HW182446   2.620   9.029   7.004  0.5242 -0.3018 -0.1819
26497SOL    HW282447   2.715   9.122   7.077  2.4753 -2.3274 -0.0287
26498SOL     OW82448   3.405   5.220   9.158 -0.6936  0.6289  0.1804
26498SOL    HW182449   3.403   5.223   9.253 -0.8331  1.0533  0.1643
26498SOL    HW282450   3.373   5.132   9.136 -0.1451  0.3345  0.5348
26499SOL     OW82451   3.231   9.101   9.318  0.1015  0.5072 -0.0808
26499SOL    HW182452   3.208   9.158   9.392 -1.2681  1.3812 -1.1380
26499SOL    HW282453   3.155   9.044   9.307  0.2546  0.4425 -0.8635
26500SOL     OW82454   6.133   4.379   6.101 -0.0497 -0.1059  0.4736
26500SOL    HW182455   6.090   4.332   6.030  0.2578 -0.1304  0.3019
26500SOL    HW282456   6.113   4.471   6.084  0.9238 -0.0179 -0.2640
26501SOL     OW82457   2.289   0.109   7.608 -0.2914 -0.0291 -0.0666
26501SOL    HW182458   2.229   0.129   7.535  0.6699 -0.2577 -0.9494
26501SOL    HW282459   2.280   0.015   7.622  1.8978 -0.6475 -2.1524
26502SOL     OW82460   0.849   9.674   8.740 -0.0324 -0.3195 -0.3634
26502SOL    HW182461   0.879   9.665   8.650  0.2726 -0.4218 -0.2531
26502SOL    HW282462   0.754   9.687   8.733 -0.1113 -1.0301 -0.6579
26503SOL     OW82463  10.348   1.604  10.333 -0.3729 -0.3050 -0.4693
26503SOL    HW182464  10.411   1.544  10.373  0.5109  1.0069  0.1944
26503SOL    HW282465  10.262   1.565  10.351  0.1634 -1.3192 -0.0057
26504SOL     OW82466   1.315   2.839   2.383 -0.0216  0.6612 -0.2898
26504SOL    HW182467   1.242   2.785   2.411 -0.6907  1.5633 -0.2582
26504SOL    HW282468   1.389   2.778   2.378 -0.2552  0.1380  1.7693
26505SOL     OW82469   4.207   6.126   1.087 -0.0044  0.6306 -0.5274
26505SOL    HW182470   4.185   6.163   1.173 -0.1625  0.0731 -0.3234
26505SOL    HW282471   4.300   6.149   1.075  0.1904  0.1904  0.0727
26506SOL     OW82472   1.784   5.718   6.709  0.0045 -0.3114 -0.3107
26506SOL    HW182473   1.813   5.692   6.621 -0.7352  2.2210 -1.4000
26506SOL    HW282474   1.750   5.807   6.698 -0.9536 -0.2402  2.3998
26507SOL     OW82475   5.764   5.639   3.447 -0.0517 -0.1055 -0.2639
26507SOL    HW182476   5.720   5.639   3.362 -1.1646  0.7244  0.2846
26507SOL    HW282477   5.699   5.605   3.508  0.1314  0.9137  0.5268
26508SOL     OW82478   9.220   8.338   0.145  0.4558 -0.5556 -0.1308
26508SOL    HW182479   9.208   8.260   0.198  1.3097 -0.2434  0.5439
26508SOL    HW282480   9.267   8.307   0.067  0.0636 -0.8438 -0.2576
26509SOL     OW82481   3.200   8.900   3.438  0.0588  0.4009  0.3055
26509SOL    HW182482   3.180   8.972   3.498 -2.2767  0.1904 -0.1587
26509SOL    HW282483   3.257   8.842   3.488 -0.9700  0.7658  1.9562
26510SOL     OW82484   6.245   2.305   7.942 -0.6393 -0.7377  0.2353
26510SOL    HW182485   6.213   2.223   7.906  1.7980 -1.1025 -1.4276
26510SOL    HW282486   6.340   2.301   7.929 -0.3970  2.2185  0.3006
26511SOL     OW82487   3.533   6.984   3.805 -0.6098 -0.2156  0.4940
26511SOL    HW182488   3.447   6.941   3.814  0.1693 -1.9082  0.3499
26511SOL    HW282489   3.530   7.057   3.867 -2.8217  0.9415 -0.8530
26512SOL     OW82490   7.659   4.921   0.904 -0.7499 -0.5770 -0.0247
26512SOL    HW182491   7.709   4.895   0.827  0.3577  3.0295 -0.7072
26512SOL    HW282492   7.568   4.925   0.872 -0.1637  2.1543 -1.6846
26513SOL     OW82493   7.251   4.744   7.336 -0.4712 -0.3278 -0.0684
26513SOL    HW182494   7.167   4.732   7.292 -0.0131 -2.2155 -0.5147
26513SOL    HW282495   7.230   4.734   7.429 -1.0209  1.0796 -0.0249
26514SOL     OW82496   6.048   3.160   2.616  0.1559  0.1595 -0.3325
26514SOL    HW182497   6.003   3.159   2.700 -0.6502  0.8516 -0.7463
26514SOL    HW282498   6.105   3.237   2.620  0.3603  0.0068 -0.2950
26515SOL     OW82499   3.481   2.070   3.588 -0.0892 -0.0963 -0.4301
26515SOL    HW182500   3.561   2.089   3.538  0.7370 -0.7242  0.6171
26515SOL    HW282501   3.418   2.043   3.521  0.7901 -0.2826 -1.2113
26516SOL     OW82502   6.913   6.655   9.786 -0.7481 -0.0323  0.2992
26516SOL    HW182503   6.956   6.610   9.712  0.4417  1.9397 -0.2908
26516SOL    HW282504   6.832   6.690   9.749 -1.4972 -1.3214  0.6675
26517SOL     OW82505  10.412   9.959   6.764 -0.2370  0.0084  0.2859
26517SOL    HW182506  10.412  10.000   6.851  0.7846  1.1390 -0.2197
26517SOL    HW282507  10.336   9.901   6.765 -1.1228  1.1313  1.4177
26518SOL     OW82508   8.712   1.775   3.057 -0.2260 -0.5569 -0.0991
26518SOL    HW182509   8.730   1.808   2.969 -1.1769  0.2293 -0.0245
26518SOL    HW282510   8.779   1.814   3.113 -0.2710 -0.1864 -0.3039
26519SOL     OW82511   9.126   8.416   6.832  0.2233 -0.2436  0.2576
26519SOL    HW182512   9.206   8.384   6.873  0.6988 -0.4830 -0.8045
26519SOL    HW282513   9.136   8.511   6.829  0.0255 -0.1915  0.9793
26520SOL     OW82514   4.633   8.200   8.889 -0.7371  0.7163 -0.1486
26520SOL    HW182515   4.637   8.244   8.974 -0.4318 -0.2554  0.3523
26520SOL    HW282516   4.711   8.145   8.887 -0.8887  0.5229 -0.9508
26521SOL     OW82517  10.217   1.708   3.934  0.0926 -0.4526 -0.3504
26521SOL    HW182518  10.137   1.697   3.985  0.2391 -0.6978 -0.1732
26521SOL    HW282519  10.269   1.770   3.985  0.6821 -1.4888  0.3309
26522SOL     OW82520   0.935   9.793   8.969  0.3227  0.1838 -0.6583
26522SOL    HW182521   0.924   9.765   8.878  1.0083  3.3900 -1.8677
26522SOL    HW282522   0.851   9.834   8.991 -0.3871 -1.8682  0.7764
26523SOL     OW82523   4.648   3.425   4.766  0.3201  0.2003  0.2865
26523SOL    HW182524   4.612   3.337   4.757  0.0546  0.2989  0.3883
26523SOL    HW282525   4.630   3.450   4.857  0.1313  0.4719  0.1784
26524SOL     OW82526   3.911   5.905   9.608  0.5202 -0.0423 -0.0781
26524SOL    HW182527   3.961   5.856   9.542  1.6912 -1.4947  1.8035
26524SOL    HW282528   3.938   5.996   9.595 -0.2711 -0.0566 -2.4048
26525SOL     OW82529   8.141   1.202   6.272  0.6372 -0.4667 -0.2156
26525SOL    HW182530   8.067   1.245   6.315  0.5695 -0.7262 -0.0681
26525SOL    HW282531   8.148   1.246   6.187  2.1773  1.5638  0.8930
26526SOL     OW82532   7.557   4.911   6.415  0.4548  0.1808  0.5023
26526SOL    HW182533   7.520   4.831   6.378 -0.6181  0.5240  0.7702
26526SOL    HW282534   7.593   4.958   6.340  0.7018 -0.3489  0.2835
26527SOL     OW82535   5.186   7.677   2.652 -0.3407 -0.2884  0.1558
26527SOL    HW182536   5.177   7.589   2.615 -0.5510  0.4470 -1.6215
26527SOL    HW282537   5.264   7.672   2.707  1.2309 -0.9355 -2.0140
26528SOL     OW82538   3.377   6.718   4.267  0.2521  0.0420 -0.1700
26528SOL    HW182539   3.449   6.761   4.220  0.5481 -0.4020 -0.1289
26528SOL    HW282540   3.420   6.669   4.337 -0.2641  1.5139  1.2345
26529SOL     OW82541   2.671   7.202   4.510 -0.4656  0.2748  0.0008
26529SOL    HW182542   2.592   7.181   4.462 -1.8702  0.9805  1.8711
26529SOL    HW282543   2.737   7.218   4.443 -2.5610  2.2309 -1.7451
26530SOL     OW82544   5.791   9.193   0.299 -0.6324  0.0088 -0.2146
26530SOL    HW182545   5.729   9.222   0.366  0.5617 -1.0456  1.3999
26530SOL    HW282546   5.737   9.144   0.237 -1.5498 -0.1723  0.7010
26531SOL     OW82547   4.744   2.286   4.551  0.1165  0.1991  0.8792
26531SOL    HW182548   4.788   2.370   4.553 -1.2945  0.9774  2.9794
26531SOL    HW282549   4.670   2.298   4.491 -0.1949  0.5520  1.3229
26532SOL     OW82550   9.215   2.056   7.935  0.5996  0.4637  0.0250
26532SOL    HW182551   9.156   2.052   8.011  0.7935  1.5327  0.2519
26532SOL    HW282552   9.299   2.024   7.968  0.1769 -1.0027 -0.2822
26533SOL     OW82553   3.938   4.098   5.216  0.2860  0.1379  0.2851
26533SOL    HW182554   3.940   4.084   5.310  0.9786 -0.9935  0.1141
26533SOL    HW282555   4.010   4.158   5.199 -0.2041  0.8114  0.5344
26534SOL     OW82556   2.868   6.434   2.639  0.1725  0.4227  0.5978
26534SOL    HW182557   2.918   6.362   2.599  0.3464  0.6196  0.4598
26534SOL    HW282558   2.910   6.513   2.607  0.0511  0.5873  0.8440
26535SOL     OW82559   5.056   6.483   2.750  0.3242 -0.5053 -0.1553
26535SOL    HW182560   5.065   6.574   2.780  1.2451 -1.3894  2.6419
26535SOL    HW282561   5.039   6.490   2.656 -1.3458  2.5895  0.2265
26536SOL     OW82562  10.001   4.837   7.033  0.1703  0.7287 -0.4120
26536SOL    HW182563  10.011   4.923   6.993 -0.7760  0.6677 -0.8088
26536SOL    HW282564   9.920   4.844   7.085  1.0967  0.6505  1.0878
26537SOL     OW82565   8.745   4.843   2.839 -0.0782 -0.0102 -0.3027
26537SOL    HW182566   8.839   4.855   2.849  0.1427 -2.6677  2.3844
26537SOL    HW282567   8.709   4.854   2.927 -1.6484 -2.8117 -0.4418
26538SOL     OW82568   9.992   5.916   4.435 -0.0410  0.2589 -0.0408
26538SOL    HW182569   9.987   5.899   4.529 -1.7273  1.4972  0.1417
26538SOL    HW282570   9.944   5.998   4.423 -0.9027 -0.4771 -2.1243
26539SOL     OW82571   8.934  10.197   6.301 -0.0447  0.6676  0.5326
26539SOL    HW182572   9.006  10.210   6.239  0.9828  1.2160  1.7886
26539SOL    HW282573   8.961  10.121   6.353  0.1853  1.5387  1.7358
26540SOL     OW82574   1.399   9.197   9.246  0.5183  0.3213 -0.6383
26540SOL    HW182575   1.398   9.202   9.150 -0.2164 -0.2524 -0.6621
26540SOL    HW282576   1.407   9.288   9.274 -1.1289  0.6824 -1.2276
26541SOL     OW82577   9.728   7.785   2.209 -0.2233  0.2295 -0.2754
26541SOL    HW182578   9.788   7.781   2.134 -0.9292 -1.2104 -0.8045
26541SOL    HW282579   9.679   7.703   2.204  0.9387 -0.7734  2.8091
26542SOL     OW82580   0.874   5.622   7.496  0.0294 -0.3107 -0.4711
26542SOL    HW182581   0.817   5.569   7.440  2.5384 -2.7636 -0.9281
26542SOL    HW282582   0.882   5.706   7.449  1.6029 -2.0788 -3.6910
26543SOL     OW82583   8.696   5.318   4.078  0.0376  0.5027 -0.3983
26543SOL    HW182584   8.730   5.373   4.148 -0.4512 -1.0497  1.1483
26543SOL    HW282585   8.638   5.375   4.029  1.1987  1.9114 -0.1865
26544SOL     OW82586   1.386   7.900   3.782  0.2415 -0.4077 -0.2652
26544SOL    HW182587   1.410   7.816   3.743  0.1153 -0.8693  0.6132
26544SOL    HW282588   1.297   7.917   3.752  0.2776 -0.5733 -0.4681
26545SOL     OW82589   5.948  10.451   3.529 -0.3032  0.0597 -0.2944
26545SOL    HW182590   6.013  10.453   3.459  0.5161  0.0688  0.4465
26545SOL    HW282591   5.867  10.422   3.487  0.5574 -1.5433 -0.9415
26546SOL     OW82592   0.333   2.165   2.499 -0.2482 -0.2329  0.0141
26546SOL    HW182593   0.308   2.139   2.410  1.3234  1.3749 -0.9455
26546SOL    HW282594   0.415   2.213   2.488 -1.9164  3.3891  1.8560
26547SOL     OW82595   9.200  10.007   0.483 -0.7243 -0.3237  0.9331
26547SOL    HW182596   9.125  10.015   0.541 -1.2165  0.5706  0.1954
26547SOL    HW282597   9.223  10.097   0.461 -2.5251 -0.5710 -2.7333
26548SOL     OW82598   4.525   6.483   7.737  0.4874  0.2920  0.1954
26548SOL    HW182599   4.511   6.414   7.801  1.7065  0.8559  1.1232
26548SOL    HW282600   4.591   6.540   7.777  0.3813  1.3434 -1.0417
26549SOL     OW82601   8.174   4.419   3.498  0.6666 -0.0068 -0.0604
26549SOL    HW182602   8.144   4.486   3.559 -1.9737 -1.7113  0.6760
26549SOL    HW282603   8.195   4.344   3.553  0.7957 -0.7452 -1.0820
26550SOL     OW82604   2.818   8.659   0.103 -0.5235  0.2816  0.1340
26550SOL    HW182605   2.825   8.677   0.197 -2.2180  0.3469  0.2757
26550SOL    HW282606   2.890   8.599   0.085 -0.6345 -0.3420  1.6352
26551SOL     OW82607   7.709   1.933  10.404  0.8653 -0.3503  0.1103
26551SOL    HW182608   7.675   1.953  10.316  0.1706  1.4844  0.7272
26551SOL    HW282609   7.748   2.016  10.433 -0.3503 -0.4300  2.1303
26552SOL     OW82610   3.705   7.072   2.204  0.1506  0.2534  0.8819
26552SOL    HW182611   3.765   6.997   2.205 -0.4566 -0.2369  1.6947
26552SOL    HW282612   3.618   7.032   2.195 -0.1810  0.8657  1.3418
26553SOL     OW82613   6.905   1.438   0.021 -0.3486 -0.1209  0.1769
26553SOL    HW182614   6.871   1.356  -0.013 -2.0222  0.9601 -0.9155
26553SOL    HW282615   6.837   1.470   0.081 -1.0376  1.7238 -1.4684
26554SOL     OW82616   5.489   1.826   0.300  0.1497  0.1257 -0.1496
26554SOL    HW182617   5.538   1.881   0.360  1.3498  1.5098 -2.2582
26554SOL    HW282618   5.486   1.876   0.218 -0.6761 -1.9840 -1.5028
26555SOL     OW82619   3.257   3.578   8.855  0.0478  0.2501 -0.0311
26555SOL    HW182620   3.276   3.484   8.853  1.8233  0.5807 -1.4703
26555SOL    HW282621   3.322   3.616   8.796 -1.8942  2.1849 -1.0146
26556SOL     OW82622   6.347   9.727   8.789  0.7028 -0.5434 -0.0750
26556SOL    HW182623   6.264   9.691   8.758 -0.0651 -0.0954  1.3489
26556SOL    HW282624   6.402   9.651   8.807  0.6821 -0.8386 -1.1755
26557SOL     OW82625   8.403   9.792   3.377  1.0951 -0.2549  0.3517
26557SOL    HW182626   8.360   9.814   3.294  0.3693 -1.5680  0.3508
26557SOL    HW282627   8.476   9.736   3.352  1.3869  0.0377  0.5423
26558SOL     OW82628   4.955   8.734   0.573 -0.0144  0.4582 -0.3390
26558SOL    HW182629   4.993   8.651   0.603  0.8789 -0.0401 -2.6379
26558SOL    HW282630   4.920   8.715   0.486 -2.1492  1.9020  0.1157
26559SOL     OW82631   9.536   8.632   2.206  0.4388  0.3561 -0.7529
26559SOL    HW182632   9.590   8.711   2.209  2.0947 -0.5526 -3.0325
26559SOL    HW282633   9.479   8.645   2.130 -0.7777  0.2364  0.1322
26560SOL     OW82634   7.889   8.259   7.070 -0.0861  0.3324  0.1684
26560SOL    HW182635   7.854   8.293   7.153 -1.1791 -1.6308  0.5810
26560SOL    HW282636   7.905   8.166   7.088 -1.2241 -0.3607 -2.0808
26561SOL     OW82637   0.195   5.934   5.746  0.3584  0.3778 -0.6374
26561SOL    HW182638   0.144   5.991   5.688 -1.5885 -0.3965  0.2409
26561SOL    HW282639   0.281   5.929   5.705 -0.2978  1.6361 -2.2581
26562SOL     OW82640   3.487   0.590   4.568 -0.1122 -0.1565 -0.2742
26562SOL    HW182641   3.393   0.603   4.569  0.0959  1.5848 -0.5689
26562SOL    HW282642   3.510   0.590   4.475  0.0880 -1.4202 -0.2367
26563SOL     OW82643   5.765   4.995   3.150 -0.2014 -0.3390  0.1612
26563SOL    HW182644   5.834   5.005   3.215 -0.5256  1.6734  0.2694
26563SOL    HW282645   5.758   5.082   3.110  0.0166 -1.5072 -2.6225
26564SOL     OW82646   2.363   2.484  10.155  0.0492  0.8508 -0.2818
26564SOL    HW182647   2.315   2.449  10.230  0.5417 -0.3312 -0.4969
26564SOL    HW282648   2.446   2.515  10.192  0.0091  0.9137 -0.2426
26565SOL     OW82649   7.538   3.424   6.561 -0.5652  0.4540  0.6291
26565SOL    HW182650   7.489   3.493   6.604  0.8096  2.3959 -0.7440
26565SOL    HW282651   7.551   3.455   6.471  1.0347 -1.0763  0.2533
26566SOL     OW82652   3.682   4.714   4.976 -0.2641 -0.0174  0.7283
26566SOL    HW182653   3.759   4.709   5.032 -0.3475  0.4042  0.8889
26566SOL    HW282654   3.652   4.624   4.966 -0.1669 -0.1067  1.2482
26567SOL     OW82655  10.088   1.830   0.887 -0.7324 -0.1463  0.4434
26567SOL    HW182656  10.063   1.795   0.801  0.7821 -1.5260  0.5297
26567SOL    HW282657  10.016   1.803   0.945 -0.4120 -1.6877  0.1618
26568SOL     OW82658   9.495   2.305  10.490 -0.0942 -0.2699  0.6292
26568SOL    HW182659   9.414   2.276  10.447 -0.2162  2.1940 -1.0139
26568SOL    HW282660   9.468   2.380  10.543  1.1946  1.3049 -0.8188
26569SOL     OW82661   0.738   7.479   7.827  0.1700  0.4002 -0.2580
26569SOL    HW182662   0.725   7.410   7.892  2.4449 -0.0947 -0.2325
26569SOL    HW282663   0.707   7.559   7.870  1.5190  0.0753  1.4688
26570SOL     OW82664   1.031   4.394   3.744 -0.2398 -0.9901  0.2773
26570SOL    HW182665   0.952   4.424   3.700  0.7701  0.4998 -0.5618
26570SOL    HW282666   1.030   4.299   3.731 -0.9327 -0.7936 -1.3094
26571SOL     OW82667   7.768   7.022   6.358  0.0304 -0.1141 -0.3072
26571SOL    HW182668   7.801   6.932   6.357 -1.1194 -0.5472 -0.3675
26571SOL    HW282669   7.772   7.049   6.266  0.8755  0.1006 -0.2194
26572SOL     OW82670   1.329   8.110   7.351 -0.2547  0.2771  0.4669
26572SOL    HW182671   1.341   8.191   7.301 -1.2291 -0.1368 -0.4752
26572SOL    HW282672   1.255   8.130   7.409 -0.3246  0.1485  0.4211
26573SOL     OW82673   4.151   9.888  10.546  0.2468  0.3329  0.1343
26573SOL    HW182674   4.240   9.863  10.520  0.6741  1.5650  0.3464
26573SOL    HW282675   4.145   9.980  10.524 -2.0550 -0.3520 -2.7483
26574SOL     OW82676   7.402   3.972   0.309 -0.3146 -0.4358  0.0971
26574SOL    HW182677   7.479   3.964   0.253  0.1972 -1.6501  0.9292
26574SOL    HW282678   7.327   3.956   0.251  0.0041  1.0407 -0.7773
26575SOL     OW82679   2.439   6.084   1.543 -0.3778  0.1893 -0.5785
26575SOL    HW182680   2.479   6.001   1.519  0.4754  0.4700 -0.1714
26575SOL    HW282681   2.420   6.075   1.636  0.3270  0.6811 -0.3799
26576SOL     OW82682   7.850   2.170  10.461 -0.1112  0.1079 -0.4487
26576SOL    HW182683   7.873   2.218  10.541 -0.1446  0.5362 -0.6932
26576SOL    HW282684   7.908   2.205  10.394 -0.0147 -0.3241 -0.5910
26577SOL     OW82685   8.025   3.345   5.844  0.3206 -0.6708 -0.3989
26577SOL    HW182686   8.032   3.429   5.797 -0.3138  0.2738  1.1105
26577SOL    HW282687   8.062   3.281   5.783  1.1602  0.7449 -1.4676
26578SOL     OW82688   8.720   2.105   2.584 -0.0421  0.3738  0.1652
26578SOL    HW182689   8.736   2.042   2.654 -0.1548  0.9072  0.6805
26578SOL    HW282690   8.794   2.094   2.524 -0.1530 -0.3643  0.1603
26579SOL     OW82691   4.444   9.632   6.487 -0.1332 -0.3369  0.6108
26579SOL    HW182692   4.495   9.711   6.469 -0.3073 -0.8321 -2.8515
26579SOL    HW282693   4.353   9.660   6.482 -0.2243 -0.3314  1.9820
26580SOL     OW82694   8.182   8.307   3.359  0.1979  0.1905  0.2287
26580SOL    HW182695   8.189   8.223   3.313  0.9754 -0.3499  1.2948
26580SOL    HW282696   8.182   8.283   3.452 -2.9186  1.1139  0.5877
26581SOL     OW82697  10.338   7.093   4.470  0.0031  0.5407  0.0089
26581SOL    HW182698  10.379   7.149   4.535  2.0331 -0.2155 -0.5355
26581SOL    HW282699  10.394   7.015   4.466  0.1490  0.6789 -2.8301
26582SOL     OW82700   6.664   9.970   2.401 -0.0436 -0.7880 -0.0272
26582SOL    HW182701   6.677   9.876   2.416  2.2184 -0.5758 -0.3519
26582SOL    HW282702   6.702   9.987   2.315  1.2591  0.7175  0.7889
26583SOL     OW82703   4.121   1.364   4.508  0.1360 -0.7718 -0.0382
26583SOL    HW182704   4.160   1.281   4.482 -0.4241 -0.1489 -3.3080
26583SOL    HW282705   4.055   1.381   4.441  2.0582  3.5585 -1.1518
26584SOL     OW82706   9.594   4.938   0.186 -0.0730 -0.3116 -0.1871
26584SOL    HW182707   9.648   4.975   0.116 -0.7923  1.1872  0.0096
26584SOL    HW282708   9.517   4.904   0.140 -0.1159 -0.1708 -0.2207
26585SOL     OW82709   5.514   0.433   2.330 -0.2068  0.2254  0.5905
26585SOL    HW182710   5.512   0.528   2.321  2.0041  0.1993 -1.5555
26585SOL    HW282711   5.465   0.401   2.254  0.6355 -0.3040  0.2567
26586SOL     OW82712   9.436   2.991   7.968 -0.1336 -0.2448  0.2749
26586SOL    HW182713   9.414   3.065   8.024  1.0034 -1.1145  1.9866
26586SOL    HW282714   9.352   2.958   7.937 -0.6258  2.6363 -1.8482
26587SOL     OW82715   2.761   9.195   0.261  0.2061  0.4340 -0.4813
26587SOL    HW182716   2.841   9.238   0.232 -0.0326 -0.5255 -2.8025
26587SOL    HW282717   2.711   9.180   0.180 -1.9958  0.3562  0.8045
26588SOL     OW82718   0.881   3.019   1.185  0.4374  0.0351 -0.4129
26588SOL    HW182719   0.890   3.100   1.135 -3.0521  0.9196  0.1456
26588SOL    HW282720   0.885   3.046   1.276 -1.0443 -0.2980 -0.2173
26589SOL     OW82721   9.441   3.610   3.835 -0.4359  0.0413  0.4665
26589SOL    HW182722   9.437   3.676   3.766 -0.5383 -1.6352 -1.1840
26589SOL    HW282723   9.349   3.594   3.858 -0.6440 -1.6752 -1.3188
26590SOL     OW82724   8.005   3.827   9.708 -0.1690  0.4843  0.2881
26590SOL    HW182725   7.997   3.756   9.772  0.4477  2.2333  2.3954
26590SOL    HW282726   8.098   3.828   9.685 -0.6637 -1.5030 -2.4434
26591SOL     OW82727   0.997   9.619   7.403  0.4563 -0.4637 -0.0383
26591SOL    HW182728   0.973   9.639   7.313  0.3783  0.5641  0.1998
26591SOL    HW282729   0.972   9.697   7.453  1.2472 -0.6841  0.7364
26592SOL     OW82730   7.895   5.045   9.739 -0.0788  0.2517 -0.4626
26592SOL    HW182731   7.859   4.957   9.723  0.0588 -0.3237  1.9828
26592SOL    HW282732   7.823   5.104   9.716 -0.4539 -0.5297 -1.3970
26593SOL     OW82733   2.911   3.463   9.408 -0.0230 -0.5512  0.5187
26593SOL    HW182734   2.894   3.413   9.329 -1.7867  0.2123  0.3667
26593SOL    HW282735   2.987   3.517   9.387 -0.1524 -0.7399 -0.4610
26594SOL     OW82736   2.813   9.728   5.471 -0.0900  0.8476  0.9365
26594SOL    HW182737   2.801   9.800   5.409 -1.0737 -0.2741 -0.2199
26594SOL    HW282738   2.789   9.766   5.556 -0.9197  1.7970  0.3003
26595SOL     OW82739   3.031   0.056   9.755  0.0586 -0.2950 -0.2916
26595SOL    HW182740   3.100   0.056   9.821  1.5475  2.0813 -1.7016
26595SOL    HW282741   3.076   0.046   9.672 -1.4263  0.0252 -1.1745
26596SOL     OW82742   1.468   3.408   4.635  0.3200 -0.7835 -0.2506
26596SOL    HW182743   1.394   3.350   4.614  0.1957 -1.5456  2.0325
26596SOL    HW282744   1.432   3.472   4.696  1.1248  0.0091 -0.5874
26597SOL     OW82745   4.994   3.332   2.156  0.1461 -0.2295  0.1849
26597SOL    HW182746   4.991   3.389   2.233  0.2733  1.9765 -1.3638
26597SOL    HW282747   5.078   3.287   2.163 -0.0473 -0.4237  1.5391
26598SOL     OW82748   8.540   8.520   4.579  0.0200  1.1044 -0.3313
26598SOL    HW182749   8.501   8.433   4.595  2.0402  0.1438 -0.3173
26598SOL    HW282750   8.516   8.571   4.656  1.2605 -0.3871  1.1201
26599SOL     OW82751   6.010   6.376   5.982  0.4461 -0.2351  0.0530
26599SOL    HW182752   6.010   6.331   5.898 -0.7119  0.2138 -0.1937
26599SOL    HW282753   6.053   6.460   5.964 -1.0705  0.4551 -0.4292
26600SOL     OW82754   7.637   4.551   8.486  0.1732 -0.2278  0.1173
26600SOL    HW182755   7.667   4.626   8.435 -1.6758  0.7013  0.3066
26600SOL    HW282756   7.705   4.537   8.552  1.1163  0.5112 -0.6740
26601SOL     OW82757   9.707   6.423   3.728 -0.0598 -0.0758  0.4638
26601SOL    HW182758   9.676   6.463   3.647 -0.4072 -0.0171  0.6241
26601SOL    HW282759   9.641   6.446   3.793  1.0218  1.2701  1.1435
26602SOL     OW82760   8.141   4.753   9.441 -0.4205  0.0424 -0.8426
26602SOL    HW182761   8.160   4.737   9.533 -0.6322 -0.1538 -0.8316
26602SOL    HW282762   8.161   4.845   9.428 -0.9213  0.2100 -0.4643
26603SOL     OW82763   3.089   6.232   7.801 -0.2924 -0.7192  0.3388
26603SOL    HW182764   3.069   6.254   7.892 -0.3565 -1.2618  0.4609
26603SOL    HW282765   3.165   6.174   7.806  0.6858  0.4882 -0.0632
26604SOL     OW82766  10.606   8.926   6.244 -0.5981 -0.1263 -1.2168
26604SOL    HW182767  10.526   8.906   6.195 -0.8426 -2.4986  0.0473
26604SOL    HW282768  10.671   8.867   6.208  0.1916  0.6724 -1.1340
26605SOL     OW82769   2.101   9.799   7.906  0.6047 -0.0610 -0.6846
26605SOL    HW182770   2.168   9.773   7.969  0.2485  1.3201  0.3216
26605SOL    HW282771   2.124   9.890   7.884 -1.2423  0.6601  0.1623
26606SOL     OW82772   2.973   2.851   3.485  0.7226  0.2723 -0.5231
26606SOL    HW182773   2.882   2.880   3.475  0.4275 -0.0929  0.9100
26606SOL    HW282774   3.025   2.923   3.450 -0.1075 -0.1962 -2.9511
26607SOL     OW82775   3.432   4.925   1.393  0.2876 -0.2778  0.1651
26607SOL    HW182776   3.422   4.851   1.453  0.6735  1.0594  1.9977
26607SOL    HW282777   3.465   4.887   1.312  0.5701 -2.0846  1.0792
26608SOL     OW82778   9.149   4.311   8.575  0.1276  0.1284  0.1117
26608SOL    HW182779   9.069   4.321   8.626 -1.3447 -1.4285 -1.6966
26608SOL    HW282780   9.172   4.400   8.548 -0.5115  0.6807  1.3348
26609SOL     OW82781   8.696   8.377   8.075  0.0382 -0.0419 -0.0650
26609SOL    HW182782   8.620   8.417   8.117  0.3573  0.8063 -0.2709
26609SOL    HW282783   8.683   8.283   8.087 -0.4288  0.1362  0.9589
26610SOL     OW82784   4.982   8.764   3.581 -0.4710  0.5838 -0.2891
26610SOL    HW182785   4.974   8.681   3.534 -1.1109  1.3648 -1.6311
26610SOL    HW282786   5.042   8.745   3.653  0.6422 -0.6601 -1.4682
26611SOL     OW82787   7.046   9.881   2.492  0.3495  0.1266 -0.4417
26611SOL    HW182788   7.069   9.873   2.400  0.2311  0.9829 -0.5539
26611SOL    HW282789   7.104   9.949   2.526  1.2570 -1.0230  0.4313
26612SOL     OW82790   2.805   5.930   7.941  0.0427  0.2433 -0.8478
26612SOL    HW182791   2.731   5.923   7.879 -0.5479  1.5942 -0.3262
26612SOL    HW282792   2.767   5.971   8.019  1.4253  1.3125 -0.7097
26613SOL     OW82793   8.906   2.180   2.053 -0.1994  0.5661 -0.6211
26613SOL    HW182794   8.886   2.135   2.135  1.5639  0.4407 -0.2185
26613SOL    HW282795   8.831   2.162   1.997 -1.1309  0.0828  0.7284
26614SOL     OW82796   6.763   1.861   1.587 -0.4593  0.0649 -0.1098
26614SOL    HW182797   6.797   1.773   1.603 -2.6364 -0.6395  1.0477
26614SOL    HW282798   6.796   1.884   1.500  0.5901 -1.6676 -0.2154
26615SOL     OW82799   7.746   0.248   0.800 -0.1742 -0.5177 -0.4288
26615SOL    HW182800   7.779   0.175   0.748 -2.7101 -2.0355 -0.0299
26615SOL    HW282801   7.706   0.207   0.876  2.7818  1.5823  2.5381
26616SOL     OW82802  10.477   5.159   1.905  0.1970  0.5676  0.4236
26616SOL    HW182803  10.527   5.118   1.835 -1.1967  0.5287 -0.5994
26616SOL    HW282804  10.531   5.232   1.934  0.6969  0.7562 -0.9087
26617SOL     OW82805  10.199   5.171   0.766  0.0428  0.4996 -0.3328
26617SOL    HW182806  10.197   5.235   0.695  1.2065 -0.8430 -1.6372
26617SOL    HW282807  10.123   5.114   0.751  0.5524 -0.0687 -0.7910
26618SOL     OW82808   1.489   7.449   2.620  0.4022 -0.8718 -0.0039
26618SOL    HW182809   1.504   7.540   2.647 -0.8876 -0.9444  1.1043
26618SOL    HW282810   1.568   7.402   2.649  0.8009 -0.2233 -0.0184
26619SOL     OW82811  10.429   1.915   3.516  0.2411  0.6788  0.5748
26619SOL    HW182812  10.364   1.861   3.471 -0.2303 -0.2552  2.2701
26619SOL    HW282813  10.512   1.869   3.504  0.1186  0.4425  0.6257
26620SOL     OW82814   5.075   0.404   1.786  0.0077  0.3417  0.6302
26620SOL    HW182815   5.163   0.378   1.812  0.1279 -1.1996 -1.1019
26620SOL    HW282816   5.019   0.372   1.857  0.5714 -1.2599  0.3856
26621SOL     OW82817   1.276   6.815   9.106 -0.2116 -0.3377  0.3981
26621SOL    HW182818   1.209   6.801   9.172 -0.6579  0.2934  0.0817
26621SOL    HW282819   1.257   6.901   9.069 -0.9527 -1.3465 -1.6875
26622SOL     OW82820   0.377   2.582   0.706  0.1541 -0.6454  0.5633
26622SOL    HW182821   0.418   2.604   0.623 -0.1864 -1.4657  0.1617
26622SOL    HW282822   0.329   2.660   0.732 -1.0113 -0.8826 -0.7924
26623SOL     OW82823   3.840   4.122  10.102  0.6507 -0.5492 -0.2881
26623SOL    HW182824   3.863   4.030  10.090  0.7790 -0.5113 -0.3395
26623SOL    HW282825   3.886   4.167  10.031  0.9844 -0.3859  0.0313
26624SOL     OW82826   4.529   0.534   4.003 -0.3063 -0.1515  0.0124
26624SOL    HW182827   4.458   0.582   4.046 -0.0957 -0.8175  1.1533
26624SOL    HW282828   4.514   0.548   3.909  0.5885  3.3215  0.2813
26625SOL     OW82829   7.921   3.472   4.764  0.2501 -0.4700  0.3548
26625SOL    HW182830   7.913   3.568   4.764 -2.5026 -0.5135 -2.7186
26625SOL    HW282831   8.013   3.455   4.745  0.5165  1.6378 -0.4835
26626SOL     OW82832   1.505   6.526   5.882  0.6636  0.5296  0.0620
26626SOL    HW182833   1.548   6.593   5.935  0.0917  2.1138 -1.3776
26626SOL    HW282834   1.421   6.512   5.925 -0.5397  3.0790 -1.2536
26627SOL     OW82835   4.174   7.217   7.836 -0.5422  0.1172 -0.0965
26627SOL    HW182836   4.263   7.182   7.827 -0.1525  0.7868  1.0217
26627SOL    HW282837   4.166   7.280   7.764 -0.7243 -1.1385 -1.2157
26628SOL     OW82838   3.625   7.008  10.115  0.3935  0.2414  0.4874
26628SOL    HW182839   3.537   6.983  10.142  0.1582 -0.3679 -0.7736
26628SOL    HW282840   3.657   7.064  10.186 -0.7730 -0.0143  1.2425
26629SOL     OW82841   2.097   6.629   2.108  0.5229  0.1743 -0.0473
26629SOL    HW182842   2.084   6.549   2.159 -0.2315 -0.0742 -0.6210
26629SOL    HW282843   2.192   6.642   2.108  0.5973 -0.2939  0.6900
26630SOL     OW82844   7.262   6.840   3.535  0.6088 -0.2007  0.5621
26630SOL    HW182845   7.336   6.782   3.555  0.9494 -0.5109 -1.3574
26630SOL    HW282846   7.294   6.895   3.464 -0.7359  0.2485  0.2822
26631SOL     OW82847   4.861   3.789   3.497  0.0699 -0.3437  0.4234
26631SOL    HW182848   4.809   3.819   3.571  0.6899 -0.2458  0.8307
26631SOL    HW282849   4.941   3.842   3.501  0.0232 -0.1817 -0.4426
26632SOL     OW82850   5.263   6.199   0.113  0.1598 -0.0127  0.6454
26632SOL    HW182851   5.309   6.250   0.047 -1.1573 -0.2336 -0.4799
26632SOL    HW282852   5.209   6.138   0.063 -1.3149  0.2069  1.9095
26633SOL     OW82853   2.985   8.639   0.578  0.6339  0.1774  0.4208
26633SOL    HW182854   2.927   8.595   0.640 -0.5680  0.1042 -0.7131
26633SOL    HW282855   3.002   8.725   0.616 -0.4010  0.2731  0.6719
26634SOL     OW82856   7.725   4.581   0.637 -0.1151 -0.2749  0.9140
26634SOL    HW182857   7.742   4.665   0.679  0.9973 -0.2504  0.4555
26634SOL    HW282858   7.752   4.593   0.546  0.3718 -1.2134  0.9182
26635SOL     OW82859   2.235   6.863   2.807  0.6962  0.2199  0.1466
26635SOL    HW182860   2.204   6.847   2.718  1.0287  0.6339 -0.0450
26635SOL    HW282861   2.164   6.911   2.849  0.0673 -0.9351  0.4542
26636SOL     OW82862  10.689   6.028   6.860 -0.6600  0.5707 -0.5908
26636SOL    HW182863  10.698   5.937   6.886  1.4561  1.1035  0.8437
26636SOL    HW282864  10.620   6.063   6.916 -1.5878 -0.1508 -1.2557
26637SOL     OW82865   0.052   2.169   6.404  0.1021  0.4247 -0.2178
26637SOL    HW182866   0.095   2.167   6.318 -1.9206 -4.1116 -1.4527
26637SOL    HW282867   0.107   2.114   6.460  0.4439  1.8516  0.8907
26638SOL     OW82868   8.510   6.892   2.714  0.0783  0.2842  0.3854
26638SOL    HW182869   8.504   6.839   2.793 -0.2484  0.6978  0.6370
26638SOL    HW282870   8.432   6.946   2.715 -0.8591 -0.9432 -1.1187
26639SOL     OW82871   0.804   6.390   5.342 -0.4995 -0.0607 -0.6089
26639SOL    HW182872   0.843   6.367   5.258  0.3157  0.4945 -0.3975
26639SOL    HW282873   0.710   6.379   5.329 -0.5154  1.3653 -2.0320
26640SOL     OW82874   6.696   6.241   0.811  0.4838 -0.0474 -0.4499
26640SOL    HW182875   6.674   6.215   0.722 -1.5289 -1.6656  0.4336
26640SOL    HW282876   6.694   6.337   0.810  2.2281  0.0186 -2.4895
26641SOL     OW82877   5.854   5.314   9.038 -0.0514 -0.2590 -0.5240
26641SOL    HW182878   5.763   5.285   9.032 -0.2541 -0.3242  1.7796
26641SOL    HW282879   5.897   5.248   9.092  1.2173  0.1160 -1.0396
26642SOL     OW82880   1.426   9.246  10.673  0.4005 -0.9111 -0.0085
26642SOL    HW182881   1.387   9.230  10.588  0.5716 -0.8592 -0.0979
26642SOL    HW282882   1.405   9.168  10.725 -0.4701 -0.5495  0.1857
26643SOL     OW82883   6.854   0.601   5.078  0.2383  0.0512 -0.2197
26643SOL    HW182884   6.936   0.557   5.096 -0.2331 -0.7768 -0.0557
26643SOL    HW282885   6.793   0.567   5.144 -0.6563 -0.5675 -1.3232
26644SOL     OW82886   5.269   3.769  10.581  0.0669 -0.5951 -0.0149
26644SOL    HW182887   5.219   3.822  10.519  0.2774 -0.6982 -0.2795
26644SOL    HW282888   5.357   3.767  10.544 -0.5067 -3.3735 -1.5238
26645SOL     OW82889  10.248   6.872   2.510 -0.1245  0.2115  0.2054
26645SOL    HW182890  10.251   6.818   2.432 -1.3295 -2.2153  1.7216
26645SOL    HW282891  10.321   6.933   2.500  1.5247 -1.8960 -1.4468
26646SOL     OW82892  10.573   6.425   5.106  0.3710  0.2549 -0.0662
26646SOL    HW182893  10.590   6.333   5.085 -1.1429  0.1411 -0.9122
26646SOL    HW282894  10.541   6.422   5.196 -0.0705 -0.0945 -0.2320
26647SOL     OW82895   1.151   9.438   8.025 -0.4012  0.6498 -0.2871
26647SOL    HW182896   1.177   9.498   8.096 -0.7888 -0.8707  1.2141
26647SOL    HW282897   1.124   9.358   8.071  0.7205 -0.9240 -2.2307
26648SOL     OW82898   9.391   9.085   9.021 -0.0867 -0.8886 -0.2257
26648SOL    HW182899   9.389   9.056   9.113 -1.0302 -2.6355 -0.7555
26648SOL    HW282900   9.475   9.130   9.012  0.2838 -1.1980  1.3428
26649SOL     OW82901   2.560   1.957   3.432  0.2929  0.2318  0.6498
26649SOL    HW182902   2.582   1.935   3.342  0.1163  0.6795  0.4957
26649SOL    HW282903   2.531   1.874   3.471  0.8983 -0.0733  0.4567
26650SOL     OW82904   8.526   1.553   3.365  0.1874 -0.0686  0.3327
26650SOL    HW182905   8.614   1.566   3.400  0.2857 -0.6931  0.3345
26650SOL    HW282906   8.536   1.559   3.271  0.0862  0.6767  0.3664
26651SOL     OW82907   6.976   2.919   5.597 -0.4524 -0.2473 -0.3769
26651SOL    HW182908   6.919   2.957   5.530  0.1142 -0.8476 -1.2243
26651SOL    HW282909   6.961   2.825   5.591 -2.3308 -0.2075  2.1448
26652SOL     OW82910  10.227  10.173  10.560 -0.4763 -0.2116  0.5566
26652SOL    HW182911  10.294  10.239  10.576 -1.4654  1.1915 -0.8156
26652SOL    HW282912  10.148  10.208  10.602 -0.9828 -0.5384 -0.0964
26653SOL     OW82913   2.559   7.359   5.561  0.0846  0.5784 -0.1996
26653SOL    HW182914   2.549   7.428   5.626  0.5693  0.8518 -0.4105
26653SOL    HW282915   2.469   7.336   5.536 -0.2047 -0.5895  1.6448
26654SOL     OW82916   7.652   3.977   6.536  0.2494  0.4351  0.0392
26654SOL    HW182917   7.717   4.027   6.487 -0.8837  0.0538 -1.9491
26654SOL    HW282918   7.660   3.888   6.503  0.7393 -0.3034  1.9780
26655SOL     OW82919   1.753   4.348   1.106 -0.4494  0.1330  0.6151
26655SOL    HW182920   1.747   4.268   1.054 -1.7031  0.0422  0.8718
26655SOL    HW282921   1.828   4.395   1.070 -1.1320 -0.0475 -1.1061
26656SOL     OW82922   7.910   7.028   2.027  0.5065 -0.3595 -0.7611
26656SOL    HW182923   7.901   7.094   2.095  0.9606 -1.7880  0.7574
26656SOL    HW282924   7.957   7.072   1.956 -0.1579  1.2210 -0.2506
26657SOL     OW82925   4.356   2.106   9.128  0.2809 -0.4622  0.0240
26657SOL    HW182926   4.372   2.026   9.077 -0.1134  0.0438 -0.8972
26657SOL    HW282927   4.351   2.176   9.063  1.1964  0.4165  0.8694
26658SOL     OW82928   3.534   6.472   7.208 -0.0952 -0.0295 -0.6324
26658SOL    HW182929   3.487   6.466   7.291  0.9269 -1.3762 -0.1259
26658SOL    HW282930   3.623   6.497   7.232 -0.0093  0.4643 -1.4110
26659SOL     OW82931   1.797   7.735   1.214 -0.8776 -0.1686 -0.2545
26659SOL    HW182932   1.756   7.810   1.256 -1.6325  1.9508 -4.2491
26659SOL    HW282933   1.724   7.679   1.186 -0.7324  0.4044 -1.8977
26660SOL     OW82934   5.988   6.206   7.856  0.1649 -0.2790  0.5640
26660SOL    HW182935   6.025   6.215   7.768  2.7909 -1.1279  1.4793
26660SOL    HW282936   6.025   6.279   7.905  1.6856 -1.8199  1.8215
26661SOL     OW82937   1.156   0.423   7.176 -0.3278  0.0073  0.1604
26661SOL    HW182938   1.122   0.343   7.217 -1.4042  0.6925  0.6473
26661SOL    HW282939   1.175   0.482   7.249  1.5286 -0.1729 -0.1247
26662SOL     OW82940   1.084   9.647   5.680  0.4289 -0.4035  0.0537
26662SOL    HW182941   1.090   9.593   5.758 -0.4442  0.7064  0.9061
26662SOL    HW282942   1.118   9.732   5.706  0.5675 -0.1414 -0.9137
26663SOL     OW82943  10.206   6.485   1.881  0.7518  0.3758 -0.1849
26663SOL    HW182944  10.165   6.474   1.967  0.9905 -2.0010 -0.2903
26663SOL    HW282945  10.298   6.464   1.895  0.7576 -0.2280 -1.0315
26664SOL     OW82946  10.686   4.655   7.999 -0.7088  0.1265  0.6603
26664SOL    HW182947  10.611   4.651   8.058 -0.7686 -2.3315  0.5578
26664SOL    HW282948  10.747   4.590   8.034 -0.2983 -0.6538 -1.3264
26665SOL     OW82949   3.542  10.425   3.594  0.3825  0.2193 -0.0739
26665SOL    HW182950   3.551  10.388   3.506  1.3052 -2.1773  0.9328
26665SOL    HW282951   3.485  10.363   3.640  0.3914  1.1166  1.1952
26666SOL     OW82952   5.880   4.989   6.365  0.3563 -0.1971  0.2179
26666SOL    HW182953   5.941   5.008   6.436 -0.3915 -0.1889  0.8804
26666SOL    HW282954   5.822   4.922   6.402  1.1891 -1.6838 -1.0849
26667SOL     OW82955   5.880  10.346   2.379 -0.8044 -0.3638  0.1239
26667SOL    HW182956   5.963  10.314   2.416  0.2312 -1.0383 -2.5616
26667SOL    HW282957   5.895  10.440   2.367 -0.7705 -0.3228  0.4759
26668SOL     OW82958   2.784   4.192   5.718 -0.8531 -0.3128 -0.1721
26668SOL    HW182959   2.758   4.272   5.673 -1.1215  0.9777  2.1510
26668SOL    HW282960   2.733   4.191   5.799  1.7319 -0.9328  1.5798
26669SOL     OW82961   2.611   5.800   9.974  0.1411  0.1858 -0.7651
26669SOL    HW182962   2.521   5.808  10.006  0.4208 -0.3980  0.2203
26669SOL    HW282963   2.602   5.777   9.881 -0.7577 -1.2230 -0.3509
26670SOL     OW82964   9.829   2.269   1.342  0.4624 -0.1965  0.2715
26670SOL    HW182965   9.813   2.181   1.309 -0.3800  0.5518 -1.4733
26670SOL    HW282966   9.919   2.267   1.376  0.9403 -1.3780 -1.0006
26671SOL     OW82967   3.277   1.482   6.149 -0.4907  0.2298  0.2721
26671SOL    HW182968   3.214   1.491   6.221  0.0119  3.0472  0.4489
26671SOL    HW282969   3.354   1.441   6.190 -0.2710  1.6420  1.3484
26672SOL     OW82970   8.052   7.322   4.838 -0.1164 -0.2166  0.6224
26672SOL    HW182971   8.072   7.280   4.754 -0.5935 -0.8849  0.8288
26672SOL    HW282972   7.985   7.387   4.818  0.4212  0.2531  0.3422
26673SOL     OW82973   4.886   7.594  10.661 -0.0150  0.4387  0.0540
26673SOL    HW182974   4.968   7.552  10.687  1.2750  2.1371 -1.0327
26673SOL    HW282975   4.913   7.681  10.630 -2.3758  1.5588  0.9033
26674SOL     OW82976   9.248   2.000   0.757 -0.3083 -0.2962  0.1714
26674SOL    HW182977   9.258   1.942   0.833 -0.7734 -1.0433 -0.3288
26674SOL    HW282978   9.337   2.022   0.732 -0.1093 -1.2037  0.0615
26675SOL     OW82979   2.741   8.332  10.268 -0.5199  0.8622 -0.4220
26675SOL    HW182980   2.829   8.321  10.306  0.2383 -2.0280 -2.6513
26675SOL    HW282981   2.684   8.282  10.326  0.1253 -1.0021 -1.3237
26676SOL     OW82982   2.318   1.348   0.849 -0.3201 -0.4240  0.2371
26676SOL    HW182983   2.242   1.397   0.879 -1.0676 -1.7682  0.6071
26676SOL    HW282984   2.359   1.315   0.929  0.7383  0.3793  0.0536
26677SOL     OW82985   7.012   6.900   3.444  0.3147 -0.6275  0.1517
26677SOL    HW182986   7.099   6.867   3.469  1.7487  2.5656 -0.0798
26677SOL    HW282987   7.020   6.920   3.351 -0.7058 -0.3671  0.1122
26678SOL     OW82988   8.061   1.740   2.088 -0.5395 -0.0464  0.2122
26678SOL    HW182989   8.137   1.750   2.145 -1.0450 -0.4953  0.9747
26678SOL    HW282990   8.066   1.815   2.028  1.2778 -0.8274 -0.6948
26679SOL     OW82991   3.482   9.512   1.582  0.1353 -0.3360 -0.2423
26679SOL    HW182992   3.564   9.556   1.603  0.0668 -0.6247  0.6469
26679SOL    HW282993   3.417   9.551   1.640 -0.3859 -0.0372 -1.0086
26680SOL     OW82994   0.951   4.877   2.902  0.0848  0.2312 -0.1887
26680SOL    HW182995   1.040   4.871   2.938 -0.2785  0.2493  0.7251
26680SOL    HW282996   0.905   4.936   2.962 -0.3696  0.7419 -1.0189
26681SOL     OW82997   6.204   4.296   7.585 -0.3675 -0.5972 -0.5098
26681SOL    HW182998   6.173   4.356   7.653  1.7153  0.3750 -0.3616
26681SOL    HW282999   6.240   4.222   7.634  1.3764  0.2219 -0.4702
26682SOL     OW83000   3.278  10.310   3.028  0.3244 -0.1615 -0.3648
26682SOL    HW183001   3.221  10.281   3.100  1.1079 -0.5571  0.1043
26682SOL    HW283002   3.230  10.285   2.949  0.6205 -2.1236  0.0205
26683SOL     OW83003   5.250   5.390   2.997  0.0916  0.0609 -0.0082
26683SOL    HW183004   5.215   5.427   3.079  0.8171 -0.1310  0.3979
26683SOL    HW283005   5.181   5.332   2.966 -1.0890  1.7148 -0.6555
26684SOL     OW83006   0.026   6.740  10.658  0.5066 -0.4862  0.1827
26684SOL    HW183007  -0.045   6.676  10.666 -0.1478  0.4400  2.3983
26684SOL    HW283008  -0.013   6.813  10.610  0.5805 -0.7849 -0.3438
26685SOL     OW83009   6.831   8.176   9.261 -0.2071  0.1820  0.5986
26685SOL    HW183010   6.743   8.179   9.298 -0.6214  0.6857 -0.3811
26685SOL    HW283011   6.842   8.085   9.234 -0.2471  0.0166  1.1280
26686SOL     OW83012   4.886   5.600   5.959  0.2440 -0.2080 -0.1844
26686SOL    HW183013   4.899   5.691   5.983  1.2569 -0.1174 -1.0319
26686SOL    HW283014   4.793   5.594   5.938  0.2620  0.7382 -0.5742
26687SOL     OW83015   8.901   8.801   1.002 -0.4357  0.1964 -0.1248
26687SOL    HW183016   8.853   8.765   0.928 -0.1854  0.2441 -0.3130
26687SOL    HW283017   8.989   8.818   0.967  0.3329 -1.7127  0.7028
26688SOL     OW83018   4.617   3.352   7.419 -0.5004  0.2182  0.2556
26688SOL    HW183019   4.548   3.394   7.366 -0.5497  1.1060  0.9906
26688SOL    HW283020   4.681   3.421   7.434 -0.1542 -0.2061  0.7736
26689SOL     OW83021  10.455   0.741   4.992  0.0696  0.3957 -0.2194
26689SOL    HW183022  10.502   0.820   5.017  0.8224  0.0077 -0.3794
26689SOL    HW283023  10.498   0.671   5.041  0.4937 -0.1489 -1.3364
26690SOL     OW83024   5.357   6.506   0.410  0.4544 -0.1384 -0.3503
26690SOL    HW183025   5.281   6.544   0.455  0.6306 -1.4880  1.1739
26690SOL    HW283026   5.428   6.569   0.426 -0.0389  0.5393 -0.7599
26691SOL     OW83027   9.858   3.439   2.838 -0.1393 -0.6445  0.1515
26691SOL    HW183028   9.798   3.511   2.821  0.3913 -0.0793  0.5967
26691SOL    HW283029   9.876   3.401   2.752  0.1624  0.2342 -0.1857
26692SOL     OW83030   0.831   3.572   7.067  0.4715 -0.1586 -0.2971
26692SOL    HW183031   0.784   3.647   7.031 -0.0956 -1.2721 -1.9569
26692SOL    HW283032   0.803   3.497   7.015  0.0203 -1.8056  2.1157
26693SOL     OW83033   4.895   7.775   4.344  0.0286  0.1665  0.0351
26693SOL    HW183034   4.856   7.712   4.284  0.5047 -0.2156  0.1184
26693SOL    HW283035   4.822   7.830   4.373 -0.5865 -1.0254  0.8066
26694SOL     OW83036   1.843   1.793   5.776  0.1091  0.6270  0.3435
26694SOL    HW183037   1.850   1.888   5.786  3.0214  0.4100  1.4124
26694SOL    HW283038   1.898   1.758   5.846 -2.3721 -1.9490  1.1682
26695SOL     OW83039   4.585   6.942   9.940  0.3068 -0.3878  0.0718
26695SOL    HW183040   4.603   6.875   9.874  1.2791 -0.3446  0.2794
26695SOL    HW283041   4.535   7.010   9.894 -0.8256 -1.3072 -0.1039
26696SOL     OW83042   7.851   4.226   3.295 -0.2994  0.0377 -0.1351
26696SOL    HW183043   7.883   4.228   3.205 -1.4153 -0.5026 -0.5648
26696SOL    HW283044   7.759   4.199   3.288 -0.6734  0.8786  1.0960
26697SOL     OW83045   6.111   3.259   4.335  0.2376  0.2241 -0.1248
26697SOL    HW183046   6.132   3.334   4.391 -0.2046 -0.8188  1.5011
26697SOL    HW283047   6.186   3.201   4.342  0.0319 -0.0737 -0.3489
26698SOL     OW83048   7.726   1.341   8.879 -0.0754 -0.3024 -0.2679
26698SOL    HW183049   7.716   1.246   8.885  0.0981 -0.2742  0.5562
26698SOL    HW283050   7.660   1.368   8.814 -2.0067 -0.6880  1.4082
26699SOL     OW83051   1.730   5.919   2.158 -0.1701  0.4422  0.3144
26699SOL    HW183052   1.642   5.916   2.195  0.4134  0.0266  1.7401
26699SOL    HW283053   1.722   5.878   2.072 -1.3590  0.4182  0.4291
26700SOL     OW83054  10.417   4.444   8.620  0.8964  0.1942 -0.2494
26700SOL    HW183055  10.396   4.533   8.647 -1.4346 -0.5665  0.6639
26700SOL    HW283056  10.345   4.419   8.563  0.4406 -1.7479  1.0856
26701SOL     OW83057   0.639   5.935   1.234 -0.9293 -0.1655 -0.1699
26701SOL    HW183058   0.725   5.893   1.231 -0.3379  0.9344  0.6608
26701SOL    HW283059   0.601   5.919   1.148 -0.4400 -1.7730 -0.1121
26702SOL     OW83060   7.243   9.077   0.058 -0.1199 -0.2244 -0.2243
26702SOL    HW183061   7.160   9.040   0.026  0.2183  0.2804 -1.7817
26702SOL    HW283062   7.217   9.155   0.106 -0.4987  1.3562 -2.7895
26703SOL     OW83063   5.132   6.070   2.270  0.1927  0.0881  0.2676
26703SOL    HW183064   5.183   6.147   2.247  0.2797  0.5863  1.9460
26703SOL    HW283065   5.091   6.094   2.354  0.7774 -1.9375  1.1849
26704SOL     OW83066   7.935   9.039   5.049 -0.2468  0.0436  0.1038
26704SOL    HW183067   7.963   9.040   5.140 -1.0505 -0.0625  0.3615
26704SOL    HW283068   7.849   9.082   5.049 -0.9399 -1.2675 -0.3620
26705SOL     OW83069   6.611   5.168   8.792 -0.5743  0.2464 -0.3123
26705SOL    HW183070   6.659   5.163   8.709  1.5520  1.6612  0.7247
26705SOL    HW283071   6.642   5.093   8.842 -0.9970  0.0246 -0.3828
26706SOL     OW83072   0.116   1.220   7.405 -0.1611 -0.6648  0.0712
26706SOL    HW183073   0.188   1.283   7.410 -0.9234  0.2709 -0.4263
26706SOL    HW283074   0.129   1.176   7.321  1.5898 -2.7388  1.3180
26707SOL     OW83075   8.199   6.540   5.300 -0.5804 -0.0256  0.4905
26707SOL    HW183076   8.276   6.516   5.249 -1.6035 -0.0119 -1.1088
26707SOL    HW283077   8.190   6.634   5.287  0.0954  0.2951  2.0837
26708SOL     OW83078   4.877   0.056   5.618 -0.6106  0.0978  0.7844
26708SOL    HW183079   4.961   0.046   5.664 -1.0584 -1.7520  1.2533
26708SOL    HW283080   4.896   0.027   5.529 -0.5684  0.4435  0.6795
26709SOL     OW83081   0.351   7.246   2.431  0.1267 -0.1637 -0.4732
26709SOL    HW183082   0.334   7.183   2.501  0.6873 -1.5772 -1.5603
26709SOL    HW283083   0.265   7.285   2.413  0.0748  0.6653  1.3586
26710SOL     OW83084  10.691   4.828   6.457 -0.1527 -0.4253  0.1930
26710SOL    HW183085  10.782   4.808   6.476  0.0159 -0.4220 -0.5439
26710SOL    HW283086  10.645   4.815   6.539  0.2846 -1.8123  0.2455
26711SOL     OW83087   4.753   0.387   2.721  0.1989 -0.1156 -0.0827
26711SOL    HW183088   4.752   0.295   2.696  1.6751 -0.4926  1.1283
26711SOL    HW283089   4.808   0.429   2.655  0.3353 -0.2848 -0.0776
26712SOL     OW83090   2.716   7.068   0.215  0.6051 -0.3998  0.2777
26712SOL    HW183091   2.666   7.107   0.143 -0.2324 -0.8353  0.6056
26712SOL    HW283092   2.771   7.139   0.248 -1.7341  0.9063  1.6366
26713SOL     OW83093   2.753   5.175   7.750  0.3449  0.3674 -0.3539
26713SOL    HW183094   2.830   5.216   7.712  1.1297 -0.8848 -0.1711
26713SOL    HW283095   2.758   5.194   7.844  1.4256 -1.1864 -0.0584
26714SOL     OW83096   3.556   8.083   6.787  0.1609 -0.8140  0.1608
26714SOL    HW183097   3.523   8.121   6.706  1.0403 -0.5291 -0.0661
26714SOL    HW283098   3.588   8.157   6.839 -1.3860 -0.8611  1.2607
26715SOL     OW83099  10.622   6.385   7.508  0.0893 -0.5098  0.0170
26715SOL    HW183100  10.680   6.376   7.432  0.8160  1.5724  0.2716
26715SOL    HW283101  10.540   6.420   7.473  0.9178  1.8917  0.2849
26716SOL     OW83102   8.147   4.781   3.237  0.2905 -0.1288 -0.0782
26716SOL    HW183103   8.093   4.859   3.222  0.7415  0.6469  2.0081
26716SOL    HW283104   8.236   4.817   3.248  0.4639 -0.8922  1.1573
26717SOL     OW83105   0.202   2.670   6.432 -0.1819  0.8522 -0.1132
26717SOL    HW183106   0.164   2.631   6.352 -1.9987  0.4563  0.8737
26717SOL    HW283107   0.182   2.606   6.500  1.5891  1.0587  0.6289
26718SOL     OW83108   0.989   8.945   3.893 -0.9049 -0.3976  1.3699
26718SOL    HW183109   1.058   8.948   3.959  1.4246 -1.5689 -0.8375
26718SOL    HW283110   0.940   8.865   3.912 -0.4693 -0.5559  1.8283
26719SOL     OW83111   5.191   6.379   4.979  0.0378  0.2189 -0.1325
26719SOL    HW183112   5.186   6.406   4.887 -2.1457 -0.7075 -0.3603
26719SOL    HW283113   5.100   6.385   5.010  0.0968 -2.7590  0.9475
26720SOL     OW83114   3.016   9.647   5.037  0.0670 -0.4740  0.2202
26720SOL    HW183115   3.035   9.735   5.070 -3.7862  1.3332 -1.6475
26720SOL    HW283116   3.063   9.643   4.953 -0.2839  0.1551 -0.0202
26721SOL     OW83117   5.021   6.580   5.643 -0.1322 -0.3980 -0.2348
26721SOL    HW183118   5.084   6.650   5.631 -1.1057  0.4461 -0.6023
26721SOL    HW283119   5.053   6.530   5.718 -0.1650  1.2636  0.9125
26722SOL     OW83120   3.107   2.031   7.508  0.3413 -0.5217 -0.1045
26722SOL    HW183121   3.186   1.984   7.533  1.5897  1.8608  0.6095
26722SOL    HW283122   3.115   2.117   7.548 -0.4042  1.4290 -3.6762
26723SOL     OW83123   6.406   0.667   3.133  0.4584  0.0132 -0.2420
26723SOL    HW183124   6.501   0.673   3.126  0.7095 -0.5604  1.8264
26723SOL    HW283125   6.376   0.758   3.140  1.1583  0.1558  1.5303
26724SOL     OW83126   2.161   6.585   1.157  0.6273  0.3761  0.3256
26724SOL    HW183127   2.207   6.510   1.119 -0.1728 -0.3479  0.7379
26724SOL    HW283128   2.080   6.548   1.192  0.0724  1.4929  0.2716
26725SOL     OW83129   1.494   0.839   3.435  0.4262  0.0247 -0.8888
26725SOL    HW183130   1.563   0.797   3.487  0.8365  0.1580 -1.3181
26725SOL    HW283131   1.445   0.891   3.497  1.0734  0.3864 -0.6757
26726SOL     OW83132   1.177   1.320   6.733  0.2497 -0.7941  0.2747
26726SOL    HW183133   1.161   1.411   6.706 -0.5860 -1.2193 -0.7160
26726SOL    HW283134   1.130   1.267   6.669  0.5046 -1.9311  0.9987
26727SOL     OW83135   3.278   1.390   8.573  0.1707 -0.2057 -0.5130
26727SOL    HW183136   3.228   1.335   8.514  2.0281 -1.3886 -1.0735
26727SOL    HW283137   3.339   1.330   8.616  0.9533  1.1266  0.3062
26728SOL     OW83138   8.375   8.153   1.736  0.1952  0.1294 -0.2562
26728SOL    HW183139   8.299   8.167   1.794  0.6441 -0.4064  0.4750
26728SOL    HW283140   8.336   8.144   1.649 -0.4363  1.6896 -0.1626
26729SOL     OW83141   0.820  10.302   7.540 -0.3460 -0.1993  0.1676
26729SOL    HW183142   0.899  10.279   7.489  1.1311  0.2358  2.1349
26729SOL    HW283143   0.784  10.378   7.494  2.2487  1.6509  0.8886
26730SOL     OW83144   2.641   3.387   9.010  0.5151  0.7983  0.5304
26730SOL    HW183145   2.711   3.448   8.991 -0.6203  2.4449  1.4306
26730SOL    HW283146   2.656   3.313   8.950  3.3648  0.7614  1.1785
26731SOL     OW83147   9.936   8.635   4.649  0.2355  0.3939 -0.8896
26731SOL    HW183148   9.860   8.690   4.633 -1.5438 -1.6073  0.1397
26731SOL    HW283149   9.917   8.591   4.731  2.5299 -0.2085 -0.6037
26732SOL     OW83150   5.060   7.145  10.497  0.6255 -0.3558 -0.2088
26732SOL    HW183151   5.031   7.081  10.562 -0.7442 -0.9918 -1.4139
26732SOL    HW283152   4.987   7.152  10.435  2.3859 -0.7519 -2.4319
26733SOL     OW83153   2.413   9.996   2.693  0.1226 -0.2103 -0.6088
26733SOL    HW183154   2.319   9.976   2.700  0.2554 -0.4335  0.8618
26733SOL    HW283155   2.420  10.048   2.613 -1.2815 -0.0762 -0.6789
26734SOL     OW83156   9.543   2.807   0.427  0.7229  0.2755  0.3160
26734SOL    HW183157   9.484   2.844   0.493  0.8751  1.0295  0.0434
26734SOL    HW283158   9.630   2.812   0.467  0.5215 -1.9048  1.1918
26735SOL     OW83159   3.099   2.726   4.947 -0.1741 -0.5843 -0.1474
26735SOL    HW183160   3.126   2.813   4.976  1.3609 -0.6289 -1.3454
26735SOL    HW283161   3.146   2.712   4.865  1.7636 -3.5667  1.2618
26736SOL     OW83162   3.807   9.630   6.721 -0.2475 -0.2400  0.2337
26736SOL    HW183163   3.759   9.548   6.708 -1.5558  0.5985 -0.4825
26736SOL    HW283164   3.867   9.635   6.646 -0.6643 -0.2126 -0.0992
26737SOL     OW83165   0.931   4.803   0.625 -0.5723  0.0884 -0.1764
26737SOL    HW183166   0.963   4.852   0.549  0.4292 -0.4420 -0.1077
26737SOL    HW283167   0.997   4.735   0.640  0.5165  1.5496  2.5394
26738SOL     OW83168  10.040   9.840   8.002 -0.1690 -0.0229 -0.3289
26738SOL    HW183169  10.011   9.754   8.033 -0.6556  0.0188 -0.6518
26738SOL    HW283170  10.132   9.845   8.027 -0.5309 -0.0013  1.0760
26739SOL     OW83171   4.680   7.820   8.202  0.3706 -0.2163 -0.2018
26739SOL    HW183172   4.661   7.837   8.110  1.0676  0.3395 -0.2560
26739SOL    HW283173   4.659   7.727   8.215  0.3671 -0.3220 -0.9432
26740SOL     OW83174   9.054   6.617   5.700  0.4753  0.4230  0.3330
26740SOL    HW183175   9.023   6.621   5.610  0.6740 -0.8099  0.1882
26740SOL    HW283176   8.995   6.674   5.749 -1.2223 -0.8255 -0.1688
26741SOL     OW83177   3.554   1.999  10.130  0.2942  0.0200  0.1442
26741SOL    HW183178   3.494   2.070  10.154 -0.1673 -0.3110 -0.0045
26741SOL    HW283179   3.566   2.008  10.036 -0.9314 -0.9594 -0.1362
26742SOL     OW83180   8.850   6.992   2.838  0.8363  0.1873 -0.3860
26742SOL    HW183181   8.808   6.914   2.874  0.4531  0.4500 -0.2663
26742SOL    HW283182   8.915   7.017   2.904  0.0138  0.7735  0.2196
26743SOL     OW83183   7.340   4.744   9.525 -0.0222  0.0748 -0.3236
26743SOL    HW183184   7.354   4.828   9.569 -2.9865 -0.3777  1.8040
26743SOL    HW283185   7.309   4.766   9.438 -1.4162  1.2622  0.4413
26744SOL     OW83186   5.804   9.018   2.709  0.5289 -0.5646 -0.2328
26744SOL    HW183187   5.828   8.976   2.627 -0.5326  1.2602 -1.5571
26744SOL    HW283188   5.870   9.087   2.721 -0.6746  0.7645 -0.9005
26745SOL     OW83189   1.242   3.434   8.448 -0.1301 -0.5283 -0.5294
26745SOL    HW183190   1.180   3.396   8.385 -1.5999 -1.2686  1.2839
26745SOL    HW283191   1.311   3.471   8.393 -1.9428 -0.0448 -2.6362
26746SOL     OW83192   2.670   9.983   0.954  0.1772 -0.0096 -0.0314
26746SOL    HW183193   2.692   9.904   1.003  1.3692  0.2532 -0.1061
26746SOL    HW283194   2.755  10.025   0.937 -0.4827  1.8506  0.9602
26747SOL     OW83195   5.592   8.150   6.829 -0.4376 -0.3533 -0.2995
26747SOL    HW183196   5.624   8.189   6.910  2.1022 -0.9281 -0.9388
26747SOL    HW283197   5.509   8.195   6.811  0.5018  2.0363  0.9390
26748SOL     OW83198   6.499   2.374   8.637  0.5555  0.2063  0.2438
26748SOL    HW183199   6.434   2.411   8.577 -0.0761 -0.5499  0.4538
26748SOL    HW283200   6.579   2.371   8.586 -0.2044 -1.3786 -0.9429
26749SOL     OW83201   5.934   8.120   4.295 -0.3143 -0.2212 -0.0016
26749SOL    HW183202   6.000   8.088   4.234  0.6212  1.0542  0.3072
26749SOL    HW283203   5.944   8.066   4.373  1.6673  1.1417  0.7548
26750SOL     OW83204   9.337   5.882   4.550 -0.1633  0.2054  0.2697
26750SOL    HW183205   9.417   5.838   4.578 -0.6568 -0.2647  0.9760
26750SOL    HW283206   9.311   5.935   4.625 -0.2326  0.7683 -0.1451
26751SOL     OW83207  10.031   0.212   3.517  0.0952  0.5979 -0.7602
26751SOL    HW183208  10.108   0.231   3.463 -0.0247  2.4101 -0.3608
26751SOL    HW283209  10.033   0.280   3.585 -1.4901  0.2588 -0.3507
26752SOL     OW83210   3.201   7.958   9.424  0.5862  0.4472 -0.0785
26752SOL    HW183211   3.283   7.979   9.468  1.4802 -1.0981 -0.9330
26752SOL    HW283212   3.141   7.935   9.494  1.4299 -0.1577  0.4599
26753SOL     OW83213   0.284   4.845   8.368  0.4664  0.7038  0.0703
26753SOL    HW183214   0.230   4.793   8.427 -0.7944  1.4024 -0.4153
26753SOL    HW283215   0.342   4.895   8.426  0.6484 -0.0932  0.5979
26754SOL     OW83216   5.216   3.542   4.474  0.2092 -0.1211  0.2036
26754SOL    HW183217   5.130   3.570   4.442 -0.2680 -0.4023  1.2149
26754SOL    HW283218   5.210   3.447   4.479  0.1517 -0.0678  1.4313
26755SOL     OW83219   0.605   4.888   6.582 -0.2391 -0.1657  0.0234
26755SOL    HW183220   0.628   4.832   6.656 -0.7069 -0.9871 -0.4348
26755SOL    HW283221   0.689   4.920   6.549  0.0079 -0.2648  0.5525
26756SOL     OW83222   4.406   3.019   8.278 -0.2748  0.1427  0.1766
26756SOL    HW183223   4.429   3.110   8.294  0.7369  0.0512 -0.6655
26756SOL    HW283224   4.336   3.000   8.341 -0.7109  1.5800  0.1536
26757SOL     OW83225   0.551   0.789   0.477 -0.2040  0.1391 -0.6626
26757SOL    HW183226   0.581   0.759   0.391  0.0709 -3.2087  0.4631
26757SOL    HW283227   0.631   0.790   0.531 -0.5884  0.8409 -0.1005
26758SOL     OW83228   3.071   8.733   6.701 -0.2903  0.2918 -0.1352
26758SOL    HW183229   3.099   8.670   6.634  0.0368  0.0222  0.2482
26758SOL    HW283230   3.110   8.816   6.674  0.0951  0.1175 -0.1127
26759SOL     OW83231   9.819   8.664   1.053  0.4228 -0.0780  0.4305
26759SOL    HW183232   9.797   8.658   1.146 -2.7152  2.3452  0.0045
26759SOL    HW283233   9.901   8.714   1.051  0.8487 -0.6869  1.8998
26760SOL     OW83234   8.904   6.959  10.681 -0.0533 -0.3029  0.0020
26760SOL    HW183235   8.965   6.952  10.755 -0.1064  0.1299  0.0913
26760SOL    HW283236   8.854   6.878  10.684 -0.5724  0.0295  0.9162
26761SOL     OW83237   7.799   8.077   2.825  0.6055  0.5319  0.3259
26761SOL    HW183238   7.776   7.984   2.818  0.6320  0.4036  1.6836
26761SOL    HW283239   7.752   8.108   2.902  0.7351  1.6134 -0.0098
26762SOL     OW83240   0.985   6.036   6.047  0.2021  0.2376  0.2690
26762SOL    HW183241   0.897   6.067   6.072  0.8866  1.5762  1.1502
26762SOL    HW283242   0.968   5.960   5.992 -1.4477 -1.8053  3.3274
26763SOL     OW83243   3.145   2.805   4.644 -0.2982 -0.4693 -0.3298
26763SOL    HW183244   3.130   2.899   4.657  0.4331 -0.4607  0.6444
26763SOL    HW283245   3.105   2.785   4.560 -0.6076  0.6866 -0.4736
26764SOL     OW83246   1.303   3.216   5.550  0.6031 -0.3051 -0.1741
26764SOL    HW183247   1.392   3.229   5.585 -0.2986 -1.0449  2.7176
26764SOL    HW283248   1.298   3.123   5.530  0.4583 -0.2977 -0.1744
26765SOL     OW83249   2.133   1.214   9.468  0.0590  0.0572  0.0033
26765SOL    HW183250   2.139   1.300   9.510  0.4514  0.0494 -0.0374
26765SOL    HW283251   2.135   1.232   9.374 -0.4545  0.0463 -0.0135
26766SOL     OW83252   0.168   6.229   5.484  0.0082 -0.1416 -0.0354
26766SOL    HW183253   0.088   6.243   5.434 -0.2308  0.0362  0.3956
26766SOL    HW283254   0.147   6.258   5.572 -0.0474 -1.8548  0.5453
26767SOL     OW83255   1.880   9.271  10.353 -0.0778 -0.1933 -0.1453
26767SOL    HW183256   1.964   9.302  10.319  0.5092 -0.9627  0.5555
26767SOL    HW283257   1.845   9.215  10.284 -0.5218  0.9700 -0.8736
26768SOL     OW83258   1.195   2.961   2.992  0.3889  0.0764  0.5596
26768SOL    HW183259   1.266   2.958   3.056 -0.2327  1.4064  1.3527
26768SOL    HW283260   1.115   2.965   3.046 -0.1849  0.4597 -0.3036
26769SOL     OW83261   5.572   8.325   8.940 -0.4570 -0.2442  0.0935
26769SOL    HW183262   5.535   8.365   8.861 -0.4101  1.0690  0.6980
26769SOL    HW283263   5.497   8.315   8.999 -0.0882  1.4808  0.9398
26770SOL     OW83264   1.962   5.875   1.462  0.2020 -0.4354  0.1499
26770SOL    HW183265   1.891   5.812   1.456 -0.6311  0.5856 -2.7811
26770SOL    HW283266   1.927   5.946   1.517 -1.0619 -0.0473 -1.0708
26771SOL     OW83267   1.007   2.044   9.486 -0.1064 -0.3432  0.2799
26771SOL    HW183268   0.999   2.137   9.508 -0.9355 -0.7131  1.6367
26771SOL    HW283269   1.095   2.036   9.449 -0.5774  1.2386 -1.3317
26772SOL     OW83270   0.549   3.112   0.619 -0.4473 -0.4841 -0.5856
26772SOL    HW183271   0.468   3.150   0.653  0.2237 -0.1205  0.6665
26772SOL    HW283272   0.584   3.178   0.559  0.3404  0.6360  1.0265
26773SOL     OW83273   4.182   0.726   3.150  0.6061 -0.2432 -0.5085
26773SOL    HW183274   4.137   0.779   3.216  0.8305  2.0533 -2.1125
26773SOL    HW283275   4.262   0.696   3.194 -0.6329 -1.2733  1.1660
26774SOL     OW83276   2.109   7.093   5.915  0.4004  0.4222 -0.1279
26774SOL    HW183277   2.174   7.026   5.893 -0.2313 -1.0314  2.0765
26774SOL    HW283278   2.139   7.129   5.998 -0.3998  1.4057 -0.2451
26775SOL     OW83279   4.809   5.542   2.796 -0.2936  0.3061 -1.1636
26775SOL    HW183280   4.792   5.616   2.854  2.6644 -0.5886  1.1339
26775SOL    HW283281   4.876   5.574   2.735  0.2739 -0.1544 -0.7978
26776SOL     OW83282   2.482   8.217   4.023  1.0800 -0.1570  0.3398
26776SOL    HW183283   2.482   8.301   4.070  2.5804 -0.0795  0.2429
26776SOL    HW283284   2.565   8.216   3.976  1.1130 -1.7406  0.3811
26777SOL     OW83285   9.213   6.538   8.500 -0.5398  0.0191  0.1725
26777SOL    HW183286   9.287   6.528   8.440 -0.0107 -1.2786  0.9706
26777SOL    HW283287   9.243   6.603   8.564  0.8423 -1.9977  1.7166
26778SOL     OW83288   9.731   9.827   0.269 -0.0019 -0.0646 -0.0924
26778SOL    HW183289   9.785   9.905   0.255 -0.6204  0.2401 -0.8799
26778SOL    HW283290   9.794   9.759   0.293  0.9535 -0.0729 -2.3501
26779SOL     OW83291   2.693   8.396   3.794 -0.1256 -0.2958 -0.3183
26779SOL    HW183292   2.689   8.476   3.846 -0.4950 -0.6035  0.1369
26779SOL    HW283293   2.691   8.426   3.703 -0.4118  0.2033 -0.1515
26780SOL     OW83294   0.394   5.308   7.347  0.0492  0.1666 -0.2444
26780SOL    HW183295   0.423   5.320   7.257 -0.4505  0.3210 -0.3886
26780SOL    HW283296   0.371   5.396   7.377  1.4053  0.3106  0.4580
26781SOL     OW83297   6.949   8.469   3.570  0.0291 -0.2008 -0.6599
26781SOL    HW183298   6.863   8.511   3.571  0.1543  0.0529  0.5397
26781SOL    HW283299   7.008   8.537   3.538  0.3102  0.7690  1.7291
26782SOL     OW83300   9.783   0.167   7.788  0.0517 -0.1474 -0.0564
26782SOL    HW183301   9.867   0.123   7.803  0.1981 -0.6382 -2.0076
26782SOL    HW283302   9.743   0.174   7.875  1.1401 -1.9082  0.6316
26783SOL     OW83303   5.220  10.684  10.054 -0.1588  0.1576 -0.6802
26783SOL    HW183304   5.171  10.762  10.081  0.3720  0.2034  0.1845
26783SOL    HW283305   5.177  10.656   9.974 -0.1908  1.4989 -1.1606
26784SOL     OW83306   1.564   6.277   3.879  0.0508  0.5997  0.0401
26784SOL    HW183307   1.614   6.218   3.821  1.1376  2.5107 -1.0829
26784SOL    HW283308   1.494   6.311   3.823 -1.4634 -0.6377  1.0894
26785SOL     OW83309   1.956  10.367   9.096  0.2523  0.2888 -0.0845
26785SOL    HW183310   1.899  10.366   9.172 -0.0381 -1.0540 -0.2943
26785SOL    HW283311   2.001  10.452   9.100 -0.2883  0.5296  1.1622
26786SOL     OW83312   4.724   5.684   1.195  0.5227  0.6229 -0.0819
26786SOL    HW183313   4.703   5.678   1.101  2.9155  0.3615 -0.6710
26786SOL    HW283314   4.663   5.750   1.228 -0.8440  0.2361 -1.6632
26787SOL     OW83315   7.096   8.216   7.975 -0.4244 -0.1175  0.5638
26787SOL    HW183316   7.080   8.175   7.889 -0.1339 -2.0521  1.3808
26787SOL    HW283317   7.071   8.308   7.963 -2.5703 -0.8281 -0.9576
26788SOL     OW83318   1.786   3.787   8.385 -0.0822  0.5560 -0.2683
26788SOL    HW183319   1.872   3.765   8.421  0.3874 -0.7410 -2.0122
26788SOL    HW283320   1.734   3.816   8.460  1.1250 -1.0087  1.2359
26789SOL     OW83321  10.650   8.433   4.856 -0.2467  0.0916 -0.4630
26789SOL    HW183322  10.586   8.364   4.871 -0.4700  0.0916 -1.3425
26789SOL    HW283323  10.730   8.387   4.829 -0.3608  0.1674 -0.9365
26790SOL     OW83324   4.070   7.359   6.849 -0.4890  0.0937 -0.1563
26790SOL    HW183325   4.108   7.367   6.936 -1.1739  0.3287  0.1262
26790SOL    HW283326   4.120   7.289   6.807  1.3368  1.4631 -0.3809
26791SOL     OW83327   4.656   9.150   2.935  0.1250 -0.0456  0.4004
26791SOL    HW183328   4.562   9.134   2.926 -0.3675  1.9580  1.3644
26791SOL    HW283329   4.681   9.102   3.014 -0.1763 -0.2226  0.3906
26792SOL     OW83330  10.285   0.153   8.475  0.0700 -0.6682  0.5992
26792SOL    HW183331  10.369   0.110   8.457 -0.0618 -0.9420  0.6210
26792SOL    HW283332  10.296   0.242   8.444 -0.0255 -1.0166 -0.4794
26793SOL     OW83333   6.548   9.993   6.777  0.0159  0.1857 -0.4163
26793SOL    HW183334   6.610   9.944   6.831 -0.8081  0.1329  0.5229
26793SOL    HW283335   6.469   9.939   6.775 -0.2389  0.5645 -1.0103
26794SOL     OW83336   4.623   6.115   8.418 -0.2446  0.8555  0.1088
26794SOL    HW183337   4.647   6.198   8.377  1.3853  0.0648 -0.6428
26794SOL    HW283338   4.689   6.053   8.387 -2.0130 -0.9812 -0.2108
26795SOL     OW83339   2.026   0.638   2.665  0.5345  0.0412  0.6339
26795SOL    HW183340   2.101   0.590   2.630 -0.9560 -2.6976  0.9178
26795SOL    HW283341   1.960   0.570   2.683 -1.9442  2.2804  0.6144
26796SOL     OW83342   8.890   9.583   9.148  0.6774  0.2765 -0.4307
26796SOL    HW183343   8.946   9.595   9.071  1.0168 -0.2204 -0.2700
26796SOL    HW283344   8.947   9.540   9.212  0.0928 -0.2988 -0.2899
26797SOL     OW83345   5.989   9.381   9.387  0.0905 -0.0603 -0.8111
26797SOL    HW183346   5.933   9.458   9.374 -0.0137  0.2630  1.3408
26797SOL    HW283347   5.937   9.322   9.441  1.3471 -0.2888  0.1787
26798SOL     OW83348   3.204   5.292   6.556 -0.0085  0.2931 -0.0035
26798SOL    HW183349   3.192   5.376   6.600 -0.8134  0.9499 -1.4080
26798SOL    HW283350   3.173   5.307   6.467 -1.1538 -1.7727 -0.0250
26799SOL     OW83351   2.423   7.355  10.441  0.5577 -0.1762  0.4154
26799SOL    HW183352   2.373   7.330  10.519 -0.8927 -0.0910 -0.4524
26799SOL    HW283353   2.431   7.275  10.390  1.2192 -0.1585  0.4786
26800SOL     OW83354   9.797   6.120   3.073  0.4026  0.0627  0.4626
26800SOL    HW183355   9.728   6.120   3.007  0.7677  1.5853  0.0400
26800SOL    HW283356   9.860   6.055   3.042  1.3422  1.8299 -1.5713
26801SOL     OW83357   1.850   4.509   8.078 -0.0784  0.3839 -0.0821
26801SOL    HW183358   1.931   4.513   8.128  0.4388 -0.3469 -0.8450
26801SOL    HW283359   1.877   4.515   7.987 -0.9209  0.6120 -0.3280
26802SOL     OW83360   8.830   5.791   5.437  0.5146  0.5841 -0.4908
26802SOL    HW183361   8.796   5.722   5.493 -2.0110  2.5085  0.5345
26802SOL    HW283362   8.910   5.754   5.399 -0.1177 -2.4321  0.8421
26803SOL     OW83363   9.908   6.991   8.210  0.1914 -1.0450 -0.4509
26803SOL    HW183364   9.888   7.083   8.195 -0.1054 -1.1855 -0.9237
26803SOL    HW283365   9.954   6.963   8.131  0.3128 -1.2966 -0.2935
26804SOL     OW83366   9.001   2.412   0.332  0.3060  0.0884  0.8717
26804SOL    HW183367   8.934   2.476   0.306  0.9568  0.0767 -0.9446
26804SOL    HW283368   8.985   2.398   0.425 -0.0307  2.7199  1.2924
26805SOL     OW83369   7.026  10.506   9.905  0.1970  0.2876  0.4989
26805SOL    HW183370   7.003  10.590   9.864 -0.8358  0.7314  1.9207
26805SOL    HW283371   7.091  10.529   9.972  2.5788 -0.5512 -1.3833
26806SOL     OW83372   5.195   9.204   1.493 -0.9539 -0.5516 -0.4323
26806SOL    HW183373   5.255   9.135   1.464 -0.7331 -0.6788  0.2967
26806SOL    HW283374   5.215   9.215   1.586 -1.7716 -0.2944 -0.2807
26807SOL     OW83375   4.590   5.355   4.109  0.6244 -0.7011  0.6645
26807SOL    HW183376   4.666   5.405   4.079 -0.2170 -0.1866 -0.7197
26807SOL    HW283377   4.523   5.421   4.129 -1.0571 -1.1289 -2.7147
26808SOL     OW83378   7.684   8.363   9.806  0.8883 -0.2548  0.2316
26808SOL    HW183379   7.664   8.456   9.807  0.4992 -0.3155  2.3623
26808SOL    HW283380   7.733   8.350   9.725  0.1528  1.6064 -0.5636
26809SOL     OW83381   3.479   8.004   5.251 -0.0373  0.2159  0.0976
26809SOL    HW183382   3.493   8.095   5.225 -1.9344  0.0537 -1.7412
26809SOL    HW283383   3.528   7.953   5.186 -0.9219 -0.0866 -0.3583
26810SOL     OW83384   6.012   3.303   2.190  0.2329  0.0966 -0.2596
26810SOL    HW183385   6.060   3.227   2.156  0.8497  0.7716 -0.9389
26810SOL    HW283386   5.994   3.356   2.113 -0.0437  0.7269  0.2310
26811SOL     OW83387   8.402   8.531   3.494  0.2511 -0.1475 -0.0383
26811SOL    HW183388   8.341   8.492   3.431 -0.0972 -0.7834  0.6791
26811SOL    HW283389   8.469   8.573   3.440  0.5597 -1.6176 -0.8305
26812SOL     OW83390   0.596   7.765   2.433 -0.5663 -0.1627 -0.1539
26812SOL    HW183391   0.615   7.800   2.520 -0.3406  0.0118 -0.2728
26812SOL    HW283392   0.546   7.685   2.450 -1.4808  0.4408  0.1194
26813SOL     OW83393   4.214   1.123   9.827 -0.2494 -0.2614 -0.4588
26813SOL    HW183394   4.131   1.161   9.855 -0.9277 -0.2090 -2.3921
26813SOL    HW283395   4.259   1.195   9.782  0.7697 -0.3512  0.3723
26814SOL     OW83396   7.940   4.489   7.350  0.3227  0.1878  0.3295
26814SOL    HW183397   7.970   4.545   7.421  2.3599 -0.5048  0.0908
26814SOL    HW283398   7.865   4.535   7.312  1.8889  2.7325  0.1521
26815SOL     OW83399   3.379   8.935   7.445 -0.1408  0.0900  0.1171
26815SOL    HW183400   3.430   8.856   7.463  0.8150  0.8679  0.9643
26815SOL    HW283401   3.305   8.929   7.505 -1.4205 -1.3204 -1.5069
26816SOL     OW83402   4.513   5.705   8.393  0.5568  0.3747 -0.0528
26816SOL    HW183403   4.510   5.614   8.363 -1.4953  1.0006 -2.1046
26816SOL    HW283404   4.592   5.740   8.353  1.6209 -0.5802  1.1370
26817SOL     OW83405   7.227   4.792   7.823  0.5094  0.2287  0.4517
26817SOL    HW183406   7.297   4.732   7.796  0.8635  0.1662  1.4539
26817SOL    HW283407   7.155   4.774   7.762  0.7219 -0.9825  0.5326
26818SOL     OW83408   7.551   3.337   0.389  0.2607  0.1046  0.2840
26818SOL    HW183409   7.612   3.384   0.332  0.4694 -0.3821  0.1012
26818SOL    HW283410   7.528   3.258   0.339 -1.6038  0.9423 -0.2519
26819SOL     OW83411   3.265   3.706   8.257  0.5888 -0.4612  0.5492
26819SOL    HW183412   3.352   3.665   8.261  1.0129  0.4103  0.4541
26819SOL    HW283413   3.282   3.800   8.268 -0.2545 -0.1843 -0.4106
26820SOL     OW83414  10.322   7.707   4.943  0.5513  0.1651 -0.4284
26820SOL    HW183415  10.353   7.654   4.870  0.6950 -0.8292  0.3245
26820SOL    HW283416  10.228   7.714   4.931  0.7115  0.9812 -1.3137
26821SOL     OW83417   3.270   0.186   2.321 -0.0880 -0.2454 -0.2504
26821SOL    HW183418   3.197   0.244   2.343  0.2520  0.1744 -0.2192
26821SOL    HW283419   3.272   0.123   2.393 -1.8628 -1.6906 -1.3832
26822SOL     OW83420   3.528   8.634   7.916 -0.8773 -0.1839 -0.4717
26822SOL    HW183421   3.545   8.718   7.958 -1.3386  0.6537 -1.8617
26822SOL    HW283422   3.456   8.596   7.967  0.9944 -0.9798  1.7380
26823SOL     OW83423   7.046   6.977   4.587 -0.1185 -0.1100 -0.2163
26823SOL    HW183424   7.081   6.969   4.498  2.5890  1.6085  0.5777
26823SOL    HW283425   7.014   7.067   4.592  0.0854 -0.0837  0.6731
26824SOL     OW83426   2.781   6.613   9.218  0.3441  0.5630 -0.7024
26824SOL    HW183427   2.810   6.545   9.278 -0.8908  0.1873 -0.4947
26824SOL    HW283428   2.802   6.695   9.261 -1.1349  0.3048  0.5891
26825SOL     OW83429  10.431   8.931   5.991 -0.6695  0.4222 -0.1302
26825SOL    HW183430  10.409   8.966   5.905  1.8535 -1.3393 -1.6211
26825SOL    HW283431  10.404   9.000   6.052 -2.7254  1.6601 -2.2480
26826SOL     OW83432   6.318   5.231   3.882  0.2207  0.6906  0.1244
26826SOL    HW183433   6.374   5.306   3.860 -0.5920  0.8666 -1.4876
26826SOL    HW283434   6.348   5.161   3.825  0.7450 -0.1352  1.3801
26827SOL     OW83435   2.778   8.435   7.470  0.1146  0.0422  0.6779
26827SOL    HW183436   2.770   8.345   7.502  0.1677  0.4363  1.8764
26827SOL    HW283437   2.741   8.488   7.541 -1.0144  0.9012 -0.5159
26828SOL     OW83438   0.496  10.688   2.255 -0.4344  0.1824  0.2767
26828SOL    HW183439   0.479  10.755   2.189  0.0909  1.1005  1.0427
26828SOL    HW283440   0.589  10.697   2.276 -0.5576 -0.1807  1.0472
26829SOL     OW83441   3.966   4.867   4.186 -0.3417 -0.4630  0.4685
26829SOL    HW183442   3.887   4.817   4.205 -2.7379  2.5543 -0.8178
26829SOL    HW283443   3.987   4.845   4.095  0.1399 -1.0113  0.7057
26830SOL     OW83444   6.466   2.471  10.214 -0.3953  0.1787 -0.3135
26830SOL    HW183445   6.481   2.391  10.265 -1.0048 -0.5220 -1.1843
26830SOL    HW283446   6.373   2.490  10.227 -0.4319  0.2930 -0.7419
26831SOL     OW83447   6.030   1.213   4.553  0.0878  0.0680  0.4734
26831SOL    HW183448   5.937   1.198   4.571 -0.1437  0.2888 -0.5086
26831SOL    HW283449   6.051   1.151   4.483  0.5625  0.3440  0.3690
26832SOL     OW83450   5.761   4.254   1.190 -0.2732 -0.2739  0.6610
26832SOL    HW183451   5.812   4.329   1.222 -1.8596 -0.1492  3.1816
26832SOL    HW283452   5.808   4.177   1.222 -1.2259 -0.1695  2.4699
26833SOL     OW83453   6.574   0.566   9.003  0.1935  0.6496 -0.2947
26833SOL    HW183454   6.497   0.595   8.953 -0.5211 -0.3414  0.2036
26833SOL    HW283455   6.628   0.645   9.009 -1.2228  1.6428  0.1713
26834SOL     OW83456   6.018   8.522   1.586 -0.0905 -0.2579 -0.1179
26834SOL    HW183457   5.995   8.524   1.680  0.1614  0.4425 -0.0648
26834SOL    HW283458   6.067   8.603   1.572  0.2616 -0.5827 -0.7639
26835SOL     OW83459   3.821   0.619   1.988  0.2285 -0.5749 -0.4240
26835SOL    HW183460   3.764   0.695   1.997  0.6541 -0.3888  0.8686
26835SOL    HW283461   3.904   0.647   2.025  0.8362 -1.2139 -1.2595
26836SOL     OW83462   0.682   1.342   6.290  0.2339 -0.1388 -1.0445
26836SOL    HW183463   0.609   1.398   6.263 -0.0722 -0.5027 -0.9782
26836SOL    HW283464   0.716   1.384   6.369 -0.7953 -0.7171 -0.2738
26837SOL     OW83465   1.941   5.146   6.938 -0.1720  0.1766  0.1710
26837SOL    HW183466   1.871   5.186   6.989  0.1913  1.4914 -0.3155
26837SOL    HW283467   2.021   5.172   6.983  0.0647 -0.2950  0.0310
26838SOL     OW83468   9.553   8.339   2.291 -0.9420  0.0735  0.3039
26838SOL    HW183469   9.608   8.320   2.366  0.9602 -0.5496 -1.1756
26838SOL    HW283470   9.528   8.431   2.302  2.8299  1.3440 -0.3614
26839SOL     OW83471   1.198   4.985   4.901  0.3052 -0.6951  0.4638
26839SOL    HW183472   1.286   5.022   4.909  0.7267 -1.7548  1.0188
26839SOL    HW283473   1.140   5.061   4.896  1.3083  0.0263 -0.7059
26840SOL     OW83474   5.565   8.252   2.628 -0.4340  0.1858 -0.2393
26840SOL    HW183475   5.595   8.340   2.651  0.4328  0.3859 -1.9202
26840SOL    HW283476   5.495   8.267   2.564  0.8869 -0.2837 -1.8898
26841SOL     OW83477   6.384   8.988   8.366  0.5315  0.7700  0.1156
26841SOL    HW183478   6.366   8.970   8.273  0.3498 -0.1124  0.3135
26841SOL    HW283479   6.355   8.909   8.411 -0.1920  1.5428  1.0246
26842SOL     OW83480   8.316   5.324   4.977  0.3988 -0.4103 -0.5791
26842SOL    HW183481   8.384   5.257   4.981  3.5736  2.5633  2.2001
26842SOL    HW283482   8.343   5.381   4.905 -0.1714 -0.1346 -0.5800
26843SOL     OW83483   0.937   0.637   4.338  0.1832 -0.2777 -0.3771
26843SOL    HW183484   1.007   0.655   4.275  0.6738 -2.4421 -0.5357
26843SOL    HW283485   0.856   0.661   4.292  0.6594 -0.0932 -1.1280
26844SOL     OW83486   3.864   6.687   6.483  0.1872  0.2823 -0.4025
26844SOL    HW183487   3.841   6.595   6.470  1.2631  0.0655 -0.9255
26844SOL    HW283488   3.947   6.684   6.532  0.2545  0.9751 -0.4587
26845SOL     OW83489   5.363   0.970   4.490 -0.5109 -0.3723  0.3768
26845SOL    HW183490   5.366   0.926   4.405  0.7790  0.2467  0.0819
26845SOL    HW283491   5.419   0.917   4.547 -1.1232 -0.6116  0.7696
26846SOL     OW83492   1.418  10.454   8.405  0.0132 -0.0624 -0.3341
26846SOL    HW183493   1.323  10.445   8.395  0.0729 -0.5730 -0.4298
26846SOL    HW283494   1.429  10.477   8.497 -0.2972  1.4151 -0.6390
26847SOL     OW83495   8.846   4.339   0.110  0.1789  0.1897  0.8080
26847SOL    HW183496   8.921   4.392   0.137 -0.4063  0.6634  1.5599
26847SOL    HW283497   8.871   4.303   0.025  1.2801  0.2786  1.0799
26848SOL     OW83498   4.139   1.260   1.591  0.5118 -0.0083 -0.1608
26848SOL    HW183499   4.174   1.276   1.679  0.2131  0.4713 -0.1260
26848SOL    HW283500   4.107   1.346   1.562 -3.1602 -0.8582  0.8893
26849SOL     OW83501   7.784   0.621   2.462  0.2519 -0.4688 -0.2278
26849SOL    HW183502   7.777   0.638   2.368  1.1380 -1.0826 -0.4171
26849SOL    HW283503   7.707   0.665   2.500  1.0252  1.6942 -0.9741
26850SOL     OW83504   9.735   9.919   3.972 -0.1358  0.0737 -0.1078
26850SOL    HW183505   9.723   9.865   3.894  0.5365 -1.5394  0.8477
26850SOL    HW283506   9.653   9.912   4.019 -0.2572  0.3735 -0.2745
26851SOL     OW83507   1.863   1.292   5.548 -0.0851  0.6373  0.0410
26851SOL    HW183508   1.800   1.233   5.508  0.5814  0.1666 -0.3363
26851SOL    HW283509   1.819   1.377   5.548 -0.3697  0.5139 -1.0803
26852SOL     OW83510   5.318   9.619   2.389  0.1403  0.8475 -0.6151
26852SOL    HW183511   5.244   9.638   2.331  0.6840  1.4713 -1.1267
26852SOL    HW283512   5.342   9.704   2.426  1.6870  0.9946 -1.8005
26853SOL     OW83513   5.487   3.121   4.448 -0.4093  0.5894 -0.1564
26853SOL    HW183514   5.507   3.044   4.502  1.7304  1.1287 -0.0968
26853SOL    HW283515   5.443   3.085   4.371 -0.5420 -0.5428  0.4229
26854SOL     OW83516   9.811   3.507   6.572 -0.0884 -0.3696  0.0282
26854SOL    HW183517   9.724   3.487   6.539 -1.4169 -2.1758  4.0302
26854SOL    HW283518   9.864   3.431   6.546 -0.2058 -0.2447 -0.6113
26855SOL     OW83519   9.049   3.346   8.620 -0.5697 -0.3198  0.2017
26855SOL    HW183520   9.026   3.342   8.713  0.7615 -0.2766  0.5560
26855SOL    HW283521   9.091   3.262   8.602 -0.1101 -0.0209 -0.1491
26856SOL     OW83522   1.117   4.021   0.476  0.1834  0.3193 -0.0787
26856SOL    HW183523   1.108   4.053   0.566 -1.0006  0.2182 -0.1548
26856SOL    HW283524   1.166   3.939   0.485 -0.4508 -0.0072  0.5465
26857SOL     OW83525   9.020   6.875   4.703  0.1147 -0.2133 -0.2540
26857SOL    HW183526   9.071   6.925   4.766  0.2190 -2.2986  1.4150
26857SOL    HW283527   8.991   6.798   4.751 -3.2589  0.0505 -1.5802
26858SOL     OW83528   5.928   0.878   3.466  0.2460  0.3846  0.6724
26858SOL    HW183529   5.971   0.794   3.448  0.6746  0.8937 -0.7744
26858SOL    HW283530   5.994   0.929   3.513  0.4991  0.4103  0.2952
26859SOL     OW83531   6.015   1.728  10.615  0.7414 -0.0008 -0.3829
26859SOL    HW183532   6.105   1.698  10.627  0.5691 -0.9907 -1.3570
26859SOL    HW283533   5.965   1.677  10.679  0.7079 -0.3676 -0.7005
26860SOL     OW83534   5.721   4.222   8.800  0.4822  0.4630  0.3221
26860SOL    HW183535   5.773   4.226   8.880  1.1787 -0.3841 -0.0784
26860SOL    HW283536   5.652   4.287   8.813 -0.8526 -1.2761  2.5991
26861SOL     OW83537   8.888   5.020   6.030 -0.0395 -0.0857 -0.0281
26861SOL    HW183538   8.967   5.025   5.976  0.0141 -1.2415 -0.0735
26861SOL    HW283539   8.818   5.054   5.974 -0.2251 -2.4737 -1.3528
26862SOL     OW83540   0.739   1.569   7.312 -0.1093 -0.3918  0.1485
26862SOL    HW183541   0.679   1.511   7.266 -0.5908 -0.3319  0.6884
26862SOL    HW283542   0.687   1.606   7.384  0.5721 -0.3422  0.6265
26863SOL     OW83543   5.173   2.627   2.893 -0.2477 -0.7215 -0.2523
26863SOL    HW183544   5.178   2.639   2.799 -1.0700  1.1451 -0.1139
26863SOL    HW283545   5.256   2.662   2.926 -1.1965  1.6421 -0.1235
26864SOL     OW83546   9.550   1.043   1.135 -0.4115  0.3825 -0.1812
26864SOL    HW183547   9.498   0.963   1.138 -3.3559  1.9774 -2.5222
26864SOL    HW283548   9.635   1.016   1.102 -0.9807 -1.9075  0.0899
26865SOL     OW83549   7.104   0.052   0.242  0.1809 -0.2304 -0.1009
26865SOL    HW183550   7.099  -0.043   0.231 -1.0372 -0.2303  0.2974
26865SOL    HW283551   7.027   0.074   0.293  1.1541  0.8216  0.9766
26866SOL     OW83552   1.249  10.174   4.492 -0.3752  0.2758 -0.3347
26866SOL    HW183553   1.158  10.153   4.470 -0.3323 -0.0167 -0.2341
26866SOL    HW283554   1.242  10.246   4.555 -0.5654 -0.2748  0.2814
26867SOL     OW83555   8.186   4.746   4.162 -0.1767  0.2844 -0.5653
26867SOL    HW183556   8.114   4.808   4.168  0.4826  1.1424 -1.3194
26867SOL    HW283557   8.221   4.757   4.073  0.6444 -0.3858 -0.3430
26868SOL     OW83558   9.486   4.045   7.587 -0.2944  0.2300  0.8351
26868SOL    HW183559   9.493   3.977   7.520  0.7040  0.9863  0.1409
26868SOL    HW283560   9.502   4.126   7.540 -0.3276  0.8457  1.8666
26869SOL     OW83561   9.263   6.518   9.900  0.2821 -0.0944 -0.5323
26869SOL    HW183562   9.337   6.534   9.842 -0.9365 -0.2276 -2.1951
26869SOL    HW283563   9.195   6.578   9.869 -1.3875 -2.1984 -1.1619
26870SOL     OW83564   1.711  10.390   6.640  0.0398 -0.2051 -0.0919
26870SOL    HW183565   1.619  10.366   6.646  0.1908 -0.8116 -0.1367
26870SOL    HW283566   1.745  10.339   6.567  0.4201 -0.0156 -0.0518
26871SOL     OW83567   6.881   7.245   8.608 -0.7298  0.0209 -0.1072
26871SOL    HW183568   6.841   7.276   8.690  0.6010 -1.0322  0.9790
26871SOL    HW283569   6.806   7.228   8.551 -1.6945  0.7585  0.8775
26872SOL     OW83570   9.121   7.777   4.868 -0.2494  0.4706 -0.0883
26872SOL    HW183571   9.196   7.764   4.810 -0.9458 -0.8752 -0.7359
26872SOL    HW283572   9.158   7.773   4.956  0.4958  0.1868 -0.4033
26873SOL     OW83573   9.709   9.885   6.916  0.1556  0.0180  0.4496
26873SOL    HW183574   9.694   9.831   6.993 -1.8463  0.5314  0.4675
26873SOL    HW283575   9.739   9.969   6.952  1.1724 -0.3605  0.5294
26874SOL     OW83576   3.532   4.849   3.501 -0.1127 -0.4377 -0.2720
26874SOL    HW183577   3.439   4.841   3.480 -0.0335  0.6589 -1.1176
26874SOL    HW283578   3.547   4.943   3.509  0.8439 -0.6198  0.2499
26875SOL     OW83579   3.520   9.431   8.189  0.3219 -0.2723 -0.1869
26875SOL    HW183580   3.482   9.485   8.258  1.8625 -0.1883  0.6381
26875SOL    HW283581   3.567   9.493   8.133  2.1184 -0.7084  0.7765
26876SOL     OW83582   3.397   9.565   2.208  0.3403  0.1935  0.0647
26876SOL    HW183583   3.423   9.657   2.204  0.8198  0.0999  0.8033
26876SOL    HW283584   3.440   9.525   2.132 -0.7461  0.7770 -0.8745
26877SOL     OW83585   6.278  10.347   5.254  0.6246  0.0212 -0.3936
26877SOL    HW183586   6.265  10.351   5.349  1.3334 -0.6693 -0.2650
26877SOL    HW283587   6.214  10.410   5.219  1.1773  1.1942  0.6077
26878SOL     OW83588   7.225   1.389   4.113  0.2478  0.0615 -0.3448
26878SOL    HW183589   7.301   1.392   4.055 -0.1039 -1.9717 -0.9953
26878SOL    HW283590   7.239   1.460   4.175  0.6968  2.2480 -2.8090
26879SOL     OW83591   1.430   3.177   0.410  0.2831 -0.2731  0.3716
26879SOL    HW183592   1.413   3.184   0.504 -1.1611 -1.0054  0.1929
26879SOL    HW283593   1.478   3.095   0.400  2.3293  0.8152  0.6549
26880SOL     OW83594   1.617   6.843  10.365  0.0318  0.3403 -0.2267
26880SOL    HW183595   1.703   6.849  10.323 -0.2528 -2.2060 -1.3511
26880SOL    HW283596   1.634   6.860  10.457  1.3753  1.8850 -0.7067
26881SOL     OW83597   3.114   6.875   5.112  0.1811 -0.2362 -0.3268
26881SOL    HW183598   3.043   6.811   5.103 -1.8471  1.7516  0.6560
26881SOL    HW283599   3.102   6.934   5.038  2.0037 -0.8516 -1.1859
26882SOL     OW83600   9.809   2.340   6.778  0.3592 -0.4219 -0.0664
26882SOL    HW183601   9.901   2.338   6.753  0.4819  3.1435 -0.4616
26882SOL    HW283602   9.810   2.324   6.872  1.6544  1.4216  0.2891
26883SOL     OW83603   7.763   1.825   5.167  0.0644 -0.6427  0.2873
26883SOL    HW183604   7.770   1.771   5.246  0.5434 -1.9161 -0.6025
26883SOL    HW283605   7.777   1.764   5.095  1.0537  0.7518 -0.7415
26884SOL     OW83606   2.775   8.647   9.871 -0.4319 -0.2599  0.0731
26884SOL    HW183607   2.805   8.578   9.929  1.8001  0.2988 -0.3364
26884SOL    HW283608   2.700   8.686   9.916  0.8130 -0.2686  2.2685
26885SOL     OW83609   6.296   2.493   2.267 -0.0438  0.0137  0.1578
26885SOL    HW183610   6.232   2.494   2.338  0.9855 -2.2021  1.2142
26885SOL    HW283611   6.381   2.492   2.311  0.8737  3.0480 -1.2019
26886SOL     OW83612   7.233   3.048   9.976  0.4960  0.1542  0.0659
26886SOL    HW183613   7.215   3.121  10.035 -1.7418  0.4471 -0.8857
26886SOL    HW283614   7.251   2.974  10.034 -1.9322  0.3605  1.2243
26887SOL     OW83615   7.609   1.528   5.608 -0.1511 -0.0211 -0.1761
26887SOL    HW183616   7.684   1.485   5.567 -1.2098 -1.1073 -1.0114
26887SOL    HW283617   7.568   1.577   5.537 -0.8306 -0.2728  0.0399
26888SOL     OW83618   9.320   9.411   3.185  0.1987 -0.2132  0.3568
26888SOL    HW183619   9.310   9.474   3.114  1.5845 -0.1022  0.2243
26888SOL    HW283620   9.376   9.342   3.147  0.7733 -0.2565  1.2677
26889SOL     OW83621   8.949   7.907  10.125  0.1738 -0.2979 -0.1246
26889SOL    HW183622   8.862   7.942  10.145  0.3159  1.4096 -2.1863
26889SOL    HW283623   8.943   7.814  10.149 -2.5630 -0.4755 -1.0866
26890SOL     OW83624   7.812   8.341   1.262  0.0189  0.3746  0.3916
26890SOL    HW183625   7.826   8.417   1.317  0.9331  2.0246 -1.9794
26890SOL    HW283626   7.725   8.354   1.224  1.1007  1.5679 -1.8556
26891SOL     OW83627   0.276   9.262   2.364  0.1745  0.2378  0.3923
26891SOL    HW183628   0.185   9.292   2.361  0.4559  1.2874  1.4119
26891SOL    HW283629   0.309   9.296   2.448  1.8898  1.0236 -0.5518
26892SOL     OW83630   1.472   0.960   4.369  0.0601  0.0685  0.2533
26892SOL    HW183631   1.559   0.948   4.408  0.5626  1.0050 -0.5484
26892SOL    HW283632   1.444   1.046   4.400 -1.0303 -0.6424  1.3118
26893SOL     OW83633   4.206   2.276   5.841 -0.0533  0.4147  0.0866
26893SOL    HW183634   4.160   2.316   5.767 -0.0491 -2.2333 -1.4981
26893SOL    HW283635   4.137   2.236   5.894  0.0457  1.1977  0.8245
26894SOL     OW83636   3.587   8.555   0.827  0.4369 -0.4143 -0.4182
26894SOL    HW183637   3.570   8.591   0.914  1.2351 -1.3190  0.1319
26894SOL    HW283638   3.682   8.547   0.822  0.4476  0.2339 -1.6365
26895SOL     OW83639   6.488   8.725  10.580  0.0929 -0.3683 -0.1751
26895SOL    HW183640   6.399   8.714  10.613  0.4299 -1.5295  0.3844
26895SOL    HW283641   6.481   8.705  10.487 -0.5015  1.0413 -0.4595
26896SOL     OW83642   8.065   5.392   9.735  0.2844 -0.0797  0.3013
26896SOL    HW183643   8.062   5.298   9.718  1.9463 -0.0308 -0.4573
26896SOL    HW283644   8.079   5.432   9.649  0.9184  0.7641  0.7784
26897SOL     OW83645   6.709   7.315   7.813  0.5815 -0.4575 -0.4359
26897SOL    HW183646   6.704   7.400   7.857  0.2576  0.4479 -2.1201
26897SOL    HW283647   6.720   7.251   7.884 -2.1162  0.6622  1.1161
26898SOL     OW83648   9.465   3.737   1.548  0.2665  0.1331 -0.3546
26898SOL    HW183649   9.475   3.699   1.635  1.2525 -0.5102 -0.7254
26898SOL    HW283650   9.555   3.756   1.520 -0.0863  0.9644 -0.9564
26899SOL     OW83651   5.386   5.436   1.789 -0.0719 -0.1167 -0.7887
26899SOL    HW183652   5.475   5.459   1.761 -0.0865  0.2845 -0.5123
26899SOL    HW283653   5.356   5.373   1.723  0.7606 -0.9872 -0.3785
26900SOL     OW83654  10.485   1.460   0.656  0.1372 -0.2293  0.4372
26900SOL    HW183655  10.507   1.439   0.747  1.3992 -0.1823  0.1563
26900SOL    HW283656  10.413   1.401   0.635 -0.0215 -0.3957  1.3996
26901SOL     OW83657   9.808   6.901  10.648 -0.2846 -0.0069 -0.4295
26901SOL    HW183658   9.725   6.937  10.678 -1.0791 -2.3377  0.3779
26901SOL    HW283659   9.813   6.925  10.555 -1.0684  1.4902 -0.1170
26902SOL     OW83660   7.173  10.186   4.675 -1.0244  0.3948  0.1365
26902SOL    HW183661   7.197  10.110   4.727  0.4425 -0.8681 -2.1909
26902SOL    HW283662   7.254  10.236   4.667 -1.1866  0.5012 -0.9748
26903SOL     OW83663   9.053   7.631   7.800  0.1917  0.1898 -0.2906
26903SOL    HW183664   9.122   7.697   7.797  1.1785 -0.7360  0.7233
26903SOL    HW283665   9.023   7.633   7.891  0.0049 -0.5118 -0.3325
26904SOL     OW83666   7.376   0.099   5.778  0.4059  0.2504  0.2466
26904SOL    HW183667   7.424   0.046   5.842  0.0791  0.1060  0.3774
26904SOL    HW283668   7.314   0.149   5.832 -0.2205 -0.2439  0.0063
26905SOL     OW83669   4.790   5.824   8.824  0.0203  0.5317  0.1713
26905SOL    HW183670   4.870   5.874   8.807 -0.4998  0.7639 -1.8988
26905SOL    HW283671   4.733   5.885   8.870  1.1774  0.1861  2.1953
26906SOL     OW83672   6.417   8.938  10.162  0.5631  0.1711 -0.0779
26906SOL    HW183673   6.322   8.952  10.170  0.6445  0.3016  0.8286
26906SOL    HW283674   6.426   8.874  10.092 -0.0514  1.8031 -1.7344
26907SOL     OW83675   9.915   2.614   1.453  0.0589 -0.1346  0.4143
26907SOL    HW183676   9.848   2.565   1.407 -0.1327 -0.1021  0.6532
26907SOL    HW283677   9.975   2.548   1.487  0.9136 -0.1033 -0.9468
26908SOL     OW83678   1.716   8.836   5.053  0.0619  0.1240  0.6095
26908SOL    HW183679   1.689   8.770   5.116 -0.2894 -0.6404 -0.3201
26908SOL    HW283680   1.655   8.826   4.980  1.1317  0.2368 -0.3399
26909SOL     OW83681   2.458   4.657   7.461  0.1057 -0.3954  0.4027
26909SOL    HW183682   2.421   4.574   7.490  1.9328 -1.6523 -0.7134
26909SOL    HW283683   2.415   4.674   7.377 -0.7106  0.1331  0.9110
26910SOL     OW83684   3.445   8.169   6.532  0.1204  0.4202 -0.4755
26910SOL    HW183685   3.356   8.169   6.496 -0.2251 -1.2620  0.2784
26910SOL    HW283686   3.501   8.148   6.458 -0.2419  0.2512 -0.7061
26911SOL     OW83687   7.666   3.901   9.676 -0.6382 -0.0143  0.1780
26911SOL    HW183688   7.609   3.843   9.626 -0.0876 -0.2611 -0.1680
26911SOL    HW283689   7.647   3.989   9.642 -1.8832  0.0955  1.0937
26912SOL     OW83690   2.719   5.122   2.630 -0.3970  0.0706  0.0519
26912SOL    HW183691   2.655   5.058   2.660  0.4474 -0.9287 -0.2300
26912SOL    HW283692   2.798   5.071   2.614 -0.8697  0.3698 -4.3773
26913SOL     OW83693   2.614   5.925  10.627  0.4148 -0.0206 -0.4100
26913SOL    HW183694   2.556   5.999  10.644 -0.9390 -1.2401  0.4977
26913SOL    HW283695   2.580   5.887  10.545  0.6278 -0.1001 -0.4616
26914SOL     OW83696   6.454   0.029   5.884  0.1329  0.2169 -0.1956
26914SOL    HW183697   6.512  -0.036   5.843  0.2916 -0.2061  0.6691
26914SOL    HW283698   6.394   0.056   5.814  0.5480 -0.3006 -0.7630
26915SOL     OW83699   8.589   9.897   4.392 -0.4771  0.2588 -0.2858
26915SOL    HW183700   8.519   9.835   4.413 -0.1997  0.1765  0.4308
26915SOL    HW283701   8.591   9.956   4.468  0.4490  0.0571 -0.1395
26916SOL     OW83702   0.782  10.402   5.609  0.0607  0.5995 -0.0400
26916SOL    HW183703   0.818  10.329   5.660 -1.8497 -1.6050 -1.6593
26916SOL    HW283704   0.766  10.470   5.674  3.4461  0.3239  1.3072
26917SOL     OW83705   2.545   2.025   7.300  0.4184 -0.0553  0.0939
26917SOL    HW183706   2.610   1.974   7.252 -0.1978 -0.0392 -0.7717
26917SOL    HW283707   2.515   1.967   7.370  3.2342  0.8014  2.2051
26918SOL     OW83708  10.322   5.865   7.769  0.1980  0.3653 -0.2114
26918SOL    HW183709  10.325   5.898   7.859  0.7221 -0.7205  0.1920
26918SOL    HW283710  10.354   5.938   7.716  2.0109  0.3146  0.7133
26919SOL     OW83711   5.321   8.462  10.535 -0.3427 -0.4971 -0.9842
26919SOL    HW183712   5.266   8.422  10.602  0.9936 -1.3001 -0.3276
26919SOL    HW283713   5.272   8.451  10.453 -1.1409 -1.1983 -0.4242
26920SOL     OW83714   8.907   2.980   2.198 -0.5174 -0.0191  0.1100
26920SOL    HW183715   8.982   2.945   2.152 -1.5807 -0.6358 -1.2211
26920SOL    HW283716   8.923   2.960   2.290 -0.4332 -2.8406 -0.4361
26921SOL     OW83717   3.734   0.079  10.269 -0.2353 -0.2039 -0.0939
26921SOL    HW183718   3.757   0.044  10.183  1.9204  0.9846 -0.0744
26921SOL    HW283719   3.812   0.128  10.296 -2.1405  2.4274  0.9753
26922SOL     OW83720   8.784   7.182   7.294 -0.0754 -0.4541  0.6509
26922SOL    HW183721   8.859   7.139   7.252 -1.6843 -0.5561 -2.3719
26922SOL    HW283722   8.802   7.175   7.388  2.8385 -1.9853  0.0957
26923SOL     OW83723   0.160   3.605   4.711  0.1865 -0.0822  0.0054
26923SOL    HW183724   0.133   3.553   4.786 -0.8579 -0.6997 -0.7724
26923SOL    HW283725   0.249   3.576   4.692 -0.3721 -1.6418 -0.4150
26924SOL     OW83726   8.171   9.068  10.309 -0.2683  0.3251 -0.1206
26924SOL    HW183727   8.082   9.047  10.281 -0.3872 -0.8563  1.0161
26924SOL    HW283728   8.182   9.018  10.390  2.1937 -1.3153 -1.3551
26925SOL     OW83729   9.091   5.229   1.278  0.3668 -0.2935  0.5734
26925SOL    HW183730   9.061   5.171   1.347 -0.6496  0.7206  1.0098
26925SOL    HW283731   9.186   5.215   1.274  0.1755 -1.7916  0.8130
26926SOL     OW83732   0.900   1.312   3.016 -0.0082 -0.5496 -0.1492
26926SOL    HW183733   0.836   1.326   3.086 -1.4234 -0.6671 -1.3711
26926SOL    HW283734   0.915   1.399   2.979  1.9053 -0.2213  1.1893
26927SOL     OW83735   1.564   8.221   9.291 -0.2266  0.2696  0.2480
26927SOL    HW183736   1.626   8.152   9.312  1.7560  1.0552 -2.3903
26927SOL    HW283737   1.529   8.196   9.206 -0.3013  1.9057 -0.2383
26928SOL     OW83738  10.016   3.909   2.145 -0.0716 -0.0775  0.1510
26928SOL    HW183739  10.076   3.902   2.219  0.0347  0.6768  0.1448
26928SOL    HW283740   9.931   3.928   2.184  0.0144  0.4734  0.0727
26929SOL     OW83741   9.305  10.609   9.961 -0.0952  0.2627 -0.0422
26929SOL    HW183742   9.366  10.546  10.000 -0.0299 -0.4329 -1.2260
26929SOL    HW283743   9.218  10.571   9.975  0.0491 -1.2969 -2.6932
26930SOL     OW83744   8.666   6.816   7.038  0.6089  0.1033 -0.5782
26930SOL    HW183745   8.573   6.822   7.015  0.6212 -0.9853 -0.9751
26930SOL    HW283746   8.690   6.727   7.015  1.7043  0.3069 -0.2592
26931SOL     OW83747   1.640   6.203   3.266 -0.0496 -0.5192 -0.3383
26931SOL    HW183748   1.723   6.165   3.297 -0.4388 -0.3024  1.0486
26931SOL    HW283749   1.581   6.128   3.257  0.2622 -0.6629 -1.2406
26932SOL     OW83750   0.955   5.698   9.274  0.3424  0.1598  0.1977
26932SOL    HW183751   0.968   5.664   9.362 -0.3323  1.7934  0.9745
26932SOL    HW283752   1.042   5.726   9.245  0.2152  1.8439  1.3421
26933SOL     OW83753   3.652  10.469   7.444  0.3061 -0.2718  0.2950
26933SOL    HW183754   3.627  10.379   7.462  0.9693 -0.1304  2.2511
26933SOL    HW283755   3.722  10.487   7.507  0.5465  1.4389 -0.4048
26934SOL     OW83756  10.288   0.681   3.720 -0.2695  0.0941  0.3132
26934SOL    HW183757  10.303   0.741   3.792 -2.1577  0.7255  0.2408
26934SOL    HW283758  10.352   0.611   3.733 -1.5298 -0.6563  3.5585
26935SOL     OW83759  10.661   5.949   8.062 -0.2172  0.1486  0.5281
26935SOL    HW183760  10.694   5.865   8.095 -0.2830 -0.7629 -1.5454
26935SOL    HW283761  10.739   6.002   8.048 -0.1382  0.2722  1.3944
26936SOL     OW83762   5.748   5.430   6.301 -0.0272 -0.1929  0.1654
26936SOL    HW183763   5.755   5.507   6.245  1.1164 -1.0620 -0.9196
26936SOL    HW283764   5.753   5.464   6.390  0.5739  0.9780 -0.3053
26937SOL     OW83765   3.524   0.029   9.686 -0.4708  0.0871  0.1111
26937SOL    HW183766   3.537   0.114   9.728 -1.0314 -0.0566  0.5956
26937SOL    HW283767   3.560  -0.034   9.748 -1.0168 -0.1026  0.2443
26938SOL     OW83768   3.303   9.262   4.119  0.5062  0.2760 -0.0256
26938SOL    HW183769   3.250   9.286   4.043  0.3793  0.6107  0.1703
26938SOL    HW283770   3.393   9.272   4.089  0.4572  0.3999 -0.1347
26939SOL     OW83771   9.978   4.640   3.988 -0.1138  0.1679 -0.2195
26939SOL    HW183772   9.975   4.735   4.000 -1.5275  0.0257  0.7833
26939SOL    HW283773   9.903   4.607   4.037  0.1607 -1.4530 -0.8237
26940SOL     OW83774   1.052   9.877   1.194 -0.0238 -0.7249 -0.7900
26940SOL    HW183775   1.050   9.939   1.267  0.0805  0.7133 -1.9627
26940SOL    HW283776   1.073   9.793   1.234 -1.8212 -0.3594  1.0770
26941SOL     OW83777   5.790   9.495   4.840 -0.0506 -0.1301 -0.1913
26941SOL    HW183778   5.847   9.423   4.814 -0.3227 -1.3826  2.4498
26941SOL    HW283779   5.846   9.573   4.834  1.0722 -0.9272 -0.4191
26942SOL     OW83780   9.278   1.069   6.972  0.2977 -1.0046  0.0468
26942SOL    HW183781   9.321   1.027   7.047  0.0054 -0.7686  0.3509
26942SOL    HW283782   9.285   1.163   6.990  1.8451 -0.8449 -1.1206
26943SOL     OW83783   6.278   7.185   7.646 -0.1456  0.5134 -0.0015
26943SOL    HW183784   6.237   7.262   7.684 -0.7268 -0.2449  0.9501
26943SOL    HW283785   6.255   7.113   7.705  3.4191  0.1744  1.2242
26944SOL     OW83786   2.718   7.826   8.836 -0.3090  0.2752  0.1095
26944SOL    HW183787   2.755   7.766   8.772  0.2401  0.2999  0.4011
26944SOL    HW283788   2.756   7.911   8.813 -0.6536  0.4126  0.0393
26945SOL     OW83789   8.652   9.886   4.813 -0.0485  0.0789  0.1722
26945SOL    HW183790   8.635   9.951   4.881 -0.7828  0.3707 -0.2850
26945SOL    HW283791   8.620   9.926   4.732  2.3096  0.4390 -0.6613
26946SOL     OW83792   1.780   3.001   5.514 -0.1926  0.3986  0.4168
26946SOL    HW183793   1.799   3.090   5.544  1.0899 -0.2032  1.5383
26946SOL    HW283794   1.816   2.997   5.425  1.3520  0.5382  0.9915
26947SOL     OW83795   4.515   4.587   0.636 -0.1051 -0.1214 -0.0685
26947SOL    HW183796   4.495   4.669   0.590 -2.8811 -0.9268 -0.4367
26947SOL    HW283797   4.469   4.594   0.719  0.8944 -0.7005  0.5488
26948SOL     OW83798   9.861   1.868   2.503  0.1110  0.7992  0.4697
26948SOL    HW183799   9.840   1.775   2.513 -0.1431  0.8670  0.5802
26948SOL    HW283800   9.824   1.909   2.581 -0.5630  1.1214 -0.0062
26949SOL     OW83801  10.347   5.609   4.725 -0.0125 -0.2471  0.1791
26949SOL    HW183802  10.332   5.642   4.814 -1.8235  0.4857 -0.3608
26949SOL    HW283803  10.432   5.645   4.700 -0.0448  0.5530  1.1525
26950SOL     OW83804   0.814   5.788   8.162  0.5334 -0.4656 -0.4011
26950SOL    HW183805   0.767   5.872   8.167  0.6627 -0.4452  0.9212
26950SOL    HW283806   0.761   5.734   8.102 -0.3815  0.0477 -0.0777
26951SOL     OW83807   7.134   1.457   1.807 -0.4182 -0.2490 -0.5395
26951SOL    HW183808   7.174   1.482   1.725  1.0648 -0.0192  0.2233
26951SOL    HW283809   7.208   1.436   1.865 -1.3416  0.9920  1.1756
26952SOL     OW83810   0.986   0.342   8.727 -0.3538 -0.1793  0.5732
26952SOL    HW183811   1.000   0.318   8.635 -0.2874 -2.7486  1.1565
26952SOL    HW283812   0.895   0.318   8.745 -0.2364 -0.1265  1.2700
26953SOL     OW83813   4.703   0.535   9.588  0.2243  0.0312 -0.5560
26953SOL    HW183814   4.703   0.621   9.631 -0.2198  0.8904 -2.1936
26953SOL    HW283815   4.785   0.534   9.538 -1.1562  0.8725 -3.0249
26954SOL     OW83816   8.146   0.990   2.587 -0.0132 -0.3658 -0.3344
26954SOL    HW183817   8.141   1.081   2.559 -0.9775 -0.7241 -1.3817
26954SOL    HW283818   8.058   0.956   2.575  0.3738 -1.4919 -0.1037
26955SOL     OW83819  10.545   3.658   8.715 -0.5117 -0.5388  0.3576
26955SOL    HW183820  10.560   3.741   8.671 -3.0363 -0.1510  0.0483
26955SOL    HW283821  10.579   3.592   8.656  0.7216  0.2243  0.1969
26956SOL     OW83822   0.823   0.712   2.361  0.9002  0.5233  0.1309
26956SOL    HW183823   0.802   0.735   2.452 -0.0105 -0.2909  0.1436
26956SOL    HW283824   0.896   0.770   2.338 -0.6053  2.7066  0.4935
26957SOL     OW83825  10.255   7.936   4.070  0.2955  0.2163 -0.2875
26957SOL    HW183826  10.205   7.950   4.150 -0.1428 -1.1394 -0.3000
26957SOL    HW283827  10.298   7.851   4.082 -1.1030 -0.8355 -2.1058
26958SOL     OW83828   2.522   8.340   8.272 -0.4346 -0.1093 -0.4649
26958SOL    HW183829   2.435   8.301   8.260 -0.5620  0.3675 -1.1687
26958SOL    HW283830   2.506   8.420   8.321 -0.0564 -1.4036  1.9064
26959SOL     OW83831  10.525   9.590   0.719  0.4149 -0.2277  0.9447
26959SOL    HW183832  10.478   9.652   0.664  0.8336  0.4615  1.3521
26959SOL    HW283833  10.566   9.530   0.658  1.6893  1.1072  0.4262
26960SOL     OW83834   6.851   4.558   6.157 -0.5036  0.2841  0.7274
26960SOL    HW183835   6.769   4.584   6.114 -0.8195  1.3609  1.9188
26960SOL    HW283836   6.837   4.468   6.184 -0.5866 -0.1552 -0.7032
26961SOL     OW83837   3.982   9.867   7.505  0.4007 -0.3457  0.2176
26961SOL    HW183838   3.972   9.788   7.453  0.6317 -0.3187  0.1333
26961SOL    HW283839   3.932   9.934   7.457  1.2360 -0.1324 -0.3773
26962SOL     OW83840  10.060   0.936   0.349 -0.5167 -0.2547  1.0664
26962SOL    HW183841  10.142   0.985   0.346 -1.4205  1.3225  0.8176
26962SOL    HW283842  10.018   0.966   0.429 -2.2904  1.4798 -0.4135
26963SOL     OW83843   1.378   9.345   4.791  0.3129  0.0411 -0.3243
26963SOL    HW183844   1.285   9.358   4.774  0.2288  0.0345  0.1191
26963SOL    HW283845   1.420   9.360   4.706  0.0265  1.1970 -0.2836
26964SOL     OW83846   9.173   6.462   2.826 -0.0308  0.1018 -0.6859
26964SOL    HW183847   9.114   6.514   2.881  1.1380 -1.2852  2.0635
26964SOL    HW283848   9.130   6.376   2.820  1.7310 -1.0481  1.6749
26965SOL     OW83849   6.888   9.498   5.601 -0.5390 -0.0404 -0.4453
26965SOL    HW183850   6.926   9.433   5.659 -0.4759  0.5509  0.1812
26965SOL    HW283851   6.830   9.447   5.543 -1.5135 -0.4951  0.8820
26966SOL     OW83852   8.639   3.033   7.536  0.4469  0.5298  0.5382
26966SOL    HW183853   8.587   2.982   7.474 -0.2080 -1.1444  2.3566
26966SOL    HW283854   8.706   2.972   7.566  3.1605  2.4019 -1.1910
26967SOL     OW83855   2.886   8.762   6.895 -0.3669 -0.2040  0.7261
26967SOL    HW183856   2.954   8.724   6.840  0.1491 -0.0599  1.2604
26967SOL    HW283857   2.899   8.856   6.888 -0.3695 -0.1810  1.0066
26968SOL     OW83858   9.295   6.244  10.656 -0.3571 -0.1123  0.0118
26968SOL    HW183859   9.335   6.205  10.734 -1.0593 -1.3973 -0.2395
26968SOL    HW283860   9.283   6.170  10.596 -1.6166  0.5106 -0.5348
26969SOL     OW83861   0.040   3.002   2.642  0.0841 -0.2544  0.2981
26969SOL    HW183862   0.031   3.084   2.691  1.6343  0.2600 -0.2357
26969SOL    HW283863  -0.040   2.996   2.590 -0.7323  0.1347  1.4674
26970SOL     OW83864   9.245   6.370   5.601  0.6831  0.3513 -0.5973
26970SOL    HW183865   9.276   6.279   5.602  1.7290  0.6825 -1.1325
26970SOL    HW283866   9.288   6.410   5.677 -3.3123 -0.6396  2.5364
26971SOL     OW83867   4.558   3.784   0.793 -0.2819 -0.2850  0.1426
26971SOL    HW183868   4.604   3.788   0.709 -0.5313  0.7916  0.0523
26971SOL    HW283869   4.517   3.697   0.794  1.0383 -0.9485 -0.1368
26972SOL     OW83870   9.461   8.102   0.922 -0.1660  0.1589  0.5703
26972SOL    HW183871   9.513   8.093   1.002 -0.9797  0.2282  1.1345
26972SOL    HW283872   9.375   8.132   0.954 -0.0809  1.6080 -0.4551
26973SOL     OW83873   8.550   0.360   0.892  0.0413  0.7830 -0.1627
26973SOL    HW183874   8.603   0.430   0.852  0.1216  1.1226  0.5215
26973SOL    HW283875   8.461   0.376   0.861  0.4806 -0.4683 -2.2628
26974SOL     OW83876   9.186   8.692   2.922  0.3139  0.2763 -0.0073
26974SOL    HW183877   9.153   8.607   2.894  0.2798 -0.4272  2.0213
26974SOL    HW283878   9.271   8.700   2.880  1.1815 -1.6438  1.2676
26975SOL     OW83879   2.966   4.269   9.708  0.4822  0.2286  0.0263
26975SOL    HW183880   3.007   4.213   9.641 -1.5249 -0.4922 -0.6718
26975SOL    HW283881   2.955   4.211   9.783 -0.4916  0.0146 -0.2727
26976SOL     OW83882   7.823   0.265   5.349 -0.2771 -0.0462 -0.1745
26976SOL    HW183883   7.903   0.223   5.317  0.5534  1.8422 -0.7149
26976SOL    HW283884   7.789   0.204   5.415  2.0486 -0.5461  0.6551
26977SOL     OW83885   9.358   2.503   6.031 -0.5933  0.2402  0.5481
26977SOL    HW183886   9.317   2.501   5.944 -1.3488  1.2789  0.8629
26977SOL    HW283887   9.430   2.439   6.025 -2.3773 -1.8324  0.0642
26978SOL     OW83888  10.483  10.080   2.452 -0.2331 -0.4172 -0.6182
26978SOL    HW183889  10.560  10.129   2.481 -0.8793 -0.1136  0.6462
26978SOL    HW283890  10.511  10.039   2.370  0.8590  0.7086 -0.8415
26979SOL     OW83891   6.479   2.898   1.722  0.3600  0.2518  0.1047
26979SOL    HW183892   6.570   2.873   1.703  0.2504 -0.2689  0.2489
26979SOL    HW283893   6.445   2.827   1.776 -0.4213 -0.0289 -0.7363
26980SOL     OW83894   3.093   3.109   6.543  0.1292 -0.1161 -0.1623
26980SOL    HW183895   3.005   3.122   6.509  0.0662 -1.2126 -0.4478
26980SOL    HW283896   3.151   3.124   6.468  0.2147  0.7752  0.0651
26981SOL     OW83897  10.505   2.917   4.251  0.0831 -0.7813  0.4291
26981SOL    HW183898  10.541   2.841   4.205  0.7890  0.9064 -2.0445
26981SOL    HW283899  10.572   2.941   4.314 -0.0551 -2.0313  1.0859
26982SOL     OW83900   5.566   2.067   7.059 -0.1057  0.2336  0.6017
26982SOL    HW183901   5.487   2.106   7.023 -1.0941 -1.2674  1.0579
26982SOL    HW283902   5.536   2.013   7.132  1.3497 -0.2331  0.8982
26983SOL     OW83903   9.391   6.798   0.345 -0.5433  0.7008  1.1167
26983SOL    HW183904   9.350   6.723   0.302 -1.0270  1.3566  0.4087
26983SOL    HW283905   9.318   6.853   0.372 -0.1521  1.9028 -0.1838
26984SOL     OW83906   9.642   5.525   1.885 -0.6087 -0.4100  0.1181
26984SOL    HW183907   9.668   5.481   1.804 -0.9074 -1.0724  0.3770
26984SOL    HW283908   9.593   5.602   1.855  1.8459  1.0724 -0.3885
26985SOL     OW83909   3.880   3.283   5.985  0.1332 -0.6734  0.4661
26985SOL    HW183910   3.972   3.303   5.997  0.5212 -1.1383 -1.3514
26985SOL    HW283911   3.868   3.283   5.890 -1.6143 -1.1460  0.6504
26986SOL     OW83912   1.002   6.764   4.859 -0.0383 -0.0301 -0.2687
26986SOL    HW183913   0.979   6.691   4.802  1.0801 -0.4738 -0.1914
26986SOL    HW283914   0.924   6.779   4.913 -0.4850 -0.7769 -0.6898
26987SOL     OW83915   5.150   9.388   2.023  0.0501  0.1436 -0.0660
26987SOL    HW183916   5.124   9.454   2.088  1.1780 -1.4559  2.1519
26987SOL    HW283917   5.122   9.305   2.061  0.3604 -0.8309 -1.8850
26988SOL     OW83918   1.219   6.644   6.903  0.0093 -0.0521  0.4823
26988SOL    HW183919   1.149   6.696   6.863 -0.9100 -2.0213 -0.6156
26988SOL    HW283920   1.295   6.701   6.901 -1.2780  1.7778  0.7105
26989SOL     OW83921   4.693   9.876   8.494 -0.0903  0.6345  0.0641
26989SOL    HW183922   4.749   9.798   8.502  0.0310  0.8318  1.2966
26989SOL    HW283923   4.712   9.910   8.407  0.5592 -0.1802 -0.1275
26990SOL     OW83924   8.810   9.346   0.821  0.5619  0.3681 -0.6600
26990SOL    HW183925   8.871   9.344   0.895 -0.1323  0.7600 -0.0627
26990SOL    HW283926   8.728   9.310   0.856  0.4039 -0.0325 -1.4160
26991SOL     OW83927  10.149   5.485   8.351 -0.5542 -0.1631  0.5377
26991SOL    HW183928  10.235   5.525   8.356 -0.0516 -1.3205  1.8937
26991SOL    HW283929  10.094   5.551   8.309  1.3576 -0.0823 -2.0531
26992SOL     OW83930   4.012   5.136   2.772  0.7874  0.1766 -0.1117
26992SOL    HW183931   3.968   5.220   2.759 -0.0064 -0.2516 -0.2450
26992SOL    HW283932   4.004   5.092   2.688  0.6327 -0.2921  0.1481
26993SOL     OW83933   6.518   8.351   2.065 -0.2390  0.0777  0.2378
26993SOL    HW183934   6.563   8.266   2.064  1.0030  0.7016  0.2958
26993SOL    HW283935   6.436   8.336   2.020  0.2760 -0.9985 -0.3659
26994SOL     OW83936   9.346   7.886   2.926  0.1158 -0.5519 -0.4201
26994SOL    HW183937   9.439   7.886   2.950  0.4732  0.8617 -1.6226
26994SOL    HW283938   9.344   7.924   2.838 -1.7024  0.4644  0.0061
26995SOL     OW83939   4.559   0.735   3.804 -0.0651  0.4545 -0.3008
26995SOL    HW183940   4.494   0.802   3.783 -3.0411 -2.4098 -1.0553
26995SOL    HW283941   4.568   0.684   3.724  0.9964 -0.9142  0.6430
26996SOL     OW83942   3.952   9.955   5.866  0.4240 -0.1905  0.1091
26996SOL    HW183943   3.934   9.902   5.788 -1.5284  0.3724  0.1466
26996SOL    HW283944   3.970  10.042   5.833 -0.4731  0.0656  0.2705
26997SOL     OW83945   7.924   7.341   5.840 -0.0370  0.1280 -0.2632
26997SOL    HW183946   7.848   7.365   5.893  0.2232  1.4585 -0.4492
26997SOL    HW283947   7.967   7.425   5.821  1.3067 -0.5764 -0.4179
26998SOL     OW83948   0.780   6.597   5.143  0.1848  0.7280 -0.5695
26998SOL    HW183949   0.736   6.553   5.216  1.3733 -0.2062 -0.3728
26998SOL    HW283950   0.829   6.528   5.100  0.2504  1.4558 -1.6966
26999SOL     OW83951   6.695   5.595   3.931  0.3972  0.0650  0.2515
26999SOL    HW183952   6.612   5.643   3.929  0.0791 -0.4000  1.2419
26999SOL    HW283953   6.669   5.503   3.937  0.9708 -0.0673  0.8793
27000SOL     OW83954   2.000   5.833   4.875 -0.2876  0.5285 -0.2550
27000SOL    HW183955   1.941   5.821   4.801  1.3945 -1.9332 -1.3264
27000SOL    HW283956   1.995   5.751   4.924 -0.6661  1.7568  1.8898
27001SOL     OW83957   0.397   0.799   3.594  0.3646  0.6015  0.3019
27001SOL    HW183958   0.428   0.731   3.534 -0.0570  0.0432  0.7061
27001SOL    HW283959   0.476   0.844   3.622  0.7371 -0.2318  0.6310
27002SOL     OW83960   6.334   3.236   5.503 -0.0367 -0.2132 -0.2325
27002SOL    HW183961   6.292   3.224   5.418 -0.7730  0.3600  0.0320
27002SOL    HW283962   6.330   3.330   5.519  0.2026 -0.3000  0.3791
27003SOL     OW83963   7.164   3.790  10.329 -0.0072 -0.6580  0.3682
27003SOL    HW183964   7.246   3.839  10.338  0.7126 -2.0650  1.9134
27003SOL    HW283965   7.095   3.855  10.343  0.9172 -0.0691  2.4667
27004SOL     OW83966   4.824   4.494   5.416  0.0623  0.3942 -0.6326
27004SOL    HW183967   4.795   4.493   5.507  1.0489 -0.1060 -0.3092
27004SOL    HW283968   4.816   4.586   5.389  1.9501  1.0050  0.7143
27005SOL     OW83969   7.281   2.672   4.112  0.8788 -0.3516  0.4551
27005SOL    HW183970   7.280   2.633   4.199  1.0323  1.3815  1.2639
27005SOL    HW283971   7.219   2.745   4.117  0.6478 -0.4086 -0.9929
27006SOL     OW83972   2.896   3.349   0.391 -0.2948  0.3598  0.1547
27006SOL    HW183973   2.852   3.274   0.350 -0.0813  1.2577 -1.8601
27006SOL    HW283974   2.957   3.310   0.454 -2.7407 -0.9772  1.8356
27007SOL     OW83975   0.205   5.556   8.333  0.1271 -0.2292 -0.8306
27007SOL    HW183976   0.224   5.512   8.416 -0.0747  0.6515 -0.3073
27007SOL    HW283977   0.240   5.497   8.266 -1.2167 -1.7821 -0.2354
27008SOL     OW83978   8.338   5.947   2.057 -0.0468  0.2116  0.0746
27008SOL    HW183979   8.387   5.866   2.067  3.4989  2.0592 -0.7133
27008SOL    HW283980   8.311   5.970   2.146  0.3439 -0.9701  0.5177
27009SOL     OW83981   4.662   3.940   0.183  0.0252  0.2251 -0.2224
27009SOL    HW183982   4.567   3.937   0.172 -0.3606 -0.3668  2.4812
27009SOL    HW283983   4.686   3.852   0.211  1.5106  0.1967 -1.4133
27010SOL     OW83984   2.812   4.026   2.538  0.2027 -0.5315 -0.6641
27010SOL    HW183985   2.856   4.087   2.479 -0.9413  0.4327 -0.5748
27010SOL    HW283986   2.860   3.944   2.530  1.4720  0.2433 -1.1812
27011SOL     OW83987   2.078   7.391  10.353  0.1324 -0.1931 -0.0532
27011SOL    HW183988   2.060   7.300  10.378  1.6190 -0.8206 -1.0851
27011SOL    HW283989   2.045   7.398  10.263  0.8712 -0.0053 -0.3153
27012SOL     OW83990   4.814   5.206   6.065  0.1549  0.3375 -0.0643
27012SOL    HW183991   4.776   5.143   6.125 -3.0396 -0.0018 -2.2343
27012SOL    HW283992   4.781   5.291   6.094  1.0434  0.5446  0.3782
27013SOL     OW83993   3.520   5.593   8.057 -0.4276  0.4026  0.4629
27013SOL    HW183994   3.610   5.563   8.061 -0.8103 -0.8430  0.0955
27013SOL    HW283995   3.497   5.590   7.964 -0.3387  2.3484  0.3247
27014SOL     OW83996  10.471   6.696   9.884  0.2423  0.2846  0.7376
27014SOL    HW183997  10.530   6.626   9.912  0.9465  0.6795  0.2693
27014SOL    HW283998  10.408   6.705   9.956 -0.5804 -1.6129  0.3259
27015SOL     OW83999   1.135   6.888   6.196 -0.4558 -0.0919 -0.0477
27015SOL    HW184000   1.114   6.972   6.154  0.3126 -0.6112 -1.5141
27015SOL    HW284001   1.204   6.910   6.259  0.2700  0.2758 -0.9495
27016SOL     OW84002   6.405   3.234   7.755 -0.5426  0.3496  0.3704
27016SOL    HW184003   6.322   3.273   7.783 -1.0442 -0.6514  0.3257
27016SOL    HW284004   6.408   3.150   7.800  1.6792  1.4131  2.3995
27017SOL     OW84005   1.417   6.357   7.160 -0.1985 -0.2941  0.3548
27017SOL    HW184006   1.377   6.289   7.106 -1.2340  1.2960 -0.9734
27017SOL    HW284007   1.454   6.310   7.235  0.8610 -2.5429 -1.4641
27018SOL     OW84008   7.916   9.821   5.320  0.2137  0.3551 -0.3436
27018SOL    HW184009   7.993   9.766   5.334 -1.0103 -1.2651  0.2260
27018SOL    HW284010   7.907   9.871   5.401  0.8423  0.8218 -0.5480
27019SOL     OW84011   5.009   5.051   1.779  0.0506  0.0325 -0.6264
27019SOL    HW184012   4.971   5.065   1.865 -2.1259 -0.1558 -1.5003
27019SOL    HW284013   4.962   5.112   1.722  1.6165  0.3310 -1.6554
27020SOL     OW84014   5.678   5.598   0.982 -0.9297 -0.1667 -0.0091
27020SOL    HW184015   5.644   5.638   1.062  0.7363  0.2188  0.5536
27020SOL    HW284016   5.665   5.664   0.914  0.4418  0.7890  0.6060
27021SOL     OW84017   4.077   8.553   6.148  0.9804 -0.0226  0.0692
27021SOL    HW184018   4.108   8.508   6.226  0.7968  0.7574  0.5985
27021SOL    HW284019   4.147   8.614   6.126 -1.4007  4.5638  3.4722
27022SOL     OW84020   8.260   8.906   7.350 -0.0445 -0.7431  0.2060
27022SOL    HW184021   8.261   8.832   7.289  1.0976 -0.1323 -0.5521
27022SOL    HW284022   8.345   8.903   7.394  1.9584  2.4573 -2.8638
27023SOL     OW84023  10.003   7.200   7.647  0.0839 -0.5377  0.4409
27023SOL    HW184024   9.950   7.124   7.624  1.1669 -1.0271 -0.5231
27023SOL    HW284025  10.060   7.213   7.571 -1.2257  2.3061 -0.2250
27024SOL     OW84026   1.732   7.669   2.081  0.1354  0.1716  0.2409
27024SOL    HW184027   1.783   7.589   2.096  1.7255  1.0662 -0.1732
27024SOL    HW284028   1.673   7.674   2.157 -1.5546 -2.4715 -0.7574
27025SOL     OW84029   7.830   3.064   8.430  0.2704  0.0646  0.1522
27025SOL    HW184030   7.801   3.155   8.423 -0.1290 -0.0767 -0.0580
27025SOL    HW284031   7.777   3.027   8.502  1.5546  0.4270  1.3169
27026SOL     OW84032   5.169   5.972   2.962  0.3833 -0.3885  0.0124
27026SOL    HW184033   5.145   5.943   2.874  0.3114  0.6229 -0.3180
27026SOL    HW284034   5.175   6.068   2.955  0.1470 -0.2721  1.1617
27027SOL     OW84035   1.483   8.004   3.280 -0.3547  0.0494  0.1269
27027SOL    HW184036   1.569   7.980   3.314  0.4340  0.2354 -1.6319
27027SOL    HW284037   1.430   7.925   3.289 -0.4086  0.2810  2.3345
27028SOL     OW84038   0.278   5.025   8.937 -0.0613 -0.3594 -0.7999
27028SOL    HW184039   0.350   4.964   8.918  2.0998  1.6077  0.6171
27028SOL    HW284040   0.311   5.111   8.913 -1.0991  0.9012  1.8487
27029SOL     OW84041   1.267   2.743   7.524 -0.0987 -0.4853  0.4183
27029SOL    HW184042   1.318   2.785   7.594 -1.2908  0.8239  0.5530
27029SOL    HW284043   1.177   2.748   7.555 -0.4130 -2.1032 -0.1457
27030SOL     OW84044   6.052   1.794   5.526 -0.1114  0.0336 -0.2058
27030SOL    HW184045   6.117   1.779   5.457 -1.1043  1.0438 -1.4287
27030SOL    HW284046   5.969   1.803   5.478 -0.9006  0.3479  1.1734
27031SOL     OW84047   4.466   7.638   9.620  0.6664 -0.6775 -0.0372
27031SOL    HW184048   4.425   7.552   9.619  1.2473 -0.9570 -0.1594
27031SOL    HW284049   4.408   7.692   9.673  0.6159 -1.3017  0.5550
27032SOL     OW84050   4.057  10.206   8.263 -0.1823  0.3821  0.1351
27032SOL    HW184051   4.015  10.286   8.231  0.0020  0.0215 -1.0549
27032SOL    HW284052   4.119  10.236   8.328 -0.5585  1.1540  0.1495
27033SOL     OW84053   1.741   4.509   7.681 -0.3274 -0.1681 -0.5406
27033SOL    HW184054   1.678   4.444   7.652 -0.8085  0.1540 -0.2274
27033SOL    HW284055   1.694   4.592   7.678  0.6659  0.3837 -2.2299
27034SOL     OW84056   1.776   9.006   1.367  0.1637 -0.0506  0.6595
27034SOL    HW184057   1.831   9.078   1.334  0.7775 -1.4150 -1.4538
27034SOL    HW284058   1.732   9.044   1.443  0.1761  2.6924 -0.5600
27035SOL     OW84059   7.275   5.975   0.856  0.0726  0.2320  0.1663
27035SOL    HW184060   7.365   5.996   0.877  0.2149 -0.1912  0.0047
27035SOL    HW284061   7.268   5.880   0.871 -1.1056  0.6727  2.9155
27036SOL     OW84062   3.867   8.188  10.393 -0.1101  0.0318 -0.0609
27036SOL    HW184063   3.915   8.265  10.424  1.0202 -0.1584 -1.2084
27036SOL    HW284064   3.884   8.121  10.458 -1.8973  0.9690  1.4610
27037SOL     OW84065   4.751   7.006   0.319 -0.1551  0.3390  0.2680
27037SOL    HW184066   4.837   6.993   0.278 -0.1938 -2.3316  0.8297
27037SOL    HW284067   4.691   7.018   0.246  0.3222 -0.5519 -0.2983
27038SOL     OW84068   0.624  10.446   9.809 -0.1840 -0.4272 -0.5076
27038SOL    HW184069   0.675  10.509   9.758  0.0740 -0.0817  0.1564
27038SOL    HW284070   0.587  10.387   9.744  0.3118 -0.1313 -1.0761
27039SOL     OW84071   6.503   8.293   0.110 -0.3525  0.0437 -0.5073
27039SOL    HW184072   6.520   8.366   0.052  2.8933 -0.3589 -0.2174
27039SOL    HW284073   6.544   8.218   0.068 -0.0994 -0.7550  1.0787
27040SOL     OW84074   5.753   6.997   3.258 -0.1802 -0.0911 -0.1200
27040SOL    HW184075   5.707   6.979   3.340 -1.0072  0.5845 -0.4251
27040SOL    HW284076   5.729   7.087   3.237  0.5850 -0.0312 -0.7455
27041SOL     OW84077   4.254   8.816   4.075 -0.0409  0.3228  0.0298
27041SOL    HW184078   4.290   8.748   4.132 -0.3230  0.3804  0.2798
27041SOL    HW284079   4.309   8.892   4.091 -1.7149  1.1683  2.2498
27042SOL     OW84080   2.699   3.188   8.859 -0.7184 -0.1544  0.1928
27042SOL    HW184081   2.653   3.121   8.809  0.3844 -0.4826 -0.4148
27042SOL    HW284082   2.789   3.182   8.830 -0.4476  1.0686  0.7138
27043SOL     OW84083   7.213   9.212   5.214  0.2396  0.2597 -0.1424
27043SOL    HW184084   7.189   9.260   5.293  0.0391 -0.8548  0.4969
27043SOL    HW284085   7.227   9.122   5.244 -2.3035 -0.7727 -1.7336
27044SOL     OW84086   3.437   0.874   6.194  0.2861  0.5359  0.0218
27044SOL    HW184087   3.411   0.930   6.121 -0.4611 -1.5582 -1.3960
27044SOL    HW284088   3.397   0.915   6.271  0.7281  2.5528 -0.7495
27045SOL     OW84089   2.215   6.069   6.108  1.1166  0.3745 -0.4258
27045SOL    HW184090   2.304   6.070   6.144  0.8221 -0.6962  0.3896
27045SOL    HW284091   2.171   6.142   6.150  1.1544 -0.0788  0.4264
27046SOL     OW84092   7.654   2.939   8.613 -0.2014 -0.6481  0.2213
27046SOL    HW184093   7.578   2.923   8.557 -0.1695 -2.0839  0.5490
27046SOL    HW284094   7.623   3.001   8.679 -0.1714  1.2684 -1.4745
27047SOL     OW84095   7.412   6.517   6.509 -0.2372 -0.1859  0.3151
27047SOL    HW184096   7.450   6.598   6.476  0.1915  0.3577  2.0440
27047SOL    HW284097   7.424   6.454   6.438 -1.9270  1.5940 -1.6856
27048SOL     OW84098   0.839  10.040   8.694 -0.1666 -0.1787 -0.2312
27048SOL    HW184099   0.775   9.969   8.699 -0.0261 -0.3841 -1.1580
27048SOL    HW284100   0.920  10.002   8.728 -0.4417 -0.0085  0.6549
27049SOL     OW84101   5.688   2.045   5.329  0.0349  0.2726 -0.4169
27049SOL    HW184102   5.695   2.137   5.301 -1.5059  0.7092  0.5263
27049SOL    HW284103   5.595   2.024   5.318  0.0836 -0.6928  0.8535
27050SOL     OW84104   5.576   6.630   8.619 -0.0407 -0.5639  0.0248
27050SOL    HW184105   5.495   6.636   8.570  0.2139 -2.4323 -0.6968
27050SOL    HW284106   5.560   6.563   8.685  0.4438  0.1198  0.8687
27051SOL     OW84107   5.505   6.588   9.465  0.0191  0.2281 -0.2963
27051SOL    HW184108   5.490   6.613   9.556 -1.3361 -1.3800 -0.0347
27051SOL    HW284109   5.574   6.522   9.468 -0.2358 -0.0461 -0.3964
27052SOL     OW84110   9.805   6.279   6.811 -0.5402  0.1373  0.0978
27052SOL    HW184111   9.724   6.242   6.848 -0.3119 -0.8089 -0.2971
27052SOL    HW284112   9.789   6.373   6.806 -2.1063 -0.1424 -1.0647
27053SOL     OW84113   1.888   4.161   2.916  0.7277  0.2392  0.0515
27053SOL    HW184114   1.924   4.077   2.889 -0.2477 -0.7116  1.5878
27053SOL    HW284115   1.964   4.218   2.926  1.6114 -1.0335  0.9068
27054SOL     OW84116  10.424  10.404   7.970  0.5363  0.2167 -0.3387
27054SOL    HW184117  10.388  10.492   7.981  0.7878  0.2421  0.3096
27054SOL    HW284118  10.351  10.345   7.988  0.6418  0.2793  0.3310
27055SOL     OW84119   9.576   3.910   2.127  0.1765  0.1267  0.9939
27055SOL    HW184120   9.565   3.970   2.052 -1.3561  0.4377  1.4202
27055SOL    HW284121   9.614   3.831   2.089  2.0330  1.2384  0.3674
27056SOL     OW84122  10.407   4.990   3.635 -0.0663 -0.1113  0.0046
27056SOL    HW184123  10.415   5.059   3.701  2.0688  0.8977 -1.1970
27056SOL    HW284124  10.346   5.024   3.571  0.8317  0.6273 -0.4831
27057SOL     OW84125   3.327   1.886   2.115 -0.1060 -0.0021 -0.2991
27057SOL    HW184126   3.394   1.852   2.056 -0.3889  0.1211 -0.6945
27057SOL    HW284127   3.259   1.819   2.115  1.1669 -1.4225  2.1974
27058SOL     OW84128   1.728   9.989   5.053 -0.0353 -0.1288 -0.3979
27058SOL    HW184129   1.768  10.061   5.005  1.0843 -1.9077 -2.3157
27058SOL    HW284130   1.781   9.981   5.133  0.9479  0.0508 -1.0227
27059SOL     OW84131   3.110   4.090   8.301  0.1198  0.1268 -0.2871
27059SOL    HW184132   3.078   4.012   8.254 -2.7921  1.8974 -1.5173
27059SOL    HW284133   3.090   4.072   8.393  0.3289 -0.9301 -0.4304
27060SOL     OW84134   5.743   5.986   8.069  0.3756  0.4519 -0.5975
27060SOL    HW184135   5.697   5.905   8.089 -0.1072  0.5701 -1.1872
27060SOL    HW284136   5.825   5.958   8.028  1.2949  0.2140  1.3056
27061SOL     OW84137   8.847   9.828   8.830 -0.3001  0.0196  0.3573
27061SOL    HW184138   8.814   9.867   8.910  0.2069 -1.5542  1.3771
27061SOL    HW284139   8.776   9.839   8.767 -0.3959  2.0028  0.7330
27062SOL     OW84140   6.704   3.370   3.996 -0.1756  0.1379  0.3822
27062SOL    HW184141   6.708   3.325   3.911 -0.6321 -0.5301  0.7112
27062SOL    HW284142   6.794   3.399   4.011  0.4153 -1.7368  0.7303
27063SOL     OW84143   0.888   2.693   4.178  0.1056  0.6490 -0.8238
27063SOL    HW184144   0.861   2.777   4.142 -1.3425  0.0320 -1.2324
27063SOL    HW284145   0.914   2.640   4.102 -0.9625  0.0442 -0.7820
27064SOL     OW84146   7.845   1.801   0.093 -0.2210  0.6108 -0.3286
27064SOL    HW184147   7.864   1.725   0.148  1.5052  0.4262 -1.0935
27064SOL    HW284148   7.776   1.772   0.033 -0.4337  0.0487  0.1820
27065SOL     OW84149   4.047   9.745   4.350  0.4554  0.0103  0.3952
27065SOL    HW184150   4.049   9.683   4.277  1.6232  0.7996 -0.2909
27065SOL    HW284151   4.003   9.698   4.421  1.3445 -1.6163 -0.0818
27066SOL     OW84152   2.402   2.159   5.920 -0.1268  0.6585 -0.0662
27066SOL    HW184153   2.375   2.141   6.010  0.1491 -2.2829 -0.4599
27066SOL    HW284154   2.496   2.178   5.926  0.3142 -1.4100  0.1427
27067SOL     OW84155   4.889   5.641   6.982 -0.0483 -0.0778 -0.1534
27067SOL    HW184156   4.911   5.591   6.903 -0.0068 -1.6817  0.8228
27067SOL    HW284157   4.840   5.716   6.950 -0.1588 -0.7682 -1.6997
27068SOL     OW84158   3.287   7.046   6.638  0.3689  0.1904 -1.0864
27068SOL    HW184159   3.332   7.123   6.672 -0.8595  0.1722  0.6801
27068SOL    HW284160   3.336   6.972   6.673  1.9721  0.0555 -3.3397
27069SOL     OW84161   5.048   5.435   1.245 -0.3377  0.7572  0.4862
27069SOL    HW184162   5.140   5.459   1.241 -0.2191  0.3912  0.9148
27069SOL    HW284163   5.043   5.373   1.317 -0.9312  0.8227  0.5029
27070SOL     OW84164   6.270   5.354   0.417 -0.1525  0.2623 -0.7178
27070SOL    HW184165   6.256   5.337   0.324 -0.9584 -1.8111 -0.2889
27070SOL    HW284166   6.288   5.267   0.454 -2.9382  0.4953  1.5373
27071SOL     OW84167   8.902   2.936   6.134  0.2231 -0.2287 -0.0264
27071SOL    HW184168   8.832   2.997   6.156  0.7104  2.4769 -4.5490
27071SOL    HW284169   8.979   2.992   6.121  0.4663 -1.2116 -5.4496
27072SOL     OW84170   3.887   0.834   5.418 -0.3161 -0.3623  0.1735
27072SOL    HW184171   3.822   0.900   5.440 -1.6004 -1.3616 -0.4286
27072SOL    HW284172   3.851   0.752   5.453  2.4106 -0.4809  3.1716
27073SOL     OW84173   4.910   3.201   4.551 -1.0059  0.2560  0.0284
27073SOL    HW184174   5.002   3.217   4.532 -0.8535 -0.8795 -0.2798
27073SOL    HW284175   4.910   3.152   4.633 -1.2773 -0.4231 -0.3673
27074SOL     OW84176   1.438   5.835   7.208 -0.1988  0.0543  0.0510
27074SOL    HW184177   1.409   5.926   7.210  1.6134  0.7388 -1.5628
27074SOL    HW284178   1.419   5.802   7.295 -0.3965  2.1473  0.8581
27075SOL     OW84179   3.388   2.673   1.371 -0.0865  0.3451  0.6746
27075SOL    HW184180   3.299   2.642   1.356  0.6837 -1.3340 -0.8432
27075SOL    HW284181   3.380   2.767   1.383 -1.9863  0.3288 -0.2166
27076SOL     OW84182   7.816   7.955   0.354 -0.2246 -0.2144 -0.3583
27076SOL    HW184183   7.727   7.970   0.323  0.0666  1.5927 -0.4663
27076SOL    HW284184   7.827   7.860   0.351 -2.9778 -0.7388  2.0310
27077SOL     OW84185   8.720   0.373   2.305  0.0831 -0.3681  0.0616
27077SOL    HW184186   8.701   0.350   2.396 -0.5775  0.5074  0.1668
27077SOL    HW284187   8.815   0.379   2.301  0.4472 -4.1563 -0.2758
27078SOL     OW84188   0.174   0.633   6.613 -0.4186 -0.0820 -0.8517
27078SOL    HW184189   0.266   0.637   6.639 -0.4857  0.9231 -0.7130
27078SOL    HW284190   0.176   0.607   6.521  0.0407  0.4605 -1.0036
27079SOL     OW84191   3.526   3.385   8.207  0.3779  1.0894  0.3395
27079SOL    HW184192   3.569   3.305   8.237 -3.0897 -1.2046 -0.1526
27079SOL    HW284193   3.487   3.422   8.286 -1.5847 -0.2079  0.0594
27080SOL     OW84194   0.627   4.184   1.086 -0.8378  0.2874  0.5080
27080SOL    HW184195   0.545   4.225   1.061 -0.4351  1.1754  0.6041
27080SOL    HW284196   0.664   4.242   1.152 -1.5704 -1.6656  2.7883
27081SOL     OW84197   0.598   3.899   2.823 -0.4699 -0.3598  0.0716
27081SOL    HW184198   0.615   3.982   2.777 -0.1602  0.6389  1.8874
27081SOL    HW284199   0.540   3.851   2.765  1.1477  0.1261 -2.0941
27082SOL     OW84200   5.103   1.295   2.123 -0.3252 -1.1876  1.0038
27082SOL    HW184201   5.125   1.358   2.191 -2.3678  2.0619 -1.0965
27082SOL    HW284202   5.186   1.273   2.082  0.3888  1.1628  1.0469
27083SOL     OW84203   0.974   4.181   8.796 -0.2787 -0.0578 -0.0634
27083SOL    HW184204   0.973   4.189   8.891 -0.9818 -0.9090  0.0158
27083SOL    HW284205   1.002   4.091   8.780 -1.6007 -0.3978 -0.6026
27084SOL     OW84206   7.409   3.645   6.624 -0.2206  0.0265  0.0824
27084SOL    HW184207   7.325   3.603   6.610  0.0800 -0.0504 -1.7320
27084SOL    HW284208   7.395   3.736   6.597  0.0101  0.2710  0.7691
27085SOL     OW84209   2.080   0.018   9.303 -0.3395 -0.1950 -0.2426
27085SOL    HW184210   2.175   0.022   9.308 -0.3952  0.9003  0.2446
27085SOL    HW284211   2.051   0.103   9.335 -1.5072 -0.7706  0.2990
27086SOL     OW84212   9.153   5.508   0.811 -0.1758 -0.3513  0.1923
27086SOL    HW184213   9.222   5.573   0.808  1.0375 -1.6197 -0.5932
27086SOL    HW284214   9.130   5.492   0.720 -3.8091  2.2842  0.4056
27087SOL     OW84215   0.973   7.812   8.470 -0.1494 -0.1022  0.0009
27087SOL    HW184216   1.018   7.860   8.539 -0.3058  1.3694 -0.8587
27087SOL    HW284217   0.880   7.826   8.488 -0.2343 -1.2174  0.4838
27088SOL     OW84218   6.725   8.354   4.543  0.4579  0.0280 -0.1223
27088SOL    HW184219   6.809   8.396   4.522  0.5961 -0.8726 -1.5179
27088SOL    HW284220   6.708   8.296   4.469 -0.4580 -1.2485  1.0201
27089SOL     OW84221   3.514   0.675   7.068 -0.5314 -0.3673  0.3167
27089SOL    HW184222   3.577   0.603   7.071 -0.8031 -0.6179  0.0725
27089SOL    HW284223   3.514   0.703   6.976  0.2985  0.5969  0.5914
27090SOL     OW84224   2.409   2.264   4.923 -0.2464  0.1300  0.4209
27090SOL    HW184225   2.420   2.294   5.013 -1.0388  2.7441 -0.2845
27090SOL    HW284226   2.480   2.306   4.874  0.0188 -1.0475 -0.2592
27091SOL     OW84227   9.457   4.770   5.138  0.6947  0.1128  0.2792
27091SOL    HW184228   9.372   4.782   5.097  0.5632 -0.8128  0.2808
27091SOL    HW284229   9.517   4.824   5.085  0.2900 -0.0243 -0.3217
27092SOL     OW84230   5.034   2.058   3.710 -0.5833 -0.2913  0.0956
27092SOL    HW184231   4.956   2.110   3.728 -0.9150 -0.9373  0.5695
27092SOL    HW284232   5.083   2.061   3.792 -1.3855 -2.0374  0.6789
27093SOL     OW84233   5.109   3.431   7.272 -0.1015  0.7441 -0.3660
27093SOL    HW184234   5.143   3.439   7.183 -1.1934  1.6450 -0.7371
27093SOL    HW284235   5.094   3.337   7.284  5.0975 -0.2085  0.9001
27094SOL     OW84236   6.503  10.636   7.911  0.9371 -0.7630  0.4433
27094SOL    HW184237   6.590  10.611   7.941  1.2912 -0.4869 -0.3418
27094SOL    HW284238   6.447  10.563   7.938  1.6884 -1.7051 -0.4755
27095SOL     OW84239   3.927   7.465   2.780 -0.5592  0.4234 -0.2197
27095SOL    HW184240   3.953   7.537   2.838 -2.9040  1.8662 -0.8309
27095SOL    HW284241   3.900   7.395   2.840  0.1965  0.6430  0.3917
27096SOL     OW84242   2.033   1.729   8.214  0.9003  0.3316  0.1554
27096SOL    HW184243   2.067   1.786   8.145 -1.2992  1.5497 -0.0147
27096SOL    HW284244   2.090   1.746   8.289  1.0349  1.8507 -0.2640
27097SOL     OW84245   4.079   6.543   0.096  0.2538  0.2264 -0.5487
27097SOL    HW184246   4.013   6.613   0.096  0.0400  0.0610  0.7342
27097SOL    HW284247   4.028   6.463   0.086  0.4346  0.2000 -1.3077
27098SOL     OW84248   9.621   5.652   8.776  0.0251 -0.0705 -0.5932
27098SOL    HW184249   9.713   5.671   8.795  0.8336 -3.3685 -0.5591
27098SOL    HW284250   9.607   5.687   8.688  1.6365 -0.3406 -0.9860
27099SOL     OW84251   0.533   7.289   4.672  0.0063  0.0320  0.0837
27099SOL    HW184252   0.618   7.293   4.715  0.3395 -0.0826 -0.5415
27099SOL    HW284253   0.519   7.195   4.656 -0.1683  0.0623  0.0539
27100SOL     OW84254   6.179   5.141   4.432 -0.6927 -0.2216 -0.2295
27100SOL    HW184255   6.254   5.199   4.443 -0.7579  0.0236 -0.9965
27100SOL    HW284256   6.207   5.058   4.472  0.3307 -0.4056 -1.2663
27101SOL     OW84257   6.995   9.721   3.064  0.6290  0.0774  0.2894
27101SOL    HW184258   7.016   9.742   3.155 -0.8994  0.4250  0.5940
27101SOL    HW284259   6.981   9.627   3.064 -0.1905  0.1843  0.6236
27102SOL     OW84260   4.052   2.859   9.228  1.1210 -0.7370 -0.3781
27102SOL    HW184261   4.058   2.823   9.140  0.3677  0.4751 -0.9410
27102SOL    HW284262   4.065   2.953   9.217  1.5341 -0.6259  0.8753
27103SOL     OW84263   2.584   2.974   5.646 -0.1701 -0.1361 -0.0532
27103SOL    HW184264   2.580   3.017   5.732  1.8680  1.3865 -0.6590
27103SOL    HW284265   2.609   3.044   5.585  1.3120 -1.7795 -1.4116
27104SOL     OW84266   8.238   1.735   9.529  0.2307 -0.0077  0.2091
27104SOL    HW184267   8.148   1.762   9.548  0.5411  0.6531  0.7626
27104SOL    HW284268   8.270   1.800   9.466  0.3743 -0.1566  0.1257
27105SOL     OW84269   2.624   0.620   9.652 -0.0825  0.1848  0.1246
27105SOL    HW184270   2.601   0.655   9.566 -0.8689  0.1684  0.3195
27105SOL    HW284271   2.709   0.577   9.639  0.4018  1.2552 -0.3520
27106SOL     OW84272   9.801   2.199   4.166 -0.2952 -0.3158 -0.0012
27106SOL    HW184273   9.780   2.220   4.076  0.0104 -0.3559 -0.0848
27106SOL    HW284274   9.722   2.158   4.201 -0.8149  0.7377  0.0975
27107SOL     OW84275   7.074   6.610   1.334  0.1976  0.6727 -0.0525
27107SOL    HW184276   7.013   6.638   1.265 -1.0902  0.6138  1.0094
27107SOL    HW284277   7.050   6.519   1.351  0.5908  0.6472  0.3768
27108SOL     OW84278   1.964   4.081   4.729 -0.2207 -0.0984 -0.5432
27108SOL    HW184279   1.929   4.062   4.816  0.3945  2.0135  0.2262
27108SOL    HW284280   1.889   4.072   4.670 -0.3996 -2.6920 -0.0374
27109SOL     OW84281   0.809   9.589   7.614  0.0120 -0.0348 -0.2552
27109SOL    HW184282   0.835   9.642   7.539 -2.2257  1.3610 -0.1262
27109SOL    HW284283   0.882   9.597   7.675  0.4182  1.6141 -0.8937
27110SOL     OW84284   1.480   7.311   5.634  0.2959  0.3293 -0.0532
27110SOL    HW184285   1.450   7.373   5.701  1.6874  1.1663 -0.1544
27110SOL    HW284286   1.403   7.295   5.580 -0.7555 -0.0639  1.5089
27111SOL     OW84287   2.303   6.436   3.596 -0.1031  0.1268  0.2225
27111SOL    HW184288   2.290   6.345   3.569  1.8112 -0.4606  1.1418
27111SOL    HW284289   2.219   6.461   3.635 -0.8007 -1.0912 -0.4250
27112SOL     OW84290   6.460   4.697   6.549  0.1549 -0.3871  0.0415
27112SOL    HW184291   6.384   4.733   6.504  0.0873 -0.6283 -0.0379
27112SOL    HW284292   6.483   4.619   6.500  0.1588 -0.5822  0.3498
27113SOL     OW84293   1.489   8.587   3.530 -0.3462 -0.1674 -0.3574
27113SOL    HW184294   1.519   8.667   3.572  1.4034 -0.5209 -0.8515
27113SOL    HW284295   1.473   8.612   3.439  0.1672 -0.3500 -0.5035
27114SOL     OW84296   1.701   3.623   5.579 -0.3737  0.4137  0.4510
27114SOL    HW184297   1.657   3.616   5.664 -0.2370 -2.5903  0.3994
27114SOL    HW284298   1.793   3.640   5.601 -0.3644 -0.1994  0.9220
27115SOL     OW84299   4.222   3.058   4.858 -0.5461 -0.6015  0.1095
27115SOL    HW184300   4.224   3.045   4.953 -0.0767 -1.3569  0.0034
27115SOL    HW284301   4.175   2.982   4.824 -0.0244 -0.7432 -0.3219
27116SOL     OW84302   7.234   1.524   5.156  0.3067  0.3567  0.4001
27116SOL    HW184303   7.158   1.562   5.112 -0.5693 -1.2875  0.4041
27116SOL    HW284304   7.204   1.505   5.245 -0.3238 -2.9756 -0.3747
27117SOL     OW84305   6.219   4.694   4.283 -0.0092  0.7450  0.0525
27117SOL    HW184306   6.155   4.762   4.266 -0.2044  0.3936 -0.6616
27117SOL    HW284307   6.238   4.657   4.197 -0.8382 -0.9335  0.5481
27118SOL     OW84308   3.952   8.468   9.252 -0.1482  0.0610 -0.0325
27118SOL    HW184309   3.986   8.380   9.238  1.0945  0.5607 -0.2154
27118SOL    HW284310   3.943   8.475   9.347 -2.2752 -0.9788 -0.0964
27119SOL     OW84311   4.851   8.459   9.356 -0.1633  0.8985  0.2267
27119SOL    HW184312   4.921   8.442   9.293 -0.1441 -1.4304  0.7666
27119SOL    HW284313   4.783   8.394   9.335 -1.4038  1.9478  0.8282
27120SOL     OW84314   0.910   4.430   7.345  0.3865 -0.7840 -0.0033
27120SOL    HW184315   0.867   4.465   7.267  0.7946  0.1640  0.1854
27120SOL    HW284316   0.872   4.478   7.418  2.5329  0.9431  0.0762
27121SOL     OW84317   2.925   3.919   9.410  0.1291 -0.2460 -0.2028
27121SOL    HW184318   2.944   3.952   9.323  0.7845 -1.8180 -0.6945
27121SOL    HW284319   2.837   3.881   9.402 -0.4385  0.9082  0.2456
27122SOL     OW84320   9.067   5.398   7.257  0.0783  0.0644  0.0932
27122SOL    HW184321   9.024   5.333   7.202 -0.7048  0.3570  0.3548
27122SOL    HW284322   9.068   5.359   7.345  0.5339 -0.0290  0.0474
27123SOL     OW84323   1.368   8.566   8.802 -0.6926  0.4201 -0.4497
27123SOL    HW184324   1.324   8.549   8.719  0.0222  1.6297 -1.1193
27123SOL    HW284325   1.448   8.612   8.777 -0.7758  1.3922  0.9448
27124SOL     OW84326   7.316   0.863   8.517 -0.1188  0.5067  0.2479
27124SOL    HW184327   7.304   0.787   8.461  1.0464 -2.6387  3.8696
27124SOL    HW284328   7.230   0.880   8.554  0.2947 -2.2394  2.8804
27125SOL     OW84329   5.858   1.477   8.844  0.0332 -0.3223 -0.3366
27125SOL    HW184330   5.916   1.553   8.836 -0.9049  0.7942  2.3597
27125SOL    HW284331   5.900   1.409   8.792  3.4280  0.6518  0.8737
27126SOL     OW84332   3.550   7.185   0.875  0.0207 -0.0463  0.3276
27126SOL    HW184333   3.548   7.189   0.971 -3.0971  1.1723  0.3333
27126SOL    HW284334   3.499   7.108   0.853 -1.0800  0.8422 -0.3247
27127SOL     OW84335   3.783  10.569   1.770 -0.2849 -0.1449  0.0196
27127SOL    HW184336   3.754  10.479   1.755 -0.4100  0.2118 -2.2566
27127SOL    HW284337   3.706  10.613   1.806 -1.2284 -0.2523 -1.7752
27128SOL     OW84338   3.902   0.204   2.955 -0.0944 -0.3710 -0.4914
27128SOL    HW184339   3.909   0.296   2.980 -0.2167 -0.9744  2.0113
27128SOL    HW284340   3.840   0.204   2.882  1.3087  1.6839 -1.7803
27129SOL     OW84341   2.039   4.009   4.216  0.5242 -0.0003 -0.1721
27129SOL    HW184342   1.961   4.015   4.161  0.6497 -1.7486 -0.5914
27129SOL    HW284343   2.101   3.958   4.165  1.0515 -0.7152  1.1307
27130SOL     OW84344   8.481   1.504   1.649 -0.1428 -0.2612  0.9196
27130SOL    HW184345   8.501   1.417   1.683  2.1847  0.4496  1.5292
27130SOL    HW284346   8.537   1.514   1.573  0.7035  1.2036  1.6859
27131SOL     OW84347   5.628   8.812   0.679  0.4268  0.4111 -0.1525
27131SOL    HW184348   5.722   8.798   0.688 -0.0054 -1.5128  2.6621
27131SOL    HW284349   5.593   8.726   0.655 -0.6762  1.0752 -1.0475
27132SOL     OW84350   6.354   9.617   0.753 -0.1831 -0.2205 -0.3376
27132SOL    HW184351   6.441   9.578   0.759 -0.5034 -0.7290  1.6981
27132SOL    HW284352   6.368   9.699   0.706  1.6623  0.4331  1.2447
27133SOL     OW84353   4.162   0.445   3.977 -0.1454 -0.3068 -0.5284
27133SOL    HW184354   4.120   0.498   3.909  1.2873  0.2111 -1.0513
27133SOL    HW284355   4.216   0.383   3.929  2.3246  1.2281  0.0529
27134SOL     OW84356   0.332  10.553   2.407 -0.3435 -0.0912  0.7043
27134SOL    HW184357   0.399  10.495   2.443 -0.6499  0.1340  1.6754
27134SOL    HW284358   0.382  10.618   2.357  0.4120  1.2256  2.9850
27135SOL     OW84359   2.689   1.321   9.384 -0.2248 -0.1840  0.4192
27135SOL    HW184360   2.633   1.244   9.372  0.1532 -0.1382 -2.3701
27135SOL    HW284361   2.639   1.393   9.346  0.4654  0.4572  0.7125
27136SOL     OW84362   6.087   1.007   3.281 -0.1917 -0.6017  0.0515
27136SOL    HW184363   6.037   0.938   3.325 -0.8861  0.4888  1.0255
27136SOL    HW284364   6.096   1.076   3.347 -1.1437  1.0258 -1.4385
27137SOL     OW84365   8.169  10.330   2.199  0.5368  0.0756 -0.2594
27137SOL    HW184366   8.147  10.319   2.291  0.5876  1.1124 -0.1171
27137SOL    HW284367   8.087  10.312   2.152  0.3202  0.3100  0.0308
27138SOL     OW84368   7.880   3.787   2.650  0.1511  0.4075  0.1299
27138SOL    HW184369   7.808   3.787   2.713  2.1162  0.2937  2.5343
27138SOL    HW284370   7.886   3.696   2.621  0.2110  0.1038  1.0492
27139SOL     OW84371   6.885   6.157   3.012  0.6562 -0.6995  0.2357
27139SOL    HW184372   6.864   6.240   2.968  0.0923 -0.3483  1.1252
27139SOL    HW284373   6.815   6.098   2.984 -1.6138  0.4165  3.0365
27140SOL     OW84374   6.110   3.841   3.803 -0.2451 -0.5204  0.2587
27140SOL    HW184375   6.116   3.800   3.890  0.6699 -0.3652  0.2745
27140SOL    HW284376   6.023   3.816   3.771  0.3264 -2.6318  0.1953
27141SOL     OW84377   7.908   2.687   8.620 -0.3230 -0.2248  0.3002
27141SOL    HW184378   7.968   2.615   8.603  2.1761  1.9476 -0.9446
27141SOL    HW284379   7.840   2.679   8.553  0.8390 -0.5204 -0.8751
27142SOL     OW84380   8.403  10.038   1.756  0.2592  0.1091  0.6897
27142SOL    HW184381   8.408  10.108   1.822  0.5794  0.5596  0.2009
27142SOL    HW284382   8.316  10.047   1.718  0.4400  0.5052  0.3559
27143SOL     OW84383   9.684   4.279   2.445  0.1841 -0.1846 -0.3943
27143SOL    HW184384   9.601   4.289   2.399  0.7663  0.1388 -1.4015
27143SOL    HW284385   9.750   4.311   2.383  0.9802  0.3693  0.7189
27144SOL     OW84386  10.616   1.070   8.802 -0.0328 -0.2455 -0.0913
27144SOL    HW184387  10.522   1.090   8.805 -0.1618 -0.8581  0.1042
27144SOL    HW284388  10.629   1.031   8.716 -0.1452 -1.0238  0.2329
27145SOL     OW84389   3.906   2.221   1.590 -0.7654  0.0298  0.3376
27145SOL    HW184390   3.825   2.271   1.590 -0.9342 -0.1088 -1.9328
27145SOL    HW284391   3.887   2.145   1.534  0.2354 -1.2638  1.6797
27146SOL     OW84392   1.063   4.325   2.588 -0.2451 -0.1453  0.2818
27146SOL    HW184393   1.121   4.389   2.548  0.8522 -2.1186 -1.4987
27146SOL    HW284394   1.020   4.372   2.659  3.6211  1.4320  1.8472
27147SOL     OW84395   8.249   6.920   7.908 -0.2240 -0.3902  0.5290
27147SOL    HW184396   8.254   6.869   7.989  1.1398 -1.5776 -0.2606
27147SOL    HW284397   8.196   6.867   7.849 -0.0875 -0.1672  0.2062
27148SOL     OW84398   6.783   2.257   9.143  0.1658  0.2307 -0.0268
27148SOL    HW184399   6.859   2.276   9.196 -1.1351 -0.0443  2.0457
27148SOL    HW284400   6.760   2.166   9.164 -0.6817  0.2715 -0.6687
27149SOL     OW84401   3.502   9.566   5.079  0.1672 -0.4507  0.5521
27149SOL    HW184402   3.425   9.561   5.022  1.5224  0.4865 -1.5088
27149SOL    HW284403   3.481   9.632   5.144 -0.2884  0.8511 -0.8593
27150SOL     OW84404   2.114   2.645   7.663  0.0294 -0.2349 -0.4394
27150SOL    HW184405   2.057   2.581   7.620 -1.2537  0.9006 -0.4685
27150SOL    HW284406   2.201   2.603   7.663 -1.1657 -3.0503  1.7042
27151SOL     OW84407  10.239   8.056   2.835  0.1098 -0.1512  0.6078
27151SOL    HW184408  10.247   8.101   2.751 -1.6046  0.3962  0.7005
27151SOL    HW284409  10.237   8.126   2.900 -0.6886 -0.4464  0.9130
27152SOL     OW84410   7.360   6.746  10.275 -0.1801  0.0023  0.2392
27152SOL    HW184411   7.272   6.780  10.255  0.4806  1.5829 -0.1823
27152SOL    HW284412   7.367   6.754  10.370 -0.1953  0.6804  0.1889
27153SOL     OW84413   1.556   9.856   4.012 -0.0926  0.0860  0.5234
27153SOL    HW184414   1.646   9.823   4.009  0.1029  0.6476 -0.0528
27153SOL    HW284415   1.510   9.807   3.944 -0.7084 -1.5139  2.0060
27154SOL     OW84416   5.061   2.516   6.705 -0.0718  0.2097  0.4358
27154SOL    HW184417   5.104   2.601   6.718 -0.8445  0.5575  0.8050
27154SOL    HW284418   5.114   2.472   6.639  0.1092  1.1595 -0.0688
27155SOL     OW84419   7.443   9.702   4.997 -1.0821  0.1876  0.3264
27155SOL    HW184420   7.396   9.627   5.032  0.7452 -0.9557  0.4175
27155SOL    HW284421   7.468   9.676   4.909 -1.0021  0.9564  0.1146
27156SOL     OW84422   6.734   6.552   4.682 -0.4975  0.3811 -0.1768
27156SOL    HW184423   6.779   6.603   4.614 -0.5924 -0.8814 -1.2300
27156SOL    HW284424   6.738   6.607   4.760  2.1788  0.6355 -0.4243
27157SOL     OW84425   3.442   0.345  10.446  0.3885  0.2320  0.4007
27157SOL    HW184426   3.476   0.383  10.365  0.2463  1.0450  0.7103
27157SOL    HW284427   3.467   0.253  10.442  0.4674  0.2879 -0.5203
27158SOL     OW84428   7.480   9.869   4.292 -0.0557 -0.1908  0.6677
27158SOL    HW184429   7.530   9.789   4.306 -0.5505 -0.4062  1.2246
27158SOL    HW284430   7.543   9.940   4.309  0.2160 -0.4563  0.7785
27159SOL     OW84431   7.552   5.312   6.582  0.5277 -0.1381 -0.1389
27159SOL    HW184432   7.572   5.394   6.538  1.7921  0.1773  0.9482
27159SOL    HW284433   7.636   5.283   6.618 -0.2865 -0.8071  1.3095
27160SOL     OW84434   1.023   7.312   8.338 -0.0464  0.0828 -0.4080
27160SOL    HW184435   1.052   7.387   8.389 -1.7645 -0.3403  1.2897
27160SOL    HW284436   1.104   7.263   8.320  0.7841  1.0182  0.6518
27161SOL     OW84437   8.976   4.644   8.269  0.0042 -0.2538  0.3730
27161SOL    HW184438   8.900   4.699   8.288 -0.1944 -0.6352  0.7100
27161SOL    HW284439   8.953   4.598   8.188 -0.4546 -0.9408  0.8782
27162SOL     OW84440   7.255   5.433   4.623  0.0075  0.3069 -0.0183
27162SOL    HW184441   7.319   5.452   4.554  0.5808  0.4242  0.5381
27162SOL    HW284442   7.190   5.376   4.580  1.0443 -0.6854 -0.3283
27163SOL     OW84443   3.455   1.516   3.028 -0.8480 -0.2876 -0.0386
27163SOL    HW184444   3.473   1.472   3.111 -0.9724 -0.5414 -0.1453
27163SOL    HW284445   3.489   1.604   3.040 -2.1924  0.1486  0.8140
27164SOL     OW84446  10.642   6.375   0.684  0.5647 -0.2913 -0.3299
27164SOL    HW184447  10.733   6.368   0.656  0.1908  1.1009 -2.0798
27164SOL    HW284448  10.597   6.415   0.610 -1.3587 -0.3275  0.7450
27165SOL     OW84449   4.934   1.733   1.587 -0.1163  0.2788 -0.2277
27165SOL    HW184450   4.855   1.732   1.533 -1.1267 -1.0447  1.1791
27165SOL    HW284451   4.911   1.788   1.662 -0.7049 -2.1112  1.4757
27166SOL     OW84452   3.508   8.497   4.286 -0.0972 -0.3048  0.4043
27166SOL    HW184453   3.523   8.459   4.200  1.2224 -1.5222  1.1293
27166SOL    HW284454   3.579   8.560   4.298 -2.3614  2.6980 -0.8586
27167SOL     OW84455   9.812   3.632   7.757  0.1469  0.1429 -0.3672
27167SOL    HW184456   9.774   3.717   7.735  0.0731 -0.2242 -1.7367
27167SOL    HW284457   9.743   3.588   7.806 -0.5908  0.1198 -1.3911
27168SOL     OW84458   4.675   7.603   6.712 -0.2726  0.4846 -0.1804
27168SOL    HW184459   4.599   7.648   6.675  0.3775 -0.5760 -3.0625
27168SOL    HW284460   4.649   7.581   6.801 -1.7826  3.6476  0.3109
27169SOL     OW84461   0.570   6.130  10.138 -0.5882  0.1081  0.0565
27169SOL    HW184462   0.563   6.150  10.231 -1.5619  3.2715 -0.5835
27169SOL    HW284463   0.506   6.060  10.123  0.3698 -1.2404  1.8847
27170SOL     OW84464   5.445   3.223   6.368 -0.1561 -0.7299 -0.2245
27170SOL    HW184465   5.516   3.230   6.305 -0.1363 -0.2653 -0.1568
27170SOL    HW284466   5.375   3.177   6.322 -1.2191  2.0353 -1.5712
27171SOL     OW84467   5.374   6.044   1.351  0.4001 -0.5525  0.6787
27171SOL    HW184468   5.333   5.972   1.303 -0.7930  0.7121 -0.2856
27171SOL    HW284469   5.464   6.045   1.319 -0.5171  0.7172 -2.2909
27172SOL     OW84470   3.727   2.363   8.276 -0.5913  0.3014  0.4604
27172SOL    HW184471   3.743   2.449   8.237  1.0384  0.2162  0.9083
27172SOL    HW284472   3.807   2.313   8.260 -1.8750 -1.5310 -0.7477
27173SOL     OW84473   4.527   6.839   1.638  0.0218  0.2942 -0.4371
27173SOL    HW184474   4.464   6.792   1.583 -2.3688  2.5766  0.1225
27173SOL    HW284475   4.552   6.915   1.586 -0.7976  1.4710  0.8076
27174SOL     OW84476   6.264  10.216   6.055  0.0645 -0.2565  0.2352
27174SOL    HW184477   6.183  10.261   6.077  0.3792 -0.4315  1.8580
27174SOL    HW284478   6.236  10.134   6.014 -0.5902 -0.3777  0.9029
27175SOL     OW84479   9.353   9.676   2.323  0.3766 -0.0858 -0.3795
27175SOL    HW184480   9.288   9.724   2.375 -0.8583 -1.4634 -0.5660
27175SOL    HW284481   9.368   9.731   2.246 -0.3072  0.4322 -0.1557
27176SOL     OW84482   7.494   5.331   2.311 -0.3452  0.4225 -0.2873
27176SOL    HW184483   7.517   5.247   2.271 -0.1339  0.6215 -0.5838
27176SOL    HW284484   7.517   5.320   2.404 -0.4016  0.1239 -0.3063
27177SOL     OW84485   8.185   2.046   7.763  0.0671  0.1734 -0.8759
27177SOL    HW184486   8.125   2.011   7.828 -1.2733  1.2660 -1.4860
27177SOL    HW284487   8.229   1.969   7.726 -1.0559 -0.6585 -0.5072
27178SOL     OW84488   0.723   4.374   6.384  0.3337  0.0932 -0.1340
27178SOL    HW184489   0.765   4.436   6.324 -0.9775  0.2852 -0.8921
27178SOL    HW284490   0.631   4.401   6.386 -0.0163 -1.0866  0.4848
27179SOL     OW84491   5.722   9.364   8.909  0.2880  0.2916  0.0802
27179SOL    HW184492   5.708   9.444   8.859  0.1285 -0.1522 -0.6054
27179SOL    HW284493   5.700   9.293   8.848  2.0310 -0.3360  0.1245
27180SOL     OW84494   6.337   3.432   1.984  0.0426 -0.0860 -0.3790
27180SOL    HW184495   6.383   3.358   1.945  0.9041  0.3814 -0.2748
27180SOL    HW284496   6.363   3.430   2.077 -1.3853 -0.7388  0.0291
27181SOL     OW84497   1.823   9.153   4.440  0.1214  0.2085  0.1455
27181SOL    HW184498   1.824   9.207   4.361  2.1476 -0.7852 -0.5647
27181SOL    HW284499   1.737   9.112   4.440 -0.2056  0.8409 -1.1038
27182SOL     OW84500   0.844   0.521   9.879  1.0439  0.1959 -0.1987
27182SOL    HW184501   0.796   0.473   9.946  0.0110  1.0980 -0.2750
27182SOL    HW284502   0.792   0.510   9.800 -0.3479  3.0625  0.1979
27183SOL     OW84503   7.486   8.062   3.212  0.4148  0.0081  0.2162
27183SOL    HW184504   7.508   8.041   3.121  1.8626  1.5452  0.1792
27183SOL    HW284505   7.395   8.091   3.208 -0.5858 -2.8282 -0.2169
27184SOL     OW84506   8.207   3.796   0.956 -0.0180 -0.6593 -0.1803
27184SOL    HW184507   8.217   3.830   0.867 -0.9156 -1.2717 -0.5440
27184SOL    HW284508   8.125   3.745   0.952 -0.5605  0.0649  1.2331
27185SOL     OW84509   1.232  10.438   8.933  0.0672  0.4987  0.4160
27185SOL    HW184510   1.186  10.372   8.984  1.5047 -1.2449 -0.4379
27185SOL    HW284511   1.304  10.390   8.891  0.6116  2.4220 -0.9773
27186SOL     OW84512   2.844   1.419   1.449  0.1972  0.3526  0.4247
27186SOL    HW184513   2.779   1.415   1.379 -0.7039 -0.0350  1.2535
27186SOL    HW284514   2.861   1.513   1.460  0.0542  0.4366 -0.0483
27187SOL     OW84515   5.036   5.270   2.390  0.0532 -0.0496  0.3484
27187SOL    HW184516   4.973   5.210   2.350  0.3863  0.8084 -1.5304
27187SOL    HW284517   4.990   5.354   2.396  0.0333 -0.1330  1.7482
27188SOL     OW84518   6.457   3.012   6.068  0.0551 -0.0878  0.6388
27188SOL    HW184519   6.478   3.003   6.161  0.3559  2.8010  0.9304
27188SOL    HW284520   6.506   3.089   6.040 -1.2099 -0.0054 -1.5461
27189SOL     OW84521   1.660   0.637   2.567 -0.3045  0.3500  0.0599
27189SOL    HW184522   1.692   0.563   2.514 -0.3988  1.0181 -0.9642
27189SOL    HW284523   1.572   0.611   2.593 -0.0608 -0.2169  0.3328
27190SOL     OW84524   4.762   0.489   8.135 -0.0453 -0.1584 -0.1975
27190SOL    HW184525   4.708   0.522   8.207  1.1933  0.7813  0.3573
27190SOL    HW284526   4.852   0.496   8.169  0.4906 -0.7226 -1.4515
27191SOL     OW84527   1.533   8.732   1.046 -0.0072  0.3493 -0.0102
27191SOL    HW184528   1.563   8.642   1.052 -2.0393 -0.2554  3.9308
27191SOL    HW284529   1.455   8.728   0.990  0.1845 -0.2559 -0.2347
27192SOL     OW84530   6.854   7.863   6.657  0.1254 -0.4483 -0.0808
27192SOL    HW184531   6.815   7.788   6.703 -0.6621 -0.2837 -0.4517
27192SOL    HW284532   6.781   7.900   6.607  0.6880  0.1026 -0.5047
27193SOL     OW84533   5.764   9.999   7.779  0.4346  0.0334 -0.8126
27193SOL    HW184534   5.702  10.051   7.829  0.7468  1.1913 -1.5926
27193SOL    HW284535   5.725   9.992   7.692  2.2606  2.5429 -1.9484
27194SOL     OW84536   9.663   3.541   3.970  0.0469 -0.5572  0.4350
27194SOL    HW184537   9.590   3.568   3.915 -0.2150 -1.2924  0.4054
27194SOL    HW284538   9.630   3.464   4.017  0.2709  0.0422  1.6079
27195SOL     OW84539   0.495   0.856   8.089  0.0784  0.2196  0.3834
27195SOL    HW184540   0.456   0.925   8.143 -2.2632 -0.5236 -0.2620
27195SOL    HW284541   0.427   0.833   8.026  0.4961 -3.1330  0.9658
27196SOL     OW84542   3.814   9.833   1.021 -0.3367  0.5925 -0.2911
27196SOL    HW184543   3.788   9.754   1.068 -1.3243 -0.9634 -3.2030
27196SOL    HW284544   3.801   9.904   1.084 -1.6232 -1.3002  1.7088
27197SOL     OW84545   5.369   3.424   4.121 -0.7541  0.0002  0.1883
27197SOL    HW184546   5.319   3.376   4.055 -1.5034  2.7854 -1.4154
27197SOL    HW284547   5.324   3.508   4.129  1.1671  0.9471  1.9628
27198SOL     OW84548   0.028   6.727   9.238  0.0245  0.0668 -0.3826
27198SOL    HW184549   0.086   6.757   9.168  1.3340  1.3952  1.1779
27198SOL    HW284550   0.054   6.779   9.314 -0.2766 -2.3714  1.5023
27199SOL     OW84551   6.080   3.416   9.081 -0.3213 -0.4387 -0.2504
27199SOL    HW184552   6.165   3.422   9.037 -0.4867 -0.1192 -0.5383
27199SOL    HW284553   6.017   3.439   9.012 -0.5287  0.9824  0.3936
27200SOL     OW84554   5.652   1.190   6.076  0.0582 -0.2048  0.5423
27200SOL    HW184555   5.660   1.224   6.165 -1.6533 -0.3831  0.8012
27200SOL    HW284556   5.702   1.109   6.076  1.5042  0.6612  0.8323
27201SOL     OW84557   9.547  10.251   8.865 -0.3869 -0.2760  0.2666
27201SOL    HW184558   9.584  10.237   8.778 -0.7911 -0.4730  0.1236
27201SOL    HW284559   9.599  10.195   8.923  0.9340  1.0610  0.4228
27202SOL     OW84560   1.772   4.881   9.851  0.7692 -0.5955  0.0147
27202SOL    HW184561   1.685   4.917   9.832  0.3764 -1.3194  0.3809
27202SOL    HW284562   1.821   4.954   9.888  0.6102  0.0540 -1.0456
27203SOL     OW84563   8.928   8.599   3.340 -0.4294  0.1179  0.3317
27203SOL    HW184564   8.902   8.692   3.343  2.5971  1.1755 -1.8035
27203SOL    HW284565   8.993   8.590   3.409  2.4801  0.9042 -2.0572
27204SOL     OW84566   0.941   4.391   9.309 -0.3847  0.3125 -0.0041
27204SOL    HW184567   0.925   4.309   9.263  2.3165 -0.6362  0.5497
27204SOL    HW284568   0.931   4.370   9.402  2.0007  0.0696  0.2605
27205SOL     OW84569   1.923   6.675   7.029 -0.0590  0.1269  0.6949
27205SOL    HW184570   1.833   6.707   7.038 -0.3503 -0.6182  0.5435
27205SOL    HW284571   1.939   6.626   7.110 -0.7781 -2.0424 -0.3854
27206SOL     OW84572   9.437   2.474   8.397 -0.1921 -0.0348 -0.1000
27206SOL    HW184573   9.416   2.416   8.323  1.5223  0.6481 -1.1837
27206SOL    HW284574   9.462   2.415   8.468 -0.8981 -0.6806 -0.3767
27207SOL     OW84575   4.774   0.430   8.729 -0.0098  0.5624 -0.2617
27207SOL    HW184576   4.784   0.522   8.705 -0.2966  0.6283 -0.1307
27207SOL    HW284577   4.863   0.399   8.745 -0.0216  1.2206  1.2052
27208SOL     OW84578   9.596   7.962   1.153 -0.1058  0.1965  0.4177
27208SOL    HW184579   9.560   7.894   1.097  0.5372  0.3999 -0.2565
27208SOL    HW284580   9.663   7.918   1.205  0.4614  0.3476 -0.1725
27209SOL     OW84581   3.724   9.498   5.445 -0.0607  0.0220 -0.5010
27209SOL    HW184582   3.817   9.489   5.425 -0.0835 -0.0799 -0.5652
27209SOL    HW284583   3.714   9.463   5.533 -0.0395  0.0239 -0.4979
27210SOL     OW84584   0.927   6.110  10.593  0.5325 -0.0930 -0.2441
27210SOL    HW184585   0.998   6.143  10.538  0.8420 -0.0797  0.1600
27210SOL    HW284586   0.954   6.130  10.683  0.3055 -0.6263 -0.0484
27211SOL     OW84587   8.688   5.404   2.127  0.2598  0.5511  0.0354
27211SOL    HW184588   8.772   5.439   2.156  1.0781 -0.1402 -1.4183
27211SOL    HW284589   8.626   5.434   2.193  1.4045  2.2571  0.4093
27212SOL     OW84590   9.925   8.233   0.517  0.1870 -0.1824  0.0785
27212SOL    HW184591   9.861   8.262   0.581  0.9640 -0.1276  0.8524
27212SOL    HW284592   9.968   8.313   0.487  0.2775 -0.2663 -0.0196
27213SOL     OW84593   0.833   7.287   4.555  0.4137 -0.3857 -0.5512
27213SOL    HW184594   0.816   7.204   4.510  1.3046 -0.6913 -0.3356
27213SOL    HW284595   0.824   7.266   4.648 -0.8887  0.1237 -0.5412
27214SOL     OW84596   1.837   3.275   5.546  0.3037 -0.0882 -0.1246
27214SOL    HW184597   1.805   3.334   5.615  1.2976  1.1230 -0.6469
27214SOL    HW284598   1.928   3.302   5.533  0.3725 -0.8524 -1.3377
27215SOL     OW84599   8.606   8.614   5.768  0.4524  0.2922  0.0389
27215SOL    HW184600   8.644   8.676   5.706 -0.1827  1.4148  0.7474
27215SOL    HW284601   8.547   8.560   5.714  0.7987  0.4803 -0.5385
27216SOL     OW84602   2.279   5.874   4.944  0.3799 -0.2740  0.0132
27216SOL    HW184603   2.281   5.919   5.028  1.1438 -0.8266  0.3018
27216SOL    HW284604   2.187   5.873   4.919  0.1672  0.0163  0.7762
27217SOL     OW84605  10.670  10.203   2.744  0.4695  0.4877 -0.1073
27217SOL    HW184606  10.613  10.272   2.711 -0.3994 -0.7197 -1.2706
27217SOL    HW284607  10.738  10.195   2.677 -0.2172 -0.6748 -0.7119
27218SOL     OW84608   9.281   8.881   5.692  0.3938 -0.3156 -0.4315
27218SOL    HW184609   9.281   8.898   5.598  1.7475 -0.8114 -0.5472
27218SOL    HW284610   9.219   8.810   5.705 -0.6782  0.5338 -0.7771
27219SOL     OW84611   9.190   2.463   9.906  0.2736 -0.3366 -0.2197
27219SOL    HW184612   9.256   2.422   9.962 -0.4433  0.1331  1.0089
27219SOL    HW284613   9.107   2.452   9.954 -0.0967  1.6165 -0.3347
27220SOL     OW84614   8.645   0.882   3.495 -0.0598  0.3967  0.4628
27220SOL    HW184615   8.677   0.870   3.584 -0.0924  0.9797  0.5509
27220SOL    HW284616   8.613   0.972   3.492  3.2860  1.7268 -1.1442
27221SOL     OW84617   9.940   5.278   2.151 -0.1076 -0.1769  0.5500
27221SOL    HW184618   9.963   5.196   2.108  0.1247 -0.4947  1.2649
27221SOL    HW284619   9.993   5.280   2.230  0.6474  1.1504  0.0541
27222SOL     OW84620   6.068   0.158   1.649 -0.0228 -0.3335 -0.3235
27222SOL    HW184621   6.042   0.159   1.556  0.5388 -4.4332 -0.7105
27222SOL    HW284622   5.985   0.162   1.697 -0.3063  2.1435 -0.8509
27223SOL     OW84623  10.257   6.051   5.798 -0.3286  0.4940 -0.0122
27223SOL    HW184624  10.294   6.139   5.801 -0.7553  0.6621  2.2151
27223SOL    HW284625  10.269   6.017   5.887  1.7912 -2.5546 -1.2468
27224SOL     OW84626   5.019   8.229   6.463 -0.3930 -0.9041 -0.3331
27224SOL    HW184627   4.949   8.282   6.500  0.1675  0.5943 -1.3188
27224SOL    HW284628   5.070   8.201   6.538 -1.1190 -0.6553  0.2702
27225SOL     OW84629   9.210   2.652  10.569  0.2124  0.0984 -0.5402
27225SOL    HW184630   9.273   2.709  10.527  0.1060  1.5894  1.1957
27225SOL    HW284631   9.182   2.700  10.647 -1.8987 -1.1896 -0.4228
27226SOL     OW84632   3.312   7.402   5.141  0.9316 -0.5643 -0.4325
27226SOL    HW184633   3.271   7.379   5.225 -0.9378 -1.4086 -1.5177
27226SOL    HW284634   3.351   7.488   5.157 -2.6561  1.1381  0.3314
27227SOL     OW84635   2.475   5.590   0.892 -0.6232 -0.2147  0.5995
27227SOL    HW184636   2.506   5.665   0.943 -2.4925  0.1749  1.2265
27227SOL    HW284637   2.499   5.513   0.944  3.3498 -0.3472 -1.0870
27228SOL     OW84638   6.976   2.324  10.350  0.1247  0.4841  0.0138
27228SOL    HW184639   6.979   2.231  10.371  1.7265 -0.1079 -2.4692
27228SOL    HW284640   7.007   2.367  10.430 -1.8609 -0.9411  1.6713
27229SOL     OW84641   7.660   3.716   3.753 -0.1508 -0.4037  0.2893
27229SOL    HW184642   7.639   3.808   3.763 -0.8755 -0.1876 -2.3519
27229SOL    HW284643   7.742   3.715   3.703  0.5955 -1.2371  1.4612
27230SOL     OW84644   2.433   5.650   4.877 -0.3385 -0.9515 -0.1769
27230SOL    HW184645   2.503   5.639   4.941  1.3689 -2.0056 -2.0868
27230SOL    HW284646   2.380   5.722   4.911  3.3504  2.0047  0.0329
27231SOL     OW84647   2.634  10.516   4.609  0.2563  0.0302 -0.2753
27231SOL    HW184648   2.645  10.512   4.514  0.4460 -0.5385 -0.2287
27231SOL    HW284649   2.561  10.457   4.627  0.5879 -0.2975 -0.0047
27232SOL     OW84650   2.531   0.213  10.506  0.0843 -0.0835 -0.0789
27232SOL    HW184651   2.523   0.275  10.578 -0.1110 -0.8225  0.5425
27232SOL    HW284652   2.626   0.204  10.493  0.1571 -0.6889  0.7513
27233SOL     OW84653   8.435   6.772   0.705 -0.2079  0.2067  0.0938
27233SOL    HW184654   8.376   6.773   0.780 -0.3015  1.7250  0.0489
27233SOL    HW284655   8.518   6.807   0.739 -0.0636  0.3227 -0.3657
27234SOL     OW84656   4.289   1.675   3.789 -0.1717  0.3742  0.0345
27234SOL    HW184657   4.278   1.684   3.884  1.0490 -0.1128  0.2444
27234SOL    HW284658   4.218   1.617   3.762 -0.3298  0.2457  0.7090
27235SOL     OW84659   5.563   6.563   3.397  0.3469 -0.2050 -0.5951
27235SOL    HW184660   5.576   6.636   3.457 -0.6887  3.4006 -4.3335
27235SOL    HW284661   5.480   6.582   3.354  0.5775 -3.0333 -2.5448
27236SOL     OW84662   3.705   7.728   8.888 -0.0089 -0.3910  0.2107
27236SOL    HW184663   3.656   7.807   8.911  1.1515 -0.1247  1.9520
27236SOL    HW284664   3.651   7.685   8.823 -0.8881  1.6151 -0.4679
27237SOL     OW84665   9.580   0.483   3.996  0.2045  0.0943 -0.1711
27237SOL    HW184666   9.623   0.434   3.926  2.0207  0.4318  0.6401
27237SOL    HW284667   9.599   0.432   4.075  0.1100  0.8958  0.3733
27238SOL     OW84668   4.359   2.059   7.246  0.1093  0.0219 -0.6104
27238SOL    HW184669   4.426   2.032   7.184  1.2523 -0.3295  0.7176
27238SOL    HW284670   4.285   2.000   7.228  0.7161 -0.6149 -1.1006
27239SOL     OW84671   6.359   0.385   2.230 -0.4474 -0.0452 -0.1031
27239SOL    HW184672   6.443   0.425   2.211 -1.5680  2.5009 -0.1182
27239SOL    HW284673   6.320   0.367   2.144 -0.2686 -0.4530 -0.1005
27240SOL     OW84674   9.703   5.001   6.847  0.0490  0.8104  0.1034
27240SOL    HW184675   9.749   4.991   6.930 -0.3100  0.9097  0.3182
27240SOL    HW284676   9.640   5.072   6.863  0.6408  1.4884 -0.5493
27241SOL     OW84677   2.488   8.560   5.257  0.0360  0.2597  0.2747
27241SOL    HW184678   2.543   8.549   5.180  0.7253 -1.7001  0.9830
27241SOL    HW284679   2.540   8.615   5.316  0.6694 -0.4244  0.3734
27242SOL     OW84680   4.260   8.376   7.328 -0.3253  0.4728 -0.1744
27242SOL    HW184681   4.344   8.423   7.335 -0.3706  0.4402  0.8458
27242SOL    HW284682   4.271   8.301   7.386 -0.7109 -0.0881 -0.8235
27243SOL     OW84683   1.118   1.171   2.309 -0.0541 -0.0128  0.0172
27243SOL    HW184684   1.052   1.103   2.322 -1.4671  1.0301 -1.3133
27243SOL    HW284685   1.126   1.212   2.395  0.0935 -1.1959  0.5930
27244SOL     OW84686   0.604   0.106   8.946  0.4699 -0.0391  0.6026
27244SOL    HW184687   0.617   0.200   8.936 -1.7651  0.2467 -0.1783
27244SOL    HW284688   0.535   0.084   8.884  1.0271 -2.2403  0.6684
27245SOL     OW84689   2.444   6.564   5.689  0.0940  0.1443  0.1062
27245SOL    HW184690   2.432   6.471   5.667 -2.1215  0.4894 -0.4306
27245SOL    HW284691   2.376   6.609   5.639  2.8452  2.4569 -1.9325
27246SOL     OW84692   2.098   3.341   1.869  0.4313 -0.0755 -0.5945
27246SOL    HW184693   2.080   3.262   1.920 -0.3132 -0.0935 -0.8689
27246SOL    HW284694   2.169   3.385   1.916 -1.3546  0.7884  1.4899
27247SOL     OW84695   1.390   2.432   5.477  0.0423  0.1474 -0.6140
27247SOL    HW184696   1.330   2.362   5.453 -0.6960  0.4394  0.3166
27247SOL    HW284697   1.426   2.463   5.394 -0.0658 -0.9333 -1.0757
27248SOL     OW84698   6.841   6.368   4.922  0.8964  0.6667  0.3262
27248SOL    HW184699   6.749   6.349   4.902  1.4271  0.1559 -1.9455
27248SOL    HW284700   6.862   6.310   4.995 -0.3414  0.1447  0.3034
27249SOL     OW84701   9.364   9.957   2.735 -0.1283  0.2106  0.4649
27249SOL    HW184702   9.303   9.891   2.703  0.2310 -0.6203  1.4397
27249SOL    HW284703   9.450   9.914   2.731  0.4546  1.4301 -1.0853
27250SOL     OW84704   5.736   3.464   8.469 -0.6068 -0.9168  0.0467
27250SOL    HW184705   5.697   3.377   8.467 -0.1647 -1.1620  1.3374
27250SOL    HW284706   5.667   3.520   8.503 -1.2823 -0.5139 -1.8573
27251SOL     OW84707   8.419   5.767   9.944 -0.3031 -0.1009  0.7000
27251SOL    HW184708   8.328   5.772   9.974 -0.4222  0.6648  0.2562
27251SOL    HW284709   8.450   5.858   9.949  0.4288 -0.3485  0.8051
27252SOL     OW84710   2.203  10.378   0.621 -0.1605  0.7493 -0.2970
27252SOL    HW184711   2.287  10.336   0.604  0.5190  1.3484  1.3502
27252SOL    HW284712   2.149  10.310   0.661 -0.0664  0.6493 -0.3422
27253SOL     OW84713   0.240   1.581   6.780  0.2751  0.4397 -0.5627
27253SOL    HW184714   0.321   1.614   6.741  0.9372  0.8674  1.1139
27253SOL    HW284715   0.236   1.622   6.867 -0.7322 -1.1037  0.1620
27254SOL     OW84716   7.404   2.308   8.507 -0.7253  0.0180  0.1377
27254SOL    HW184717   7.479   2.286   8.451 -0.4123 -0.3301  0.6812
27254SOL    HW284718   7.377   2.395   8.478  0.2723  0.4017  0.3177
27255SOL     OW84719   4.033   1.402   8.097  0.4692 -0.4694  0.7412
27255SOL    HW184720   4.122   1.412   8.130  0.8557 -0.9108 -0.1372
27255SOL    HW284721   4.019   1.479   8.042  0.2764 -0.3632  0.9358
27256SOL     OW84722   0.443   3.521   5.717 -0.5555 -0.2523  1.0813
27256SOL    HW184723   0.494   3.591   5.677 -2.1118 -1.0906 -2.8390
27256SOL    HW284724   0.508   3.467   5.762  1.2769  1.2913  0.4413
27257SOL     OW84725   8.301   1.546  10.390  0.4451 -0.1425 -0.2316
27257SOL    HW184726   8.251   1.525  10.312  1.3702 -0.6801 -0.6935
27257SOL    HW284727   8.236   1.551  10.460 -0.4869  1.0337 -1.1393
27258SOL     OW84728   9.750   9.393   0.693  0.1296  0.0122 -0.9937
27258SOL    HW184729   9.743   9.370   0.601 -1.3940 -0.9023 -0.6680
27258SOL    HW284730   9.682   9.459   0.707 -2.3601 -2.6374  0.2780
27259SOL     OW84731   2.706   7.252   3.997 -0.0154  0.4673 -0.0527
27259SOL    HW184732   2.636   7.213   4.049 -0.6374 -0.6129 -1.6162
27259SOL    HW284733   2.769   7.181   3.984  0.0919  0.6941 -0.8134
27260SOL     OW84734   4.123   8.820  10.685 -1.0369 -0.6191  0.6584
27260SOL    HW184735   4.144   8.841  10.776 -1.2464 -0.1239  0.5955
27260SOL    HW284736   4.153   8.729  10.674  1.7604  0.2319  0.3710
27261SOL     OW84737   1.675   7.511   3.891  0.2468 -0.2668 -0.4668
27261SOL    HW184738   1.690   7.428   3.846 -0.1156 -0.0325 -1.0412
27261SOL    HW284739   1.700   7.578   3.827  2.8881  0.0927  0.8256
27262SOL     OW84740   7.634   8.762   6.641 -0.5600 -0.4654  0.1095
27262SOL    HW184741   7.716   8.804   6.615 -0.2173  0.7422  2.8438
27262SOL    HW284742   7.637   8.676   6.598  2.1974 -0.5103  0.2004
27263SOL     OW84743   8.467   6.451   7.810  0.1645  0.3738  0.3647
27263SOL    HW184744   8.436   6.379   7.865 -0.2030 -0.4031 -0.8420
27263SOL    HW284745   8.524   6.502   7.868  0.6429 -1.0249  1.1606
27264SOL     OW84746   0.086   6.294   8.238 -0.0814  0.0451  0.2291
27264SOL    HW184747   0.095   6.374   8.289  0.1365  0.8287 -0.9992
27264SOL    HW284748  -0.005   6.293   8.211 -0.1859 -0.3501  0.5704
27265SOL     OW84749   6.801   6.908   8.502  0.0770  0.3969  0.4288
27265SOL    HW184750   6.765   6.824   8.529 -0.7819  0.8301  0.6534
27265SOL    HW284751   6.895   6.892   8.491  0.3868  0.0419  3.0826
27266SOL     OW84752   3.757   9.101   3.403  0.2582  0.0685  0.3707
27266SOL    HW184753   3.689   9.069   3.344 -0.4069  0.6204  0.8179
27266SOL    HW284754   3.756   9.040   3.477  0.5988 -0.2096  0.1499
27267SOL     OW84755   1.871   2.187   4.151 -0.1344 -0.1800 -0.4485
27267SOL    HW184756   1.876   2.187   4.055 -0.7280 -0.6427 -0.4837
27267SOL    HW284757   1.960   2.168   4.180  0.2772  0.9609 -0.8863
27268SOL     OW84758   3.969   6.842   8.125 -0.2227  0.4052 -0.1352
27268SOL    HW184759   4.034   6.875   8.064  0.9330 -1.2258  0.1367
27268SOL    HW284760   4.017   6.778   8.179 -1.5921  0.5717  1.3625
27269SOL     OW84761   0.323   6.581   3.697 -0.3495  0.1157 -0.8175
27269SOL    HW184762   0.232   6.604   3.712 -1.0658 -1.9530 -1.6458
27269SOL    HW284763   0.330   6.566   3.603  1.0912  1.1082 -0.9114
27270SOL     OW84764   0.353   4.753   1.723  0.0198  0.3658 -0.1433
27270SOL    HW184765   0.266   4.713   1.720 -0.9933  2.3815  0.5445
27270SOL    HW284766   0.369   4.770   1.816  0.2387  1.7827 -0.4093
27271SOL     OW84767   8.882   8.489   6.692 -0.1041  0.8847  0.2099
27271SOL    HW184768   8.900   8.535   6.610 -0.3522  1.0694  0.2571
27271SOL    HW284769   8.965   8.445   6.714 -0.1506  0.5158 -0.3401
27272SOL     OW84770   5.212   0.699   6.688 -0.7788  0.1239  0.0118
27272SOL    HW184771   5.186   0.621   6.737 -1.0419  0.6799  0.7651
27272SOL    HW284772   5.182   0.682   6.599  0.3501 -1.2113 -0.1495
27273SOL     OW84773   4.433   0.415   7.702 -0.4261 -1.0434  0.0840
27273SOL    HW184774   4.412   0.366   7.623 -0.7245 -0.1580 -0.4068
27273SOL    HW284775   4.399   0.503   7.685  0.0222 -0.6860  0.9627
27274SOL     OW84776   4.641   9.624   2.378 -0.0548 -0.4791  0.1009
27274SOL    HW184777   4.581   9.562   2.336 -1.3038  1.2845 -0.8177
27274SOL    HW284778   4.686   9.572   2.445 -0.7651 -2.4535 -0.8925
27275SOL     OW84779  10.214   4.835   7.671 -0.1627 -0.0602  0.5666
27275SOL    HW184780  10.221   4.862   7.763 -2.3006  0.4481  0.6478
27275SOL    HW284781  10.136   4.780   7.668  1.3944 -2.3439 -0.5146
27276SOL     OW84782   0.516   7.101   0.139  0.9786  0.8672 -0.2088
27276SOL    HW184783   0.499   7.046   0.216  0.6606  0.9950 -0.1831
27276SOL    HW284784   0.599   7.070   0.104  0.3116 -0.3316 -0.7944
27277SOL     OW84785   9.752   0.305   2.047  0.0703  0.0101 -0.1904
27277SOL    HW184786   9.766   0.321   2.140 -3.1726  0.4546  0.3470
27277SOL    HW284787   9.769   0.389   2.005 -0.1641  0.2845  0.2578
27278SOL     OW84788   6.424  10.235   8.309  0.8828 -0.4922  0.6249
27278SOL    HW184789   6.385  10.172   8.249 -0.5550  1.0053 -0.1059
27278SOL    HW284790   6.478  10.291   8.253 -0.4059  0.8650  0.6902
27279SOL     OW84791   5.871   8.645   5.345  0.0400 -0.3468 -0.3540
27279SOL    HW184792   5.802   8.578   5.348  0.0822 -0.4328 -1.0708
27279SOL    HW284793   5.940   8.612   5.403  0.3183 -1.2221 -1.1677
27280SOL     OW84794   8.894   1.410   8.649  0.3266 -0.2667 -0.2131
27280SOL    HW184795   8.956   1.381   8.583  1.8304  2.1531  0.0227
27280SOL    HW284796   8.946   1.416   8.729 -1.3211 -2.5566  1.1689
27281SOL     OW84797   8.807   3.672  10.400  0.1167  0.2091  0.2018
27281SOL    HW184798   8.868   3.631  10.460  0.3738 -1.0228 -0.8525
27281SOL    HW284799   8.830   3.636  10.314 -0.7434  1.3107 -0.5191
27282SOL     OW84800   2.910   1.951   2.237  0.4418 -0.1624  0.0734
27282SOL    HW184801   2.964   2.007   2.182  0.3531 -0.8463 -0.7181
27282SOL    HW284802   2.865   2.012   2.296 -2.7942  1.1734 -3.3514
27283SOL     OW84803   5.737   1.265   8.592 -0.5283 -0.3804 -0.0404
27283SOL    HW184804   5.748   1.359   8.582  1.9447 -0.4179  1.5429
27283SOL    HW284805   5.788   1.227   8.521  3.4256 -0.4510  2.5270
27284SOL     OW84806   6.497   7.670   0.743  0.3350  0.1476  0.0678
27284SOL    HW184807   6.424   7.706   0.693  0.0706 -0.1833  0.2092
27284SOL    HW284808   6.476   7.688   0.834  0.6557  0.4593  0.0789
27285SOL     OW84809   8.942   4.404   5.273 -0.0011  0.3668  0.5630
27285SOL    HW184810   9.002   4.455   5.219  0.1164  0.6764  0.9833
27285SOL    HW284811   8.899   4.344   5.211 -1.1005  1.8645 -0.1831
27286SOL     OW84812   6.062   5.740   2.256  0.0072 -0.0405 -0.2300
27286SOL    HW184813   6.098   5.786   2.180  0.5127  0.1560  0.1277
27286SOL    HW284814   6.027   5.809   2.312  0.6341 -0.0902  0.2362
27287SOL     OW84815   6.462   0.868   3.480  0.1430 -0.2485  0.3036
27287SOL    HW184816   6.433   0.908   3.398 -0.8303  1.0013  1.2064
27287SOL    HW284817   6.422   0.781   3.480 -1.7467  0.5549  0.4163
27288SOL     OW84818   5.859   5.280   5.863  0.1016  0.3800  0.0548
27288SOL    HW184819   5.768   5.261   5.884  0.6481 -2.3912  0.3372
27288SOL    HW284820   5.903   5.283   5.948  0.4113  0.9105 -0.1186
27289SOL     OW84821   7.867   1.400   8.126 -0.5407  0.4323  0.1503
27289SOL    HW184822   7.938   1.347   8.163  0.6112  2.7877  1.5519
27289SOL    HW284823   7.892   1.411   8.034  0.4943  0.5061  0.4190
27290SOL     OW84824   7.845   5.921   0.377  0.3103 -0.0085 -0.6122
27290SOL    HW184825   7.919   5.930   0.437  0.2994 -2.0229 -0.2210
27290SOL    HW284826   7.883   5.885   0.297 -0.1844 -0.7323 -0.5286
27291SOL     OW84827   8.081  10.630   3.534 -0.1181 -0.7111  0.1046
27291SOL    HW184828   8.085  10.586   3.449  1.9338  1.5000 -1.0439
27291SOL    HW284829   8.170  10.625   3.567 -0.4778  0.1492  1.2373
27292SOL     OW84830   7.330   5.421   5.814 -0.4159  0.0277  0.2258
27292SOL    HW184831   7.274   5.493   5.841 -1.5191 -0.5866 -0.3534
27292SOL    HW284832   7.311   5.351   5.877  1.0497  0.3943  1.1199
27293SOL     OW84833   0.544   0.275  10.408 -0.1696  0.2816  0.1503
27293SOL    HW184834   0.548   0.212  10.479  1.1679  0.3262  0.1459
27293SOL    HW284835   0.483   0.237  10.345 -0.6604 -0.1949  0.9043
27294SOL     OW84836   0.172   2.310   1.225  0.0840  0.2341  0.0951
27294SOL    HW184837   0.085   2.308   1.264  1.1795  1.3534  2.8981
27294SOL    HW284838   0.232   2.304   1.300  2.4228  0.8655 -1.5893
27295SOL     OW84839   8.746   1.043   9.722  0.3352  0.0396 -0.3990
27295SOL    HW184840   8.726   1.016   9.812  0.4558  0.7240 -0.1634
27295SOL    HW284841   8.676   1.005   9.669 -1.3172  1.9044  0.3292
27296SOL     OW84842   0.423   6.549  10.248  0.1851  0.4176  0.6503
27296SOL    HW184843   0.437   6.455  10.256  1.8171  0.4929 -0.6914
27296SOL    HW284844   0.494   6.588  10.299  0.1526  0.9112  0.3208
27297SOL     OW84845   2.944   4.865   9.365 -0.3805 -0.5504  0.4517
27297SOL    HW184846   3.032   4.901   9.369 -1.3701  1.9755  1.4402
27297SOL    HW284847   2.901   4.897   9.444 -3.1419  1.2070 -1.5467
27298SOL     OW84848   2.873   5.001   2.322 -0.2256  0.0340  0.6670
27298SOL    HW184849   2.911   5.055   2.391  2.5303  1.3570 -1.6479
27298SOL    HW284850   2.935   4.929   2.311 -0.5417 -0.0890 -0.4586
27299SOL     OW84851   7.656   0.027   9.728  0.1111  0.1194 -0.0009
27299SOL    HW184852   7.650   0.118   9.760  0.9772 -0.1085  0.8494
27299SOL    HW284853   7.734   0.025   9.674 -0.5204  0.1317 -0.9332
27300SOL     OW84854   4.284   3.731   1.279 -0.5149 -0.0039  0.7121
27300SOL    HW184855   4.213   3.771   1.228  0.4229 -0.4939 -1.0630
27300SOL    HW284856   4.240   3.667   1.335 -1.5932  0.5506  0.5261
27301SOL     OW84857   2.646   6.606  10.351 -0.1021 -0.5841  0.2367
27301SOL    HW184858   2.555   6.634  10.339  0.3088  0.9010  0.3763
27301SOL    HW284859   2.665   6.623  10.443 -0.2799 -2.8037  0.7195
27302SOL     OW84860   8.850   7.236   0.281 -0.0019  0.0087 -0.5333
27302SOL    HW184861   8.835   7.164   0.220 -5.2769 -0.1244  0.4329
27302SOL    HW284862   8.884   7.193   0.360  0.4683 -0.8210 -1.1691
27303SOL     OW84863   8.316   4.391   9.852  0.6124  0.3306 -0.2308
27303SOL    HW184864   8.313   4.315   9.910  0.0396  0.1021 -0.5598
27303SOL    HW284865   8.301   4.466   9.910 -1.2788  0.0099 -0.2510
27304SOL     OW84866   1.435   1.232   6.722  0.2612 -0.5501 -0.4404
27304SOL    HW184867   1.494   1.300   6.691  0.8611  0.3155  2.3012
27304SOL    HW284868   1.352   1.277   6.739  0.0803 -0.8975 -0.3890
27305SOL     OW84869   8.135   9.988   2.951  0.4568 -0.7778 -0.4211
27305SOL    HW184870   8.162  10.014   2.862 -0.8910 -1.2424 -0.9929
27305SOL    HW284871   8.073   9.917   2.937 -0.4830 -0.2411  0.8597
27306SOL     OW84872   3.182   5.019  10.180 -0.6794 -0.4549  0.1711
27306SOL    HW184873   3.132   5.099  10.164 -1.0444 -0.3451  1.6345
27306SOL    HW284874   3.203   5.023  10.274 -1.3431 -2.4273  0.4455
27307SOL     OW84875   4.374   9.146   0.052  0.1529  0.7203 -0.3266
27307SOL    HW184876   4.329   9.171  -0.029  0.5049 -1.5847 -1.3416
27307SOL    HW284877   4.357   9.052   0.060  1.4487  0.5844  1.4271
27308SOL     OW84878   2.730   1.055   2.618 -0.1616 -0.2342 -0.5444
27308SOL    HW184879   2.801   1.036   2.558  0.9926 -0.0715  0.7187
27308SOL    HW284880   2.749   1.002   2.696 -1.8647 -0.8142 -0.4643
27309SOL     OW84881   1.876  10.594   3.793  0.1777  0.4662  0.3929
27309SOL    HW184882   1.887  10.505   3.759  0.8776  0.2967  1.0419
27309SOL    HW284883   1.849  10.582   3.884  0.6970  0.9150  0.6128
27310SOL     OW84884   1.498   5.161   9.204  0.1549  0.2683  0.5293
27310SOL    HW184885   1.471   5.071   9.188  0.6321 -0.0154  1.2623
27310SOL    HW284886   1.433   5.195   9.266 -0.0833  0.4686  0.1749
27311SOL     OW84887  10.464   6.411   7.183  0.3152 -0.2879  0.5237
27311SOL    HW184888  10.454   6.324   7.221 -1.0799  0.0835  1.0822
27311SOL    HW284889  10.450   6.471   7.257  0.0928  0.4199 -0.0782
27312SOL     OW84890   8.385   8.794   8.141 -0.2602 -0.6825 -0.0835
27312SOL    HW184891   8.388   8.822   8.049  0.6372 -1.2502 -0.2451
27312SOL    HW284892   8.344   8.707   8.138  0.6402 -1.1150 -0.0694
27313SOL     OW84893   3.522   9.443   3.090 -0.2965 -0.0563 -1.1361
27313SOL    HW184894   3.549   9.450   3.182 -0.1115  1.2390 -1.2678
27313SOL    HW284895   3.572   9.368   3.056  2.3989  1.5683 -1.0841
27314SOL     OW84896   8.079   7.891   3.469 -0.1851 -0.5022 -0.3820
27314SOL    HW184897   8.133   7.946   3.412  0.7759 -0.1618  0.8176
27314SOL    HW284898   8.079   7.805   3.427 -0.2827 -0.0236 -1.3799
27315SOL     OW84899   2.168   6.468   7.668 -0.7353 -0.2590  0.4134
27315SOL    HW184900   2.239   6.523   7.634 -0.3916 -1.1270 -0.3240
27315SOL    HW284901   2.148   6.505   7.754  0.6007  0.0173  0.6382
27316SOL     OW84902   6.188   1.489   5.530 -0.1848  0.7083  0.4856
27316SOL    HW184903   6.164   1.468   5.440 -0.9886 -1.3850  1.1273
27316SOL    HW284904   6.221   1.407   5.566  1.0986  1.7595  1.8202
27317SOL     OW84905   4.809   4.074   5.549 -0.0476  0.2597  0.1094
27317SOL    HW184906   4.852   4.004   5.598 -0.4567  0.0772  0.2130
27317SOL    HW284907   4.867   4.149   5.558  1.8020 -0.7508 -2.2717
27318SOL     OW84908  10.205   1.575  10.063 -0.1462 -0.3618 -0.4388
27318SOL    HW184909  10.110   1.578  10.051 -0.0857 -0.2533 -0.9260
27318SOL    HW284910  10.218   1.531  10.147 -0.6821  1.6014  0.7139
27319SOL     OW84911   7.448   2.085   7.818 -0.2440 -0.6418  0.2923
27319SOL    HW184912   7.512   2.023   7.853  0.2073 -0.9935 -1.0993
27319SOL    HW284913   7.500   2.144   7.763 -0.9257 -0.0973  0.2197
27320SOL     OW84914   1.745   8.841   0.110 -0.5326  0.7256 -0.5207
27320SOL    HW184915   1.729   8.749   0.131  1.2101  0.4531 -0.2601
27320SOL    HW284916   1.789   8.877   0.187  0.2106  1.3621 -1.2167
27321SOL     OW84917   4.423   5.533   3.083  0.0970 -0.3095 -0.1168
27321SOL    HW184918   4.467   5.448   3.092 -0.0363 -0.3227  0.3999
27321SOL    HW284919   4.341   5.512   3.039  1.6390  0.0133 -3.4839
27322SOL     OW84920   1.902   5.525  10.678 -0.0923 -0.8362  0.0471
27322SOL    HW184921   1.946   5.581  10.614 -2.2555 -0.3475 -1.1477
27322SOL    HW284922   1.890   5.580  10.755  1.7025 -1.1223  0.5595
27323SOL     OW84923   7.887   6.410   3.339 -0.7079  0.1961  0.0557
27323SOL    HW184924   7.805   6.362   3.349 -0.8931  0.8490  2.0296
27323SOL    HW284925   7.863   6.502   3.346  0.0138  0.4753 -0.9036
27324SOL     OW84926   0.118   9.141   1.432 -0.7114  0.2071  0.0616
27324SOL    HW184927   0.063   9.170   1.360 -1.4577 -1.5675 -0.1253
27324SOL    HW284928   0.189   9.092   1.391 -0.6581 -0.0769  0.4813
27325SOL     OW84929  10.136   1.564   4.299 -0.5139 -0.0964 -0.1684
27325SOL    HW184930  10.080   1.627   4.254 -0.1933  0.7560  0.6151
27325SOL    HW284931  10.077   1.490   4.319 -1.3905  0.7985  0.6790
27326SOL     OW84932   2.833   9.388   2.713  0.0597  0.3061  0.0717
27326SOL    HW184933   2.849   9.408   2.620  0.2600  1.4977  0.3524
27326SOL    HW284934   2.851   9.294   2.720  0.8672  0.3671 -0.9263
27327SOL     OW84935   5.760   1.814   0.821  0.8392  0.5009 -0.4234
27327SOL    HW184936   5.756   1.864   0.902  2.1819  2.8722 -1.7209
27327SOL    HW284937   5.714   1.732   0.841  2.5007  0.2646  3.1943
27328SOL     OW84938   2.280   2.625  10.664 -0.5421  0.3913  0.0205
27328SOL    HW184939   2.237   2.557  10.715  2.2062 -2.0603 -0.6405
27328SOL    HW284940   2.352   2.580  10.620 -0.3715  3.1489 -2.9222
27329SOL     OW84941   2.633   3.460   2.341 -0.0908 -0.1463  0.1782
27329SOL    HW184942   2.616   3.371   2.313 -0.2125 -0.2394  0.5401
27329SOL    HW284943   2.560   3.482   2.398  0.1044  0.0687  0.3507
27330SOL     OW84944   8.467   4.651   4.079 -0.9898  0.2123  0.4193
27330SOL    HW184945   8.403   4.580   4.076  1.5299 -2.1881 -1.0024
27330SOL    HW284946   8.435   4.714   4.014 -1.9424 -0.8759 -0.2235
27331SOL     OW84947   8.063   6.334   4.512 -0.2492 -0.6574  0.5464
27331SOL    HW184948   7.991   6.276   4.540  0.8042 -1.6051  1.3794
27331SOL    HW284949   8.040   6.358   4.422 -1.0470 -1.8849  0.3896
27332SOL     OW84950   0.415   0.517   1.794 -0.3726 -0.6148 -0.1684
27332SOL    HW184951   0.359   0.574   1.848  0.9035  0.1942  0.3724
27332SOL    HW284952   0.460   0.461   1.858 -1.0141 -1.6818 -0.6414
27333SOL     OW84953   9.009   0.019   8.475 -0.2251 -0.4498  0.2461
27333SOL    HW184954   9.089   0.037   8.524 -0.7866  0.0999  0.9895
27333SOL    HW284955   8.992  -0.074   8.488 -1.4001  0.0162  2.7672
27334SOL     OW84956   0.911   6.222   3.547  0.4185  0.6199  0.2984
27334SOL    HW184957   0.844   6.274   3.591  0.4011  0.6168  0.2757
27334SOL    HW284958   0.965   6.286   3.501  0.1221  0.5853 -0.1053
27335SOL     OW84959   8.223   2.746  10.596  0.1948  0.4354  0.5538
27335SOL    HW184960   8.238   2.713  10.507  2.5927  1.9989  0.2625
27335SOL    HW284961   8.200   2.839  10.583  1.6198  0.9619  1.5520
27336SOL     OW84962   3.596   5.815  10.382  0.4562  0.3110  0.9375
27336SOL    HW184963   3.536   5.831  10.454  1.3126  0.8978  1.5465
27336SOL    HW284964   3.570   5.878  10.314  1.0263  1.2896  1.6072
27337SOL     OW84965   5.855   5.382   2.004 -0.1190  0.2739 -0.3080
27337SOL    HW184966   5.874   5.403   2.095 -1.4788  1.0407 -0.1839
27337SOL    HW284967   5.925   5.426   1.955 -0.4960  1.5514  0.2480
27338SOL     OW84968   4.461   2.023   6.466  0.0683 -0.1087 -0.5206
27338SOL    HW184969   4.420   2.074   6.396  0.3521  0.4962 -0.2534
27338SOL    HW284970   4.546   1.998   6.431 -0.1079 -0.4779 -0.6855
27339SOL     OW84971   3.026   6.725   7.017 -0.8718 -0.2007 -0.1105
27339SOL    HW184972   3.115   6.756   7.003 -0.6950 -0.6859 -0.0548
27339SOL    HW284973   2.987   6.725   6.929 -1.9525  3.3766  0.2127
27340SOL     OW84974   9.193   7.364   7.606 -0.0781  0.2855  0.0343
27340SOL    HW184975   9.134   7.384   7.533 -0.0444 -0.5390 -0.2320
27340SOL    HW284976   9.136   7.367   7.683 -0.4186 -0.2302 -0.1897
27341SOL     OW84977   2.186   7.782   9.150  0.2948 -0.2653  0.1302
27341SOL    HW184978   2.280   7.800   9.154  0.5945 -0.9791 -2.0057
27341SOL    HW284979   2.160   7.810   9.062 -0.9181 -2.4442 -0.2819
27342SOL     OW84980   4.688   7.000   0.678  0.0703 -0.0731  0.0275
27342SOL    HW184981   4.603   7.043   0.683 -0.3665 -0.7728 -1.0201
27342SOL    HW284982   4.750   7.071   0.659 -0.4593  0.2848 -0.4131
27343SOL     OW84983   8.648   8.344   0.345  0.1931  0.6159  0.4244
27343SOL    HW184984   8.615   8.418   0.396 -0.3890 -0.9891  2.5120
27343SOL    HW284985   8.657   8.273   0.409 -0.9533 -1.6523 -1.7677
27344SOL     OW84986   5.650   8.482   5.366  0.1509 -0.0694  0.6199
27344SOL    HW184987   5.583   8.547   5.349  0.4859  0.6745  1.9472
27344SOL    HW284988   5.602   8.405   5.399 -0.1943 -0.2951 -0.3796
27345SOL     OW84989   0.846   9.322   9.081  0.2254  0.5205  0.1223
27345SOL    HW184990   0.900   9.398   9.102  0.0140 -0.3796  5.2051
27345SOL    HW284991   0.901   9.247   9.101 -0.4117 -0.6894 -2.3353
27346SOL     OW84992   3.757   0.221   7.239 -0.1478 -0.2327  0.2807
27346SOL    HW184993   3.691   0.153   7.228 -1.0167  0.9338 -3.0983
27346SOL    HW284994   3.833   0.189   7.191 -0.2486  0.7418 -0.5737
27347SOL     OW84995   6.245   2.947   7.076 -0.2367  0.4710  0.0562
27347SOL    HW184996   6.183   2.998   7.025  1.8265  2.6602 -0.4276
27347SOL    HW284997   6.331   2.984   7.054  1.1167 -1.3724  1.8618
27348SOL     OW84998   1.854   4.615   1.837  0.0383 -0.7249  0.2429
27348SOL    HW184999   1.758   4.617   1.839  0.0339 -1.0590  2.1736
27348SOL    HW285000   1.876   4.524   1.815 -0.0833 -0.6886 -0.0317
27349SOL     OW85001   1.367   6.438   9.958  0.0541  0.0539 -0.1783
27349SOL    HW185002   1.275   6.420   9.938 -0.4712  1.0070  1.2436
27349SOL    HW285003   1.393   6.503   9.892 -0.4394  0.1404 -0.2950
27350SOL     OW85004   7.449   8.896   7.916  0.0708  0.2066  0.2080
27350SOL    HW185005   7.427   8.958   7.985  0.7070  1.4317 -0.6591
27350SOL    HW285006   7.451   8.948   7.835  0.9638 -0.8536 -0.4953
27351SOL     OW85007   3.375   0.184   0.319  1.0675  0.3832  0.0743
27351SOL    HW185008   3.353   0.225   0.236  1.9814  0.6101 -0.0623
27351SOL    HW285009   3.334   0.239   0.385 -1.4680 -0.9357 -0.2656
27352SOL     OW85010   7.389   4.773  10.026 -0.4734  0.5264  0.4830
27352SOL    HW185011   7.313   4.824   9.997  0.3533  0.7867 -1.3596
27352SOL    HW285012   7.356   4.721  10.100 -2.4619  0.5580 -0.3141
27353SOL     OW85013   3.275  10.640   1.055  0.0113 -0.4142  0.1529
27353SOL    HW185014   3.358  10.622   1.012 -0.2104 -2.2952  0.4282
27353SOL    HW285015   3.213  10.579   1.015 -1.1809  0.7354  0.1676
27354SOL     OW85016   2.832  10.207   1.497 -0.5568 -0.1628 -0.4586
27354SOL    HW185017   2.774  10.180   1.568 -0.1650  0.6682  0.2015
27354SOL    HW285018   2.911  10.154   1.508  0.0902  0.9573  0.6491
27355SOL     OW85019   7.217   2.628   2.547 -0.8369 -0.1708  0.0360
27355SOL    HW185020   7.179   2.610   2.461  0.0378 -0.4646 -0.2979
27355SOL    HW285021   7.234   2.542   2.585  2.0213 -0.1542 -0.9727
27356SOL     OW85022   0.865   8.097   3.510 -0.1894  0.5233 -0.3788
27356SOL    HW185023   0.900   8.142   3.587 -0.4793  1.1225 -0.5954
27356SOL    HW285024   0.934   8.035   3.486 -0.7785 -0.9100  1.3838
27357SOL     OW85025   1.057   2.090   3.250  0.1438 -0.4245 -0.5043
27357SOL    HW185026   1.016   2.133   3.175 -1.1770  0.2385  0.5563
27357SOL    HW285027   0.997   2.021   3.276  2.1280 -2.8922 -2.0202
27358SOL     OW85028   7.028   9.331   8.009  0.7100 -0.1597 -0.2715
27358SOL    HW185029   7.078   9.400   7.966  0.5791 -0.5847 -1.1348
27358SOL    HW285030   7.088   9.257   8.014  1.3667  0.4427  2.0407
27359SOL     OW85031  10.023   6.278   5.275 -0.0028  0.4270  0.3705
27359SOL    HW185032  10.109   6.258   5.310  0.1595  0.1230 -0.1860
27359SOL    HW285033   9.982   6.334   5.341  1.7364  3.0715 -0.6128
27360SOL     OW85034  10.557   5.972   1.281  0.2331  0.3343  0.3300
27360SOL    HW185035  10.486   5.922   1.240  0.5756  0.1175 -0.0003
27360SOL    HW285036  10.542   6.062   1.253 -0.0483  0.3268  0.4524
27361SOL     OW85037   9.108   6.379   6.673 -0.2008 -0.0803 -0.0210
27361SOL    HW185038   9.183   6.376   6.613 -1.5107 -0.2190 -1.7196
27361SOL    HW285039   9.033   6.354   6.619 -2.0411  3.3006  0.6767
27362SOL     OW85040   8.114   2.458   1.585  0.7592  0.5863  0.3167
27362SOL    HW185041   8.141   2.525   1.522 -2.0421  2.1100  0.5450
27362SOL    HW285042   8.093   2.507   1.665  1.1048 -0.8985  1.3684
27363SOL     OW85043   0.207  10.097   6.569  0.4150 -0.0049  0.0372
27363SOL    HW185044   0.232  10.138   6.487 -0.0226  0.3267  0.0667
27363SOL    HW285045   0.132  10.042   6.546 -0.1874  0.6704  0.3534
27364SOL     OW85046   8.152   9.534   0.906  0.3884  0.0592 -0.4034
27364SOL    HW185047   8.143   9.629   0.905  2.0536  0.2923 -2.8673
27364SOL    HW285048   8.113   9.505   0.823  1.2495 -1.2162 -0.3932
27365SOL     OW85049   5.966   7.976   1.461 -0.2003  0.0115 -0.4842
27365SOL    HW185050   6.021   8.018   1.395  1.1193 -1.7641 -0.5731
27365SOL    HW285051   6.000   8.006   1.545 -0.1286  0.1559 -0.5656
27366SOL     OW85052   2.429   2.920   2.691 -0.5266 -0.0069 -0.3104
27366SOL    HW185053   2.390   2.952   2.609  0.1692  1.5240 -0.0897
27366SOL    HW285054   2.441   2.826   2.677 -1.4227  0.0341 -1.5408
27367SOL     OW85055   7.700   9.417   0.121 -0.4405 -0.7512  0.1764
27367SOL    HW185056   7.633   9.423   0.054  0.1505  1.4336 -0.3014
27367SOL    HW285057   7.696   9.501   0.167 -0.1447 -1.8027  2.2258
27368SOL     OW85058   7.325   8.850   8.964 -0.1553 -0.9041  0.5514
27368SOL    HW185059   7.296   8.923   8.909  0.1445 -0.0706  1.4629
27368SOL    HW285060   7.272   8.776   8.935 -2.6081  0.3358  1.5715
27369SOL     OW85061   7.479   3.999   1.986 -0.0830 -0.0235 -0.2349
27369SOL    HW185062   7.498   4.092   2.001 -1.7644  0.5715 -1.4697
27369SOL    HW285063   7.513   3.955   2.063 -0.3051  1.7653  0.9435
27370SOL     OW85064   7.007   5.213   8.249  0.4151 -0.7425 -0.6873
27370SOL    HW185065   7.066   5.280   8.281 -0.0919 -0.4438 -0.3674
27370SOL    HW285066   7.019   5.139   8.308  0.6725 -0.7903 -0.7964
27371SOL     OW85067   9.627   7.387   4.819 -0.4495 -1.1538  0.4084
27371SOL    HW185068   9.653   7.304   4.779  0.6365 -0.9601  0.6659
27371SOL    HW285069   9.678   7.453   4.771 -0.8447 -0.7028  0.6084
27372SOL     OW85070   2.209   2.413  10.360  0.4276 -0.0564  0.3596
27372SOL    HW185071   2.214   2.346  10.428  0.2490 -1.6338 -1.1080
27372SOL    HW285072   2.202   2.496  10.408  1.5157 -0.9896  2.2406
27373SOL     OW85073   6.741   6.230   6.600 -0.2827 -0.1952  0.2694
27373SOL    HW185074   6.722   6.230   6.506  0.6399  1.7625  0.0275
27373SOL    HW285075   6.731   6.322   6.626 -1.9844 -0.8998  2.4287
27374SOL     OW85076   9.045   2.463   3.805 -0.5879 -0.3088 -0.0881
27374SOL    HW185077   9.136   2.440   3.791 -0.1086  0.9861  0.6833
27374SOL    HW285078   9.040   2.556   3.784 -2.0482 -0.6510 -1.4425
27375SOL     OW85079   2.109   0.829   2.474 -0.1312 -0.2077  0.0002
27375SOL    HW185080   2.069   0.772   2.540 -0.3468 -0.8238 -0.6501
27375SOL    HW285081   2.082   0.917   2.499  0.5284 -0.3344  1.2468
27376SOL     OW85082   1.262   1.236   9.430  0.2750  0.3539 -0.1377
27376SOL    HW185083   1.262   1.309   9.492 -1.8976  0.9965 -0.8012
27376SOL    HW285084   1.171   1.230   9.400  0.5105 -2.2533 -0.5656
27377SOL     OW85085   7.193   2.924   8.188  0.2206 -0.3470 -0.2386
27377SOL    HW185086   7.270   2.959   8.142  0.3848 -1.1975 -0.6340
27377SOL    HW285087   7.118   2.954   8.136  0.3082  0.1022 -0.1093
27378SOL     OW85088   9.266   3.308   5.765  0.1822 -0.1753 -0.2961
27378SOL    HW185089   9.295   3.369   5.833 -1.6016 -0.8371  1.1754
27378SOL    HW285090   9.195   3.354   5.721  0.2909 -0.3565 -0.6577
27379SOL     OW85091   2.431   1.138   4.214  0.0351 -0.5517 -0.0414
27379SOL    HW185092   2.405   1.083   4.288 -1.6301  2.6130  1.9254
27379SOL    HW285093   2.525   1.153   4.227  0.1948 -1.6581  0.2065
27380SOL     OW85094   4.188   1.902   0.207  0.2285  0.0900  0.2187
27380SOL    HW185095   4.204   1.989   0.242  0.7166 -0.1540  0.6245
27380SOL    HW285096   4.223   1.905   0.118  0.7396  0.1578  0.4147
27381SOL     OW85097   6.956   7.020   3.877  0.0582 -0.3022 -0.3505
27381SOL    HW185098   6.997   7.094   3.832  3.5020 -2.0517 -0.3818
27381SOL    HW285099   6.980   7.031   3.969  0.4519 -1.2669 -0.3292
27382SOL     OW85100   9.207   5.027   7.719  0.2836  0.1342 -0.4008
27382SOL    HW185101   9.207   5.090   7.647 -0.8057 -0.1743 -0.6753
27382SOL    HW285102   9.191   5.080   7.797  1.2643  0.4412 -0.3942
27383SOL     OW85103   8.030   4.111   6.698 -0.3055 -0.0972 -0.1101
27383SOL    HW185104   8.037   4.125   6.792  1.1622  0.9962 -0.3392
27383SOL    HW285105   8.072   4.026   6.683  1.8968  0.8891 -0.0126
27384SOL     OW85106   5.512   8.583   7.763  0.6408  0.3471 -0.3830
27384SOL    HW185107   5.507   8.592   7.858  1.3943 -0.7470 -0.2280
27384SOL    HW285108   5.544   8.494   7.749  0.6020  0.5203 -1.6658
27385SOL     OW85109   1.139   2.689   2.870  0.3655  0.5442  0.0517
27385SOL    HW185110   1.174   2.768   2.910  1.3184  0.4593 -0.5913
27385SOL    HW285111   1.044   2.694   2.884  0.2900  2.2915 -0.8611
27386SOL     OW85112   6.967   9.268   8.995  0.1148 -0.4533 -0.2716
27386SOL    HW185113   6.983   9.357   8.964 -0.8568 -0.2391 -0.1750
27386SOL    HW285114   6.963   9.216   8.915 -1.3267 -0.0703 -0.4791
27387SOL     OW85115   1.690   4.842   9.134  0.1193  0.1958  0.6175
27387SOL    HW185116   1.742   4.855   9.055  0.3173  0.1834  0.7470
27387SOL    HW285117   1.751   4.856   9.206  0.4023 -1.6314  0.7672
27388SOL     OW85118   5.341   4.415   5.126  0.1454 -0.0763 -0.8402
27388SOL    HW185119   5.345   4.428   5.031  0.3846 -0.4490 -0.8833
27388SOL    HW285120   5.260   4.459   5.152  0.8757  1.4248 -0.9841
27389SOL     OW85121   8.034   3.702  10.507 -0.4756 -0.4634  0.0080
27389SOL    HW185122   8.116   3.749  10.489 -1.2266  1.9528  2.2677
27389SOL    HW285123   7.966   3.770  10.501 -2.1812 -2.1250 -0.4554
27390SOL     OW85124   3.016   3.888   9.688 -0.8022 -0.3317 -0.0912
27390SOL    HW185125   2.956   3.818   9.710 -0.1132 -0.8632  0.1464
27390SOL    HW285126   3.031   3.878   9.594 -0.8666 -0.3716 -0.0972
27391SOL     OW85127   0.625   4.571   2.059 -0.7833  0.6956  0.0702
27391SOL    HW185128   0.646   4.546   1.969  1.9025 -0.5844  0.9349
27391SOL    HW285129   0.553   4.513   2.084  0.2659 -0.8746 -0.4310
27392SOL     OW85130   6.318  10.515   3.772  0.1073  0.2706  0.2521
27392SOL    HW185131   6.253  10.559   3.717  0.9224  2.2071  0.7481
27392SOL    HW285132   6.282  10.521   3.860 -0.1877 -0.9225  0.2355
27393SOL     OW85133   9.149   3.236   7.674  0.1822 -0.1337 -0.0300
27393SOL    HW185134   9.056   3.221   7.689 -0.3402  0.0156 -2.6233
27393SOL    HW285135   9.167   3.321   7.714 -0.7497 -0.2316  0.6141
27394SOL     OW85136   9.735   4.481   3.780 -0.1182 -0.3767 -0.3657
27394SOL    HW185137   9.800   4.524   3.724  0.0396  0.0270  0.1149
27394SOL    HW285138   9.683   4.553   3.816  0.4965 -0.5181  0.8886
27395SOL     OW85139   6.218   2.394   5.920 -0.3517  0.6001  0.2979
27395SOL    HW185140   6.220   2.331   5.992  1.8855  0.3537  0.0717
27395SOL    HW285141   6.287   2.457   5.941 -0.6059  1.3158 -0.9450
27396SOL     OW85142   3.325   8.489   0.931  0.3832  0.9663 -0.1050
27396SOL    HW185143   3.301   8.575   0.895  0.3816  0.5962 -1.0307
27396SOL    HW285144   3.403   8.463   0.881  0.5859  0.5775  0.4021
27397SOL     OW85145   3.943   7.602   8.321  0.2330  0.1708 -0.5184
27397SOL    HW185146   4.022   7.549   8.333  0.7167  0.8572 -0.6028
27397SOL    HW285147   3.921   7.593   8.229 -0.1804 -0.5530 -0.3562
27398SOL     OW85148   2.609   0.955   1.696  0.1315 -0.2091  0.3543
27398SOL    HW185149   2.566   0.974   1.613  0.0348 -0.3829  0.3635
27398SOL    HW285150   2.676   0.891   1.674 -1.4895 -2.1439  0.7863
27399SOL     OW85151   0.910   6.821  10.382 -0.3904 -0.6520  1.0265
27399SOL    HW185152   0.897   6.891  10.446 -2.4281  1.0360 -1.0336
27399SOL    HW285153   0.844   6.755  10.405 -0.0251 -0.8175  1.6094
27400SOL     OW85154   6.430   5.329   5.354 -0.2429 -0.1940  0.0447
27400SOL    HW185155   6.495   5.304   5.288 -0.0391  1.8416 -0.5672
27400SOL    HW285156   6.346   5.301   5.317 -0.0581  0.2923 -0.7618
27401SOL     OW85157  10.272   5.168   1.587  0.0713  0.2324 -0.4862
27401SOL    HW185158  10.257   5.079   1.555  0.4381  1.0438 -3.2548
27401SOL    HW285159  10.276   5.221   1.507 -2.2021  3.0810  1.1028
27402SOL     OW85160   1.356   9.509   6.429 -0.4608 -0.2343  0.1256
27402SOL    HW185161   1.438   9.516   6.381 -0.5805 -1.1934 -0.2333
27402SOL    HW285162   1.351   9.591   6.480 -0.1813  0.6564 -1.2358
27403SOL     OW85163   2.182   4.648   1.063  0.1714 -0.2213 -0.3981
27403SOL    HW185164   2.152   4.711   1.129  2.1646 -0.3838  0.7391
27403SOL    HW285165   2.136   4.567   1.084 -1.2418  0.4230 -0.9107
27404SOL     OW85166   8.942   0.966   8.175 -0.4975 -0.2438 -0.6047
27404SOL    HW185167   8.965   0.987   8.084  2.0448 -1.9119 -0.4451
27404SOL    HW285168   8.912   0.875   8.171  0.0523 -0.4734  0.2573
27405SOL     OW85169   6.699   7.170   4.903  0.1132  0.1202  0.8836
27405SOL    HW185170   6.641   7.186   4.977 -2.5700 -0.4958 -0.9166
27405SOL    HW285171   6.691   7.076   4.886  0.9666  0.1800  0.0575
27406SOL     OW85172   9.314   0.599   2.570  0.3829 -0.2715 -0.2233
27406SOL    HW185173   9.408   0.604   2.589  0.6746 -1.3306 -1.2503
27406SOL    HW285174   9.276   0.557   2.646  1.3511 -3.3578 -1.3087
27407SOL     OW85175   1.283   9.672   0.773 -0.1094 -0.6300  0.0382
27407SOL    HW185176   1.332   9.655   0.693 -1.6142 -0.9273 -0.8519
27407SOL    HW285177   1.348   9.708   0.834  0.9920 -0.1075 -1.4008
27408SOL     OW85178   3.782  10.524   0.442 -0.3846 -0.1001 -0.3425
27408SOL    HW185179   3.688  10.535   0.451 -0.3688 -0.7014  0.6704
27408SOL    HW285180   3.819  10.600   0.486 -0.3921 -0.3717  0.1439
27409SOL     OW85181   4.355   0.594   2.207 -0.4724 -0.6127  0.3480
27409SOL    HW185182   4.387   0.558   2.290 -1.3304 -0.3935  0.7917
27409SOL    HW285183   4.265   0.563   2.201  0.3459 -2.9105 -1.8457
27410SOL     OW85184   1.451   2.966   1.151 -0.2559  0.9736  0.3865
27410SOL    HW185185   1.364   2.949   1.188 -1.6995 -0.3200 -3.1048
27410SOL    HW285186   1.506   2.897   1.187 -1.7777 -0.7433 -0.3989
27411SOL     OW85187   8.791   2.170  10.326  0.0283  0.5400 -0.6007
27411SOL    HW185188   8.728   2.137  10.391 -1.0364  1.5293 -1.1090
27411SOL    HW285189   8.861   2.208  10.379  1.5539 -2.7675  0.0445
27412SOL     OW85190   5.501   2.651   2.629 -0.4131  0.1039  0.0695
27412SOL    HW185191   5.448   2.704   2.569 -0.9734 -0.3007  0.1975
27412SOL    HW285192   5.460   2.565   2.627 -0.5226  0.1194  1.1392
27413SOL     OW85193   5.160   9.705   8.698  0.1821 -0.1932  0.0236
27413SOL    HW185194   5.200   9.785   8.731  0.5936  0.1316 -1.2101
27413SOL    HW285195   5.077   9.733   8.660  0.6955 -0.1841 -1.1598
27414SOL     OW85196   3.813   6.528   3.373 -0.2192 -0.1146  0.2552
27414SOL    HW185197   3.811   6.620   3.400  0.0893 -0.0992  0.2217
27414SOL    HW285198   3.772   6.529   3.286  0.2300  0.0624  0.0431
27415SOL     OW85199   6.089  10.587   1.502  0.7529  0.3362  0.1678
27415SOL    HW185200   6.042  10.612   1.422 -0.5719 -1.3008  0.4092
27415SOL    HW285201   6.142  10.665   1.523  0.6563  1.0325 -1.9264
27416SOL     OW85202   1.278   9.101   9.785 -0.4062  0.2842  0.3048
27416SOL    HW185203   1.323   9.034   9.838 -1.6407  0.2032  1.3022
27416SOL    HW285204   1.325   9.182   9.803 -0.6810  0.2187  1.4182
27417SOL     OW85205   5.758   2.363   0.178 -0.5142 -0.3032 -0.5357
27417SOL    HW185206   5.699   2.429   0.215  0.6153  0.7667 -0.5946
27417SOL    HW285207   5.760   2.293   0.244 -1.2559 -0.0265 -0.2025
27418SOL     OW85208   5.531   3.307   9.934 -0.4414 -0.3532 -0.6615
27418SOL    HW185209   5.450   3.354   9.920  0.5052  1.9504  0.9158
27418SOL    HW285210   5.599   3.361   9.893  0.5907 -0.7861  0.3955
27419SOL     OW85211   4.415   1.102   7.669 -0.1745 -0.2276  0.3738
27419SOL    HW185212   4.448   1.172   7.614 -0.6788 -0.9202 -0.8630
27419SOL    HW285213   4.490   1.073   7.720  0.7494 -0.6539 -1.1591
27420SOL     OW85214   6.922   5.695   8.222 -0.0322 -0.3375  0.0740
27420SOL    HW185215   6.891   5.777   8.185  0.3860  0.5154  1.5791
27420SOL    HW285216   6.952   5.645   8.145 -2.8555 -0.2770 -1.1846
27421SOL     OW85217   2.449   1.037   1.913 -0.1872 -0.2827  0.1307
27421SOL    HW185218   2.500   1.018   1.834  0.8552 -1.7403  1.1038
27421SOL    HW285219   2.393   0.961   1.925 -1.5262  0.6422 -0.0721
27422SOL     OW85220   4.859   1.556   4.334  0.0924  0.3508 -0.2182
27422SOL    HW185221   4.858   1.526   4.243  0.2819 -0.3534  0.0027
27422SOL    HW285222   4.921   1.497   4.378 -0.4606  0.2797  0.4923
27423SOL     OW85223   9.553   1.871   4.521 -0.1684  0.6117 -0.3353
27423SOL    HW185224   9.495   1.874   4.445 -1.5058 -0.7699  0.5893
27423SOL    HW285225   9.637   1.842   4.485 -0.2918  1.6167 -1.5248
27424SOL     OW85226   6.619   1.003   5.500  0.3268 -0.3629  0.5382
27424SOL    HW185227   6.591   0.921   5.541 -0.9063 -0.8889 -1.2106
27424SOL    HW285228   6.714   0.993   5.491  0.4014 -0.9240  1.7095
27425SOL     OW85229   2.996   4.225   5.105  0.1336  0.2534  0.2161
27425SOL    HW185230   3.067   4.166   5.083  0.0554  0.1700  0.1877
27425SOL    HW285231   3.039   4.307   5.130  0.2425  0.1719  0.2930
27426SOL     OW85232   2.749   6.893  10.412  0.0842  0.0949 -0.2674
27426SOL    HW185233   2.699   6.838  10.353 -1.7229  1.8918 -0.4990
27426SOL    HW285234   2.699   6.894  10.493  0.8728  0.2185  0.2349
27427SOL     OW85235   5.824   0.761   1.160  0.4652  0.2650 -0.0602
27427SOL    HW185236   5.743   0.770   1.109 -0.0566 -0.1388  0.6861
27427SOL    HW285237   5.829   0.668   1.182  1.7395  0.0550 -1.0540
27428SOL     OW85238   0.474   9.982   3.698  0.5235  0.2545 -0.6949
27428SOL    HW185239   0.546  10.009   3.755  0.2671 -0.1467 -0.1771
27428SOL    HW285240   0.397   9.984   3.754  0.4544 -1.2940 -0.6909
27429SOL     OW85241   6.781   7.056   5.171  0.0125 -0.3073 -0.2557
27429SOL    HW185242   6.708   7.118   5.161  0.2680  0.1263  0.4599
27429SOL    HW285243   6.832   7.065   5.090 -0.6750 -0.5533 -0.7248
27430SOL     OW85244   1.678   0.500   9.719  0.4783 -0.7861 -0.0382
27430SOL    HW185245   1.657   0.414   9.683  3.0183 -1.8807  0.8636
27430SOL    HW285246   1.626   0.506   9.800 -0.3659 -1.0775 -0.5495
27431SOL     OW85247   6.460   8.071   6.712  0.4500  0.8898 -0.1792
27431SOL    HW185248   6.477   8.001   6.775 -0.3350  0.7828 -0.0745
27431SOL    HW285249   6.454   8.151   6.765 -0.0204  0.8286 -0.1378
27432SOL     OW85250   1.202   0.886   0.641 -0.0770  0.0262  0.3248
27432SOL    HW185251   1.121   0.911   0.597  0.8853 -0.5783 -1.9353
27432SOL    HW285252   1.173   0.831   0.714 -1.7345  0.4818  0.0575
27433SOL     OW85253   2.746   2.445   4.289 -0.0532  0.1943  0.2184
27433SOL    HW185254   2.735   2.539   4.276 -1.4331  0.0260 -0.0480
27433SOL    HW285255   2.656   2.412   4.295  0.4017 -0.7500  2.9881
27434SOL     OW85256   2.536   7.144   1.896  0.7207 -0.1566 -0.3331
27434SOL    HW185257   2.522   7.119   1.987 -0.1906  0.4136 -0.3111
27434SOL    HW285258   2.584   7.070   1.858  1.4262 -0.2375  0.6888
27435SOL     OW85259   1.677   7.963   9.231  0.8493 -0.1880 -0.0142
27435SOL    HW185260   1.620   7.886   9.227  1.1953 -0.4666  0.3400
27435SOL    HW285261   1.703   7.979   9.140  0.9246 -0.6080 -0.0685
27436SOL     OW85262   7.856   3.739   5.098 -0.2597 -0.0271  0.3500
27436SOL    HW185263   7.814   3.790   5.167  1.0482  0.1654  1.0360
27436SOL    HW285264   7.906   3.802   5.048 -1.7259 -0.0562 -1.2460
27437SOL     OW85265   5.958   3.644   3.365 -0.0101 -0.0202  0.3761
27437SOL    HW185266   5.913   3.675   3.286  0.6277 -0.5839 -0.2262
27437SOL    HW285267   5.892   3.593   3.412  0.5170 -2.8649 -1.6638
27438SOL     OW85268   4.222   5.019   8.648 -0.0132 -0.0852 -0.2973
27438SOL    HW185269   4.179   5.103   8.660 -0.9753 -0.6722  0.5489
27438SOL    HW285270   4.300   5.024   8.703 -0.1767  0.1756 -0.0867
27439SOL     OW85271   9.081  10.519   3.024  0.2618  0.7263  0.3857
27439SOL    HW185272   9.023  10.443   3.023 -0.1278  1.0162  0.7130
27439SOL    HW285273   9.090  10.541   3.117 -0.9120  2.0557  0.2081
27440SOL     OW85274   9.669   0.078   8.753 -0.6808  0.1997  0.3060
27440SOL    HW185275   9.650   0.040   8.668 -0.3446  2.6389 -0.9471
27440SOL    HW285276   9.679   0.003   8.812 -0.8427 -1.5515 -1.8030
27441SOL     OW85277   3.595   8.291  10.393  0.4416 -0.3268  0.0320
27441SOL    HW185278   3.592   8.381  10.360 -0.3357 -0.5013 -0.3923
27441SOL    HW285279   3.684   8.280  10.424  0.4594  0.7026  0.3837
27442SOL     OW85280   4.528   2.164   4.771 -0.2324 -0.1153  0.0332
27442SOL    HW185281   4.456   2.140   4.713 -2.4365  2.2578  1.5429
27442SOL    HW285282   4.600   2.185   4.713 -0.5483 -2.9605 -1.5328
27443SOL     OW85283   1.890   0.022   6.606 -0.0715  0.2155 -0.0124
27443SOL    HW185284   1.797   0.043   6.600 -0.1197  0.2123  0.7130
27443SOL    HW285285   1.918   0.057   6.691  0.8796  1.3422 -0.7411
27444SOL     OW85286  10.134   9.428   5.349  0.3907 -0.5064  0.2372
27444SOL    HW185287  10.124   9.512   5.306 -0.4729 -1.8259 -2.3529
27444SOL    HW285288  10.049   9.411   5.389  0.8344  0.1863  1.5455
27445SOL     OW85289   5.750   2.551   4.530  0.6035  0.3703  0.2204
27445SOL    HW185290   5.778   2.562   4.439  0.1563  1.4096  0.1875
27445SOL    HW285291   5.674   2.494   4.525  0.6159  0.3776 -0.0552
27446SOL     OW85292   6.798   9.079   6.312 -0.4628  0.2943  0.3316
27446SOL    HW185293   6.866   9.015   6.333 -1.1386 -0.4552  0.2862
27446SOL    HW285294   6.775   9.061   6.220 -0.8264  0.4322  0.3926
27447SOL     OW85295   4.970   6.063   9.869 -0.8342 -0.5204  0.5908
27447SOL    HW185296   4.912   6.000   9.912 -3.5788  2.4603  1.5739
27447SOL    HW285297   4.923   6.089   9.790  0.4392  0.0131 -0.0227
27448SOL     OW85298   2.659   5.168   8.564  0.1133  0.2496  0.3730
27448SOL    HW185299   2.578   5.210   8.536  0.6518  0.0454 -1.6235
27448SOL    HW285300   2.711   5.239   8.602 -1.0255  0.3472  1.8236
27449SOL     OW85301   7.604   4.532   3.951 -0.4643  0.0283 -0.0640
27449SOL    HW185302   7.563   4.586   4.018  0.4506  0.5061  0.1236
27449SOL    HW285303   7.689   4.573   3.935  0.0454 -1.0657 -0.2746
27450SOL     OW85304   3.994   3.610  10.030 -0.2344  0.9521  0.0692
27450SOL    HW185305   3.903   3.610  10.001  0.3020  1.1669 -1.7579
27450SOL    HW285306   4.044   3.630   9.951  1.3569  1.5787  1.1800
27451SOL     OW85307   9.994   6.196   0.923 -0.1093 -0.0674  0.3974
27451SOL    HW185308   9.905   6.229   0.929  0.2433  0.8607  0.8276
27451SOL    HW285309  10.000   6.129   0.991 -1.0766 -1.6602 -1.0196
27452SOL     OW85310   9.141   5.385   3.528  0.1821  0.1673  0.3949
27452SOL    HW185311   9.233   5.404   3.508  0.7857 -1.8673  0.9651
27452SOL    HW285312   9.133   5.291   3.516 -2.0466  0.3870 -0.3577
27453SOL     OW85313   7.217   5.374   9.017 -0.2609  0.0163  0.1963
27453SOL    HW185314   7.227   5.280   9.002  1.2856  0.1767  0.0951
27453SOL    HW285315   7.306   5.407   9.026 -0.7536  1.5513 -0.1877
27454SOL     OW85316   1.606   3.742   3.656 -0.3137 -0.5075 -0.5339
27454SOL    HW185317   1.522   3.702   3.634 -0.8398  0.6233 -0.6764
27454SOL    HW285318   1.635   3.782   3.574 -1.0928  1.6308  0.1577
27455SOL     OW85319   6.064   8.966   9.813  0.2147 -0.5057 -0.1909
27455SOL    HW185320   6.140   8.925   9.854  0.2881 -0.5282 -0.3495
27455SOL    HW285321   6.047   8.914   9.735  1.9731  1.3057 -1.9048
27456SOL     OW85322  10.033   1.737   2.036  0.4285  0.2728 -0.3420
27456SOL    HW185323  10.003   1.672   1.972  1.0706  0.6963 -1.0813
27456SOL    HW285324  10.063   1.684   2.110  3.9278 -0.5581 -2.1174
27457SOL     OW85325   7.360   9.217   8.506 -0.4421 -0.4221 -0.2775
27457SOL    HW185326   7.361   9.285   8.573 -2.6843 -0.1861 -0.3914
27457SOL    HW285327   7.451   9.190   8.497  0.1703  0.8880  1.4749
27458SOL     OW85328   0.404  10.635   0.960 -0.1963  0.3053  0.1265
27458SOL    HW185329   0.344  10.562   0.946  0.2657  0.3931 -3.0492
27458SOL    HW285330   0.477  10.597   1.008 -0.9036 -0.7851  0.3850
27459SOL     OW85331   0.190   5.334   9.190 -0.5127 -0.5583 -0.0009
27459SOL    HW185332   0.210   5.248   9.228 -2.7686 -0.4707  1.5776
27459SOL    HW285333   0.275   5.377   9.183  0.3096 -1.5376  2.7084
27460SOL     OW85334   4.511  10.132   1.592 -0.0684  0.2764  0.2147
27460SOL    HW185335   4.519  10.223   1.564 -1.9059  0.3442 -0.1574
27460SOL    HW285336   4.575  10.085   1.538 -1.3300  0.8801 -1.8860
27461SOL     OW85337   2.560   5.231   0.777 -0.4466 -0.3026 -0.1557
27461SOL    HW185338   2.625   5.165   0.751  0.1046 -0.0781  0.5987
27461SOL    HW285339   2.609   5.313   0.782 -0.5018 -0.3229  1.5060
27462SOL     OW85340   1.246  10.062   1.629 -0.0082  0.2477 -0.5814
27462SOL    HW185341   1.327  10.049   1.679 -1.3825 -0.2188  1.6766
27462SOL    HW285342   1.194   9.984   1.648 -1.6781  1.3307 -0.5205
27463SOL     OW85343   1.666   5.805   4.407 -0.0904  0.8769 -0.4643
27463SOL    HW185344   1.643   5.886   4.362 -0.9093  1.5693  1.1321
27463SOL    HW285345   1.597   5.743   4.380  1.3447  0.1818 -2.8657
27464SOL     OW85346   1.848   2.976   4.170  0.3957  0.0228 -0.1256
27464SOL    HW185347   1.865   3.045   4.107 -0.2968 -0.0651 -0.4113
27464SOL    HW285348   1.925   2.919   4.164  0.2726 -0.0625 -0.9866
27465SOL     OW85349   0.021  10.225   0.894  0.1253 -0.2828 -0.1723
27465SOL    HW185350  -0.045  10.168   0.855 -0.3706  0.5006 -0.4854
27465SOL    HW285351  -0.028  10.288   0.946  0.6310  0.1820 -0.2434
27466SOL     OW85352   8.479   7.708   7.527 -0.0720  0.8724 -0.0088
27466SOL    HW185353   8.564   7.751   7.537  0.1676  0.0242  1.9616
27466SOL    HW285354   8.501   7.617   7.508 -0.5863  1.1569 -2.2660
27467SOL     OW85355   0.052   8.043   8.476 -0.4306 -0.4217  0.2234
27467SOL    HW185356   0.109   8.029   8.552  1.2074  3.2032 -0.1308
27467SOL    HW285357   0.101   8.005   8.403 -0.2711 -0.7056  0.4769
27468SOL     OW85358   6.483   6.717   1.553  0.0068 -0.4764  0.3868
27468SOL    HW185359   6.390   6.694   1.561 -0.0036 -1.1931 -1.2818
27468SOL    HW285360   6.525   6.636   1.524  0.7888  0.3289 -0.8596
27469SOL     OW85361   6.192   3.763   1.601 -0.4760 -0.6168 -0.2630
27469SOL    HW185362   6.104   3.730   1.621  0.3833 -2.9005  0.1580
27469SOL    HW285363   6.244   3.683   1.588  1.7784  0.6263  0.6116
27470SOL     OW85364   9.608   7.188   2.886  0.0080 -0.0113 -0.1440
27470SOL    HW185365   9.635   7.096   2.891  1.9526  0.5695  0.7077
27470SOL    HW285366   9.596   7.204   2.792 -3.0667 -1.7953 -0.2232
27471SOL     OW85367   7.101   6.283   8.579 -0.8873  0.5180  0.1062
27471SOL    HW185368   7.039   6.222   8.618 -0.8813  0.0653 -0.5842
27471SOL    HW285369   7.184   6.264   8.622 -0.4617 -1.2471 -1.4013
27472SOL     OW85370   0.368   6.971   8.039  0.5194  0.1858  0.2283
27472SOL    HW185371   0.461   6.953   8.051  0.3972  0.0379  0.9679
27472SOL    HW285372   0.334   6.982   8.128 -0.6229 -2.0118  0.1355
27473SOL     OW85373   5.635   2.549   2.409 -0.4390  0.0460 -0.8113
27473SOL    HW185374   5.567   2.573   2.472 -0.0082  1.9720 -1.0128
27473SOL    HW285375   5.717   2.579   2.450  0.0287 -0.2271 -1.5399
27474SOL     OW85376   1.939   9.234   8.271 -0.1876  0.2124 -0.0291
27474SOL    HW185377   1.871   9.242   8.203  0.2834  2.2761 -0.3400
27474SOL    HW285378   2.003   9.173   8.234 -2.3217 -2.7395  0.7487
27475SOL     OW85379  10.054   8.615  10.126 -0.2259  0.2624  0.2211
27475SOL    HW185380  10.101   8.619  10.209  0.5483  0.9625 -0.2376
27475SOL    HW285381  10.063   8.525  10.096  0.5113  0.3064  0.3161
27476SOL     OW85382   2.560  10.647   8.431  0.4420 -0.0191 -0.2470
27476SOL    HW185383   2.628  10.581   8.440 -0.3577 -0.8504 -0.1736
27476SOL    HW285384   2.566  10.675   8.339  0.8375 -0.1321 -0.2572
27477SOL     OW85385   3.403   4.236   5.395  0.2310  0.0855  0.1072
27477SOL    HW185386   3.451   4.234   5.312 -0.3029 -2.8996 -0.2238
27477SOL    HW285387   3.470   4.255   5.461  1.2997 -0.7643 -0.6860
27478SOL     OW85388   2.167   8.534   3.559 -0.2711 -0.3713  0.1893
27478SOL    HW185389   2.127   8.447   3.568 -1.5883  0.0564 -1.0513
27478SOL    HW285390   2.104   8.583   3.507  1.8398  0.3991 -1.8231
27479SOL     OW85391   5.354   2.957   3.759  0.4106  0.0805 -0.0229
27479SOL    HW185392   5.318   3.009   3.687  0.4532  1.2114  0.7453
27479SOL    HW285393   5.429   3.007   3.790 -0.3523  0.2801  1.6193
27480SOL     OW85394   6.009   1.225   8.721 -0.6176 -0.3002 -0.0505
27480SOL    HW185395   6.070   1.161   8.758 -1.6706 -1.3586 -0.0737
27480SOL    HW285396   6.001   1.200   8.628  1.9675  2.2972 -1.1210
27481SOL     OW85397   6.922   1.978   0.868  0.2688  0.0451  0.1098
27481SOL    HW185398   6.973   1.944   0.794 -0.3405 -0.0596 -0.2658
27481SOL    HW285399   6.938   1.915   0.939  0.6554  0.0076 -0.0090
27482SOL     OW85400   1.853   6.882   2.438  0.3757  0.0671  0.5356
27482SOL    HW185401   1.893   6.837   2.512  0.9020 -0.1600  0.1180
27482SOL    HW285402   1.761   6.854   2.440 -0.0953  1.5516  2.2318
27483SOL     OW85403   8.669   7.985  10.185  0.2677  0.2568 -0.3233
27483SOL    HW185404   8.623   7.962  10.266  0.2344  2.1612  0.2596
27483SOL    HW285405   8.633   8.071  10.161  3.9087  2.2027  0.5360
27484SOL     OW85406   0.182   8.469   4.084  0.5876  0.0405  0.0159
27484SOL    HW185407   0.127   8.509   4.152 -1.3876 -1.5396 -0.5334
27484SOL    HW285408   0.249   8.422   4.132 -0.6207 -0.8318  0.9107
27485SOL     OW85409   1.360   5.108   1.905  0.3672  0.0575  0.0204
27485SOL    HW185410   1.288   5.109   1.843 -1.5551 -3.1754  1.8935
27485SOL    HW285411   1.349   5.187   1.957  0.1217  1.1891 -1.6921
27486SOL     OW85412   3.886   6.855   1.950  0.3692 -0.2053  0.0447
27486SOL    HW185413   3.887   6.864   2.045  1.6038 -0.4186  0.0633
27486SOL    HW285414   3.978   6.843   1.926 -0.1601 -3.0396 -0.8933
27487SOL     OW85415   4.504  10.036   7.524  0.1625 -0.3067  0.4729
27487SOL    HW185416   4.512  10.128   7.546  0.7326 -0.4065  0.6819
27487SOL    HW285417   4.593  10.006   7.510  0.0481 -1.0263  1.2050
27488SOL     OW85418   2.381  10.035   5.404  0.2659 -0.6183 -0.1891
27488SOL    HW185419   2.304   9.986   5.376  1.1073 -2.8370  1.1895
27488SOL    HW285420   2.440   9.970   5.442  1.1324  1.5153  2.4893
27489SOL     OW85421   7.323   7.255   6.799  0.0925 -1.0419 -0.2324
27489SOL    HW185422   7.266   7.292   6.732 -1.2741 -0.9939  0.9291
27489SOL    HW285423   7.403   7.231   6.751  0.4682  1.9273 -1.3191
27490SOL     OW85424   9.321   2.592   9.671  0.3756  0.2031  0.1284
27490SOL    HW185425   9.403   2.543   9.664 -0.0897 -0.5038 -0.5729
27490SOL    HW285426   9.275   2.550   9.744  0.5283  0.4453  0.3668
27491SOL     OW85427   3.872   0.339   4.502 -0.4795 -0.4300 -0.1347
27491SOL    HW185428   3.968   0.337   4.496 -0.5637 -0.8095 -2.0035
27491SOL    HW285429   3.843   0.276   4.436 -2.0329  0.1992 -0.0838
27492SOL     OW85430   4.900   8.520   2.417 -0.6607  0.3426 -0.0734
27492SOL    HW185431   4.935   8.597   2.372 -1.2520  0.6397 -0.0371
27492SOL    HW285432   4.820   8.551   2.458 -0.2881 -0.0010  0.9385
27493SOL     OW85433   8.291   6.386   3.646  0.2612  0.5317 -0.7141
27493SOL    HW185434   8.244   6.336   3.579 -0.0927  0.6510 -0.5576
27493SOL    HW285435   8.356   6.326   3.680 -0.8208 -0.1620  0.1879
27494SOL     OW85436   3.427   7.629   9.574  0.7032  0.3606  0.0257
27494SOL    HW185437   3.455   7.707   9.621  1.7235 -0.0029  0.0451
27494SOL    HW285438   3.507   7.595   9.533  0.3700 -0.8982  0.3504
27495SOL     OW85439   6.391   5.583   8.307 -0.3463  0.5156  0.3774
27495SOL    HW185440   6.485   5.567   8.309  0.2814  3.5301 -0.5226
27495SOL    HW285441   6.382   5.673   8.276 -3.5601  0.2312  0.1131
27496SOL     OW85442   1.288   3.759   7.576  0.5765 -0.0004  0.0549
27496SOL    HW185443   1.317   3.668   7.571 -1.1571 -0.5945 -0.0637
27496SOL    HW285444   1.250   3.777   7.490 -1.7135 -0.1616  0.9548
27497SOL     OW85445   1.823   7.967   6.765 -0.2838 -0.5276 -0.0181
27497SOL    HW185446   1.772   8.010   6.834  2.2000  0.5513  1.2387
27497SOL    HW285447   1.808   8.021   6.688 -1.2780 -0.4157  0.2342
27498SOL     OW85448   0.484   9.884   1.003  0.2801  0.7843 -0.2791
27498SOL    HW185449   0.572   9.866   0.969  1.1633  2.3209  1.0589
27498SOL    HW285450   0.425   9.844   0.939  1.9111  1.0477 -2.0372
27499SOL     OW85451   5.805   5.340   8.182 -0.3097  0.3472  0.5258
27499SOL    HW185452   5.822   5.394   8.260 -0.4328  0.4711  0.4680
27499SOL    HW285453   5.782   5.254   8.217 -1.9667  0.8158  0.7032
27500SOL     OW85454   7.818   9.013   2.016 -0.2566 -0.2147 -0.2099
27500SOL    HW185455   7.772   9.024   1.933 -3.0410  2.1173  1.4584
27500SOL    HW285456   7.901   9.060   2.004  0.0016 -1.0340 -2.0073
27501SOL     OW85457   2.637   3.367   5.950 -0.1770  0.3372  0.0535
27501SOL    HW185458   2.719   3.406   5.979  0.2786  0.2891 -1.1099
27501SOL    HW285459   2.581   3.442   5.930 -0.2083  0.3699  0.2549
27502SOL     OW85460   7.129   6.032   7.204  0.2222  1.2728  0.1851
27502SOL    HW185461   7.072   6.084   7.148 -0.0096  0.9129  0.0884
27502SOL    HW285462   7.070   5.981   7.259  0.4304  0.3216 -0.4431
27503SOL     OW85463   1.895   0.955   0.954  0.2361 -0.4543  0.0870
27503SOL    HW185464   1.829   1.016   0.921  1.0918  0.1286 -0.5778
27503SOL    HW285465   1.874   0.945   1.047 -0.9958 -0.5557 -0.1827
27504SOL     OW85466   4.290   5.170   2.831 -0.3166 -0.0604  0.1851
27504SOL    HW185467   4.305   5.186   2.924 -1.1617 -0.4131  0.3864
27504SOL    HW285468   4.196   5.153   2.824 -0.3266  0.3463 -0.7919
27505SOL     OW85469   6.039   4.037  10.470 -0.1011 -0.1394  0.2350
27505SOL    HW185470   6.024   4.131  10.461 -0.3855 -0.2700 -0.6929
27505SOL    HW285471   6.019   4.019  10.562  2.2408  1.1245  1.1171
27506SOL     OW85472   4.293   3.802  10.098  0.0169  0.0671 -0.4818
27506SOL    HW185473   4.257   3.796  10.187  1.5796 -2.4610  0.0657
27506SOL    HW285474   4.218   3.826  10.044 -1.9995 -2.4788  0.9544
27507SOL     OW85475   3.398   2.727   4.676  0.1391 -0.0262 -0.1226
27507SOL    HW185476   3.416   2.680   4.758  1.2485 -1.3953 -1.0994
27507SOL    HW285477   3.310   2.763   4.688  0.6729  0.7260  2.0601
27508SOL     OW85478   3.421   2.644   4.958 -0.1183 -0.0173  0.3977
27508SOL    HW185479   3.513   2.618   4.948 -0.1717  0.3815 -1.2665
27508SOL    HW285480   3.424   2.724   5.010  0.5737  0.6260 -0.6051
27509SOL     OW85481   0.955   9.760   4.896 -0.3610  0.0547  0.3030
27509SOL    HW185482   1.006   9.682   4.917 -1.2251  0.1834  3.3407
27509SOL    HW285483   0.891   9.766   4.967 -1.4578  2.5640 -0.7934
27510SOL     OW85484   2.976   8.143   3.075  0.0132  0.0488  0.2251
27510SOL    HW185485   2.953   8.053   3.099 -0.3405 -0.1524 -0.8064
27510SOL    HW285486   2.933   8.197   3.142 -0.8454 -0.4928  0.1319
27511SOL     OW85487   7.739  10.200   1.151 -0.1410 -0.3941 -0.0395
27511SOL    HW185488   7.701  10.124   1.107  0.4292 -0.4270 -0.4852
27511SOL    HW285489   7.810  10.228   1.094  0.6452 -0.4719  0.8787
27512SOL     OW85490   8.914   0.333   1.314 -0.5542  0.1590 -0.9330
27512SOL    HW185491   8.986   0.314   1.255  1.8502  0.4146  1.7048
27512SOL    HW285492   8.888   0.423   1.293  1.7685  1.0683 -0.2469
27513SOL     OW85493   3.686   6.016   9.246  0.7761  0.0473 -0.0821
27513SOL    HW185494   3.732   6.089   9.287  0.3652  0.4824 -0.3840
27513SOL    HW285495   3.709   5.940   9.299  0.7394  0.4959  0.5806
27514SOL     OW85496   6.048   7.711   0.256  0.0364 -0.6551  0.1730
27514SOL    HW185497   6.001   7.781   0.301 -0.2442 -0.4961 -0.3661
27514SOL    HW285498   5.999   7.631   0.277 -0.4959 -0.4855 -0.4121
27515SOL     OW85499   1.764   9.686   5.307 -0.1259 -0.0945 -0.2456
27515SOL    HW185500   1.808   9.708   5.390  0.7943  2.4825 -1.3210
27515SOL    HW285501   1.683   9.644   5.334  1.3550 -1.8531  1.8952
27516SOL     OW85502   7.032   8.461   6.621 -0.4345 -0.2629  0.2855
27516SOL    HW185503   7.054   8.450   6.529  2.4140  0.3102  0.8105
27516SOL    HW285504   6.950   8.413   6.632 -0.5523 -0.8195 -2.3942
27517SOL     OW85505   1.671   4.892  10.483 -0.6126  0.2016  0.2242
27517SOL    HW185506   1.706   4.953  10.418 -1.4608  1.0576  0.5422
27517SOL    HW285507   1.662   4.809  10.436  0.1983  0.4169 -0.3257
27518SOL     OW85508   0.455   2.419   0.071  0.1483 -0.7357 -0.0062
27518SOL    HW185509   0.547   2.434   0.052  0.4736 -1.1867  1.0735
27518SOL    HW285510   0.421   2.373  -0.005  0.7943 -0.4898 -0.4457
27519SOL     OW85511   4.139   1.171   7.661 -0.3876 -0.1021 -0.2865
27519SOL    HW185512   4.211   1.123   7.702 -2.0638 -1.2014  1.5434
27519SOL    HW285513   4.172   1.260   7.650  0.6557 -0.0691  2.3331
27520SOL     OW85514   9.078   0.776  10.223 -0.0269  0.2263  0.1676
27520SOL    HW185515   9.167   0.743  10.237  0.5921  0.7362 -2.1656
27520SOL    HW285516   9.086   0.871  10.234 -0.2941  0.2743 -0.0612
27521SOL     OW85517   2.834   6.558   5.542  0.2298  0.4764  0.2318
27521SOL    HW185518   2.813   6.497   5.472 -2.2505  0.2605  1.0701
27521SOL    HW285519   2.822   6.645   5.503 -0.6241  0.3637  0.2429
27522SOL     OW85520   9.370   7.539   0.085 -0.2394  0.0213  0.1239
27522SOL    HW185521   9.399   7.512  -0.002 -0.8594  1.0856 -0.4336
27522SOL    HW285522   9.449   7.574   0.126 -0.0718  0.0636 -0.2298
27523SOL     OW85523   8.777   3.928   4.386  0.5051  0.1668 -0.8993
27523SOL    HW185524   8.698   3.966   4.348  0.8415  0.7915 -0.9961
27523SOL    HW285525   8.751   3.840   4.415 -0.1187  0.2268 -1.2748
27524SOL     OW85526   7.323   0.795   7.628  0.6914  0.2510 -0.2717
27524SOL    HW185527   7.254   0.747   7.673 -0.1566  1.8711  0.2331
27524SOL    HW285528   7.338   0.873   7.683  1.3648  1.0438 -1.5254
27525SOL     OW85529   3.499   4.444   6.463 -0.2769 -0.2878  0.1244
27525SOL    HW185530   3.510   4.528   6.508 -1.6262  0.0707 -0.1588
27525SOL    HW285531   3.465   4.468   6.376 -2.3304 -1.1718  0.6251
27526SOL     OW85532   7.335   3.892   6.566  0.3645  0.2452 -1.2817
27526SOL    HW185533   7.371   3.963   6.618 -1.1709  0.6851 -0.7547
27526SOL    HW285534   7.251   3.926   6.535  0.1542 -0.9099 -2.0251
27527SOL     OW85535   1.708   0.953   4.555  0.1317  0.6116 -0.5783
27527SOL    HW185536   1.699   1.037   4.599 -0.5325  0.8737 -1.1955
27527SOL    HW285537   1.692   0.888   4.623 -1.2346  1.0154 -0.4827
27528SOL     OW85538   4.419   2.028   2.448 -0.1334 -0.5966 -0.1133
27528SOL    HW185539   4.475   1.973   2.394  0.5077  1.3662 -1.5610
27528SOL    HW285540   4.462   2.030   2.533  1.2904 -0.1909 -0.8179
27529SOL     OW85541   2.839   2.938   6.822 -0.2649 -0.2765  0.6712
27529SOL    HW185542   2.778   3.005   6.794  0.7416  0.3387 -0.0964
27529SOL    HW285543   2.912   2.986   6.860  0.7565 -0.8855 -0.4552
27530SOL     OW85544  10.583   5.683   5.036 -0.0582  0.0075  0.0382
27530SOL    HW185545  10.496   5.676   5.077  0.0277 -2.3302 -0.0637
27530SOL    HW285546  10.567   5.730   4.954 -1.5246 -1.5989 -0.6573
27531SOL     OW85547   3.808  10.202   8.060  0.3110  0.3357  0.0863
27531SOL    HW185548   3.879  10.265   8.070  1.7761 -1.0575 -1.1290
27531SOL    HW285549   3.766  10.226   7.978  1.0202 -0.4039 -0.4968
27532SOL     OW85550   6.324   6.229   7.966  0.0101  0.0787  0.6491
27532SOL    HW185551   6.346   6.141   7.933 -0.2119 -0.6300  2.3172
27532SOL    HW285552   6.371   6.288   7.908  2.9213 -1.2426  1.4937
27533SOL     OW85553   1.397   2.856   5.304 -0.4277  0.0880 -0.1632
27533SOL    HW185554   1.441   2.796   5.364 -1.2735 -0.3269  0.0511
27533SOL    HW285555   1.465   2.881   5.241  0.2730 -0.0529  0.5233
27534SOL     OW85556   1.482   3.047   6.469 -0.5337 -0.4120 -0.6017
27534SOL    HW185557   1.544   2.975   6.458  0.1992  0.0635  0.3417
27534SOL    HW285558   1.396   3.008   6.450 -0.1348 -1.5054 -0.1784
27535SOL     OW85559   0.205   3.518   8.749  0.3877 -0.0975 -0.0852
27535SOL    HW185560   0.265   3.589   8.772  1.1619 -0.6642 -0.3390
27535SOL    HW285561   0.175   3.540   8.661 -2.0632  1.7194  1.0568
27536SOL     OW85562   6.352   2.729   8.214  0.0140 -0.1945  0.1876
27536SOL    HW185563   6.366   2.661   8.147  0.9806  0.7813 -0.6462
27536SOL    HW285564   6.439   2.742   8.252 -0.5292 -0.7323  1.6641
27537SOL     OW85565   6.068   5.412   2.602  0.3711  0.8591 -0.0357
27537SOL    HW185566   6.088   5.493   2.554  0.7766  0.8418  0.1041
27537SOL    HW285567   6.050   5.347   2.533 -0.8029  1.2720 -0.1468
27538SOL     OW85568   2.155   1.341   3.769  0.0671 -0.5347 -0.1318
27538SOL    HW185569   2.220   1.330   3.838  0.0792  1.4642  0.2383
27538SOL    HW285570   2.161   1.433   3.745 -1.3651 -0.7260 -1.3860
27539SOL     OW85571   3.807   2.961  10.677 -0.2316  0.0596 -0.0887
27539SOL    HW185572   3.799   2.894  10.609 -0.9501 -1.4952  1.4444
27539SOL    HW285573   3.722   3.005  10.677 -0.4888 -0.4266  0.2668
27540SOL     OW85574   4.768   6.233   3.463  0.0292 -0.5758  0.0098
27540SOL    HW185575   4.688   6.184   3.446  1.0225 -2.5158  0.5687
27540SOL    HW285576   4.838   6.171   3.444  1.5622  1.7328 -2.8034
27541SOL     OW85577  10.499   7.114   6.602  0.3954 -0.0123  0.1050
27541SOL    HW185578  10.450   7.120   6.520 -2.1876  0.8092  1.5962
27541SOL    HW285579  10.473   7.030   6.639 -1.8234  1.3696  1.9534
27542SOL     OW85580   3.479   4.164   6.181  0.2118  0.0720  0.0344
27542SOL    HW185581   3.386   4.187   6.188  0.2067 -0.1422  0.8052
27542SOL    HW285582   3.479   4.082   6.132  0.1177  0.8560 -1.3227
27543SOL     OW85583   0.034   2.193   3.339 -0.1582 -0.5312  0.0362
27543SOL    HW185584   0.087   2.161   3.411 -0.5848  1.4670  1.3207
27543SOL    HW285585  -0.034   2.126   3.327  1.7419 -2.4244 -0.6977
27544SOL     OW85586   9.017   2.592   9.286  0.1229 -0.0802 -0.1417
27544SOL    HW185587   8.947   2.588   9.351 -0.0666  0.1758 -0.3292
27544SOL    HW285588   9.009   2.679   9.247  0.0478 -0.3404 -0.7166
27545SOL     OW85589   9.793   9.313   2.461 -0.0171 -0.5039 -0.0245
27545SOL    HW185590   9.816   9.404   2.442  0.7719 -0.4583  1.0595
27545SOL    HW285591   9.798   9.269   2.376  1.2997  0.1148 -0.2991
27546SOL     OW85592   1.057   5.600   1.763  0.0090  0.1621  0.7814
27546SOL    HW185593   1.052   5.665   1.834 -2.0362 -1.6509  2.4390
27546SOL    HW285594   1.150   5.577   1.759  0.3825  1.3183  1.9016
27547SOL     OW85595   1.780   4.916   3.656  0.1703 -0.2034  0.2884
27547SOL    HW185596   1.822   4.999   3.634 -0.2451  0.2288  1.0952
27547SOL    HW285597   1.837   4.850   3.617  0.7672  0.4304  0.0552
27548SOL     OW85598   9.224   2.000   6.415  0.0668  0.4949  0.1801
27548SOL    HW185599   9.139   1.979   6.377  0.1660 -0.2151  0.3301
27548SOL    HW285600   9.215   1.979   6.508  0.3369  0.6184  0.2354
27549SOL     OW85601   6.678  10.201   3.915  0.2930  0.1679  0.7860
27549SOL    HW185602   6.732  10.197   3.994 -0.9917 -1.1066  1.6706
27549SOL    HW285603   6.642  10.289   3.914  1.2484  0.5707  0.9597
27550SOL     OW85604   3.991   2.707   8.248  0.1753  0.1667  0.1509
27550SOL    HW185605   3.988   2.799   8.273 -0.7691  0.9053 -2.3763
27550SOL    HW285606   3.899   2.682   8.238  0.4578 -0.7315 -0.2829
27551SOL     OW85607   9.538   2.357   2.946  0.0224 -0.2750 -0.0531
27551SOL    HW185608   9.629   2.382   2.957 -0.3775  1.5686 -0.5413
27551SOL    HW285609   9.513   2.319   3.030  0.9237  0.3130  0.4955
27552SOL     OW85610   9.044   0.892   7.015  0.1158 -0.3627  0.1277
27552SOL    HW185611   9.071   0.809   7.054  0.9065 -0.7521 -1.1779
27552SOL    HW285612   9.116   0.952   7.035 -1.5213  0.8049  3.2379
27553SOL     OW85613   6.303   8.575   7.102 -0.2634  0.1416 -0.0699
27553SOL    HW185614   6.260   8.589   7.187 -0.6475  0.8255 -0.3651
27553SOL    HW285615   6.393   8.605   7.116 -0.6254  1.3308 -0.2084
27554SOL     OW85616   0.396   4.235   3.950  0.2457 -0.1888  0.2287
27554SOL    HW185617   0.324   4.202   3.896  1.0305 -0.9261 -0.4065
27554SOL    HW285618   0.356   4.302   4.006 -1.0014 -0.8573  0.1718
27555SOL     OW85619   0.820   0.425   2.001 -0.7537  0.1281 -0.0857
27555SOL    HW185620   0.822   0.468   1.916  0.8513 -0.6036 -0.4561
27555SOL    HW285621   0.792   0.494   2.062  1.0320  1.5267 -0.7647
27556SOL     OW85622   0.083   7.835   3.617 -0.2639  0.0055  0.0541
27556SOL    HW185623   0.124   7.757   3.654  0.4109  0.5238  0.4299
27556SOL    HW285624   0.022   7.865   3.684 -1.8983 -1.2143 -0.8199
27557SOL     OW85625   8.283   0.445   9.350 -0.0332 -0.1571 -0.3390
27557SOL    HW185626   8.238   0.400   9.421  1.5556  0.0026  0.8270
27557SOL    HW285627   8.219   0.510   9.319 -1.2572 -1.1659 -0.0314
27558SOL     OW85628   6.796   5.661   4.800 -0.0087 -0.4542 -0.1387
27558SOL    HW185629   6.884   5.698   4.794 -0.1875  0.7517  3.0182
27558SOL    HW285630   6.741   5.723   4.752  0.2818  1.4252  1.7924
27559SOL     OW85631   1.695   1.147   7.212 -0.6346 -0.2032 -0.0402
27559SOL    HW185632   1.683   1.053   7.197  0.1383 -0.3910  0.4642
27559SOL    HW285633   1.765   1.152   7.277 -1.3860  0.6935  0.7211
27560SOL     OW85634   2.080   9.252   8.600 -0.2744  0.4384 -0.3411
27560SOL    HW185635   2.037   9.225   8.682 -1.3250 -2.1289 -1.6006
27560SOL    HW285636   2.164   9.206   8.601 -0.9176 -0.8561 -1.2816
27561SOL     OW85637   8.233   3.018   7.158 -0.0137 -0.2163  0.2668
27561SOL    HW185638   8.275   3.088   7.209  0.4748  0.6793 -1.3042
27561SOL    HW285639   8.148   3.006   7.199 -0.2667  1.5931  0.3289
27562SOL     OW85640   5.592   1.809   5.639  0.1515 -0.1548  0.3942
27562SOL    HW185641   5.530   1.882   5.630  1.7964  1.2673  0.1590
27562SOL    HW285642   5.555   1.740   5.584 -0.4872  1.1666 -0.9110
27563SOL     OW85643   4.775   9.888   7.421  0.0756 -0.5392 -0.4055
27563SOL    HW185644   4.762   9.805   7.375  1.6674 -1.4464  0.6809
27563SOL    HW285645   4.790   9.863   7.512  0.4296  0.9680 -0.0236
27564SOL     OW85646   9.415   3.069   2.332 -0.1787 -0.5156 -0.5912
27564SOL    HW185647   9.351   3.118   2.384  0.6668 -0.2708  0.2465
27564SOL    HW285648   9.447   3.001   2.391  0.6901 -0.3300 -0.8360
27565SOL     OW85649   2.681   2.950   3.072 -0.2707 -0.1742 -0.1139
27565SOL    HW185650   2.675   2.968   2.979  0.8096 -0.8572 -0.3320
27565SOL    HW285651   2.643   2.862   3.082  1.4976 -0.9970 -0.2570
27566SOL     OW85652   3.298   8.570   0.343  0.0625 -0.6389 -0.2629
27566SOL    HW185653   3.229   8.535   0.400 -1.2745  0.3642 -1.2124
27566SOL    HW285654   3.285   8.665   0.345  1.0968 -0.4700 -0.8857
27567SOL     OW85655   9.649   6.395   3.272  0.0467 -0.2623 -0.2562
27567SOL    HW185656   9.569   6.421   3.225  0.0349 -0.4412 -0.3387
27567SOL    HW285657   9.632   6.304   3.298  0.5037 -0.5471 -0.8991
27568SOL     OW85658   0.704   5.702   4.260 -0.1453  0.2335  0.3516
27568SOL    HW185659   0.682   5.780   4.209  0.3051  1.1811  1.5625
27568SOL    HW285660   0.705   5.632   4.196 -1.8819  0.9682 -0.5501
27569SOL     OW85661   1.246   2.874   3.442 -0.0948 -0.1305 -0.6397
27569SOL    HW185662   1.339   2.862   3.461 -0.3862  0.3900  1.3868
27569SOL    HW285663   1.226   2.962   3.476 -1.7054 -0.9762  0.7928
27570SOL     OW85664   8.071  10.579   2.829 -0.2942 -0.2573  0.1883
27570SOL    HW185665   8.010  10.649   2.804 -2.9029 -2.3634  0.2899
27570SOL    HW285666   8.072  10.581   2.925 -0.4069 -0.4019  0.1923
27571SOL     OW85667   3.442   9.893  10.412 -0.3659  0.3761 -0.5077
27571SOL    HW185668   3.503   9.929  10.476 -0.8023  0.7752 -0.3202
27571SOL    HW285669   3.448   9.798  10.425  0.6082  0.3770 -0.8468
27572SOL     OW85670   0.126   6.515   6.925 -0.4779  0.5694  0.9460
27572SOL    HW185671   0.087   6.520   6.837  0.2015 -0.2812  0.5796
27572SOL    HW285672   0.053   6.488   6.981 -0.8187  0.6843  0.5674
27573SOL     OW85673   7.391   0.288   0.817  0.3221  0.2634  0.0710
27573SOL    HW185674   7.387   0.308   0.724  0.6784  0.3158  0.0658
27573SOL    HW285675   7.299   0.289   0.846  0.1420 -0.5234 -0.4397
27574SOL     OW85676   9.014   7.697   0.244 -0.5341  0.0427 -0.6973
27574SOL    HW185677   8.981   7.765   0.303  2.3587  0.6107  0.4238
27574SOL    HW285678   9.012   7.617   0.297 -0.9750 -0.1279 -0.9620
27575SOL     OW85679   6.014   3.880   9.816 -0.3067 -0.3848 -0.0284
27575SOL    HW185680   6.100   3.920   9.829 -0.8450  0.3965  1.2806
27575SOL    HW285681   5.959   3.951   9.784 -1.1576 -0.1115  1.8983
27576SOL     OW85682   7.613   0.798   4.781 -0.4839 -0.0639 -0.0928
27576SOL    HW185683   7.613   0.892   4.765  3.3169 -0.1417 -1.3199
27576SOL    HW285684   7.654   0.789   4.868  2.4188 -0.5830 -1.4039
27577SOL     OW85685   2.603   2.577   3.750 -0.1610  0.0817 -0.3351
27577SOL    HW185686   2.552   2.527   3.814  1.1852 -0.1482  0.6316
27577SOL    HW285687   2.586   2.535   3.666  0.1057 -1.3608  0.3051
27578SOL     OW85688   9.553   0.461   4.520  0.2724  0.3068  0.4448
27578SOL    HW185689   9.573   0.369   4.502  0.3080  0.1916  1.0562
27578SOL    HW285690   9.565   0.470   4.615 -2.0502  0.3478  0.8029
27579SOL     OW85691   6.607   7.948   4.887 -0.0021 -0.3126  0.0460
27579SOL    HW185692   6.658   7.872   4.862  2.3421  0.9430  0.6601
27579SOL    HW285693   6.672   8.017   4.903 -1.8031  1.0998  2.0218
27580SOL     OW85694   9.912   1.095   7.178  0.1521  0.3240  0.0962
27580SOL    HW185695   9.955   1.147   7.245  1.6815 -0.8766  0.0923
27580SOL    HW285696   9.875   1.020   7.224  0.1851  0.0904 -0.2489
27581SOL     OW85697   8.844   4.896   1.053 -0.0553 -0.4794 -0.0017
27581SOL    HW185698   8.770   4.906   1.114 -0.3596  0.5128 -0.5149
27581SOL    HW285699   8.885   4.982   1.050 -0.1973 -0.4397 -1.3995
27582SOL     OW85700   0.041   9.524   3.376 -0.4139  0.3282  0.5160
27582SOL    HW185701  -0.003   9.528   3.290 -1.3723 -0.6940  0.9308
27582SOL    HW285702   0.125   9.483   3.357 -0.1143  1.1977 -0.1107
27583SOL     OW85703  10.495  10.595   2.418 -0.1727 -0.2522  0.3454
27583SOL    HW185704  10.424  10.564   2.361 -0.9648  1.5297  0.2830
27583SOL    HW285705  10.574  10.561   2.378 -0.6375  1.4573 -2.3198
27584SOL     OW85706   7.339   7.998   9.952  0.3679 -0.0901  0.6056
27584SOL    HW185707   7.417   7.986  10.005 -0.3028  0.4074  1.7364
27584SOL    HW285708   7.266   7.987  10.013 -0.4748 -0.9917 -0.5135
27585SOL     OW85709   1.330   1.357   2.288  0.2443 -0.2140  0.4043
27585SOL    HW185710   1.359   1.384   2.201 -1.0101 -3.6249 -1.2467
27585SOL    HW285711   1.294   1.269   2.275  0.7159 -1.2158  4.5356
27586SOL     OW85712   6.076   4.485   5.762  0.0075  0.1515  0.2423
27586SOL    HW185713   6.033   4.409   5.801 -0.9655 -0.6168 -2.1249
27586SOL    HW285714   6.065   4.555   5.826 -0.2779 -1.3410  1.8901
27587SOL     OW85715   4.352   1.222   4.432  0.1886 -0.6169  0.6009
27587SOL    HW185716   4.420   1.238   4.367 -0.7903  0.3365 -0.2234
27587SOL    HW285717   4.396   1.235   4.516  1.4581 -1.8208  0.1499
27588SOL     OW85718   3.260  10.109  10.370  0.5182  0.3843 -0.5740
27588SOL    HW185719   3.197  10.038  10.384  0.3195  0.9529  2.0452
27588SOL    HW285720   3.344  10.072  10.396  0.3641  1.1297  1.1097
27589SOL     OW85721   3.834   2.509   3.709  0.3151 -0.2741 -0.3241
27589SOL    HW185722   3.796   2.443   3.652  0.3178 -1.4019  0.9388
27589SOL    HW285723   3.766   2.528   3.774  1.1547 -0.8454  0.7663
27590SOL     OW85724   8.351  10.449   4.103  0.4752 -0.3607 -0.1304
27590SOL    HW185725   8.412  10.517   4.076 -1.0044  1.3942  0.6805
27590SOL    HW285726   8.313  10.416   4.022  1.6613 -0.6851 -0.5695
27591SOL     OW85727   4.446   1.403   6.748 -0.4482  0.3242  0.2476
27591SOL    HW185728   4.429   1.343   6.674 -0.7730 -0.0005  0.5811
27591SOL    HW285729   4.460   1.345   6.822  0.1421  0.6468  0.3888
27592SOL     OW85730   2.672   6.940   1.764  0.0864 -0.2328 -0.4947
27592SOL    HW185731   2.661   6.846   1.783 -0.7180 -0.6088 -2.5912
27592SOL    HW285732   2.763   6.958   1.789 -0.2837 -1.0492  1.7589
27593SOL     OW85733   9.285   6.562   1.706 -0.3776  0.3885  0.2874
27593SOL    HW185734   9.360   6.597   1.658 -0.2084 -1.7209 -1.0897
27593SOL    HW285735   9.212   6.571   1.645 -0.8118  0.4422  0.8066
27594SOL     OW85736   3.573   1.027   7.974  0.0094  0.5175  0.1183
27594SOL    HW185737   3.542   0.958   8.033 -0.2182  1.3822  1.0449
27594SOL    HW285738   3.668   1.023   7.980 -0.0152  0.9180  0.9537
27595SOL     OW85739   4.798   9.990  10.530 -0.1110 -0.1044 -0.3070
27595SOL    HW185740   4.846  10.052  10.584 -2.1975  0.5661  0.8946
27595SOL    HW285741   4.786   9.914  10.586  2.0367 -1.5045 -1.6216
27596SOL     OW85742   0.898  10.530   2.076  0.2978  0.1487  1.0925
27596SOL    HW185743   0.857  10.599   2.023 -0.3076 -0.0284  1.3124
27596SOL    HW285744   0.824  10.475   2.103  0.7781 -0.5838  0.9238
27597SOL     OW85745   7.588   8.948   4.993  0.4966  0.1739 -0.4683
27597SOL    HW185746   7.671   8.964   4.949  0.7003 -1.5874 -0.7878
27597SOL    HW285747   7.546   8.880   4.941 -1.6244  1.7084 -0.8919
27598SOL     OW85748   5.991   4.499   2.258  0.2198 -0.1006 -0.0321
27598SOL    HW185749   5.940   4.579   2.246 -1.3508 -1.0395  0.0961
27598SOL    HW285750   5.937   4.444   2.315  0.9720 -1.4976 -0.6016
27599SOL     OW85751   6.702  10.295   5.321 -0.2839  0.2820  0.4634
27599SOL    HW185752   6.622  10.307   5.269 -0.5656 -1.3657  0.4876
27599SOL    HW285753   6.765  10.258   5.260  0.5127  1.6077  0.4391
27600SOL     OW85754   0.651   3.608   5.389 -0.2599  0.1283 -0.4229
27600SOL    HW185755   0.660   3.514   5.408 -0.4703  0.2672  0.4250
27600SOL    HW285756   0.582   3.637   5.448  0.8438  1.1218  0.4213
27601SOL     OW85757   9.786   5.134   1.672  0.4917  0.0523  0.4736
27601SOL    HW185758   9.755   5.073   1.739  2.2153 -0.2553  1.0364
27601SOL    HW285759   9.877   5.151   1.696  0.5259  1.5689 -0.6216
27602SOL     OW85760   5.809   1.512   5.863 -0.0294 -0.7692 -0.1502
27602SOL    HW185761   5.722   1.522   5.900 -0.2936 -1.3022 -0.6187
27602SOL    HW285762   5.826   1.595   5.819  1.6987  1.3665  3.9330
27603SOL     OW85763   5.620   2.670   0.135 -0.1445  0.1232 -0.3102
27603SOL    HW185764   5.612   2.763   0.155  0.1779 -0.1760  1.3618
27603SOL    HW285765   5.705   2.661   0.092 -0.3275  0.6324 -0.7896
27604SOL     OW85766   7.961   1.811  10.393  0.2946  0.4314  0.1863
27604SOL    HW185767   7.977   1.796  10.486  0.7363  1.2199  0.2463
27604SOL    HW285768   7.884   1.868  10.390  0.6223  0.8724  0.0951
27605SOL     OW85769   1.117   9.968   7.295 -0.5428 -0.3938 -0.2649
27605SOL    HW185770   1.177  10.015   7.237 -2.2494  1.4211 -0.6868
27605SOL    HW285771   1.172   9.937   7.367  0.6877  2.8557  0.3851
27606SOL     OW85772   7.262   0.970   2.742  0.3586  0.3577 -0.7241
27606SOL    HW185773   7.280   0.888   2.788 -0.4359 -0.6946 -2.2349
27606SOL    HW285774   7.278   1.038   2.808 -0.5660 -1.0636  1.0539
27607SOL     OW85775   5.962   2.971  10.137  0.1612 -0.3079  0.4577
27607SOL    HW185776   5.918   2.974  10.222 -1.3928  0.0007 -0.3377
27607SOL    HW285777   5.896   2.998  10.074  1.3597 -0.2913 -0.8453
27608SOL     OW85778   5.927   7.616   3.998 -0.1994 -0.1258 -0.1957
27608SOL    HW185779   6.022   7.619   3.992 -0.1892  0.1451  0.1160
27608SOL    HW285780   5.908   7.528   4.033 -0.0601 -0.1393 -0.1545
27609SOL     OW85781   9.433   9.337   7.688  0.1848  0.2122 -0.3615
27609SOL    HW185782   9.377   9.346   7.612 -0.3076 -1.5224 -0.2441
27609SOL    HW285783   9.504   9.279   7.660  0.2296 -0.1033  0.3582
27610SOL     OW85784   4.393   5.760   6.990 -0.2659  0.0603  0.1532
27610SOL    HW185785   4.402   5.723   7.078  2.1831 -0.8824 -0.4189
27610SOL    HW285786   4.438   5.844   6.994  1.9328 -1.0017 -0.6997
27611SOL     OW85787   5.086   4.737   2.032 -0.1002 -0.0488 -0.4163
27611SOL    HW185788   5.139   4.800   2.080  0.3901 -0.3018 -0.6193
27611SOL    HW285789   5.107   4.652   2.071  2.1191 -0.6042 -2.5582
27612SOL     OW85790   2.291   7.248  10.652  0.7739  0.2039  0.2023
27612SOL    HW185791   2.225   7.181  10.668  1.5053 -0.6925 -0.4689
27612SOL    HW285792   2.258   7.325  10.699 -0.9797 -0.0727 -0.4787
27613SOL     OW85793   8.360   4.055   3.405  0.2244 -0.1959 -0.4081
27613SOL    HW185794   8.399   4.120   3.346 -0.6962  1.9872  1.2189
27613SOL    HW285795   8.267   4.055   3.383 -0.2429  1.0894  1.2752
27614SOL     OW85796   7.383   3.576   0.711 -0.2467 -0.1936 -0.2870
27614SOL    HW185797   7.368   3.494   0.758 -2.0209  1.3781  2.1677
27614SOL    HW285798   7.450   3.620   0.763 -1.6335  1.2225  0.3933
27615SOL     OW85799   1.682   6.510   9.847 -0.3087  0.0921  0.6352
27615SOL    HW185800   1.656   6.444   9.782  2.5909  0.0058 -0.5886
27615SOL    HW285801   1.644   6.592   9.815 -0.8036 -0.3436  0.0949
27616SOL     OW85802   1.168   5.290   0.641 -0.2045  0.1782 -0.3871
27616SOL    HW185803   1.154   5.258   0.552  0.6538 -1.6637  0.0925
27616SOL    HW285804   1.262   5.284   0.654 -0.3893 -0.2944  0.8815
27617SOL     OW85805   3.030   1.825   6.883 -0.1708  0.3428 -0.3493
27617SOL    HW185806   2.973   1.749   6.870 -2.6753  1.7120  1.5893
27617SOL    HW285807   3.086   1.802   6.956 -1.3660  0.5196  0.6539
27618SOL     OW85808   6.834   4.432   3.039  0.5102  0.0021 -0.5093
27618SOL    HW185809   6.919   4.461   3.007  0.2452 -0.2671 -1.4960
27618SOL    HW285810   6.772   4.498   3.006  0.2591 -0.1673 -0.3803
27619SOL     OW85811   0.939   2.111   7.356  0.0007 -0.0146  0.0456
27619SOL    HW185812   0.962   2.072   7.441  0.7579  0.4234  0.0531
27619SOL    HW285813   1.018   2.098   7.303 -0.1669  0.4626 -0.3203
27620SOL     OW85814   7.594   0.827   0.435 -0.1767 -0.8531  0.0964
27620SOL    HW185815   7.566   0.902   0.383  0.1613  1.0428  2.5172
27620SOL    HW285816   7.612   0.862   0.522 -1.2970 -3.9405  1.7572
27621SOL     OW85817   5.092   9.847   9.494 -0.3390  0.4236 -0.1301
27621SOL    HW185818   5.073   9.918   9.432 -0.1646  0.2660 -0.3667
27621SOL    HW285819   5.131   9.892   9.569  1.7348  0.4094 -1.1184
27622SOL     OW85820   2.448   5.373   8.596 -0.3882  0.2612 -0.3660
27622SOL    HW185821   2.389   5.417   8.535  0.3400  1.7821 -0.0241
27622SOL    HW285822   2.483   5.443   8.651  0.6173 -0.7860  0.3902
27623SOL     OW85823   2.674   5.665   5.036 -0.0780 -0.3198  0.0472
27623SOL    HW185824   2.729   5.740   5.016 -1.4564  0.6977 -0.0722
27623SOL    HW285825   2.720   5.590   4.997  1.2472  0.4735  0.0565
27624SOL     OW85826   1.595   7.292   9.261  0.3265  0.4327 -0.1442
27624SOL    HW185827   1.587   7.223   9.328 -1.3234 -1.4301 -2.1025
27624SOL    HW285828   1.505   7.308   9.233  1.0123  0.4661 -2.5185
27625SOL     OW85829   4.786   8.902   6.261 -0.1179  0.0762 -0.4414
27625SOL    HW185830   4.875   8.929   6.237  0.3199  0.0773  1.0716
27625SOL    HW285831   4.775   8.816   6.220  0.7593 -0.1300 -0.2598
27626SOL     OW85832   1.335   6.865   1.271 -0.3246 -0.2757 -0.3754
27626SOL    HW185833   1.350   6.848   1.364 -0.8590  0.1885 -0.1962
27626SOL    HW285834   1.240   6.860   1.261 -0.3588  0.6854 -0.6839
27627SOL     OW85835   2.211   8.574   9.816  0.0882  0.2790  0.7607
27627SOL    HW185836   2.191   8.500   9.759  1.8102  0.6993 -0.4600
27627SOL    HW285837   2.270   8.538   9.882  1.7477  0.6908 -0.4178
27628SOL     OW85838   1.529   9.856   5.223  0.1555 -0.2778 -0.3103
27628SOL    HW185839   1.607   9.870   5.169 -0.5851 -0.4089 -1.4577
27628SOL    HW285840   1.488   9.942   5.229 -0.6919 -0.5759 -1.4668
27629SOL     OW85841   4.670   9.694   8.091 -0.6042 -0.1601  0.2906
27629SOL    HW185842   4.609   9.681   8.018 -2.9746  2.1189  1.7156
27629SOL    HW285843   4.671   9.609   8.136 -0.6435 -1.0034 -1.2124
27630SOL     OW85844   6.163  10.678   1.931  0.4357  0.2049 -0.5104
27630SOL    HW185845   6.251  10.710   1.952  0.4821  0.2230 -0.7330
27630SOL    HW285846   6.148  10.704   1.840  0.6952 -0.9029 -0.8877
27631SOL     OW85847   7.524   6.818   4.700  0.1216  1.0278  0.1994
27631SOL    HW185848   7.510   6.725   4.715  1.1667  0.6725 -0.8736
27631SOL    HW285849   7.491   6.834   4.611  1.2371  1.3612 -0.1679
27632SOL     OW85850   9.833   8.196   4.597  0.5047  0.0070 -0.3604
27632SOL    HW185851   9.797   8.273   4.553 -0.1453 -0.0708  0.0110
27632SOL    HW285852   9.834   8.128   4.529 -1.2913 -0.3558 -0.0891
27633SOL     OW85853   1.406   3.062   3.936  0.1835 -0.1229 -0.4714
27633SOL    HW185854   1.495   3.098   3.937  0.2479 -0.2895 -0.3069
27633SOL    HW285855   1.382   3.053   4.028 -1.0074  2.4201 -0.4276
27634SOL     OW85856   9.330   9.433   9.149  0.0279  0.1398 -0.0696
27634SOL    HW185857   9.248   9.386   9.162  0.3082 -0.2716  0.2284
27634SOL    HW285858   9.317   9.484   9.068 -0.8342  0.7781  0.4583
27635SOL     OW85859   1.598   3.894   1.596  0.0902 -0.6690  0.2472
27635SOL    HW185860   1.680   3.912   1.642 -0.3528  0.1187  0.7587
27635SOL    HW285861   1.622   3.899   1.503  0.6797 -0.7425  0.3870
27636SOL     OW85862   0.529  10.163   2.243  0.3949  0.3735 -0.3483
27636SOL    HW185863   0.559  10.102   2.310  0.2022  1.0229  0.3399
27636SOL    HW285864   0.434  10.170   2.256  0.1748 -0.3567 -1.4181
27637SOL     OW85865   5.434   1.306   5.994  0.1196 -0.3472  0.2479
27637SOL    HW185866   5.513   1.268   6.031  1.6207  1.8832 -0.4583
27637SOL    HW285867   5.450   1.308   5.900  0.4715  2.5481  0.2802
27638SOL     OW85868   6.215   7.981   3.966 -0.4645 -0.5804 -0.1037
27638SOL    HW185869   6.225   7.940   4.052 -0.5967  0.2930  0.3349
27638SOL    HW285870   6.189   8.071   3.985 -0.1940 -0.2905 -1.0547
27639SOL     OW85871   1.064   0.343   9.591 -0.0539  0.3204 -0.9627
27639SOL    HW185872   1.111   0.274   9.637  0.6503  0.5539 -1.3097
27639SOL    HW285873   1.090   0.424   9.636 -2.2687  0.2334  0.5991
27640SOL     OW85874   7.766   5.185   6.629 -0.5236  0.0454  0.2786
27640SOL    HW185875   7.769   5.111   6.568 -0.9117  1.2722 -1.2813
27640SOL    HW285876   7.792   5.147   6.713  0.0765 -1.6979 -0.6350
27641SOL     OW85877   2.112   4.259   4.300  0.4454  0.7930  0.6654
27641SOL    HW185878   2.133   4.188   4.239  0.8494  1.1558  0.3743
27641SOL    HW285879   2.025   4.288   4.274  1.2020  1.9430 -0.7296
27642SOL     OW85880   9.691   6.726   5.147 -0.0621 -0.2203 -0.2598
27642SOL    HW185881   9.605   6.765   5.161  1.3311  3.7865 -1.3673
27642SOL    HW285882   9.702   6.726   5.052  1.8909  1.4324 -0.1069
27643SOL     OW85883   5.769   3.950   3.171  0.0123  0.1506  0.1355
27643SOL    HW185884   5.679   3.943   3.202 -0.8132  1.1726 -1.8316
27643SOL    HW285885   5.771   3.899   3.091  0.7429  1.3719 -0.6661
27644SOL     OW85886   6.195  10.038   3.413  0.1865  0.7192  0.0002
27644SOL    HW185887   6.220  10.123   3.376  2.6747  0.4957  0.9394
27644SOL    HW285888   6.235   9.974   3.355  0.3721  0.2777  0.6005
27645SOL     OW85889   8.264   0.362   6.609 -0.0115 -0.3685 -0.1950
27645SOL    HW185890   8.316   0.363   6.689  0.4845  0.8751 -0.5061
27645SOL    HW285891   8.220   0.277   6.610  0.9708 -0.8984  0.7569
27646SOL     OW85892   0.877   9.772   1.459  0.1929  0.0471 -0.3635
27646SOL    HW185893   0.798   9.786   1.406  0.7278  0.9638 -0.9372
27646SOL    HW285894   0.937   9.725   1.401 -0.2045 -1.3401  0.3276
27647SOL     OW85895   3.670   9.699  10.149 -0.2667  0.5338 -0.0492
27647SOL    HW185896   3.638   9.630  10.207  1.2714 -0.0270  0.1723
27647SOL    HW285897   3.591   9.749  10.126 -1.3051 -0.8336  0.3752
27648SOL     OW85898  10.629   8.484   8.929 -0.7740 -0.3302  0.4982
27648SOL    HW185899  10.602   8.521   8.845  0.4667 -1.6097 -0.5114
27648SOL    HW285900  10.565   8.416   8.947  0.0694 -1.4146 -0.4548
27649SOL     OW85901   1.995   2.899   6.060 -0.2449  0.1295 -0.6457
27649SOL    HW185902   2.047   2.941   5.991 -1.4826 -0.2463 -1.8648
27649SOL    HW285903   1.904   2.912   6.032 -0.8784  1.3622  1.7863
27650SOL     OW85904   3.206   5.502   5.170 -0.1422 -0.0422 -0.0832
27650SOL    HW185905   3.125   5.451   5.177 -0.8706  0.5340 -2.8674
27650SOL    HW285906   3.235   5.488   5.080  2.5211  0.3382  0.6533
27651SOL     OW85907   2.585   8.068   5.704  0.1471 -0.1394 -0.1632
27651SOL    HW185908   2.614   8.140   5.647 -0.1842  0.4044  0.3434
27651SOL    HW285909   2.658   8.055   5.765 -0.0883  0.2665  0.2089
27652SOL     OW85910   1.749   0.047   6.161  0.1890 -0.2256 -0.7096
27652SOL    HW185911   1.799  -0.001   6.227 -0.1303 -0.1360 -0.4004
27652SOL    HW285912   1.764  -0.002   6.080  1.0797  0.0144 -0.7043
27653SOL     OW85913   8.842   0.688  10.318  0.1064 -0.0069 -0.4160
27653SOL    HW185914   8.921   0.734  10.288  1.0723 -0.5237  1.1813
27653SOL    HW285915   8.792   0.755  10.365 -0.2723  0.2384 -1.1427
27654SOL     OW85916   2.035   0.556   9.424 -0.2377 -0.2280 -0.1832
27654SOL    HW185917   2.107   0.606   9.463  0.1385 -0.1611 -0.9264
27654SOL    HW285918   1.957   0.588   9.468  0.0906  0.3889 -0.0288
27655SOL     OW85919   2.711   7.975   6.677  0.3434 -0.0337  0.0566
27655SOL    HW185920   2.624   7.939   6.694 -0.3136  1.0669 -0.8524
27655SOL    HW285921   2.755   7.972   6.762 -1.1829  0.9468  0.9218
27656SOL     OW85922   3.438   4.804   0.430  0.5246  0.0071 -0.5185
27656SOL    HW185923   3.453   4.862   0.355  1.3245 -0.9381 -1.1092
27656SOL    HW285924   3.422   4.718   0.391 -0.0926 -0.2902  0.3695
27657SOL     OW85925   0.870   7.100   6.806 -0.3081  0.4399  0.0491
27657SOL    HW185926   0.870   7.162   6.879 -0.5471  1.7343 -1.0077
27657SOL    HW285927   0.947   7.045   6.822 -0.2340  0.8285  1.1506
27658SOL     OW85928   6.139   5.550   5.312 -0.2904 -0.2112  0.1733
27658SOL    HW185929   6.118   5.585   5.399 -0.9056 -1.2623  0.4632
27658SOL    HW285930   6.143   5.455   5.324 -1.6322 -0.4822 -1.1884
27659SOL     OW85931   7.786   1.240   9.775  0.0492 -0.6786 -0.3849
27659SOL    HW185932   7.854   1.302   9.750  0.2886 -0.2284  1.2492
27659SOL    HW285933   7.711   1.295   9.798 -0.2950 -1.0840 -0.5376
27660SOL     OW85934   8.043   1.678   0.601 -0.0324 -0.8446 -0.1636
27660SOL    HW185935   8.096   1.744   0.646 -1.5363 -0.8785  1.8263
27660SOL    HW285936   8.094   1.655   0.523  1.9132  0.5042  0.6214
27661SOL     OW85937   7.774   0.313   4.008 -0.0859 -0.0088 -0.0125
27661SOL    HW185938   7.741   0.403   4.001  1.1598  0.4453 -0.3581
27661SOL    HW285939   7.830   0.315   4.086 -0.3198 -0.5802  0.1715
27662SOL     OW85940   5.191   3.534  10.682 -0.6457  0.3527 -0.1173
27662SOL    HW185941   5.119   3.540  10.744 -0.0268  1.7321  0.5037
27662SOL    HW285942   5.194   3.619  10.639 -0.9565 -0.5147 -1.9783
27663SOL     OW85943   5.606   0.106   1.680 -0.0260  0.1995  0.3395
27663SOL    HW185944   5.639   0.028   1.634  1.7172  0.5102  0.9737
27663SOL    HW285945   5.542   0.072   1.743  2.3587 -1.0998  2.2466
27664SOL     OW85946   0.962   7.269   6.603 -0.1856 -0.3024 -0.7041
27664SOL    HW185947   0.948   7.218   6.682  0.8885  0.3607 -0.0723
27664SOL    HW285948   1.034   7.225   6.558 -0.0530 -0.0371 -0.7547
27665SOL     OW85949   7.916   6.071   4.254  0.6759  0.0990  0.4194
27665SOL    HW185950   7.954   6.022   4.181  1.6946  0.4194  0.7208
27665SOL    HW285951   7.829   6.094   4.224  0.5424 -1.0275 -0.1229
27666SOL     OW85952  10.206   5.613   9.171 -0.3335  0.2152 -0.6991
27666SOL    HW185953  10.141   5.617   9.101  1.2184 -2.9797 -2.5424
27666SOL    HW285954  10.290   5.628   9.127  0.5976 -0.7667  0.6641
27667SOL     OW85955   6.601   2.671   7.539 -0.0218 -0.2387  0.1402
27667SOL    HW185956   6.560   2.708   7.461 -1.9843 -0.1014  1.1822
27667SOL    HW285957   6.653   2.742   7.576 -0.8545  0.3787  0.1435
27668SOL     OW85958   6.753   8.735   6.950 -0.3585  0.0516 -0.2078
27668SOL    HW185959   6.813   8.679   6.901 -2.2588 -0.6473 -1.8674
27668SOL    HW285960   6.778   8.824   6.926  0.7602 -0.1652  0.0887
27669SOL     OW85961  10.265   4.699   6.503  0.5414 -0.1881  0.0737
27669SOL    HW185962  10.284   4.640   6.576 -0.5246 -0.4400  0.1648
27669SOL    HW285963  10.258   4.786   6.544  2.8726  0.1891 -0.1639
27670SOL     OW85964   3.250   3.792   5.504 -0.2184 -0.4131 -0.6558
27670SOL    HW185965   3.245   3.855   5.432 -0.4690  1.0154  0.5458
27670SOL    HW285966   3.195   3.831   5.573  3.0529  0.3427  1.7726
27671SOL     OW85967   3.812   3.806   7.235 -0.1951  0.6232  0.1542
27671SOL    HW185968   3.728   3.762   7.244 -0.1153 -0.2947 -2.6535
27671SOL    HW285969   3.877   3.737   7.245  0.0276  0.5207 -1.6997
27672SOL     OW85970   0.945   3.668   5.458 -0.2540 -0.6371  0.2804
27672SOL    HW185971   0.859   3.662   5.417  0.2142  0.9332 -1.0527
27672SOL    HW285972   0.927   3.687   5.550 -1.3435  0.2403 -0.0957
27673SOL     OW85973  10.621   6.624   5.851  0.9821 -0.3353  1.0556
27673SOL    HW185974  10.637   6.713   5.820  1.3116 -0.2864  1.3590
27673SOL    HW285975  10.654   6.623   5.941  0.5297 -0.6244  1.2264
27674SOL     OW85976   7.220  10.305   7.227 -0.0130 -0.7433 -0.2612
27674SOL    HW185977   7.264  10.364   7.165  0.7347  1.5267  2.2282
27674SOL    HW285978   7.236  10.217   7.192  2.5389  0.2588 -1.9130
27675SOL     OW85979   3.202   7.400   9.256 -0.2450  0.0223  0.2100
27675SOL    HW185980   3.109   7.392   9.233  0.1654  1.3779 -2.2545
27675SOL    HW285981   3.241   7.319   9.224 -0.3245  0.1957 -0.3437
27676SOL     OW85982   8.667   5.008   7.649 -0.2426  0.0120 -0.0729
27676SOL    HW185983   8.724   5.003   7.726  1.0660 -0.7312 -1.0464
27676SOL    HW285984   8.611   4.930   7.655 -0.1929 -0.0059  0.1551
27677SOL     OW85985   5.699   5.798   4.800  0.0543 -0.3000  0.1239
27677SOL    HW185986   5.630   5.848   4.757  1.0804 -0.1362 -1.4512
27677SOL    HW285987   5.777   5.815   4.747  1.6667  0.6554  2.6369
27678SOL     OW85988   6.304   9.073   2.112 -0.0055  0.3821  0.8455
27678SOL    HW185989   6.306   9.064   2.207 -0.8466 -0.0225  0.8338
27678SOL    HW285990   6.212   9.062   2.089  0.0870  1.1819  0.0467
27679SOL     OW85991   7.722   6.580   6.587  0.0009  0.0569  0.2000
27679SOL    HW185992   7.747   6.672   6.578 -1.2618  0.4352  0.4307
27679SOL    HW285993   7.707   6.550   6.497 -0.1961  0.2564  0.1651
27680SOL     OW85994   5.179   4.482   7.916 -0.2633 -0.1191  0.4597
27680SOL    HW185995   5.170   4.564   7.868 -0.1178 -1.1448 -1.4105
27680SOL    HW285996   5.139   4.416   7.860 -2.4240 -1.0737  2.8924
27681SOL     OW85997   9.544   4.320   1.057  0.4152 -0.2786 -0.6173
27681SOL    HW185998   9.557   4.414   1.063  0.9860 -0.3495 -0.7167
27681SOL    HW285999   9.497   4.298   1.138 -2.4557  0.5194 -1.9728
27682SOL     OW86000   9.559   0.040   3.656 -0.2772  0.0159  0.0943
27682SOL    HW186001   9.524  -0.013   3.583 -1.5811  1.0950 -0.1123
27682SOL    HW286002   9.641  -0.002   3.679 -0.2502 -0.8559 -1.4528
27683SOL     OW86003   3.620   4.576   7.322  0.3363  0.0600  0.0667
27683SOL    HW186004   3.543   4.520   7.313 -0.6738  0.8611  2.7586
27683SOL    HW286005   3.683   4.521   7.370  0.5882  0.1416 -0.1712
27684SOL     OW86006   8.703   6.145   1.408 -0.4080 -0.2060  0.2613
27684SOL    HW186007   8.704   6.075   1.473  0.1391 -0.4921 -0.0499
27684SOL    HW286008   8.638   6.116   1.343  0.9976 -1.2382 -0.7301
27685SOL     OW86009   0.353   3.854  10.235 -0.0474 -0.0246  0.3747
27685SOL    HW186010   0.315   3.827  10.152  1.0746  0.4859 -0.3262
27685SOL    HW286011   0.446   3.831  10.228 -0.4274 -2.8499  2.7028
27686SOL     OW86012  10.411   2.154  10.233  0.1693  0.0420 -0.3451
27686SOL    HW186013  10.444   2.243  10.246 -0.8427  0.3893 -0.0805
27686SOL    HW286014  10.446   2.128  10.148  2.0510 -0.0407  0.4236
27687SOL     OW86015   0.741   5.281   0.795  0.4323  0.3383  0.0408
27687SOL    HW186016   0.722   5.349   0.859  0.2337  0.4682 -0.1559
27687SOL    HW286017   0.660   5.229   0.791  1.3401 -1.4094  2.0092
27688SOL     OW86018   2.116   2.382   1.206 -0.9029  0.8340  0.3391
27688SOL    HW186019   2.054   2.376   1.134  0.4933  1.1875 -0.9581
27688SOL    HW286020   2.062   2.399   1.283 -2.7511 -2.3925 -0.0278
27689SOL     OW86021   4.503   3.490   0.449  0.1151 -0.1470 -0.6319
27689SOL    HW186022   4.545   3.405   0.460  2.3094  1.0431  1.1753
27689SOL    HW286023   4.425   3.486   0.504  1.3414 -0.3657  1.2040
27690SOL     OW86024   3.797   4.655   1.040 -0.3815  0.7293 -0.2573
27690SOL    HW186025   3.855   4.682   0.970  0.9103 -1.7158 -0.2376
27690SOL    HW286026   3.733   4.598   0.997 -0.4477  0.3533  0.3314
27691SOL     OW86027   3.421   0.111   5.698 -0.3960  0.3014  0.2257
27691SOL    HW186028   3.415   0.018   5.678  0.8768 -0.1890  1.9256
27691SOL    HW286029   3.515   0.129   5.703 -0.6306  1.5767  0.3514
27692SOL     OW86030   5.040   0.068   2.696  0.4124  0.7360  0.1375
27692SOL    HW186031   5.011  -0.013   2.737 -1.4446  1.0071 -0.5164
27692SOL    HW286032   4.971   0.132   2.719  1.5218  1.9742  0.1398
27693SOL     OW86033  10.475   5.465   6.454 -0.1439 -0.3748  0.1278
27693SOL    HW186034  10.485   5.400   6.524 -0.6072 -1.9714 -1.2231
27693SOL    HW286035  10.562   5.504   6.445  0.6217 -2.0704 -0.1768
27694SOL     OW86036   1.737   0.346   1.923  0.3135 -0.4431 -0.3908
27694SOL    HW186037   1.717   0.438   1.906  0.7045 -0.3686 -0.4656
27694SOL    HW286038   1.802   0.348   1.993  0.1185 -0.6756 -0.2015
27695SOL     OW86039   8.955   8.022   8.832  0.3336  0.0729  0.3517
27695SOL    HW186040   8.997   8.105   8.852  2.7900 -0.8253 -0.6329
27695SOL    HW286041   8.879   8.017   8.891  0.6958  2.5187  1.1037
27696SOL     OW86042   7.036   2.595   4.679  0.2419 -0.0484 -0.2201
27696SOL    HW186043   6.977   2.598   4.755  0.1278 -1.0533 -0.2566
27696SOL    HW286044   7.030   2.504   4.648  0.3815  0.3209 -1.3599
27697SOL     OW86045   3.053   7.167   8.474  0.1477  0.3573 -0.3953
27697SOL    HW186046   3.121   7.106   8.447  0.0680  0.5471 -1.0438
27697SOL    HW286047   2.976   7.142   8.423 -0.1274  0.4712 -0.0474
27698SOL     OW86048   0.793   5.816  10.005 -0.3003  0.2371 -0.0209
27698SOL    HW186049   0.803   5.731  10.048 -0.1394 -0.2924 -1.0878
27698SOL    HW286050   0.872   5.864  10.031 -1.1670  0.7027  1.9438
27699SOL     OW86051   3.781   9.215   3.906  0.1081  0.1837  0.5090
27699SOL    HW186052   3.798   9.205   4.000 -0.7505 -0.6221  0.5997
27699SOL    HW286053   3.831   9.145   3.865  0.3732  0.4498  0.3821
27700SOL     OW86054   2.631   6.514   0.758  0.0542  0.8286 -0.7020
27700SOL    HW186055   2.677   6.544   0.836  0.0402  0.4769 -0.5557
27700SOL    HW286056   2.564   6.580   0.743  0.2015  1.0148 -0.5473
27701SOL     OW86057  10.224   6.989   0.256  0.9799  0.1008  0.5914
27701SOL    HW186058  10.132   7.013   0.266  1.1422  0.8001  0.4817
27701SOL    HW286059  10.256   6.980   0.345  0.1840 -2.7226  0.6705
27702SOL     OW86060  10.645   1.463   4.138 -0.3838  0.3638  0.5125
27702SOL    HW186061  10.571   1.483   4.194 -1.4127 -0.4007 -0.5202
27702SOL    HW286062  10.632   1.372   4.112  1.4351 -0.1012  1.0461
27703SOL     OW86063   6.967   2.394   8.427 -0.0505  0.0700  0.0935
27703SOL    HW186064   7.021   2.368   8.501 -2.4526 -0.8730  1.6314
27703SOL    HW286065   7.020   2.374   8.350  2.4848  0.9730  1.4823
27704SOL     OW86066   7.107   7.229   7.326  0.2816  0.0835  0.0217
27704SOL    HW186067   7.177   7.190   7.379 -1.3439 -0.6908  1.7041
27704SOL    HW286068   7.108   7.179   7.244  0.5374 -1.1409  0.7499
27705SOL     OW86069   0.884   1.429   0.347 -0.2527 -0.1948 -0.1302
27705SOL    HW186070   0.931   1.488   0.407 -1.9977 -0.3200  1.4717
27705SOL    HW286071   0.791   1.448   0.363 -0.8481 -2.6051 -0.3655
27706SOL     OW86072   0.915   6.527   7.933  0.0594  0.0737  0.1616
27706SOL    HW186073   1.009   6.542   7.944  0.0870  1.2092 -1.3620
27706SOL    HW286074   0.878   6.545   8.020  1.1203  0.6051  0.5257
27707SOL     OW86075   2.234   2.916   8.456  0.0454 -0.3269  0.4403
27707SOL    HW186076   2.177   2.963   8.395 -1.3195 -0.3110  1.6684
27707SOL    HW286077   2.318   2.910   8.411 -0.6107  0.6345 -0.9777
27708SOL     OW86078   8.050   5.786   2.346  0.4763 -0.3102 -0.0079
27708SOL    HW186079   8.051   5.826   2.433 -2.0799  0.1200 -0.0711
27708SOL    HW286080   8.039   5.860   2.287  1.2514 -0.6770 -0.6120
27709SOL     OW86081   9.213  10.334   0.026  0.7144  0.0924 -0.0979
27709SOL    HW186082   9.288  10.303   0.076  0.1351 -0.7366  0.2657
27709SOL    HW286083   9.138  10.322   0.084  0.2406  0.5703 -0.5946
27710SOL     OW86084   9.444   9.585   4.204  0.6407 -0.3523  0.3214
27710SOL    HW186085   9.413   9.654   4.262  1.0750  2.2639 -2.3305
27710SOL    HW286086   9.372   9.572   4.142  1.1562 -1.2279 -0.1092
27711SOL     OW86087   0.127   2.657   1.385 -0.0223  0.2592 -0.3909
27711SOL    HW186088   0.221   2.646   1.398  0.1453  1.5164 -0.4817
27711SOL    HW286089   0.100   2.719   1.453 -0.8206 -0.2183 -0.2589
27712SOL     OW86090   3.413   5.632   8.760 -0.1825  0.0594  0.2416
27712SOL    HW186091   3.361   5.639   8.840  1.0064  0.8049  0.9838
27712SOL    HW286092   3.416   5.721   8.724 -0.0070 -0.1055 -0.1710
27713SOL     OW86093  10.284   4.629  10.201  0.1200 -0.4925  0.2663
27713SOL    HW186094  10.331   4.556  10.161  1.8640  1.2758 -1.0501
27713SOL    HW286095  10.346   4.665  10.264  0.0351  1.0031 -0.4729
27714SOL     OW86096   2.606   4.823   5.479 -0.4790  0.1402  0.0645
27714SOL    HW186097   2.540   4.854   5.542 -0.3951 -0.7202  0.6022
27714SOL    HW286098   2.684   4.807   5.533 -0.4147 -0.6290 -0.2530
27715SOL     OW86099   6.592   9.863   8.834 -0.5531  0.1825  0.3460
27715SOL    HW186100   6.627   9.831   8.751 -1.2025 -0.8992  0.4687
27715SOL    HW286101   6.505   9.824   8.840  0.3422 -1.8134  2.6359
27716SOL     OW86102   6.264   8.525   9.439 -0.5699  0.3629  0.4635
27716SOL    HW186103   6.213   8.557   9.364  0.0422 -2.3856 -1.2902
27716SOL    HW286104   6.199   8.482   9.494 -0.7967  1.0034  0.7054
27717SOL     OW86105   5.484   9.965   5.829 -0.7324  0.3482 -0.2428
27717SOL    HW186106   5.409   9.905   5.831 -0.2783 -0.2592 -0.9736
27717SOL    HW286107   5.560   9.908   5.838 -0.3868  1.1201  2.4137
27718SOL     OW86108   3.179   4.110   4.718 -0.1587 -0.0529  0.1445
27718SOL    HW186109   3.148   4.146   4.635  1.1074  0.6386 -0.0616
27718SOL    HW286110   3.143   4.022   4.722 -0.8801  0.1973 -0.7667
27719SOL     OW86111   6.688   6.671   7.416  0.2356  0.2316 -0.2923
27719SOL    HW186112   6.704   6.764   7.402  0.8086  0.3610  1.1378
27719SOL    HW286113   6.614   6.668   7.476 -0.3475 -0.2720 -1.0045
27720SOL     OW86114  10.502   7.377   1.013  0.0621  0.2012 -0.4856
27720SOL    HW186115  10.486   7.291   0.975 -0.1686 -0.9311  1.9672
27720SOL    HW286116  10.597   7.382   1.023  0.0794  0.2476 -0.6694
27721SOL     OW86117   0.783   9.106   9.404 -0.0986 -0.3119 -0.0653
27721SOL    HW186118   0.826   9.141   9.326 -0.1301 -1.0839 -0.4482
27721SOL    HW286119   0.854   9.063   9.453 -0.3894 -1.4940 -0.6451
27722SOL     OW86120   7.855   3.704   6.816  0.0576  0.5496 -0.3278
27722SOL    HW186121   7.790   3.636   6.801 -0.2413  0.7393  0.1105
27722SOL    HW286122   7.876   3.737   6.728  1.1514 -0.9655 -0.6854
27723SOL     OW86123   4.353   1.266   8.809 -0.3886  0.3257 -0.5214
27723SOL    HW186124   4.314   1.194   8.858  0.2331  1.2088  1.3525
27723SOL    HW286125   4.290   1.284   8.739 -1.6138 -0.5853  0.3008
27724SOL     OW86126   3.999   8.939   4.218  0.1605 -0.1421 -0.2586
27724SOL    HW186127   4.060   8.874   4.183 -1.4562 -1.8208 -0.1242
27724SOL    HW286128   3.913   8.909   4.188 -1.1194 -0.5185  3.3631
27725SOL     OW86129   9.232   2.694   9.422 -0.2171  0.2787  0.5486
27725SOL    HW186130   9.155   2.647   9.388 -0.5799  2.0358 -1.2486
27725SOL    HW286131   9.251   2.651   9.506 -0.7204 -2.7997 -0.7674
27726SOL     OW86132   5.417   6.385   6.030 -0.1452  0.0985 -0.5449
27726SOL    HW186133   5.498   6.433   6.048 -0.3254 -0.1414  1.0204
27726SOL    HW286134   5.429   6.301   6.073 -1.6938  0.5098  0.8016
27727SOL     OW86135   9.441   1.080  10.319 -0.1291  0.0763  0.2115
27727SOL    HW186136   9.469   1.171  10.322 -0.6549  0.2912 -1.0224
27727SOL    HW286137   9.522   1.031  10.303 -0.2097  0.5759 -1.9347
27728SOL     OW86138   4.787   4.076   8.467 -0.0175  0.2328  0.2472
27728SOL    HW186139   4.717   4.109   8.522 -0.4230 -0.0876 -0.0693
27728SOL    HW286140   4.866   4.086   8.520 -0.2574  0.8625  0.4922
27729SOL     OW86141   4.062   2.272   2.695 -0.2900  0.4684  0.4171
27729SOL    HW186142   3.996   2.331   2.731  0.2443  0.3524  1.6471
27729SOL    HW286143   4.051   2.279   2.600 -1.5882  0.9759  0.5828
27730SOL     OW86144   2.313   6.920   0.970  0.1025 -0.5046 -0.0636
27730SOL    HW186145   2.341   6.988   0.908 -1.1134  2.7842  2.6563
27730SOL    HW286146   2.220   6.935   0.982  0.3441 -0.7065  2.7561
27731SOL     OW86147   7.068   5.363   6.704 -0.2580  0.0276 -0.0139
27731SOL    HW186148   7.047   5.432   6.768 -1.9198 -0.1054 -0.3883
27731SOL    HW286149   7.146   5.321   6.740  0.5270  1.7780  0.4727
27732SOL     OW86150   0.679   4.851   3.028  0.0864 -0.0879 -0.1309
27732SOL    HW186151   0.718   4.933   3.059  3.3827 -1.4672 -0.3087
27732SOL    HW286152   0.634   4.816   3.105 -0.0243  1.1050  0.3695
27733SOL     OW86153   3.230   3.071   7.689  0.5500  0.0920 -0.2750
27733SOL    HW186154   3.189   2.995   7.647 -1.9336  1.0532  0.2585
27733SOL    HW286155   3.214   3.143   7.629 -0.7089  0.9662  1.0587
27734SOL     OW86156   7.026   2.521   7.136 -0.0911  0.1631  0.0070
27734SOL    HW186157   7.078   2.527   7.056 -1.1411 -0.7383 -0.7676
27734SOL    HW286158   6.968   2.597   7.132  0.3377  0.5154  0.2891
27735SOL     OW86159   4.248   4.739   4.523  0.3673 -0.1559 -0.3295
27735SOL    HW186160   4.282   4.697   4.602 -0.1221  1.0960  0.5722
27735SOL    HW286161   4.236   4.667   4.461  1.0088 -1.1261  0.6335
27736SOL     OW86162   1.402   3.188   0.681  0.1535  0.6544  0.2659
27736SOL    HW186163   1.361   3.130   0.745 -1.1241 -0.3918 -1.4253
27736SOL    HW286164   1.496   3.178   0.697  0.0690 -2.6428 -0.5101
27737SOL     OW86165   7.334   3.861   5.603  0.3467 -0.1224  0.3092
27737SOL    HW186166   7.333   3.767   5.585 -1.2358 -0.3375  1.2753
27737SOL    HW286167   7.247   3.891   5.576  0.8419  1.0947 -0.0170
27738SOL     OW86168   1.191   9.902   0.121  0.9626  0.4918 -0.0786
27738SOL    HW186169   1.244   9.848   0.062 -0.7499 -0.0162 -1.2070
27738SOL    HW286170   1.239   9.900   0.204  1.8036 -1.4173 -0.5514
27739SOL     OW86171   9.143   3.806  10.256  0.4902  0.3659 -0.0729
27739SOL    HW186172   9.076   3.752  10.215  0.4058  0.9939 -0.8063
27739SOL    HW286173   9.189   3.748  10.316  1.6918 -1.1025 -2.2468
27740SOL     OW86174   1.363   4.923   4.453 -0.5215 -0.5328 -0.4078
27740SOL    HW186175   1.449   4.891   4.478 -0.5712 -0.6533 -0.3926
27740SOL    HW286176   1.372   4.946   4.360 -0.4432 -0.4427 -0.3786
27741SOL     OW86177   4.968   9.149   5.886  0.2247 -0.1631 -0.3372
27741SOL    HW186178   4.893   9.125   5.940  1.0457 -3.1010 -0.3249
27741SOL    HW286179   4.930   9.176   5.802 -0.9287  1.9083  0.7763
27742SOL     OW86180  10.526   6.219   1.573  0.2962 -0.2103 -0.1678
27742SOL    HW186181  10.617   6.197   1.591  0.2116  0.5953  1.4264
27742SOL    HW286182  10.525   6.315   1.569 -0.7866 -0.0736  1.9280
27743SOL     OW86183   7.609   8.430   2.274  0.0685 -0.6287 -0.0422
27743SOL    HW186184   7.626   8.488   2.348 -0.6412  0.9830 -1.0769
27743SOL    HW286185   7.551   8.362   2.309  0.0394 -0.0998  0.9639
27744SOL     OW86186  10.074   8.576   3.283  0.1436 -0.7302  0.1509
27744SOL    HW186187  10.064   8.602   3.191 -1.6782 -1.5743  0.0587
27744SOL    HW286188  10.085   8.659   3.330  1.5745 -0.3120 -0.8452
27745SOL     OW86189   9.231   4.525   6.474 -0.8203 -0.3175  0.5140
27745SOL    HW186190   9.289   4.528   6.397 -0.4989 -0.4071  0.7522
27745SOL    HW286191   9.143   4.541   6.438 -0.9893 -2.5421 -0.1866
27746SOL     OW86192   2.591   9.602   6.900 -0.4595  0.5019 -0.2727
27746SOL    HW186193   2.572   9.583   6.992 -0.6762  2.7009  0.1855
27746SOL    HW286194   2.526   9.551   6.851 -0.7327 -0.2126  0.8106
27747SOL     OW86195   7.329   8.994   0.452  0.0407 -0.0176  0.1188
27747SOL    HW186196   7.240   8.999   0.417 -0.0248  1.6820  0.4436
27747SOL    HW286197   7.322   9.030   0.540  0.5549 -2.4792  1.2400
27748SOL     OW86198   5.019   8.609   8.994 -0.3355  0.5519  0.2497
27748SOL    HW186199   4.969   8.691   8.992  0.9879  1.3806 -0.6006
27748SOL    HW286200   4.972   8.554   9.056 -2.8525  0.8938 -1.2034
27749SOL     OW86201   9.423   4.837   2.345  0.2034  0.2518  0.5613
27749SOL    HW186202   9.491   4.872   2.403  0.3993 -0.5340  0.8160
27749SOL    HW286203   9.361   4.794   2.404  0.8864 -1.3825  0.1524
27750SOL     OW86204   8.940   2.446   7.068  0.1759  0.4613  0.3857
27750SOL    HW186205   8.894   2.410   7.145  0.1767 -1.2025 -0.3419
27750SOL    HW286206   9.033   2.437   7.090  0.2352  2.7457  1.3708
27751SOL     OW86207   3.774  10.641   9.995  0.6821 -0.1251  0.6471
27751SOL    HW186208   3.844  10.577  10.007  0.6313 -0.4885 -0.8859
27751SOL    HW286209   3.812  10.708   9.939  0.4618  0.7768  1.5534
27752SOL     OW86210   7.072   1.362   1.037 -0.7341  0.1519 -0.0034
27752SOL    HW186211   7.090   1.382   0.944 -1.5380  2.8462  0.3373
27752SOL    HW286212   6.979   1.341   1.039 -0.7691  0.3330  0.2227
27753SOL     OW86213   1.284   6.274   3.237  0.2018  0.2233 -0.3947
27753SOL    HW186214   1.310   6.185   3.263  1.3487  0.7191  0.2630
27753SOL    HW286215   1.280   6.271   3.142 -2.9434 -1.3530 -0.3257
27754SOL     OW86216   2.314   6.272   6.899 -0.5281 -0.0112  0.3565
27754SOL    HW186217   2.395   6.257   6.948  0.0380  0.0644 -0.5347
27754SOL    HW286218   2.260   6.196   6.919 -0.3229  0.0441  1.1365
27755SOL     OW86219   0.269   8.394   1.890  0.0704  0.1052  0.0350
27755SOL    HW186220   0.186   8.352   1.867  0.3205 -0.4462  0.1398
27755SOL    HW286221   0.243   8.475   1.934 -0.4313  1.1325 -1.9989
27756SOL     OW86222   1.986   2.256   2.641 -0.7940  0.0850  0.4027
27756SOL    HW186223   2.023   2.340   2.668 -0.2356  0.4245 -1.2843
27756SOL    HW286224   1.983   2.204   2.721 -0.9498  1.6247  1.4451
27757SOL     OW86225   6.743   0.355   9.213  0.3669 -0.1389  0.5768
27757SOL    HW186226   6.709   0.321   9.131  1.1598  1.2168 -0.3590
27757SOL    HW286227   6.728   0.286   9.277 -0.8657 -0.9485 -0.5669
27758SOL     OW86228   8.809   3.139   1.822  0.5344 -0.0755 -0.0523
27758SOL    HW186229   8.841   3.057   1.786 -0.1746 -0.1941 -0.4316
27758SOL    HW286230   8.736   3.114   1.879 -1.9194  0.4496 -2.6852
27759SOL     OW86231   5.523   8.958   9.131  0.2727 -0.0888  0.4126
27759SOL    HW186232   5.509   9.027   9.066  1.3688 -1.5517 -1.4940
27759SOL    HW286233   5.618   8.958   9.145  0.8170 -3.1767 -2.1076
27760SOL     OW86234   9.209   1.872   1.703 -0.3459  0.0860 -0.1768
27760SOL    HW186235   9.137   1.903   1.647  0.6843 -1.6257 -2.6264
27760SOL    HW286236   9.214   1.778   1.686  3.4565  0.3456 -1.3854
27761SOL     OW86237   5.690   8.743   3.026 -0.2248 -0.0342  0.4272
27761SOL    HW186238   5.646   8.802   2.964 -1.9053 -0.6935  0.9529
27761SOL    HW286239   5.693   8.659   2.981 -1.6756 -0.5778  1.2984
27762SOL     OW86240   2.402   7.287   8.704 -0.0692 -0.0070  0.0735
27762SOL    HW186241   2.465   7.330   8.646 -0.3978 -1.7281 -1.6788
27762SOL    HW286242   2.436   7.198   8.715 -1.4091 -0.5087  0.3229
27763SOL     OW86243   8.199   4.136   5.128  0.0288  0.0473 -0.3289
27763SOL    HW186244   8.239   4.200   5.070 -0.1107 -1.1429 -1.8040
27763SOL    HW286245   8.105   4.153   5.122  0.1430  2.6192  2.8696
27764SOL     OW86246   3.033   4.187   0.631  0.3864 -0.7385  0.2764
27764SOL    HW186247   3.076   4.258   0.679  0.5643 -0.7198  0.0919
27764SOL    HW286248   3.046   4.209   0.539  0.7084 -1.1623  0.2164
27765SOL     OW86249   1.812   5.500   6.224 -0.1092 -0.1723 -0.2804
27765SOL    HW186250   1.782   5.589   6.203 -1.1695 -0.6254 -0.7666
27765SOL    HW286251   1.844   5.465   6.141  3.4712  0.8474  0.4854
27766SOL     OW86252   9.003   9.642   4.742  0.3792 -0.1578 -0.3270
27766SOL    HW186253   9.063   9.714   4.762  1.5673 -0.8731 -1.2010
27766SOL    HW286254   8.962   9.668   4.660  0.3743 -0.2100 -0.3412
27767SOL     OW86255   8.949   9.244   2.861  0.1461  0.9462 -0.2159
27767SOL    HW186256   8.862   9.217   2.890  0.7132  0.8650  1.5196
27767SOL    HW286257   8.997   9.262   2.942  3.0372 -2.8700 -0.7695
27768SOL     OW86258  10.540   9.031   0.428  0.4144 -0.3694 -0.2190
27768SOL    HW186259  10.553   9.089   0.354  0.9087 -1.0516 -0.6848
27768SOL    HW286260  10.629   9.011   0.459  0.5506 -3.5994 -2.2482
27769SOL     OW86261   7.949   1.992   2.366  0.2850 -0.2686  0.1111
27769SOL    HW186262   8.026   1.938   2.348  0.2782 -0.6486  1.1714
27769SOL    HW286263   7.875   1.933   2.355  0.2369 -0.3031  0.6061
27770SOL     OW86264   2.238   6.884   3.495  0.4702  0.5486 -0.2870
27770SOL    HW186265   2.310   6.846   3.546  0.3836  2.4802  1.4305
27770SOL    HW286266   2.280   6.918   3.416  0.7512 -1.7923 -1.2050
27771SOL     OW86267   0.016   9.289   6.038  0.9049  0.3466 -0.6767
27771SOL    HW186268  -0.078   9.299   6.057  0.6241  0.5855 -2.1235
27771SOL    HW286269   0.058   9.353   6.096  0.0652  1.1887 -0.9629
27772SOL     OW86270   9.336   3.521   6.734 -0.6500  0.0343  0.3113
27772SOL    HW186271   9.429   3.541   6.746 -0.6360 -0.1909  0.5858
27772SOL    HW286272   9.324   3.437   6.777 -0.7194 -0.5408 -0.8138
27773SOL     OW86273   1.211   9.895   6.364  0.3651 -0.4633 -0.8576
27773SOL    HW186274   1.138   9.923   6.309  0.4557  0.3595 -0.5725
27773SOL    HW286275   1.282   9.879   6.302  0.6280  0.9701 -0.9714
27774SOL     OW86276   4.525   2.257   7.334 -0.2198 -0.2074  1.2012
27774SOL    HW186277   4.464   2.206   7.281  0.7713 -0.1746 -0.0230
27774SOL    HW286278   4.605   2.205   7.336  0.2877  0.5504  1.2946
27775SOL     OW86279   9.958   6.367   0.654 -0.3400 -1.0479  0.0396
27775SOL    HW186280  10.002   6.295   0.698  0.8888 -1.1884 -1.3482
27775SOL    HW286281   9.981   6.357   0.561 -2.3673 -0.4547 -0.6043
27776SOL     OW86282   3.122   0.327   1.016 -0.1900  0.0835  0.5573
27776SOL    HW186283   3.140   0.421   1.022  0.0032  0.0405  0.6496
27776SOL    HW286284   3.155   0.302   0.930 -2.5079  0.5986 -0.5752
27777SOL     OW86285   1.884   9.268   5.330 -0.3141  0.2262 -0.5301
27777SOL    HW186286   1.869   9.201   5.264  2.0267 -0.0666 -0.8701
27777SOL    HW286287   1.921   9.341   5.282 -0.8116  0.9370  0.1460
27778SOL     OW86288   5.767   4.838  10.132 -0.0121  0.8281 -0.0192
27778SOL    HW186289   5.780   4.746  10.112 -0.3685  1.1371 -1.8915
27778SOL    HW286290   5.843   4.863  10.185  0.7363 -0.2523 -0.5491
27779SOL     OW86291   6.317   5.556   7.870  0.6249 -0.2094  0.2723
27779SOL    HW186292   6.326   5.462   7.856 -1.9427 -0.4824  0.0260
27779SOL    HW286293   6.398   5.582   7.914  0.7201 -2.8273  1.8159
27780SOL     OW86294   5.602   5.563   0.658  0.8618 -0.5938 -0.7412
27780SOL    HW186295   5.552   5.487   0.688  0.8392 -0.1846  0.2885
27780SOL    HW286296   5.536   5.627   0.631  0.6614  0.6843  2.3783
27781SOL     OW86297   6.511   2.233   9.218 -0.2247 -0.1804  0.6354
27781SOL    HW186298   6.594   2.275   9.195 -1.5471  1.1725 -1.9956
27781SOL    HW286299   6.460   2.301   9.261 -1.4969  0.3726 -1.5742
27782SOL     OW86300   8.880   9.835   4.373  0.3516  0.3601 -0.0646
27782SOL    HW186301   8.916   9.883   4.448 -0.1570 -1.1569  1.2229
27782SOL    HW286302   8.785   9.845   4.382  0.3027  2.1844 -1.9491
27783SOL     OW86303   3.453   2.141   1.392 -0.2155  0.3072  0.2346
27783SOL    HW186304   3.485   2.221   1.434  0.1552  0.1089  0.3314
27783SOL    HW286305   3.410   2.093   1.463  0.5099 -0.0804  0.4168
27784SOL     OW86306   5.537   0.183   6.269  0.0266 -0.5408  0.4864
27784SOL    HW186307   5.454   0.199   6.224 -0.4281  0.8431  1.7427
27784SOL    HW286308   5.595   0.251   6.237  0.3696 -0.8646  0.4083
27785SOL     OW86309   7.585   5.936   6.324 -0.1343 -0.3662 -0.2125
27785SOL    HW186310   7.507   5.959   6.375  0.1344 -0.1730  0.1167
27785SOL    HW286311   7.552   5.919   6.236 -0.4431  0.5996 -0.2999
27786SOL     OW86312   6.896   6.296   8.994  0.4768 -0.5529 -0.2963
27786SOL    HW186313   6.928   6.213   8.958 -2.1638 -1.4685 -0.7318
27786SOL    HW286314   6.969   6.328   9.047  1.2732 -3.6234  0.6652
27787SOL     OW86315   0.477   3.071   9.908  0.0665 -0.1143 -0.6505
27787SOL    HW186316   0.537   3.016   9.958  1.4031  0.7268 -1.2705
27787SOL    HW286317   0.424   3.114   9.975  1.3767  0.4911  0.0562
27788SOL     OW86318   2.750   3.666  10.259  0.1881  0.0675  0.4424
27788SOL    HW186319   2.693   3.611  10.313  0.5374 -1.0430 -0.2912
27788SOL    HW286320   2.824   3.685  10.316 -0.2334  0.3158  0.9171
27789SOL     OW86321   9.292   5.052   1.588 -0.1044 -0.3298  0.0635
27789SOL    HW186322   9.308   5.066   1.682  1.0070 -1.5172  0.0761
27789SOL    HW286323   9.342   4.973   1.567  0.0702  0.2142 -1.6547
27790SOL     OW86324   5.660   0.086  10.567  0.0363  0.0905 -0.2619
27790SOL    HW186325   5.692   0.103  10.478  1.5236 -0.5782  0.1060
27790SOL    HW286326   5.569   0.113  10.566  0.0843  0.2681 -1.9428
27791SOL     OW86327   4.848   7.565   1.168  0.0223 -0.3912 -0.1937
27791SOL    HW186328   4.843   7.617   1.248 -0.6451  0.3136 -0.6758
27791SOL    HW286329   4.786   7.493   1.182  1.0491 -1.1531  0.5293
27792SOL     OW86330   1.801   3.359   6.697 -0.5768 -0.2472  0.6066
27792SOL    HW186331   1.758   3.396   6.773 -1.3851  2.0790 -0.8867
27792SOL    HW286332   1.731   3.344   6.634  0.4107  1.3820 -0.9967
27793SOL     OW86333   4.961   8.203   0.565 -0.5342  0.0902  0.5181
27793SOL    HW186334   5.043   8.161   0.592 -0.4537 -0.1302 -0.0492
27793SOL    HW286335   4.987   8.290   0.536 -0.4615 -0.0642  0.1098
27794SOL     OW86336   8.946   1.580   9.577  0.0084  0.1636  0.2881
27794SOL    HW186337   8.919   1.504   9.526 -2.8254  1.0332  0.3344
27794SOL    HW286338   9.039   1.592   9.555  0.8155 -3.6599  0.8135
27795SOL     OW86339   7.009   4.755   5.818 -0.7112 -0.5957 -0.6039
27795SOL    HW186340   6.923   4.779   5.853 -0.1398  1.0614 -0.2587
27795SOL    HW286341   7.039   4.834   5.772  0.7777 -1.0269 -0.4170
27796SOL     OW86342   5.599   6.013   2.563  0.7671 -0.4504  0.2510
27796SOL    HW186343   5.607   6.106   2.543  0.5767 -0.7486 -1.3133
27796SOL    HW286344   5.603   6.009   2.659 -3.7790  1.6974  0.8352
27797SOL     OW86345   0.059   3.658   7.195  0.2707  0.0528  0.4734
27797SOL    HW186346   0.056   3.697   7.107  0.0338  0.1505  0.5249
27797SOL    HW286347   0.098   3.571   7.181 -0.9116 -0.4395  0.0745
27798SOL     OW86348   2.150   1.272   8.240  0.2774  0.3728 -0.1809
27798SOL    HW186349   2.130   1.247   8.330 -1.7240  0.3254 -0.5873
27798SOL    HW286350   2.243   1.253   8.230  0.0426 -1.8393  1.1643
27799SOL     OW86351   4.335   7.026   2.168 -0.3699 -0.0440 -0.3455
27799SOL    HW186352   4.367   7.114   2.145 -0.9689 -0.2703 -2.1836
27799SOL    HW286353   4.408   6.968   2.148 -1.2643 -0.3827 -3.1044
27800SOL     OW86354   0.623   5.547   5.844  0.2735  0.3758 -0.1029
27800SOL    HW186355   0.585   5.611   5.904 -1.6694 -0.9677  0.2154
27800SOL    HW286356   0.570   5.553   5.765 -1.1259 -1.9445  0.5571
27801SOL     OW86357   8.952   3.569  10.180 -0.4876 -0.8625  0.0797
27801SOL    HW186358   8.964   3.595  10.088  0.1582  3.0859  1.1090
27801SOL    HW286359   9.034   3.527  10.204  0.1464 -0.0526 -0.6214
27802SOL     OW86360   6.817   5.983   1.188  0.6680 -0.1232  0.1273
27802SOL    HW186361   6.885   5.936   1.139  1.2878  0.0790  0.7805
27802SOL    HW286362   6.776   5.916   1.242 -0.9611 -0.6339 -1.6426
27803SOL     OW86363   5.531   8.950   1.619  0.1577 -0.4269  0.3357
27803SOL    HW186364   5.541   8.868   1.667 -1.4875 -0.6480  0.3597
27803SOL    HW286365   5.507   9.015   1.685  3.5549  0.6735  0.6972
27804SOL     OW86366   6.458   2.497   1.860 -0.3293  0.0105  0.4940
27804SOL    HW186367   6.476   2.546   1.940 -1.0867 -2.7411  2.5107
27804SOL    HW286368   6.544   2.482   1.821  0.6236 -1.9440  3.0253
27805SOL     OW86369   0.961  10.322  10.587  0.2476  0.0803  0.7531
27805SOL    HW186370   1.002  10.242  10.621 -1.4164 -0.3537  1.8818
27805SOL    HW286371   0.917  10.360  10.663 -0.1069  1.3701 -0.0711
27806SOL     OW86372   1.234   6.313   6.564  0.1612 -0.4879 -0.2332
27806SOL    HW186373   1.148   6.341   6.533  0.7458  0.9400 -0.5994
27806SOL    HW286374   1.238   6.343   6.655  1.2259  1.7443 -0.9540
27807SOL     OW86375   8.623   6.873   5.649  0.8966 -0.6323 -0.2693
27807SOL    HW186376   8.540   6.921   5.648  0.4652 -1.2257  1.5509
27807SOL    HW286377   8.658   6.882   5.561 -0.7329  0.2856 -0.8616
27808SOL     OW86378   6.386   4.504  10.472 -0.2201  0.0543 -0.2041
27808SOL    HW186379   6.315   4.473  10.527  1.3291 -0.3254  1.6963
27808SOL    HW286380   6.385   4.445  10.396 -1.5728 -0.2836  0.0612
27809SOL     OW86381   5.125   5.209   9.202  0.4106 -0.1939 -0.4322
27809SOL    HW186382   5.080   5.187   9.284  1.5864 -0.0438  0.2673
27809SOL    HW286383   5.171   5.129   9.178  1.0303  0.1161 -0.3000
27810SOL     OW86384   9.942   0.255   7.270 -0.2754  0.5231  0.2675
27810SOL    HW186385   9.852   0.254   7.237  0.4193  0.4725 -1.8096
27810SOL    HW286386   9.949   0.175   7.322 -1.4432  0.5515  0.5015
27811SOL     OW86387   2.248   2.008   0.839 -0.4679  0.1260  0.1535
27811SOL    HW186388   2.178   2.072   0.827 -0.8337 -0.1554  0.7420
27811SOL    HW286389   2.217   1.950   0.909  1.5117  1.6180  2.4407
27812SOL     OW86390   4.702   6.340   7.502 -0.1964 -0.1490  0.7941
27812SOL    HW186391   4.755   6.300   7.571 -0.1577  1.6834  1.8688
27812SOL    HW286392   4.632   6.386   7.548 -0.7080  0.3543 -0.4403
27813SOL     OW86393   3.251   6.300   4.920 -0.4032 -0.0751  0.2286
27813SOL    HW186394   3.286   6.356   4.989 -1.6633 -0.4978  1.2473
27813SOL    HW286395   3.328   6.257   4.882  1.0547  4.3361 -2.5776
27814SOL     OW86396   1.402   7.792   0.992 -0.2095  0.5269 -0.2640
27814SOL    HW186397   1.441   7.755   0.913  0.0620 -0.7872  0.4489
27814SOL    HW286398   1.451   7.872   1.008  1.0889 -0.2360 -0.3102
27815SOL     OW86399   5.240   3.201   2.767  0.2517 -0.0798 -0.2212
27815SOL    HW186400   5.144   3.208   2.773  0.3055 -0.1022  0.9977
27815SOL    HW286401   5.271   3.235   2.851  1.1107 -3.3717  0.9473
27816SOL     OW86402   1.392   2.137   5.966  0.3513 -0.8343  0.3428
27816SOL    HW186403   1.437   2.055   5.944  2.4611  0.3324  0.0395
27816SOL    HW286404   1.336   2.155   5.891 -1.0779 -2.5515  0.9169
27817SOL     OW86405   0.917   3.463   4.488  0.1126  0.5676  0.1383
27817SOL    HW186406   0.872   3.489   4.408  2.2107  1.1125 -0.9491
27817SOL    HW286407   0.920   3.367   4.483  1.1713  0.6279 -1.0513
27818SOL     OW86408   3.522   3.950   0.614  0.1867 -0.2386 -0.5405
27818SOL    HW186409   3.482   3.972   0.698 -0.7599  0.4461 -1.1473
27818SOL    HW286410   3.580   3.876   0.634  1.5211  1.1548  1.0842
27819SOL     OW86411   1.090   8.734   6.425 -0.3873  0.1258  0.0863
27819SOL    HW186412   1.140   8.814   6.412 -1.5617  1.0669  1.0447
27819SOL    HW286413   1.016   8.742   6.364 -0.7452 -0.0110  0.4940
27820SOL     OW86414   0.940  10.014   7.907  0.0648  0.0917  0.1286
27820SOL    HW186415   0.870  10.044   7.966  2.5241  0.0369  3.3915
27820SOL    HW286416   1.004  10.085   7.909  3.2229 -2.4728  3.0825
27821SOL     OW86417   8.699   3.669   4.780 -0.0490 -0.8296 -0.3457
27821SOL    HW186418   8.789   3.702   4.778  0.2675 -1.5402  0.9320
27821SOL    HW286419   8.668   3.676   4.690  0.7324  0.9146 -0.5152
27822SOL     OW86420   6.769   1.423   1.625 -0.3185  0.1330 -0.2270
27822SOL    HW186421   6.776   1.396   1.534 -0.3950  1.9105 -0.7862
27822SOL    HW286422   6.795   1.345   1.675  2.8474  0.0551 -1.7853
27823SOL     OW86423   6.171   7.542   5.965 -0.3031 -0.1522 -0.5201
27823SOL    HW186424   6.197   7.530   6.056 -2.6118 -2.0702 -0.0208
27823SOL    HW286425   6.138   7.632   5.960 -1.8179 -0.5919  1.0099
27824SOL     OW86426   3.874   2.283   7.568  0.1440  0.4216 -0.0973
27824SOL    HW186427   3.869   2.228   7.646  0.0444  0.1199 -0.3131
27824SOL    HW286428   3.957   2.260   7.527 -0.8684 -1.1875 -1.3652
27825SOL     OW86429   9.370   6.177   0.456  0.2427 -0.3136  0.1342
27825SOL    HW186430   9.299   6.133   0.503  0.0483  1.4070  1.5398
27825SOL    HW286431   9.368   6.267   0.487  1.3035  0.4723 -1.8599
27826SOL     OW86432   4.089   4.688   9.278 -0.1464  0.1068 -0.0509
27826SOL    HW186433   3.994   4.678   9.268 -0.2100  1.0027 -0.4383
27826SOL    HW286434   4.104   4.783   9.272  0.9282 -0.1069 -1.5110
27827SOL     OW86435   1.939   2.042   1.957 -0.6601  0.4032  0.5015
27827SOL    HW186436   1.976   2.013   1.874 -0.0004 -0.3228  1.0416
27827SOL    HW286437   1.858   1.990   1.966 -0.5038  0.1616  0.5220
27828SOL     OW86438   8.144  10.540   0.964  0.4926  0.2017  0.5039
27828SOL    HW186439   8.063  10.490   0.971 -1.2199  2.2866 -2.0285
27828SOL    HW286440   8.175  10.550   1.054 -2.2740 -0.4062  1.6228
27829SOL     OW86441   3.426   3.145   2.099  0.0736  0.0772  0.1679
27829SOL    HW186442   3.451   3.231   2.066 -0.8500  0.7270  1.1173
27829SOL    HW286443   3.509   3.103   2.122  0.4961  0.9868  0.3483
27830SOL     OW86444  10.427   3.980   6.813  0.2977  0.7678  0.3535
27830SOL    HW186445  10.434   3.991   6.718 -1.6444 -0.2662  0.0372
27830SOL    HW286446  10.448   3.888   6.828  0.1525  0.8171  0.8731
27831SOL     OW86447   2.188   8.751   4.077 -0.1283  0.3177  0.4225
27831SOL    HW186448   2.227   8.667   4.053 -0.6553  0.0033  0.6468
27831SOL    HW286449   2.245   8.785   4.146 -0.1932 -0.0990  0.6869
27832SOL     OW86450  10.388   9.829   0.231 -0.0177  0.0419  1.2104
27832SOL    HW186451  10.413   9.748   0.186  0.4117 -0.2789  2.0067
27832SOL    HW286452  10.348   9.883   0.163  1.9697  0.1875  0.0817
27833SOL     OW86453   6.992  10.220   7.789 -0.2014  0.1787 -0.0765
27833SOL    HW186454   7.018  10.295   7.843  0.0291 -0.8609  1.3239
27833SOL    HW286455   7.074  10.183   7.758 -0.3630  1.4955 -2.2647
27834SOL     OW86456   0.929   7.849   4.024 -0.0047 -0.2847  0.0106
27834SOL    HW186457   0.933   7.938   3.988  0.2585 -0.4989 -0.5008
27834SOL    HW286458   1.020   7.829   4.047 -0.2511  0.0807  1.3853
27835SOL     OW86459   2.534   9.059   5.456  0.2494 -0.2413 -0.3302
27835SOL    HW186460   2.540   9.145   5.416 -2.2295 -0.5117 -1.4899
27835SOL    HW286461   2.560   9.072   5.547  2.1750  1.2021 -1.0238
27836SOL     OW86462   3.702   8.656  10.678 -0.8806  0.1540  0.9763
27836SOL    HW186463   3.621   8.642  10.726 -0.4763  0.2241  1.6881
27836SOL    HW286464   3.747   8.727  10.725 -0.8675  0.8289 -0.0003
27837SOL     OW86465  10.551   4.871   9.906  0.8188 -0.1833 -0.1959
27837SOL    HW186466  10.555   4.942   9.842  1.4086  0.4313  0.5146
27837SOL    HW286467  10.630   4.879   9.958 -0.4644  0.4510  1.7801
27838SOL     OW86468   8.401   1.669  10.074  0.1383 -0.3179  0.3210
27838SOL    HW186469   8.394   1.715   9.990 -0.2200 -0.7114  0.1309
27838SOL    HW286470   8.338   1.714  10.131  2.0919  1.5605  1.1599
27839SOL     OW86471   8.392   8.330   7.149  0.5395 -0.6858  0.5051
27839SOL    HW186472   8.298   8.339   7.134  0.0117  0.2587  3.5764
27839SOL    HW286473   8.428   8.414   7.120  0.4178 -0.9698 -0.4878
27840SOL     OW86474   3.405   1.123   7.645 -0.0261 -0.7601  0.3553
27840SOL    HW186475   3.494   1.126   7.680 -0.5076  1.5284  1.5455
27840SOL    HW286476   3.404   1.043   7.591  2.3786 -1.4631  1.1918
27841SOL     OW86477   7.633  10.611   4.658  0.0069 -0.3422 -0.1226
27841SOL    HW186478   7.693  10.684   4.673  0.4699 -1.0939  2.1420
27841SOL    HW286479   7.546  10.651   4.656  0.4196  0.5578 -1.7513
27842SOL     OW86480   2.228  10.205   7.312 -0.3959 -0.0620  0.3526
27842SOL    HW186481   2.311  10.245   7.337 -0.6582  0.7820 -0.0686
27842SOL    HW286482   2.244  10.168   7.225 -0.9916  1.9475 -0.6856
27843SOL     OW86483   8.269   7.122   3.060 -0.1034  0.1488 -0.6224
27843SOL    HW186484   8.323   7.067   3.117 -2.3009  1.2575  2.8824
27843SOL    HW286485   8.331   7.169   3.005  2.6420  1.4606  3.1976
27844SOL     OW86486   1.404   9.438   4.512  0.2255 -0.0395  0.0102
27844SOL    HW186487   1.368   9.521   4.481  1.3540 -0.0902 -1.6100
27844SOL    HW286488   1.498   9.456   4.523  0.0219 -0.2447  2.8502
27845SOL     OW86489   5.195   1.539   1.964  0.6175 -0.1965  0.2311
27845SOL    HW186490   5.276   1.589   1.972  2.1661 -2.5197 -0.0063
27845SOL    HW286491   5.193   1.511   1.873 -0.4832 -0.1662  0.2364
27846SOL     OW86492   4.659   5.770   1.606 -0.0601  0.0763 -0.6612
27846SOL    HW186493   4.735   5.713   1.602 -0.4502 -0.5291  0.3301
27846SOL    HW286494   4.650   5.805   1.517  0.4836 -0.9985 -1.1468
27847SOL     OW86495   3.820   1.797   0.996  0.2466  0.1620 -0.3304
27847SOL    HW186496   3.838   1.706   0.972 -0.3844  0.2507 -1.2034
27847SOL    HW286497   3.806   1.795   1.090 -2.9120 -1.2117 -0.7130
27848SOL     OW86498   8.995   2.016   1.514  0.1973 -0.5720  0.3037
27848SOL    HW186499   8.914   1.980   1.480  0.1624 -0.1748 -0.0426
27848SOL    HW286500   8.968   2.093   1.563  0.1377 -1.6870  2.1071
27849SOL     OW86501   3.082   7.669   9.694 -0.5059 -0.5001  0.1300
27849SOL    HW186502   3.098   7.633   9.607 -1.8570 -1.6189  0.2938
27849SOL    HW286503   3.065   7.762   9.680 -1.4967 -0.8199 -0.9217
27850SOL     OW86504   0.793  10.680   9.691  0.4512 -0.1697 -0.2722
27850SOL    HW186505   0.843  10.673   9.772  0.9508 -0.6157 -0.6084
27850SOL    HW286506   0.859  10.673   9.622  0.1243  0.9495 -0.7125
27851SOL     OW86507  10.570   7.956   1.483 -0.2917 -0.4168 -0.1404
27851SOL    HW186508  10.625   7.878   1.486  0.2807  0.0082  1.2886
27851SOL    HW286509  10.518   7.953   1.563  0.9203  1.4513  0.8119
27852SOL     OW86510  10.165   8.589   5.111 -0.3190 -0.5055  0.3893
27852SOL    HW186511  10.077   8.625   5.105 -0.2791 -0.3442  0.7664
27852SOL    HW286512  10.154   8.507   5.159 -0.4278 -1.0637 -0.5685
27853SOL     OW86513   7.789   9.901   5.087 -0.4423 -0.1906  0.4007
27853SOL    HW186514   7.832   9.881   5.169  1.5531  0.9935 -0.3049
27853SOL    HW286515   7.695   9.897   5.108 -0.0282 -1.6730  2.2583
27854SOL     OW86516   0.155   8.814   0.009 -0.2640  0.0462 -0.0023
27854SOL    HW186517   0.197   8.893  -0.024  0.4337 -0.7989 -1.2317
27854SOL    HW286518   0.211   8.785   0.081  0.3050 -0.1122 -0.5013
27855SOL     OW86519   8.508   4.879   6.456 -0.4031  0.0065  0.3224
27855SOL    HW186520   8.511   4.884   6.360 -0.5162 -0.3856  0.2990
27855SOL    HW286521   8.573   4.944   6.484 -1.2678  1.0403  0.0060
27856SOL     OW86522   1.063   6.857   6.762  0.0952 -0.7563 -0.0669
27856SOL    HW186523   0.990   6.815   6.717  0.2888 -1.8304  0.5894
27856SOL    HW286524   1.126   6.875   6.692 -0.9440  0.6007 -0.7190
27857SOL     OW86525   3.873   3.860   0.365 -0.3541  0.4845 -0.0774
27857SOL    HW186526   3.921   3.806   0.302 -1.7573  1.5580 -2.2065
27857SOL    HW286527   3.784   3.825   0.363 -0.2738  0.0747  1.9311
27858SOL     OW86528   2.163   6.051   1.078  0.2507 -0.0729 -0.5395
27858SOL    HW186529   2.092   6.116   1.076 -0.0580 -0.4175 -1.1030
27858SOL    HW286530   2.191   6.048   1.170  0.1895  0.7672 -0.4862
27859SOL     OW86531  10.095   4.889   1.527  0.2857 -0.2886 -0.2953
27859SOL    HW186532  10.020   4.843   1.565 -0.1155 -0.6790 -1.5135
27859SOL    HW286533  10.170   4.835   1.552 -0.2277 -2.0081 -2.1693
27860SOL     OW86534   9.583   4.469   6.105 -0.1259  0.3007  0.1253
27860SOL    HW186535   9.619   4.387   6.140  1.3890  0.5278 -0.8337
27860SOL    HW286536   9.556   4.447   6.016  0.3007  0.8397 -0.1423
27861SOL     OW86537   1.246   3.605   2.465  0.1794  0.2756 -0.0922
27861SOL    HW186538   1.333   3.624   2.431 -0.4033  1.6278 -0.8815
27861SOL    HW286539   1.193   3.587   2.388 -0.9669  2.5956  0.0580
27862SOL     OW86540   6.954   5.296   0.006  0.0412  0.3600  0.4711
27862SOL    HW186541   6.966   5.330   0.095 -1.5039 -0.6333  1.1079
27862SOL    HW286542   6.885   5.231   0.015 -0.3361  0.4337 -1.5335
27863SOL     OW86543   1.674   0.834   7.527  0.2797  0.3462 -0.1521
27863SOL    HW186544   1.701   0.925   7.512 -1.3247  0.4491 -3.2146
27863SOL    HW286545   1.608   0.840   7.597  1.2471  1.2775  0.7306
27864SOL     OW86546   7.963   8.518   6.590  0.6523 -0.1813  0.0914
27864SOL    HW186547   7.887   8.499   6.645  1.3677 -1.5401  0.6580
27864SOL    HW286548   7.982   8.610   6.607  0.7538 -0.5076  2.0427
27865SOL     OW86549   6.421   2.138   2.396  0.5018 -0.5357 -0.5621
27865SOL    HW186550   6.397   2.225   2.429  1.1431 -0.4642 -0.2682
27865SOL    HW286551   6.432   2.150   2.302 -1.2319 -0.7166 -0.8246
27866SOL     OW86552   2.853   5.388   6.995 -0.1924 -0.5739 -0.2725
27866SOL    HW186553   2.934   5.340   7.010 -0.3093 -0.7247 -0.1238
27866SOL    HW286554   2.862   5.468   7.047 -0.3201 -0.7915  0.0891
27867SOL     OW86555   3.332   8.750   0.853 -0.2941 -0.1704  0.4839
27867SOL    HW186556   3.374   8.777   0.771 -0.8716  2.2260  0.9063
27867SOL    HW286557   3.245   8.789   0.849  0.4271  2.0140  3.1621
27868SOL     OW86558   4.413   6.903   1.154  0.0799  0.5649 -0.1668
27868SOL    HW186559   4.475   6.845   1.108 -0.0537 -1.1043  1.6224
27868SOL    HW286560   4.349   6.927   1.087 -0.4386 -2.2526 -0.8078
27869SOL     OW86561   3.157   2.372   9.117  0.3875  0.1500  0.0188
27869SOL    HW186562   3.209   2.419   9.052 -0.3303 -0.0245 -0.6945
27869SOL    HW286563   3.207   2.292   9.135 -0.3102 -0.7698 -1.8073
27870SOL     OW86564   6.779   4.906   5.850  0.1002 -0.1545  0.3172
27870SOL    HW186565   6.689   4.938   5.841  0.9591  2.5732  0.3819
27870SOL    HW286566   6.819   4.964   5.915  1.8857 -1.3977  0.4169
27871SOL     OW86567   9.645   2.782   3.927  0.5771 -0.1699 -0.0088
27871SOL    HW186568   9.599   2.701   3.907 -0.5898  0.4724 -0.0318
27871SOL    HW286569   9.713   2.789   3.860  0.7048 -1.1286  0.0120
27872SOL     OW86570   3.264   1.502   4.972 -0.4856 -0.4848 -0.3411
27872SOL    HW186571   3.204   1.575   4.956 -2.1011 -1.4518  0.9080
27872SOL    HW286572   3.322   1.501   4.896 -2.0737  0.5068 -1.6509
27873SOL     OW86573   1.898   5.150   4.385 -0.0581 -0.5039 -0.0253
27873SOL    HW186574   1.992   5.138   4.398 -0.1744 -0.5924  0.8032
27873SOL    HW286575   1.858   5.076   4.431 -0.5056 -1.0300 -1.2268
27874SOL     OW86576   3.895   8.894   8.044  0.2782 -0.3499  0.2761
27874SOL    HW186577   3.887   8.864   7.954 -0.0913 -1.2678  0.6096
27874SOL    HW286578   3.977   8.856   8.075  0.6228  0.3176  0.1997
27875SOL     OW86579   1.076   5.963   9.003  0.3129  0.3755  0.1457
27875SOL    HW186580   1.133   5.998   8.935  0.0066 -2.1746 -1.5845
27875SOL    HW286581   0.991   5.954   8.961  0.0729 -1.1349  0.8611
27876SOL     OW86582  10.316   1.862   4.657 -0.2586  0.1695  0.1332
27876SOL    HW186583  10.262   1.891   4.583 -0.0876  1.4225  0.4685
27876SOL    HW286584  10.405   1.892   4.634 -0.2983  1.0846  1.0823
27877SOL     OW86585   3.189   9.263   5.384 -0.3930  0.5340 -0.2688
27877SOL    HW186586   3.271   9.233   5.423 -1.6795 -2.9402  0.0888
27877SOL    HW286587   3.155   9.328   5.445  1.3039  0.8663  0.3672
27878SOL     OW86588   7.630   4.144   7.940 -0.0578  0.0167 -0.4902
27878SOL    HW186589   7.604   4.151   8.032 -1.3571 -0.2752 -0.8095
27878SOL    HW286590   7.633   4.234   7.909 -0.0582  0.0891 -0.2814
27879SOL     OW86591   3.686   0.148   7.514  0.1942 -0.2241 -0.3855
27879SOL    HW186592   3.617   0.145   7.448 -1.0755  0.0469  0.8842
27879SOL    HW286593   3.723   0.236   7.506 -1.3960  0.5847  0.6352
27880SOL     OW86594   6.588   0.131   3.506  0.0604  0.1064  0.0286
27880SOL    HW186595   6.668   0.122   3.455 -0.2912  1.0428 -0.7107
27880SOL    HW286596   6.523   0.079   3.459  0.1998 -0.5848  0.5826
27881SOL     OW86597   8.384   6.225   1.041 -0.0369 -0.3899  0.5650
27881SOL    HW186598   8.350   6.309   1.008  1.7033  0.3802  0.6436
27881SOL    HW286599   8.421   6.247   1.127 -0.2347 -1.4102  0.9188
27882SOL     OW86600   1.032   1.170   4.987  0.0014  0.0975  0.4157
27882SOL    HW186601   1.119   1.189   5.020  0.4942  0.1138 -0.8568
27882SOL    HW286602   0.996   1.107   5.049  2.2801 -2.7295 -0.9137
27883SOL     OW86603   7.691   9.621   5.495  0.2031 -0.3787  0.0581
27883SOL    HW186604   7.634   9.697   5.511  0.0098 -0.5025 -0.0435
27883SOL    HW286605   7.673   9.596   5.404  0.4614 -0.3835  0.0097
27884SOL     OW86606   2.490  10.464   7.802  0.1783  0.0355  0.0686
27884SOL    HW186607   2.536  10.482   7.720  0.4505 -2.1406 -0.2978
27884SOL    HW286608   2.553  10.414   7.854 -0.9812 -1.0991  0.4279
27885SOL     OW86609   0.325   3.033   1.025 -0.0764  0.0496  0.2270
27885SOL    HW186610   0.420   3.020   1.029  0.3824  2.8414  1.0918
27885SOL    HW286611   0.288   2.947   1.041  2.3019 -0.9705  0.7572
27886SOL     OW86612   0.321   8.497   7.867 -0.4786  0.1401 -0.3457
27886SOL    HW186613   0.267   8.546   7.929  0.0839  0.4797 -0.1147
27886SOL    HW286614   0.397   8.469   7.919  0.6842  1.6127 -1.1951
27887SOL     OW86615   3.814   2.625   1.181  0.2900  0.2134 -0.0750
27887SOL    HW186616   3.830   2.568   1.106 -0.3301 -0.7109  0.4798
27887SOL    HW286617   3.728   2.663   1.164  0.4919  0.6252 -0.2054
27888SOL     OW86618   3.242   7.010   8.382  0.2674 -0.0409  0.2045
27888SOL    HW186619   3.266   6.919   8.367 -0.6775 -0.1060 -1.1471
27888SOL    HW286620   3.252   7.052   8.297  3.1709  1.7884  1.3083
27889SOL     OW86621   3.252   2.557   9.296 -0.2778 -0.1625 -0.0904
27889SOL    HW186622   3.216   2.493   9.235  2.5515 -0.9738 -1.0367
27889SOL    HW286623   3.254   2.639   9.247  0.2840 -0.3926 -0.4558
27890SOL     OW86624   3.080   8.463   1.687  0.1079  0.2416 -0.6429
27890SOL    HW186625   3.030   8.533   1.646 -1.4880 -0.0593  0.6905
27890SOL    HW286626   3.156   8.507   1.725 -0.0871  0.9973 -1.1077
27891SOL     OW86627   9.254   7.073   6.756  0.0569  0.1053  0.2783
27891SOL    HW186628   9.160   7.084   6.749  0.1733  0.7578 -0.3580
27891SOL    HW286629   9.289   7.107   6.673  0.7579 -1.3027 -0.0451
27892SOL     OW86630   2.950   9.072   8.668  0.4871  0.1852 -0.1455
27892SOL    HW186631   3.042   9.066   8.695 -0.0910 -1.0352  1.7485
27892SOL    HW286632   2.908   9.123   8.737 -0.1642  1.3160 -1.3418
27893SOL     OW86633   1.956  10.105   0.468 -0.0548 -0.3718 -0.6600
27893SOL    HW186634   1.883  10.131   0.524 -0.0790  2.9108 -1.9998
27893SOL    HW286635   1.954  10.167   0.395  2.8207 -1.4743 -1.8275
27894SOL     OW86636   0.420   8.850   1.443  0.1744 -0.0208 -0.6035
27894SOL    HW186637   0.459   8.794   1.375 -0.5481 -1.6649  0.2636
27894SOL    HW286638   0.365   8.790   1.494  0.5980  1.1835  1.3692
27895SOL     OW86639   3.773   7.217   5.229 -0.1874 -0.2605 -0.0097
27895SOL    HW186640   3.863   7.205   5.260  0.0830  0.5695 -0.4545
27895SOL    HW286641   3.721   7.228   5.309  0.2415  0.1561  0.2151
27896SOL     OW86642   0.860   8.901  10.124 -0.3643 -0.0268  0.2239
27896SOL    HW186643   0.782   8.938  10.165 -0.2366  1.0662 -0.4629
27896SOL    HW286644   0.928   8.911  10.190 -0.7895 -0.9678  0.8177
27897SOL     OW86645   0.604   9.957   2.417 -0.0883 -0.2585  0.0535
27897SOL    HW186646   0.620   9.952   2.511 -0.4120 -1.8715  0.0448
27897SOL    HW286647   0.633   9.873   2.383  1.0495  0.7010 -1.4771
27898SOL     OW86648   8.543   3.828   6.491 -0.2095  0.1103  0.2151
27898SOL    HW186649   8.509   3.858   6.575 -0.6361  1.5839 -0.4520
27898SOL    HW286650   8.465   3.820   6.436  0.2299  0.7948 -0.5230
27899SOL     OW86651   0.040   2.160   5.652  0.1143 -0.3355 -0.0851
27899SOL    HW186652   0.122   2.131   5.611 -0.2506 -1.1211 -0.2755
27899SOL    HW286653  -0.028   2.111   5.606 -0.7435  2.2388 -1.8322
27900SOL     OW86654   7.950   2.912   4.582  0.9189  0.4517 -0.6356
27900SOL    HW186655   7.971   3.002   4.557  2.4310  0.3828  0.2610
27900SOL    HW286656   7.867   2.919   4.630  0.3613  1.1700 -1.6554
27901SOL     OW86657   3.793   2.089   3.713 -0.2355  0.4219 -0.0699
27901SOL    HW186658   3.766   2.051   3.797 -1.1721  0.4197 -0.3552
27901SOL    HW286659   3.844   2.020   3.671  0.3825  0.4840  0.5615
27902SOL     OW86660   2.891   2.477   2.292  0.0878  0.1626 -0.4167
27902SOL    HW186661   2.969   2.424   2.276 -0.3688 -0.4803 -0.5395
27902SOL    HW286662   2.818   2.418   2.276 -0.4213  0.3936  0.9660
27903SOL     OW86663   0.485   1.945   4.758  0.1650 -0.4469 -0.2374
27903SOL    HW186664   0.408   1.890   4.743  0.4439 -1.6242  2.1092
27903SOL    HW286665   0.487   2.005   4.684 -2.3590 -1.1180 -0.9388
27904SOL     OW86666   7.952   9.733   9.856  0.4835 -0.3841 -0.7281
27904SOL    HW186667   7.972   9.648   9.818  0.2169  0.1164 -2.0744
27904SOL    HW286668   7.857   9.739   9.854  0.4054 -0.6750  0.8426
27905SOL     OW86669   6.018   6.070  10.483 -0.3308  0.1278  0.4672
27905SOL    HW186670   5.922   6.071  10.481 -0.3534 -0.5672  0.9930
27905SOL    HW286671   6.043   5.996  10.428 -0.1681 -0.9063  1.8738
27906SOL     OW86672   6.450   4.333   2.597  0.2920 -0.1283  0.5687
27906SOL    HW186673   6.513   4.264   2.576  0.3641  0.3227 -0.7632
27906SOL    HW286674   6.366   4.300   2.566  0.1255 -0.0862  0.9631
27907SOL     OW86675   9.299  10.167  10.496  0.0511 -0.0532  0.5665
27907SOL    HW186676   9.384  10.207  10.514 -0.0690 -0.3630  1.9876
27907SOL    HW286677   9.237  10.219  10.548 -0.8452  0.9233 -1.3665
27908SOL     OW86678   2.141   6.916   5.273  0.4462  0.1277 -0.0471
27908SOL    HW186679   2.187   6.972   5.336  3.6151 -2.5493  0.2899
27908SOL    HW286680   2.090   6.856   5.326  1.1251 -0.5209 -0.1104
27909SOL     OW86681   5.145   3.643   5.749 -0.0261  0.1427  0.3238
27909SOL    HW186682   5.175   3.709   5.686 -1.1556 -0.8968 -1.3693
27909SOL    HW286683   5.130   3.565   5.697 -0.2046 -1.0248  2.0481
27910SOL     OW86684   2.340   4.459  10.212  0.3725 -0.2347 -0.4107
27910SOL    HW186685   2.406   4.479  10.146  0.6054  1.7292  0.3451
27910SOL    HW286686   2.303   4.375  10.185 -0.1834  0.9013 -3.5267
27911SOL     OW86687   2.829   7.869   7.856 -0.0845 -0.2759  0.3960
27911SOL    HW186688   2.923   7.882   7.843 -0.2094 -0.0183 -0.2936
27911SOL    HW286689   2.807   7.927   7.928  0.3761 -0.7226  0.9139
27912SOL     OW86690  10.271   1.736   8.617  0.5303  0.3081  0.6253
27912SOL    HW186691  10.246   1.733   8.709 -0.5269 -0.8088  0.3271
27912SOL    HW286692  10.349   1.792   8.615 -0.6108  2.0483  1.9112
27913SOL     OW86693   6.772   7.219   0.265  0.4518 -0.6198  0.2351
27913SOL    HW186694   6.740   7.305   0.241  1.3757  0.1684  1.6496
27913SOL    HW286695   6.707   7.158   0.231 -0.1532  0.6197 -0.8955
27914SOL     OW86696   5.819   7.455   3.501  0.0375 -0.5354 -0.0221
27914SOL    HW186697   5.814   7.503   3.584  1.5658  0.6326 -0.5639
27914SOL    HW286698   5.734   7.411   3.494 -0.1615 -0.6162  2.1091
27915SOL     OW86699   9.338   7.052   9.421  0.4911 -0.1038  0.0342
27915SOL    HW186700   9.396   7.012   9.485 -2.5627 -2.3039  1.7206
27915SOL    HW286701   9.308   6.979   9.366 -0.7904  0.8614 -0.6212
27916SOL     OW86702   6.308   0.626   9.977  0.3034 -0.3691  0.2973
27916SOL    HW186703   6.373   0.608   9.909 -0.1124 -1.3838  0.1485
27916SOL    HW286704   6.235   0.568   9.956  0.3589 -1.0604  1.8717
27917SOL     OW86705   0.512   7.913  10.006 -0.3501 -0.0507  0.1966
27917SOL    HW186706   0.601   7.901   9.974  0.1506  2.8119  0.2865
27917SOL    HW286707   0.517   7.890  10.099  0.7039  1.4442  0.5509
27918SOL     OW86708   8.385   0.071   2.604  0.1473 -0.2059 -0.2963
27918SOL    HW186709   8.347   0.052   2.690 -0.7343 -1.5109 -0.9536
27918SOL    HW286710   8.323   0.132   2.563  0.7824  0.7522  0.1330
27919SOL     OW86711   6.818   8.176   4.881 -0.1299 -0.1875  0.5814
27919SOL    HW186712   6.872   8.152   4.956  1.6415  2.1683  0.1881
27919SOL    HW286713   6.752   8.236   4.917  0.4622  0.6187  0.3394
27920SOL     OW86714   7.984   1.840   4.330 -0.0299 -0.8557  0.4928
27920SOL    HW186715   7.949   1.805   4.412  1.2665 -0.9891  1.0034
27920SOL    HW286716   7.919   1.905   4.302 -2.5032 -3.4785 -0.4283
27921SOL     OW86717   5.737   7.533   3.783  0.2478 -0.1753  0.2811
27921SOL    HW186718   5.661   7.529   3.841 -0.0838 -1.0247 -0.1972
27921SOL    HW286719   5.812   7.540   3.842 -0.2874  3.7590  0.7621
27922SOL     OW86720   8.871   1.333   8.079 -0.5774 -0.2511  0.2496
27922SOL    HW186721   8.794   1.291   8.117  0.2554 -0.3962  1.8155
27922SOL    HW286722   8.934   1.338   8.150  0.0439  1.9697 -0.3766
27923SOL     OW86723   2.448   3.883   7.921 -0.3492 -0.2003 -0.0426
27923SOL    HW186724   2.400   3.885   8.004 -0.4480 -2.9221  0.0474
27923SOL    HW286725   2.402   3.946   7.865 -2.0528 -0.3974  1.0625
27924SOL     OW86726   0.363   3.136  10.275 -0.1536  0.4228 -0.4344
27924SOL    HW186727   0.366   3.200  10.204  2.7140  1.2907  0.3410
27924SOL    HW286728   0.446   3.087  10.267 -1.4425 -2.0273  0.1028
27925SOL     OW86729   9.985   4.526   9.230 -0.2308 -0.1423  0.1485
27925SOL    HW186730   9.895   4.557   9.223 -0.3594 -0.6193 -0.3788
27925SOL    HW286731  10.037   4.605   9.243 -0.7987  0.0744  1.1604
27926SOL     OW86732   7.179   3.045   3.936 -0.6761  0.0370  0.0497
27926SOL    HW186733   7.110   2.982   3.916 -1.8137  0.8967  1.1222
27926SOL    HW286734   7.250   2.991   3.972 -1.0076 -0.7960 -0.5127
27927SOL     OW86735   1.920   2.263   2.135 -0.0578  0.0226 -0.3482
27927SOL    HW186736   1.942   2.185   2.085  0.5054  0.2875 -0.5134
27927SOL    HW286737   1.841   2.238   2.184 -0.3799 -0.3687 -1.0489
27928SOL     OW86738   1.194   1.728   9.866  0.4013 -0.5566  0.2727
27928SOL    HW186739   1.200   1.748   9.959  1.2401  0.1077  0.0912
27928SOL    HW286740   1.140   1.798   9.830  0.8609 -0.2810  0.1128
27929SOL     OW86741   8.274   1.856   5.425  0.2619 -0.5692 -0.4061
27929SOL    HW186742   8.261   1.790   5.493  1.0538 -0.5917 -0.2740
27929SOL    HW286743   8.332   1.921   5.465 -0.3097  0.0838 -0.6207
27930SOL     OW86744   4.242   8.624   3.850  0.1468 -0.1346 -0.3531
27930SOL    HW186745   4.224   8.704   3.899  1.9873 -0.6678  1.3126
27930SOL    HW286746   4.331   8.635   3.818  0.1101 -1.1636 -0.8478
27931SOL     OW86747   7.485   7.248   5.703 -0.0251 -0.7202 -0.3411
27931SOL    HW186748   7.558   7.304   5.676 -0.2404  0.4926  1.3936
27931SOL    HW286749   7.519   7.199   5.779 -0.6807 -0.9327 -0.1791
27932SOL     OW86750   5.362  10.601   3.390 -0.1995  0.0339 -0.2275
27932SOL    HW186751   5.287  10.638   3.436 -0.0404  0.4559 -0.2961
27932SOL    HW286752   5.330  10.520   3.352  0.0853 -1.2141  2.0132
27933SOL     OW86753   3.809   1.651   9.761 -0.0051 -0.2502  0.3205
27933SOL    HW186754   3.785   1.637   9.852  1.7033  0.7565  0.9478
27933SOL    HW286755   3.873   1.721   9.762 -1.1705  0.9706 -1.8328
27934SOL     OW86756   7.759   7.869   3.892  0.0864 -0.2519 -0.3073
27934SOL    HW186757   7.844   7.857   3.849  0.5158 -0.1613  0.5038
27934SOL    HW286758   7.696   7.858   3.821  0.7363 -1.1002 -0.7817
27935SOL     OW86759   6.435   3.204   3.479  0.3031 -0.1762  0.0666
27935SOL    HW186760   6.520   3.232   3.511  1.2789 -1.6499 -1.1011
27935SOL    HW286761   6.453   3.161   3.396 -1.7086  0.3043 -0.6784
27936SOL     OW86762   8.681   7.615   8.866  0.0759  0.1002 -0.6735
27936SOL    HW186763   8.671   7.520   8.872  1.3371 -0.1803 -2.2719
27936SOL    HW286764   8.592   7.648   8.858 -0.4167 -0.8812  0.4893
27937SOL     OW86765   8.316   8.131  10.103  0.2792  0.3316 -0.6791
27937SOL    HW186766   8.398   8.180  10.109  0.5335 -0.0942 -0.6187
27937SOL    HW286767   8.343   8.042  10.082 -0.1764  0.2096 -0.7557
27938SOL     OW86768   3.495   3.780   3.440  0.5350  0.2524  0.0130
27938SOL    HW186769   3.577   3.773   3.392 -1.1475 -2.4196 -2.8074
27938SOL    HW286770   3.431   3.807   3.375 -1.4165 -0.9717  1.3081
27939SOL     OW86771  10.618   9.636   8.337  0.1048  0.3748 -0.3180
27939SOL    HW186772  10.561   9.560   8.350  0.9733 -0.1347  0.6768
27939SOL    HW286773  10.701   9.600   8.307  0.8347  0.8059  1.0618
27940SOL     OW86774   6.874   8.987   9.435 -0.0683 -0.1212 -0.1441
27940SOL    HW186775   6.864   9.055   9.369  0.4447  1.3099  1.1825
27940SOL    HW286776   6.909   8.912   9.388  1.5570  1.2699 -1.2626
27941SOL     OW86777   0.202   2.597   4.790  0.2889  0.5333 -0.5892
27941SOL    HW186778   0.257   2.535   4.743 -0.2527  0.7182 -1.4963
27941SOL    HW286779   0.176   2.551   4.870  1.4628  0.3254 -0.3108
27942SOL     OW86780   9.050   3.346   0.215 -0.3839 -0.2617 -0.7674
27942SOL    HW186781   9.052   3.421   0.274  2.3903 -0.2431 -0.7765
27942SOL    HW286782   8.976   3.293   0.246 -0.1437  0.6458  1.5725
27943SOL     OW86783   1.057   9.472   7.774 -0.1730  0.3742  0.3644
27943SOL    HW186784   1.082   9.389   7.735 -1.9715  0.2134 -0.5347
27943SOL    HW286785   1.091   9.468   7.864  1.0339 -0.6884 -0.1147
27944SOL     OW86786   7.201   8.555   8.424  0.0784  0.5317  0.1512
27944SOL    HW186787   7.198   8.572   8.518 -0.0001 -1.5813  0.5748
27944SOL    HW286788   7.129   8.494   8.409  2.0615 -1.7372 -0.6685
27945SOL     OW86789   5.395   2.495   0.542 -0.7951  0.6275  0.0391
27945SOL    HW186790   5.359   2.414   0.578 -0.2158  0.4722  0.2780
27945SOL    HW286791   5.414   2.475   0.450 -1.3180  0.7146 -0.0920
27946SOL     OW86792   1.535  10.203   4.796  0.0414 -0.1887 -0.6185
27946SOL    HW186793   1.625  10.215   4.765  0.0561  0.5642 -0.2928
27946SOL    HW286794   1.538  10.227   4.888 -0.7872  1.2378 -0.9396
27947SOL     OW86795   3.700   4.074   3.130  0.2911 -0.1877 -0.4054
27947SOL    HW186796   3.653   4.138   3.076 -0.7301  0.2002  0.8932
27947SOL    HW286797   3.753   4.127   3.189  1.8896 -0.6156 -1.4069
27948SOL     OW86798   8.994   9.671   2.629 -0.8416 -0.1194 -0.1028
27948SOL    HW186799   8.973   9.739   2.693  1.1726 -0.4117  0.9344
27948SOL    HW286800   8.980   9.589   2.676  1.4434 -0.3329  0.3209
27949SOL     OW86801   5.425   9.854   1.526  0.1878 -0.0801 -0.4272
27949SOL    HW186802   5.520   9.844   1.520  0.2888 -2.1224  2.6086
27949SOL    HW286803   5.412   9.947   1.542  1.7283  0.1275 -0.1731
27950SOL     OW86804   7.402   8.864   8.628  0.1922 -0.0773  0.4564
27950SOL    HW186805   7.493   8.887   8.609 -0.6289  0.4565 -3.7636
27950SOL    HW286806   7.363   8.945   8.661  0.9451 -0.0166  1.2412
27951SOL     OW86807   6.651   4.219   9.625  0.1318 -0.1962  0.1980
27951SOL    HW186808   6.668   4.251   9.713  3.3234 -0.4409 -0.2205
27951SOL    HW286809   6.638   4.125   9.635 -1.5550  0.0492  0.5777
27952SOL     OW86810   4.455   1.972  10.455  0.2699  0.7259 -0.1665
27952SOL    HW186811   4.429   1.880  10.448  0.8712  0.3760  1.7486
27952SOL    HW286812   4.399   2.018  10.392  0.8348 -1.0997 -2.1212
27953SOL     OW86813  10.599   8.346   3.449 -0.1769 -0.4932  0.0056
27953SOL    HW186814  10.549   8.425   3.472 -0.8059 -0.3775 -1.6790
27953SOL    HW286815  10.624   8.309   3.534 -2.1249  0.0829  0.8972
27954SOL     OW86816   0.881  10.627   8.256  0.1168 -0.2499 -1.3088
27954SOL    HW186817   0.951  10.648   8.319 -1.4334 -0.1430  0.4470
27954SOL    HW286818   0.888  10.533   8.243 -0.6931 -0.5972  0.5184
27955SOL     OW86819   0.368   5.771   8.115 -0.9863 -0.3521 -0.0497
27955SOL    HW186820   0.345   5.861   8.140 -0.1875  0.3829 -1.7925
27955SOL    HW286821   0.284   5.724   8.117 -1.4414  0.4373  0.7582
27956SOL     OW86822   7.035   9.312   0.799  0.1205  0.3331 -0.2939
27956SOL    HW186823   7.080   9.394   0.821  3.1960 -0.8108 -1.7200
27956SOL    HW286824   6.977   9.335   0.727  0.0062  1.4659  0.1397
27957SOL     OW86825   7.166  10.552   3.375  0.0410 -0.2417  0.1108
27957SOL    HW186826   7.151  10.466   3.413  1.9850 -0.3893  0.6295
27957SOL    HW286827   7.119  10.612   3.433 -0.7727 -0.8668  0.1231
27958SOL     OW86828   6.741   8.849   9.631 -0.4876 -0.1207  0.3441
27958SOL    HW186829   6.806   8.901   9.584 -1.0179 -0.8084 -1.2222
27958SOL    HW286830   6.719   8.778   9.571 -1.5340 -0.7976  1.4732
27959SOL     OW86831   9.317   5.867   7.030 -0.2731 -0.1826 -0.2690
27959SOL    HW186832   9.390   5.860   6.969  0.1177  0.9307  0.0425
27959SOL    HW286833   9.359   5.874   7.116 -0.7936 -0.9050  0.0498
27960SOL     OW86834   4.716   8.098   9.275 -0.4293 -0.4208 -0.0713
27960SOL    HW186835   4.676   8.018   9.240 -0.5073 -0.1568 -0.5986
27960SOL    HW286836   4.666   8.169   9.235 -1.4269 -0.0949  1.6367
27961SOL     OW86837   0.431   3.323   2.235 -0.3571 -0.3390 -0.1553
27961SOL    HW186838   0.376   3.380   2.288  0.4431 -0.7370  1.1705
27961SOL    HW286839   0.372   3.287   2.169 -1.2756  0.5963  0.1310
27962SOL     OW86840   5.940   4.258   0.310  0.5092  0.2536 -0.0681
27962SOL    HW186841   6.008   4.303   0.361 -0.5263  1.4080  0.3265
27962SOL    HW286842   5.903   4.326   0.254  0.1259 -0.5208 -0.7777
27963SOL     OW86843   9.160   3.139   5.087 -0.4760  0.4027  0.0476
27963SOL    HW186844   9.091   3.114   5.025  0.8103  2.8354 -2.5635
27963SOL    HW286845   9.124   3.213   5.135 -0.8931 -0.4934  1.1477
27964SOL     OW86846   6.657   4.967   3.356 -0.0528  0.0312 -0.0384
27964SOL    HW186847   6.694   4.980   3.268 -0.5657  1.8097 -0.0285
27964SOL    HW286848   6.564   4.989   3.347 -0.0818  0.3860  0.9785
27965SOL     OW86849   9.594   9.121   6.704  0.3192  0.0505  0.4205
27965SOL    HW186850   9.577   9.099   6.795 -0.1558  0.7499  0.5068
27965SOL    HW286851   9.547   9.055   6.653 -1.5502  1.1316  0.6699
27966SOL     OW86852   7.951   7.729   7.969  0.2751  0.4060 -0.1260
27966SOL    HW186853   7.920   7.819   7.984  0.4407  0.4200  0.1281
27966SOL    HW286854   8.008   7.710   8.043  1.4832  0.6461 -0.9650
27967SOL     OW86855   2.772   0.860   9.371  0.2429 -0.5484  0.0273
27967SOL    HW186856   2.858   0.841   9.335  0.2680 -2.0610  0.7949
27967SOL    HW286857   2.789   0.920   9.444  0.5706 -0.3028 -0.2497
27968SOL     OW86858   9.777   7.348   7.771  0.0159  0.0693 -0.1782
27968SOL    HW186859   9.691   7.333   7.732  0.0593  0.5491 -0.4659
27968SOL    HW286860   9.835   7.286   7.727  0.3316  1.4545 -1.8293
27969SOL     OW86861   3.840   7.845   0.226 -0.0514  0.0667 -0.0337
27969SOL    HW186862   3.750   7.816   0.210 -0.2234  0.1402  0.7896
27969SOL    HW286863   3.891   7.765   0.227 -0.0954  0.0278 -0.5545
27970SOL     OW86864   3.315   1.005   6.407  0.2837  0.4330 -0.5256
27970SOL    HW186865   3.277   1.077   6.357 -1.6102 -2.0518 -2.9327
27970SOL    HW286866   3.248   0.983   6.472  1.9172  2.3467  1.9887
27971SOL     OW86867   8.581   7.076   8.444 -0.4446 -0.7233  0.0445
27971SOL    HW186868   8.629   7.017   8.503  1.2083 -0.3286 -0.8474
27971SOL    HW286869   8.622   7.162   8.458 -1.0165 -0.3357 -0.6082
27972SOL     OW86870   1.101  10.433   9.850  0.2739 -0.3416  0.0133
27972SOL    HW186871   1.046  10.363   9.812 -0.2643  0.0377  0.0813
27972SOL    HW286872   1.040  10.505   9.865  0.7739  0.0395  0.2213
27973SOL     OW86873   0.334   9.600   9.950 -0.1740  0.3186  0.2747
27973SOL    HW186874   0.357   9.634   9.863 -0.9572  1.4134  0.4825
27973SOL    HW286875   0.350   9.505   9.944 -4.5337 -0.4880 -2.5399
27974SOL     OW86876   2.984   7.825   7.063  0.0854 -0.1719  0.4721
27974SOL    HW186877   3.074   7.853   7.081 -0.1144  0.3867  0.6304
27974SOL    HW286878   2.992   7.734   7.036  0.7725  0.0858 -0.2190
27975SOL     OW86879   9.109   8.339   7.437 -0.3943 -0.0187  0.1648
27975SOL    HW186880   9.193   8.313   7.398 -0.8350  0.3072 -1.0240
27975SOL    HW286881   9.127   8.423   7.479  0.3494 -0.8701  1.6464
27976SOL     OW86882   6.102   4.346   0.523 -0.2445 -0.2828 -0.1096
27976SOL    HW186883   6.180   4.312   0.567 -0.1655 -1.4037 -1.0670
27976SOL    HW286884   6.031   4.328   0.585  0.0219 -0.8230  0.0535
27977SOL     OW86885   3.820   3.386   1.823 -0.4029  0.0881 -0.0911
27977SOL    HW186886   3.859   3.358   1.906 -0.3627  0.7045  0.0992
27977SOL    HW286887   3.850   3.476   1.811  0.4339 -0.3204 -1.2795
27978SOL     OW86888   4.599   8.198   3.396  0.1890 -0.4743  0.4234
27978SOL    HW186889   4.676   8.231   3.442  0.4553 -0.5333  0.0217
27978SOL    HW286890   4.537   8.271   3.399  0.7156  0.0242 -0.3216
27979SOL     OW86891   8.275   7.645   4.796  0.1586  0.1506  1.0299
27979SOL    HW186892   8.298   7.575   4.857  0.6837 -1.5636 -1.0056
27979SOL    HW286893   8.339   7.637   4.725 -1.5982  0.7079 -0.7257
27980SOL     OW86894   6.929   6.704   0.143  0.0765  0.7410 -0.2749
27980SOL    HW186895   6.862   6.682   0.077 -0.5482  1.4492  0.1059
27980SOL    HW286896   6.994   6.634   0.135  0.7100  1.4794 -2.5765
27981SOL     OW86897   9.324   4.255   5.575 -0.1704 -0.0791  0.1506
27981SOL    HW186898   9.267   4.251   5.498 -0.8477 -1.3299  0.6811
27981SOL    HW286899   9.263   4.255   5.650  0.4969 -0.2213  0.7017
27982SOL     OW86900   7.260   3.741   0.527 -0.0557 -0.2184  0.4277
27982SOL    HW186901   7.338   3.795   0.516 -0.3448  0.0834 -0.2804
27982SOL    HW286902   7.284   3.675   0.591  0.6646  0.0851  0.4768
27983SOL     OW86903   7.240   5.035   8.719  0.4752  0.7069 -0.2812
27983SOL    HW186904   7.296   4.984   8.661  2.9392  0.3091  2.1900
27983SOL    HW286905   7.297   5.104   8.752 -1.4517  2.2400 -0.0109
27984SOL     OW86906   3.096   0.650   7.645 -0.2972  0.2861 -0.6080
27984SOL    HW186907   3.008   0.643   7.607 -0.3521  1.1278 -0.6426
27984SOL    HW286908   3.107   0.743   7.664  0.1679  0.0363  0.4046
27985SOL     OW86909   1.748   4.469   6.864 -0.4503 -0.2444 -0.1547
27985SOL    HW186910   1.739   4.558   6.897 -0.0296  0.0254 -0.7512
27985SOL    HW286911   1.708   4.414   6.932 -0.0842  0.3394  0.5478
27986SOL     OW86912   3.974  10.043   4.991 -0.2052 -0.1584 -0.2372
27986SOL    HW186913   4.005  10.072   5.076  1.4282 -1.1603 -0.4252
27986SOL    HW286914   3.929  10.118   4.953 -1.1362  0.2360  1.5623
27987SOL     OW86915   9.637   7.852   3.678  0.3369 -0.1226  0.1614
27987SOL    HW186916   9.592   7.800   3.745 -0.9298  1.9251  0.9810
27987SOL    HW286917   9.580   7.926   3.662  1.9472  0.9084 -1.1556
27988SOL     OW86918   2.102   1.154   2.242  0.0551 -0.3534  0.1522
27988SOL    HW186919   2.079   1.237   2.200 -0.9386 -0.1205  1.1295
27988SOL    HW286920   2.024   1.100   2.233  0.5285 -1.0215 -0.0383
27989SOL     OW86921   1.451   4.834   1.213  0.6017  0.1309  0.1461
27989SOL    HW186922   1.505   4.886   1.153  0.4486  1.6475  1.2610
27989SOL    HW286923   1.509   4.764   1.242  1.1846  0.3125 -0.5417
27990SOL     OW86924   8.078   3.316   3.618  0.5815 -0.2527 -0.3842
27990SOL    HW186925   8.048   3.231   3.650  0.3381  0.1185  0.3944
27990SOL    HW286926   8.098   3.301   3.525 -3.4112 -0.2005 -1.4434
27991SOL     OW86927   3.472   8.536   7.074  0.4588 -0.0129  0.5223
27991SOL    HW186928   3.539   8.511   7.011  0.4697  0.8157  0.1812
27991SOL    HW286929   3.403   8.577   7.020  1.1286  2.0893  1.1562
27992SOL     OW86930   8.935   8.553   2.614  0.0995  0.2208 -0.3817
27992SOL    HW186931   9.017   8.543   2.565  0.7053  1.2041  0.3880
27992SOL    HW286932   8.869   8.510   2.559  0.8373  0.8535 -1.8269
27993SOL     OW86933   9.839  10.115   2.037 -0.1999 -0.7583  0.2930
27993SOL    HW186934   9.822  10.105   2.130  0.1879  0.1844  0.4771
27993SOL    HW286935   9.752  10.123   1.997 -0.3280  0.2665  0.7541
27994SOL     OW86936   8.862   7.649   7.129 -0.5281  0.1347  0.7341
27994SOL    HW186937   8.834   7.724   7.182 -2.3993 -0.4505  0.6581
27994SOL    HW286938   8.824   7.574   7.174  0.9478 -0.7389  0.5551
27995SOL     OW86939   0.253   9.229   0.970 -0.2853 -0.6281  0.2646
27995SOL    HW186940   0.229   9.263   1.056 -0.3194  1.2209 -0.4343
27995SOL    HW286941   0.177   9.248   0.915  1.1696  1.8338 -1.0675
27996SOL     OW86942   3.221  10.034   8.658 -0.4032 -0.3412  0.2267
27996SOL    HW186943   3.154   9.966   8.651 -2.4611  1.6765 -1.1582
27996SOL    HW286944   3.253  10.047   8.569  0.6701 -0.1521  0.6223
27997SOL     OW86945   9.248   6.264   1.153 -0.0671 -0.4752  0.1455
27997SOL    HW186946   9.188   6.213   1.098 -1.1306 -0.5344  1.3248
27997SOL    HW286947   9.255   6.349   1.108 -0.5690 -0.6733 -0.3214
27998SOL     OW86948   6.966   0.504   0.010  0.6587  0.1053 -0.2422
27998SOL    HW186949   6.898   0.445  -0.022 -1.5538  1.3752  1.7513
27998SOL    HW286950   6.935   0.591  -0.015  3.6980  0.5937 -2.8839
27999SOL     OW86951   6.585   4.305   8.658  0.1510  0.8330 -0.0481
27999SOL    HW186952   6.634   4.258   8.726 -0.0225 -0.6858 -0.9369
27999SOL    HW286953   6.511   4.345   8.705 -1.6215 -2.5531  0.3244
28000SOL     OW86954   2.332   4.653   5.116  0.4466  0.5482  0.3996
28000SOL    HW186955   2.263   4.591   5.140 -1.0430  1.8298 -0.4060
28000SOL    HW286956   2.397   4.645   5.186 -0.6817 -0.4549  1.3680
28001SOL     OW86957   9.104  10.281   7.486 -0.1981 -0.4258 -0.0674
28001SOL    HW186958   9.196  10.283   7.460 -0.4890  1.0232 -1.1091
28001SOL    HW286959   9.103  10.310   7.577  0.2014  2.2358 -0.8186
28002SOL     OW86960   6.774   0.115   2.833 -0.3329  0.5030  0.7694
28002SOL    HW186961   6.819   0.033   2.854  3.6038  2.4705  0.9811
28002SOL    HW286962   6.772   0.163   2.916  2.5984  2.7127 -0.2497
28003SOL     OW86963   8.313   3.347   2.394 -0.0079  0.1756 -0.2064
28003SOL    HW186964   8.376   3.407   2.353 -0.0666  1.9947  2.1408
28003SOL    HW286965   8.342   3.260   2.368  1.1892  1.1076 -2.2580
28004SOL     OW86966   7.101   0.327   5.534  0.1975  0.4868  0.2879
28004SOL    HW186967   7.162   0.296   5.467 -2.4600 -0.0581 -2.0346
28004SOL    HW286968   7.143   0.406   5.569  2.5243 -0.2457 -0.6563
28005SOL     OW86969   2.751  10.395   6.602  0.0649 -0.3541 -0.1809
28005SOL    HW186970   2.668  10.438   6.582  0.8962  0.6511 -1.7009
28005SOL    HW286971   2.802  10.462   6.648 -0.7933 -1.7626  3.1503
28006SOL     OW86972   6.948   1.091   6.132  0.0040 -0.7502 -0.7244
28006SOL    HW186973   7.038   1.111   6.158 -0.6968  1.3016  0.3167
28006SOL    HW286974   6.929   1.152   6.060 -0.1615 -2.0709 -1.8476
28007SOL     OW86975   8.042   5.566   2.164  0.2945 -0.0327 -0.4769
28007SOL    HW186976   8.028   5.646   2.214 -0.0320  0.0439 -0.6881
28007SOL    HW286977   7.988   5.576   2.086 -1.3112 -1.3213  0.4106
28008SOL     OW86978   6.130   4.656   4.546  0.5594  0.3413  0.0468
28008SOL    HW186979   6.165   4.639   4.459  0.0308 -0.3228 -0.0388
28008SOL    HW286980   6.128   4.570   4.588 -1.8072  0.2114 -0.2530
28009SOL     OW86981   5.776   5.030   5.012 -0.3505 -0.4086  0.3972
28009SOL    HW186982   5.725   5.111   5.015  0.5643  0.2835 -1.0575
28009SOL    HW286983   5.765   4.998   4.923  0.8555 -0.8186  0.3719
28010SOL     OW86984   2.583  10.598   5.010  0.1501 -0.0121 -0.5081
28010SOL    HW186985   2.674  10.610   4.983  0.4874 -2.2767 -0.5213
28010SOL    HW286986   2.578  10.507   5.039 -2.0480  0.1531 -0.1998
28011SOL     OW86987   7.376   2.532   8.173  0.0539  0.3046 -0.1832
28011SOL    HW186988   7.396   2.444   8.143 -1.0865 -0.4480  1.1522
28011SOL    HW286989   7.299   2.557   8.122  0.2110  0.4228 -0.3633
28012SOL     OW86990   8.528   6.820   4.144  0.1277 -0.3217 -0.7179
28012SOL    HW186991   8.609   6.771   4.131  0.8715  0.7551 -0.3168
28012SOL    HW286992   8.529   6.885   4.074  0.3277  0.5878  0.1049
28013SOL     OW86993   2.414   0.338   7.740 -0.4117  0.1633 -0.2565
28013SOL    HW186994   2.349   0.385   7.793 -0.6507  0.0158 -0.4181
28013SOL    HW286995   2.362   0.279   7.685 -0.2125  0.7067 -1.0450
28014SOL     OW86996   6.584   7.823   8.710 -0.0192  0.4649  0.3475
28014SOL    HW186997   6.641   7.894   8.739  1.4564 -0.4788 -0.1402
28014SOL    HW286998   6.577   7.835   8.615  1.7189 -1.0432 -0.0061
28015SOL     OW86999   4.480   6.520   3.865  0.0830  0.7396 -0.3959
28015SOL    HW187000   4.400   6.512   3.812  0.0779 -0.0218 -0.2805
28015SOL    HW287001   4.463   6.465   3.942  0.3974  1.2277  0.0296
28016SOL     OW87002   6.012   3.787   6.756  0.0838 -0.2191  0.1700
28016SOL    HW187003   6.043   3.748   6.837 -0.5686 -0.2545  0.4117
28016SOL    HW287004   6.091   3.807   6.706  0.4540 -1.0840  0.4004
28017SOL     OW87005   4.739   9.094   2.667  0.4588  0.0070  0.7054
28017SOL    HW187006   4.808   9.062   2.726 -0.4584  0.7375  2.2227
28017SOL    HW287007   4.667   9.117   2.725 -0.7234  0.1594 -0.7806
28018SOL     OW87008   4.489   4.197   5.830 -0.4511  0.3491  0.0810
28018SOL    HW187009   4.500   4.278   5.879 -1.4421  0.1883  0.5846
28018SOL    HW287010   4.452   4.135   5.893  1.6916 -0.9818  0.1471
28019SOL     OW87011   3.389   8.429   5.821 -0.5207 -0.5400  0.0066
28019SOL    HW187012   3.470   8.416   5.870 -0.5795 -1.6186 -0.1566
28019SOL    HW287013   3.346   8.503   5.865 -0.4678 -1.3253  1.4427
28020SOL     OW87014   9.682   0.191   3.394 -0.2668 -0.0413 -0.0905
28020SOL    HW187015   9.707   0.246   3.468 -1.2616  0.4078 -0.0681
28020SOL    HW287016   9.691   0.248   3.318  1.1464 -0.6213 -0.3895
28021SOL     OW87017   7.508   1.018   2.326 -0.3391 -0.5421 -0.8359
28021SOL    HW187018   7.465   0.997   2.242  1.3158  0.4977 -2.0084
28021SOL    HW287019   7.489   1.111   2.339 -0.2141 -0.5961 -0.2812
28022SOL     OW87020   6.294   2.145   9.419 -0.5080 -0.0438 -0.5947
28022SOL    HW187021   6.377   2.112   9.383 -0.2355  0.6234 -0.5949
28022SOL    HW287022   6.311   2.237   9.437 -1.2090  0.0619 -0.4479
28023SOL     OW87023   3.700   0.356   5.536 -0.3111 -0.6060 -0.0754
28023SOL    HW187024   3.628   0.331   5.479 -0.0281  0.1307 -0.7734
28023SOL    HW287025   3.674   0.325   5.623 -0.5495 -2.1159 -0.6659
28024SOL     OW87026   0.237   6.746   3.448 -0.7983 -0.1057 -0.1490
28024SOL    HW187027   0.207   6.790   3.369 -0.9587 -0.4724 -0.2953
28024SOL    HW287028   0.329   6.727   3.432 -1.2361 -1.6918 -0.9542
28025SOL     OW87029   0.296   6.217   6.621 -0.1337 -0.9962  0.1718
28025SOL    HW187030   0.204   6.195   6.605 -0.5544  0.0707  1.0541
28025SOL    HW287031   0.303   6.225   6.716  0.7718 -0.6109  0.0793
28026SOL     OW87032   4.558   3.250   1.497  0.0186  0.0116 -0.6113
28026SOL    HW187033   4.584   3.223   1.409 -1.0284 -2.2170 -0.3172
28026SOL    HW287034   4.465   3.268   1.491 -0.0647 -0.1614  0.0174
28027SOL     OW87035   9.881   9.095   6.458 -0.5362  0.6682  0.1220
28027SOL    HW187036   9.951   9.087   6.522 -1.9473 -3.3464  1.4728
28027SOL    HW287037   9.901   9.029   6.391 -1.8220  1.0297 -0.6675
28028SOL     OW87038   8.070   7.082   5.944 -0.2952  0.1599 -0.6510
28028SOL    HW187039   8.148   7.104   5.995  0.1108 -0.4701 -0.9853
28028SOL    HW287040   8.035   7.166   5.915 -0.1415  0.4839  0.0946
28029SOL     OW87041   0.106   1.944   2.164  0.4560  0.1639 -0.2617
28029SOL    HW187042   0.103   1.929   2.069 -0.4023 -1.5150  0.0062
28029SOL    HW287043   0.155   2.026   2.173  0.3404  0.4927 -2.1649
28030SOL     OW87044   2.049  10.035   3.414  0.0411 -0.3419  0.9263
28030SOL    HW187045   1.971  10.038   3.358 -1.7471  0.5813  3.2869
28030SOL    HW287046   2.076  10.126   3.423 -0.0526 -0.4032  1.9682
28031SOL     OW87047   6.403   2.891   9.738 -0.4963 -0.5953 -0.3442
28031SOL    HW187048   6.478   2.873   9.794 -0.1099  1.5809 -0.0785
28031SOL    HW287049   6.367   2.973   9.771 -0.7002  0.4007 -2.7931
28032SOL     OW87050   6.640   8.457   9.929 -0.1474 -0.0785 -0.7824
28032SOL    HW187051   6.645   8.550   9.952  0.4790 -0.5135  1.0000
28032SOL    HW287052   6.714   8.443   9.869 -0.5838  0.6722 -1.5178
28033SOL     OW87053   9.322   1.106   5.973 -0.5593 -0.0597 -0.1996
28033SOL    HW187054   9.317   1.186   6.025  1.9926 -0.0923  0.2485
28033SOL    HW287055   9.308   1.134   5.883  0.3285  0.9236 -0.0445
28034SOL     OW87056   7.100   8.574  10.228 -0.4922 -0.5836  0.0083
28034SOL    HW187057   7.161   8.630  10.275 -0.6925 -0.2200 -0.1678
28034SOL    HW287058   7.155   8.505  10.190 -0.3379 -0.9477  0.8625
28035SOL     OW87059   6.303   8.179   2.644 -0.0385  0.0789  0.1982
28035SOL    HW187060   6.273   8.267   2.665 -0.7396  0.2975 -1.5237
28035SOL    HW287061   6.288   8.128   2.723 -3.9254  0.4648 -0.1191
28036SOL     OW87062   1.090   8.074   6.222  0.4286  0.0331 -0.3620
28036SOL    HW187063   1.110   7.993   6.176 -0.7106 -0.7948  0.5303
28036SOL    HW287064   1.173   8.121   6.226  1.1189 -1.1066 -0.8750
28037SOL     OW87065   3.022   8.020   5.361  0.1120 -0.7537 -0.3020
28037SOL    HW187066   3.054   7.982   5.279  1.3821 -2.2677  0.8429
28037SOL    HW287067   2.946   7.966   5.384 -0.9527  0.3790 -1.0048
28038SOL     OW87068   5.455   7.606   0.866  0.5768  0.0575  0.4797
28038SOL    HW187069   5.504   7.573   0.942  1.4927 -1.3785 -0.6756
28038SOL    HW287070   5.449   7.531   0.807 -0.2011  1.1065 -0.8256
28039SOL     OW87071   7.771   7.007   4.131  0.0630  0.1347  0.2972
28039SOL    HW187072   7.793   6.990   4.222 -1.1691 -1.1226  0.3981
28039SOL    HW287073   7.856   7.012   4.086  0.6600  0.1408  1.3975
28040SOL     OW87074   7.346   0.761   6.516  0.2329 -0.1253 -0.2100
28040SOL    HW187075   7.364   0.855   6.523  0.6204 -0.0313 -1.9963
28040SOL    HW287076   7.432   0.721   6.508  0.0392 -0.5603 -0.1354
28041SOL     OW87077   1.573   4.308   3.611  0.8565  0.2925  0.4210
28041SOL    HW187078   1.621   4.262   3.681 -0.6069 -1.0157  0.6261
28041SOL    HW287079   1.490   4.332   3.652  0.1957 -0.0119 -0.7279
28042SOL     OW87080   8.927   8.790   3.725 -0.7030 -0.1635  0.3975
28042SOL    HW187081   8.919   8.885   3.719  0.2422 -0.1167 -0.6522
28042SOL    HW287082   8.918   8.770   3.818 -2.2486  0.7962  0.4886
28043SOL     OW87083   1.884   6.577   0.818 -0.1423  0.4513  0.5907
28043SOL    HW187084   1.803   6.624   0.801 -0.8292 -0.6502  0.6944
28043SOL    HW287085   1.876   6.497   0.766 -0.3374 -0.9421  2.6582
28044SOL     OW87086   3.442   5.317   5.213  0.5099 -0.1504 -0.1746
28044SOL    HW187087   3.418   5.397   5.165  0.5948 -1.5623 -2.7620
28044SOL    HW287088   3.360   5.269   5.222  0.7463 -0.5789 -0.2762
28045SOL     OW87089  10.283   7.618   8.103 -0.0711 -0.4187  0.3932
28045SOL    HW187090  10.204   7.581   8.144 -0.5209  0.5063  0.3952
28045SOL    HW287091  10.349   7.551   8.113 -0.9978 -1.4233 -0.0418
28046SOL     OW87092   1.178   7.308   6.899  0.0990  0.4144 -0.3737
28046SOL    HW187093   1.239   7.359   6.953 -2.1327  0.9390  1.8237
28046SOL    HW287094   1.219   7.221   6.892  1.6870  1.1021 -0.1248
28047SOL     OW87095   7.397   3.271   5.809  0.2972  0.7188  0.5974
28047SOL    HW187096   7.422   3.329   5.737 -0.2425  0.1640 -0.0569
28047SOL    HW287097   7.393   3.327   5.886 -0.2026  1.5530 -0.0224
28048SOL     OW87098   5.329   4.907   9.923 -0.0527  0.1341  0.5367
28048SOL    HW187099   5.318   4.987   9.975 -0.6736  0.1332  0.4205
28048SOL    HW287100   5.388   4.852   9.974 -1.2386 -0.1838  1.6230
28049SOL     OW87101   3.404   3.578   9.297 -0.5601 -0.5553  0.7011
28049SOL    HW187102   3.394   3.483   9.293 -1.2930 -0.4907  0.9618
28049SOL    HW287103   3.411   3.597   9.390 -1.4280 -0.2586  0.7135
28050SOL     OW87104   8.806   4.674   9.250  0.1368 -0.2171 -0.8149
28050SOL    HW187105   8.712   4.684   9.266  0.6576  2.0729  1.4944
28050SOL    HW287106   8.835   4.760   9.221  1.4153 -1.1803 -2.6394
28051SOL     OW87107   9.788   5.621   0.826  0.6821 -0.7948  0.5968
28051SOL    HW187108   9.767   5.551   0.888  0.2372 -1.2570 -0.0692
28051SOL    HW287109   9.868   5.591   0.782 -0.1535 -1.4566 -0.5240
28052SOL     OW87110   3.635   3.957   8.383  0.2474  0.1291  0.3259
28052SOL    HW187111   3.601   4.016   8.450  0.6098 -0.6054  1.1927
28052SOL    HW287112   3.597   3.872   8.405 -0.2166  0.0042 -0.8572
28053SOL     OW87113   4.678   6.624   2.683 -0.1384  0.1450 -0.3843
28053SOL    HW187114   4.716   6.612   2.770 -1.8044  0.6501  0.4675
28053SOL    HW287115   4.751   6.651   2.628  1.1264 -1.0124  0.6417
28054SOL     OW87116   4.220   4.339   9.875 -0.0089  0.1743 -0.1952
28054SOL    HW187117   4.300   4.386   9.901 -0.6434  3.2322 -2.9587
28054SOL    HW287118   4.249   4.279   9.807  0.1344  0.4696 -0.4009
28055SOL     OW87119   2.268   1.594   1.108 -0.2853 -0.4076  0.2797
28055SOL    HW187120   2.334   1.562   1.170  0.6948 -2.6281 -1.7435
28055SOL    HW287121   2.231   1.515   1.069 -1.2356  0.8627 -1.5832
28056SOL     OW87122   4.146   2.023   5.081  0.2581  0.5791  0.2806
28056SOL    HW187123   4.187   1.988   5.002 -1.6131  2.7155 -1.7597
28056SOL    HW287124   4.063   1.976   5.089 -0.2367  1.4100  0.1019
28057SOL     OW87125   9.806   5.141   9.164  0.0151  0.2041  0.4776
28057SOL    HW187126   9.752   5.128   9.242  0.9931 -0.0438  1.1336
28057SOL    HW287127   9.874   5.202   9.192  0.6896 -0.3034 -0.0245
28058SOL     OW87128   0.470   5.466   7.132 -0.4631 -0.5221  0.0196
28058SOL    HW187129   0.496   5.452   7.040  0.0128 -0.7282  0.1814
28058SOL    HW287130   0.415   5.544   7.129  1.5258  0.9604 -0.1334
28059SOL     OW87131   8.333   6.560   8.912  0.3398  0.2678 -0.6144
28059SOL    HW187132   8.398   6.625   8.884 -0.9418  1.5578 -0.7075
28059SOL    HW287133   8.276   6.550   8.836 -1.3125  1.4133  0.4093
28060SOL     OW87134   0.102   9.706  10.112  0.1793  0.3968  0.1939
28060SOL    HW187135   0.074   9.794  10.089 -0.5985 -0.1547 -1.0625
28060SOL    HW287136   0.178   9.689  10.057 -0.4254 -0.1655 -0.4815
28061SOL     OW87137   1.736   4.529   5.371  0.2662 -0.3881 -0.3253
28061SOL    HW187138   1.651   4.494   5.399 -0.4373  1.7286  0.4202
28061SOL    HW287139   1.798   4.458   5.386 -0.8911 -0.9931  2.0035
28062SOL     OW87140   0.557   7.848   9.656  0.6530 -0.5600 -0.1350
28062SOL    HW187141   0.573   7.849   9.562 -1.7170 -0.4938 -0.6178
28062SOL    HW287142   0.496   7.921   9.670 -0.7048 -1.8668  1.0806
28063SOL     OW87143   5.210   4.013   1.811  0.1792 -0.5023 -0.2604
28063SOL    HW187144   5.217   4.047   1.900 -0.3884 -0.6935 -0.1355
28063SOL    HW287145   5.132   4.055   1.776  0.1722 -0.7371 -0.5279
28064SOL     OW87146   0.105   9.038   5.984  0.1700  0.3417 -0.1658
28064SOL    HW187147   0.065   9.122   6.009 -0.8286 -0.1457 -0.0776
28064SOL    HW287148   0.066   9.017   5.899  0.6694  0.1244 -0.3443
28065SOL     OW87149   7.913   8.273   9.623  0.2863  0.0576  0.2423
28065SOL    HW187150   7.967   8.335   9.671  2.4963 -1.1151 -0.5915
28065SOL    HW287151   7.920   8.192   9.674 -0.0457 -0.3251 -0.3126
28066SOL     OW87152   7.293   7.081  10.366  0.4748 -0.0789  0.0504
28066SOL    HW187153   7.285   6.994  10.405 -0.6626  0.7960  1.9095
28066SOL    HW287154   7.305   7.139  10.441  1.3561  1.3693 -1.1620
28067SOL     OW87155   8.086   8.673   4.406  0.0645 -0.2175 -0.0525
28067SOL    HW187156   8.102   8.699   4.316 -0.1138  0.0816  0.0029
28067SOL    HW287157   8.143   8.730   4.458 -0.1092 -0.1369  0.0492
28068SOL     OW87158   1.938   2.468   9.781 -0.0014 -0.4992 -0.4890
28068SOL    HW187159   1.865   2.491   9.723 -0.8906 -1.1401  0.3557
28068SOL    HW287160   1.921   2.519   9.860  0.9939  0.0650 -0.6235
28069SOL     OW87161   4.372   1.736   6.325 -0.1793 -0.0199  0.8834
28069SOL    HW187162   4.421   1.739   6.243 -1.8077  0.8393 -0.1083
28069SOL    HW287163   4.431   1.776   6.389  0.8583 -0.0904  0.0178
28070SOL     OW87164   9.741   5.590   3.258  0.4022 -0.6023 -0.0296
28070SOL    HW187165   9.683   5.540   3.201 -1.0198  0.9684 -0.0429
28070SOL    HW287166   9.829   5.564   3.232 -0.2657 -1.7021 -1.2801
28071SOL     OW87167   7.293   1.289   4.385  0.0513 -0.2035  0.4008
28071SOL    HW187168   7.310   1.381   4.366  0.0224  0.0140  1.4068
28071SOL    HW287169   7.380   1.248   4.383  0.3228  0.2303  1.9090
28072SOL     OW87170   6.744   9.363   5.975 -0.0519 -0.4313  0.3142
28072SOL    HW187171   6.681   9.434   5.964  0.8843  0.5683  1.1321
28072SOL    HW287172   6.798   9.365   5.896  0.0837 -0.0994  0.4128
28073SOL     OW87173   3.061   7.047   0.206  0.7620  0.1493 -0.2186
28073SOL    HW187174   3.099   6.975   0.257 -0.1741 -0.9491 -1.0171
28073SOL    HW287175   3.117   7.122   0.225  0.8512 -0.3833  1.8829
28074SOL     OW87176   7.639   6.598   6.857 -0.1932  0.6590 -0.0505
28074SOL    HW187177   7.663   6.588   6.765  0.0704  1.9487 -0.1406
28074SOL    HW287178   7.722   6.618   6.901 -0.1942 -0.6723  0.6029
28075SOL     OW87179   5.327   4.007   1.364 -0.3425  0.5595 -0.4129
28075SOL    HW187180   5.349   4.099   1.351 -0.9844  0.6286 -1.0985
28075SOL    HW287181   5.376   3.961   1.295 -0.7251  0.4869 -0.6362
28076SOL     OW87182   6.347   5.257   2.428 -0.0910 -0.5035 -0.5026
28076SOL    HW187183   6.425   5.312   2.434  0.2928 -1.1199  0.6203
28076SOL    HW287184   6.297   5.292   2.355  0.2684  1.1695  0.0161
28077SOL     OW87185   2.438   0.210   8.863 -0.2933 -0.2387 -0.2520
28077SOL    HW187186   2.479   0.131   8.900  0.5061  0.1640 -0.2703
28077SOL    HW287187   2.423   0.266   8.938 -0.6038 -0.2889 -0.2752
28078SOL     OW87188   7.928   8.648   0.122 -0.1319  0.7029 -0.4422
28078SOL    HW187189   8.000   8.597   0.160 -1.3308 -1.5404 -1.0326
28078SOL    HW287190   7.878   8.678   0.198  0.6949  1.2077 -0.0779
28079SOL     OW87191   5.714   0.544   8.864  0.2327  0.2629 -0.0386
28079SOL    HW187192   5.702   0.600   8.787 -1.3030 -0.6439 -0.4996
28079SOL    HW287193   5.650   0.576   8.928 -0.2277 -0.5512 -0.0763
28080SOL     OW87194   3.126  10.046   4.235  0.6130 -0.1606 -0.5197
28080SOL    HW187195   3.073   9.993   4.295  0.2115  0.3475 -0.4231
28080SOL    HW287196   3.133   9.992   4.156  1.0534 -0.7850 -0.0620
28081SOL     OW87197  10.690   4.186   2.564 -0.3220  0.4178  0.7322
28081SOL    HW187198  10.628   4.146   2.503 -1.1327 -0.7566  2.2445
28081SOL    HW287199  10.768   4.203   2.512 -1.5003  0.9102 -0.9760
28082SOL     OW87200   3.831   0.205   6.575  0.1934  0.3188  0.2185
28082SOL    HW187201   3.846   0.183   6.483 -1.2590  0.2342 -0.0177
28082SOL    HW287202   3.801   0.296   6.574 -1.4651 -0.2046  0.4290
28083SOL     OW87203   3.696   2.098   6.618 -0.1468  0.3687  0.0439
28083SOL    HW187204   3.772   2.146   6.586  1.3069 -1.2810  0.8506
28083SOL    HW287205   3.644   2.163   6.666  1.0309  1.4018 -0.0464
28084SOL     OW87206   1.767   6.701   8.891  0.2609  0.1523  0.1246
28084SOL    HW187207   1.719   6.783   8.908  1.1819  0.1820  3.0410
28084SOL    HW287208   1.810   6.716   8.806 -0.1271  2.4304  0.2613
28085SOL     OW87209   7.473   9.569   7.414  0.5132  0.0628  1.0235
28085SOL    HW187210   7.386   9.608   7.423 -0.3244 -1.4748  0.0371
28085SOL    HW287211   7.500   9.593   7.325  0.5738 -0.4542  0.9026
28086SOL     OW87212  10.496   4.274   0.928  0.3438 -0.3733 -0.0537
28086SOL    HW187213  10.543   4.246   0.849  1.0469 -0.9184  0.5416
28086SOL    HW287214  10.408   4.238   0.918  1.3045 -3.2989  0.8693
28087SOL     OW87215  10.052   6.858   7.214  0.4957 -0.1457 -0.5139
28087SOL    HW187216  10.111   6.813   7.154 -0.0692  1.3050 -2.2406
28087SOL    HW287217   9.975   6.879   7.162  0.0319  1.2919  0.6684
28088SOL     OW87218   6.068   1.640   9.450  0.0771  0.0729  0.1767
28088SOL    HW187219   6.162   1.660   9.453 -0.4506  2.8952  0.6559
28088SOL    HW287220   6.045   1.618   9.540 -0.4136  3.6402  1.0728
28089SOL     OW87221   8.028   1.884   1.193  1.1277  0.2009  0.4850
28089SOL    HW187222   8.087   1.855   1.124 -0.5770  1.2260 -1.5010
28089SOL    HW287223   8.027   1.980   1.185 -1.4352  0.1895 -0.1871
28090SOL     OW87224   6.553   5.671   9.887  0.6132  0.0076 -0.0905
28090SOL    HW187225   6.639   5.635   9.864  1.0059  1.5548 -1.2570
28090SOL    HW287226   6.547   5.752   9.835 -0.3110  1.4617  2.1189
28091SOL     OW87227   5.894   9.859   3.100 -0.0419  0.3388  0.1988
28091SOL    HW187228   5.902   9.899   3.186 -1.3723  1.2248 -0.0696
28091SOL    HW287229   5.905   9.931   3.039  1.7737 -0.4136 -0.4340
28092SOL     OW87230   3.719   3.832   3.244  0.3746 -0.6873  0.0475
28092SOL    HW187231   3.693   3.910   3.197  0.4474 -1.2615 -0.9680
28092SOL    HW287232   3.814   3.834   3.245  0.3719  0.0775  1.4910
28093SOL     OW87233   0.553   3.974   4.989 -0.0258  0.4002 -0.5583
28093SOL    HW187234   0.551   4.064   5.021  0.1613 -0.1726  1.1986
28093SOL    HW287235   0.598   3.925   5.058 -2.6879 -1.5407 -0.0013
28094SOL     OW87236   1.182   6.337   6.837  0.1071 -0.2594 -0.0929
28094SOL    HW187237   1.223   6.420   6.861  1.3681 -1.0577  0.6490
28094SOL    HW287238   1.093   6.342   6.874  1.1911 -0.4713  2.7882
28095SOL     OW87239   0.887   7.200   1.014 -0.5427 -0.1482 -0.5017
28095SOL    HW187240   0.853   7.111   1.027 -2.3538  0.5498 -0.1306
28095SOL    HW287241   0.910   7.230   1.101  0.7369 -0.4820 -0.7104
28096SOL     OW87242   1.924   3.709   0.346  0.2529 -0.2403  0.4568
28096SOL    HW187243   1.867   3.764   0.401 -0.7587 -0.4485 -0.3504
28096SOL    HW287244   1.878   3.625   0.342  0.2761 -0.2011 -0.7633
28097SOL     OW87245   8.215   7.360   9.828  0.3431 -0.3049  0.0147
28097SOL    HW187246   8.272   7.362   9.905 -0.7818  0.9365  0.8646
28097SOL    HW287247   8.220   7.449   9.792 -0.0715 -0.5412 -0.6444
28098SOL     OW87248   7.839   7.084   2.437 -0.3030 -0.1822  0.2738
28098SOL    HW187249   7.910   7.082   2.502  0.5936  0.9041 -0.6296
28098SOL    HW287250   7.761   7.060   2.486  0.8401 -2.5661  1.0707
28099SOL     OW87251   7.971   9.413   0.066 -0.1701  0.9955  0.7036
28099SOL    HW187252   7.878   9.425   0.088 -0.4030  0.0832  0.2873
28099SOL    HW287253   7.992   9.326   0.099  0.4754  1.1095  0.5920
28100SOL     OW87254   7.074   6.729   7.244  0.2552 -0.2874  0.7483
28100SOL    HW187255   7.015   6.797   7.278  1.9811  1.0858  1.1429
28100SOL    HW287256   7.148   6.778   7.207  1.6201 -1.9520  1.1776
28101SOL     OW87257  10.205   7.281   2.525 -0.2214 -0.8945  0.0642
28101SOL    HW187258  10.272   7.347   2.540 -2.1151  1.1991 -0.0704
28101SOL    HW287259  10.225   7.245   2.439  0.1222  0.5174 -0.4760
28102SOL     OW87260   2.280   4.824   7.088  0.1256  0.6315 -0.2787
28102SOL    HW187261   2.191   4.808   7.056  0.0881  0.6189 -0.1680
28102SOL    HW287262   2.306   4.906   7.045  0.7068 -0.2525 -1.6515
28103SOL     OW87263   6.500   2.453   4.209  0.0723 -0.0625 -0.0708
28103SOL    HW187264   6.474   2.445   4.301  0.6855 -0.4005  0.0852
28103SOL    HW287265   6.418   2.462   4.161 -0.2369  0.4407  0.5385
28104SOL     OW87266  10.245   2.286   7.338 -0.3452 -0.2446  0.2959
28104SOL    HW187267  10.167   2.232   7.328  0.4274 -1.2318 -0.5540
28104SOL    HW287268  10.213   2.367   7.378 -1.6898 -0.8965  0.5843
28105SOL     OW87269   4.795   7.054   9.328 -0.2231  0.5797  0.2638
28105SOL    HW187270   4.885   7.035   9.303 -0.4235 -1.4031  0.8741
28105SOL    HW287271   4.801   7.136   9.379  1.0970  0.8968 -0.3490
28106SOL     OW87272   0.805   1.651   2.619  0.0316  0.3363  0.0499
28106SOL    HW187273   0.869   1.587   2.651  1.5530  1.2919 -0.9027
28106SOL    HW287274   0.845   1.685   2.538 -2.0683  0.4131 -1.0188
28107SOL     OW87275   1.188   0.183   9.169 -0.2324  0.3312  0.2063
28107SOL    HW187276   1.127   0.172   9.096 -0.7737  2.8549  0.1646
28107SOL    HW287277   1.215   0.095   9.192 -3.2421 -0.8582 -0.3508
28108SOL     OW87278   4.165   1.667   7.354  0.1861  0.2909 -0.1767
28108SOL    HW187279   4.126   1.704   7.433  0.5691  1.0118 -0.3059
28108SOL    HW287280   4.102   1.688   7.285 -0.3073 -0.6362 -0.0153
28109SOL     OW87281   3.654   1.697   4.815 -0.2784 -0.2885  0.1217
28109SOL    HW187282   3.686   1.670   4.901  2.3689  0.8732 -0.4057
28109SOL    HW287283   3.589   1.765   4.835  0.6711  0.3427  1.2230
28110SOL     OW87284  10.338   5.034   2.432 -0.3250  0.1363  0.1028
28110SOL    HW187285  10.408   5.071   2.485 -0.2977  0.4522 -0.1494
28110SOL    HW287286  10.312   4.954   2.478  1.2312 -0.8282 -0.5993
28111SOL     OW87287   5.461   9.740  10.616  1.2346  0.0121 -0.4639
28111SOL    HW187288   5.461   9.651  10.581 -1.2620 -0.1731 -0.2010
28111SOL    HW287289   5.476   9.729  10.710  0.3460 -0.2140 -0.3392
28112SOL     OW87290   5.769   0.602   5.557  0.1579  0.6555  0.1689
28112SOL    HW187291   5.855   0.559   5.556 -0.3726 -0.4348 -0.4488
28112SOL    HW287292   5.712   0.543   5.508 -0.9461  1.3854  0.5346
28113SOL     OW87293   5.534   0.049   4.782  0.3069 -0.0299  0.7245
28113SOL    HW187294   5.456   0.073   4.733  0.2309 -0.6288  0.5356
28113SOL    HW287295   5.552   0.124   4.838 -1.5781 -0.6371  2.2533
28114SOL     OW87296   8.507   1.578   3.041  0.4107 -0.0413  0.3382
28114SOL    HW187297   8.579   1.639   3.052 -0.6477  1.6130 -1.2811
28114SOL    HW287298   8.428   1.632   3.047 -0.5723 -1.2411 -0.9625
28115SOL     OW87299   3.749   5.929   2.721 -0.3884 -0.0645  0.2378
28115SOL    HW187300   3.678   5.871   2.751  0.5988 -0.3721  2.0905
28115SOL    HW287301   3.750   6.001   2.784  1.4433 -0.4613  0.7115
28116SOL     OW87302   1.824   8.893   7.277 -0.7946 -0.3406  0.3708
28116SOL    HW187303   1.790   8.825   7.335 -0.1686 -0.7726  0.2299
28116SOL    HW287304   1.909   8.861   7.247 -0.8853  0.1002 -0.4026
28117SOL     OW87305  10.556   1.077   9.754 -0.3541 -0.5167  0.1622
28117SOL    HW187306  10.481   1.020   9.767 -1.0609  0.6184  1.2574
28117SOL    HW287307  10.576   1.112   9.841 -0.3010  1.3037 -0.5321
28118SOL     OW87308   9.215   2.126   3.157 -0.3040 -0.5327 -0.1445
28118SOL    HW187309   9.204   2.220   3.172  0.7663 -0.5022  0.4973
28118SOL    HW287310   9.174   2.111   3.071  0.1586  0.6436 -0.5860
28119SOL     OW87311   3.655  10.346   6.626 -0.4212  0.0913  0.0105
28119SOL    HW187312   3.704  10.399   6.688 -0.1572 -0.5292  0.3393
28119SOL    HW287313   3.658  10.396   6.544 -0.4613  0.7346  0.3984
28120SOL     OW87314   9.629   6.718   0.933 -0.0824  0.1124 -0.0640
28120SOL    HW187315   9.719   6.730   0.965 -0.1741  2.0378 -0.4655
28120SOL    HW287316   9.637   6.652   0.864  1.0012  0.2055 -0.0455
28121SOL     OW87317   2.482   9.087   1.355 -0.0258  0.1269  0.2217
28121SOL    HW187318   2.389   9.067   1.366 -0.0582  0.4635  0.5770
28121SOL    HW287319   2.507   9.041   1.275 -0.2633 -0.7566  0.6417
28122SOL     OW87320   6.868   1.530   5.998  0.0987  0.1166 -0.9403
28122SOL    HW187321   6.843   1.449   5.954 -0.1340 -0.3799  0.0719
28122SOL    HW287322   6.953   1.553   5.962 -0.5447  0.3081 -2.4089
28123SOL     OW87323   8.380   5.017   0.669  0.2153  0.3520  0.2280
28123SOL    HW187324   8.286   5.011   0.689  0.5208  0.0924  1.7088
28123SOL    HW287325   8.406   5.101   0.708  0.8365 -0.1437  0.8863
28124SOL     OW87326   9.569   2.758   7.051  0.2246 -0.2579  0.0506
28124SOL    HW187327   9.541   2.762   6.959 -0.2438 -1.2660  0.1387
28124SOL    HW287328   9.615   2.675   7.058  2.1203  0.7485  0.2403
28125SOL     OW87329   8.943   8.409   3.698 -0.3156 -0.1442  0.5116
28125SOL    HW187330   8.978   8.442   3.781  1.6977 -0.9118  0.0373
28125SOL    HW287331   8.988   8.461   3.631 -0.4966 -0.8122 -0.1369
28126SOL     OW87332   3.496   1.536   1.672 -0.0229  0.2986 -0.1806
28126SOL    HW187333   3.589   1.528   1.650 -0.0366  1.5132 -0.7557
28126SOL    HW287334   3.486   1.628   1.697 -0.5499 -0.3797  2.3993
28127SOL     OW87335   5.706  10.513   4.792  0.2457  0.0519 -0.4708
28127SOL    HW187336   5.682  10.601   4.763  0.8853  0.6606  0.7740
28127SOL    HW287337   5.647  10.494   4.866  2.6273  1.0814  1.8349
28128SOL     OW87338   4.374   9.710   6.148  0.3903 -0.5034 -0.0758
28128SOL    HW187339   4.469   9.704   6.157  0.2481  0.1885  3.3326
28128SOL    HW287340   4.340   9.656   6.220 -1.7189  0.7081 -0.0792
28129SOL     OW87341   7.658   6.787   1.075 -0.5245 -0.4876 -0.4574
28129SOL    HW187342   7.659   6.695   1.049 -0.2436 -1.3360  2.2087
28129SOL    HW287343   7.698   6.834   1.002  0.7485 -2.6628 -1.2396
28130SOL     OW87344   9.031   6.209  10.270  0.3022  0.2268  0.1024
28130SOL    HW187345   9.124   6.189  10.262 -0.2006 -1.7575 -1.6108
28130SOL    HW287346   9.023   6.301  10.243  1.8516  0.8148  1.4417
28131SOL     OW87347   8.312   7.593   6.754  0.4846 -0.2172  0.2746
28131SOL    HW187348   8.227   7.616   6.716  1.2742 -0.6768 -1.9343
28131SOL    HW287349   8.333   7.666   6.812 -1.8776 -0.6013  1.7489
28132SOL     OW87350   8.851   4.108   6.103 -0.3166 -0.1227  0.1835
28132SOL    HW187351   8.884   4.193   6.076 -0.2060 -0.4925 -0.8654
28132SOL    HW287352   8.793   4.127   6.177  0.4651  0.7559  0.5801
28133SOL     OW87353   6.931   8.703   7.523 -0.0363 -0.2313 -0.0739
28133SOL    HW187354   7.012   8.673   7.482  0.1649 -0.3928  0.4262
28133SOL    HW287355   6.877   8.735   7.451  0.8473  0.7701 -0.3323
28134SOL     OW87356   7.254   6.266   3.356  0.5780 -0.7053 -0.4936
28134SOL    HW187357   7.275   6.185   3.402 -2.2243 -0.5783  1.2628
28134SOL    HW287358   7.209   6.237   3.277 -1.7790 -0.9959  0.8512
28135SOL     OW87359   9.680   4.006   5.990 -0.5948  0.1860 -0.1537
28135SOL    HW187360   9.735   3.946   5.939 -0.5457 -0.3118  0.4808
28135SOL    HW287361   9.743   4.062   6.036 -0.6412  0.7855 -0.8015
28136SOL     OW87362   0.497   5.294   4.640  0.0719 -0.1066  0.1543
28136SOL    HW187363   0.471   5.278   4.731 -1.7774  0.6469 -0.1973
28136SOL    HW287364   0.482   5.387   4.627  2.1515  0.1917 -0.3961
28137SOL     OW87365   0.816   0.717   1.416  0.2117 -0.1526  1.1268
28137SOL    HW187366   0.886   0.663   1.454  0.2425  0.1883  1.5700
28137SOL    HW287367   0.853   0.749   1.333  1.1449  1.1581  2.0035
28138SOL     OW87368   0.928   2.158   1.491 -0.1968  0.0706  0.1918
28138SOL    HW187369   0.845   2.156   1.539 -0.2262  1.9200  0.3096
28138SOL    HW287370   0.990   2.112   1.547 -1.0377 -0.9094  0.3275
28139SOL     OW87371   0.707   8.903   0.994 -0.4553  0.8085 -0.0895
28139SOL    HW187372   0.643   8.864   0.934  1.6938  0.1963 -2.1538
28139SOL    HW287373   0.685   8.867   1.080  1.1062 -5.0076 -1.6883
28140SOL     OW87374   4.074   2.141   9.172  0.2314 -0.4063  0.8165
28140SOL    HW187375   4.167   2.124   9.190  0.9442  1.5314 -0.7406
28140SOL    HW287376   4.060   2.107   9.084 -0.3182  0.0649  0.7211
28141SOL     OW87377   0.956   5.054   3.670  0.2292 -0.3068 -0.3117
28141SOL    HW187378   0.938   5.094   3.755  0.8013 -0.3016 -0.1911
28141SOL    HW287379   1.040   5.010   3.682  0.1345 -0.6121 -0.7692
28142SOL     OW87380   8.571   1.054   2.179  0.0476  0.3804  0.0290
28142SOL    HW187381   8.477   1.069   2.177  0.1087  0.7139 -0.6032
28142SOL    HW287382   8.597   1.074   2.269 -0.5233  0.0291  0.2756
28143SOL     OW87383   3.319   5.802   9.764 -0.3109  0.0971  0.6198
28143SOL    HW187384   3.381   5.840   9.826 -2.9154  1.6072  2.5287
28143SOL    HW287385   3.279   5.877   9.720 -0.4759 -0.8483 -0.9234
28144SOL     OW87386   3.305   0.146   3.728 -0.4453  0.0192 -0.6490
28144SOL    HW187387   3.222   0.169   3.688 -1.0895 -0.9522  0.0711
28144SOL    HW287388   3.327   0.060   3.691  0.3326  0.3473 -0.9682
28145SOL     OW87389   5.012   4.145   3.657  0.1222  0.7348 -0.1767
28145SOL    HW187390   5.008   4.105   3.744  2.1003  1.8446  0.5006
28145SOL    HW287391   5.105   4.167   3.646 -0.1113  0.7547 -2.5226
28146SOL     OW87392   6.451   4.815   4.414 -0.3420  0.7178  0.2815
28146SOL    HW187393   6.403   4.769   4.346 -0.0242 -2.0662  1.8137
28146SOL    HW287394   6.385   4.839   4.479 -0.0951 -0.5920  1.0466
28147SOL     OW87395   7.285   2.473   1.842  0.3562  0.0096  0.1984
28147SOL    HW187396   7.375   2.501   1.860  0.6471 -0.9120  0.1994
28147SOL    HW287397   7.286   2.378   1.853 -0.2217 -0.2237 -1.4034
28148SOL     OW87398   9.000   8.139   7.986  0.1883 -0.4151 -0.5196
28148SOL    HW187399   8.923   8.088   8.012  0.6538 -0.3050  1.2107
28148SOL    HW287400   8.973   8.185   7.906 -0.7453 -2.1796 -1.2786
28149SOL     OW87401   8.372   1.153   0.023 -0.3821 -0.3720  0.3601
28149SOL    HW187402   8.454   1.169   0.070 -0.5252  0.6633  0.2933
28149SOL    HW287403   8.304   1.164   0.090 -0.5350  0.1861  0.1219
28150SOL     OW87404   5.676   1.633   1.883 -0.5828  0.4447  0.1234
28150SOL    HW187405   5.744   1.581   1.926  0.0378 -0.3151 -1.6709
28150SOL    HW287406   5.724   1.706   1.843 -0.5765 -0.7117 -2.1243
28151SOL     OW87407   9.781   2.486   2.931 -0.1609 -0.8206  0.4992
28151SOL    HW187408   9.789   2.512   3.023  1.6635  0.1143  0.1168
28151SOL    HW287409   9.856   2.429   2.916  1.1690  1.2205 -1.0716
28152SOL     OW87410   4.023   1.956   6.801  0.2669  1.3198 -1.0543
28152SOL    HW187411   3.983   2.041   6.821 -0.5229  0.7735 -0.2117
28152SOL    HW287412   3.962   1.892   6.838  1.7794  0.4453  0.0074
28153SOL     OW87413   9.170   5.723   1.030  1.1535 -0.1340 -0.4406
28153SOL    HW187414   9.239   5.778   1.067 -0.8662  1.2709  1.4894
28153SOL    HW287415   9.177   5.641   1.078 -1.1804  1.5269  3.2035
28154SOL     OW87416   9.766   7.474   8.164 -0.7448 -0.5355  0.0494
28154SOL    HW187417   9.671   7.463   8.170 -0.8926  0.7765  0.3189
28154SOL    HW287418   9.789   7.531   8.237 -0.0342  0.7996 -1.1573
28155SOL     OW87419   8.121   8.151   6.782 -0.2003  0.6228 -0.0193
28155SOL    HW187420   8.065   8.142   6.705  1.1064  1.5369 -1.1265
28155SOL    HW287421   8.075   8.103   6.851 -1.3224 -0.3701 -1.4037
28156SOL     OW87422   0.183   4.406   6.744  0.4037 -0.2934  0.1478
28156SOL    HW187423   0.182   4.476   6.810  0.0689  1.9873 -2.1486
28156SOL    HW287424   0.269   4.365   6.755  1.2355  1.4505  0.6333
28157SOL     OW87425  10.555   7.345   3.370  0.4053  0.4657  0.2351
28157SOL    HW187426  10.514   7.362   3.285  1.0166 -0.6458 -0.3028
28157SOL    HW287427  10.514   7.408   3.429  0.3326  1.6188 -0.9854
28158SOL     OW87428   6.377   1.643   9.369 -0.6765 -0.3850 -0.0804
28158SOL    HW187429   6.416   1.704   9.431  0.8151 -0.3526 -1.0102
28158SOL    HW287430   6.361   1.695   9.290 -0.8561 -0.8324 -0.3492
28159SOL     OW87431   4.421   5.604   5.011  1.1360 -0.1431 -0.3646
28159SOL    HW187432   4.374   5.595   4.929  0.9251 -0.5560 -0.2007
28159SOL    HW287433   4.363   5.565   5.077  0.8862  1.0032  0.1276
28160SOL     OW87434   7.509   6.512   0.527  0.6609  0.0943 -0.6434
28160SOL    HW187435   7.442   6.445   0.511 -1.1897  1.5844  0.4471
28160SOL    HW287436   7.592   6.464   0.522 -0.4356 -1.8097 -2.1776
28161SOL     OW87437  10.384   0.573   3.086 -0.3303 -0.0880 -0.1892
28161SOL    HW187438  10.322   0.635   3.125 -0.3182 -0.9605  1.2899
28161SOL    HW287439  10.345   0.487   3.101  0.9092 -0.6044  0.1943
28162SOL     OW87440   5.509   4.477   2.395  0.3924  0.5287 -0.4569
28162SOL    HW187441   5.439   4.413   2.386  0.8719 -0.2055  0.8083
28162SOL    HW287442   5.578   4.446   2.337  0.7618 -0.3055  0.4211
28163SOL     OW87443   6.083   2.526  10.397 -0.2419  0.4832  0.2233
28163SOL    HW187444   6.147   2.592  10.368 -0.7200  0.6860 -0.3999
28163SOL    HW287445   6.106   2.448  10.348  0.2723  0.1937  0.9012
28164SOL     OW87446   9.672   1.440   1.444  0.0585  0.2020  0.1873
28164SOL    HW187447   9.722   1.521   1.451  0.5135 -0.0513 -0.0599
28164SOL    HW287448   9.712   1.393   1.371 -0.3535 -0.1381  0.1741
28165SOL     OW87449   1.664   8.166   8.345  0.2702 -0.0788 -0.1116
28165SOL    HW187450   1.599   8.228   8.313  1.2664  2.2126  1.9902
28165SOL    HW287451   1.732   8.167   8.277 -0.7265 -0.5958 -1.1419
28166SOL     OW87452   6.102   9.084   8.972  0.1705 -0.0727  0.0562
28166SOL    HW187453   6.073   9.168   8.936  1.2156  0.8785  1.3430
28166SOL    HW287454   6.159   9.107   9.045  0.2731 -1.9162  0.6164
28167SOL     OW87455   7.800   0.530   2.851 -0.3500 -0.1366 -0.4866
28167SOL    HW187456   7.749   0.516   2.771  0.5776 -2.5346 -0.7424
28167SOL    HW287457   7.891   0.535   2.822  0.0057 -1.0932  0.3894
28168SOL     OW87458   8.931  10.232   7.930  0.0571  0.0778  0.0340
28168SOL    HW187459   8.899  10.149   7.894 -1.6834  0.4051  0.7535
28168SOL    HW287460   9.020  10.213   7.959 -0.1788 -1.4365 -0.1605
28169SOL     OW87461   4.547   4.091   1.129  0.6666 -0.1611  0.2873
28169SOL    HW187462   4.505   4.133   1.053  0.6414 -0.5957  0.0586
28169SOL    HW287463   4.601   4.022   1.091 -1.3589 -2.1355  0.7932
28170SOL     OW87464   6.832   0.304  10.566 -0.3342  0.4530 -0.1371
28170SOL    HW187465   6.850   0.252  10.644 -1.7985  0.7916  0.4680
28170SOL    HW287466   6.876   0.258  10.495 -0.0455 -0.5746  0.6889
28171SOL     OW87467   5.212   3.980   0.527  0.1199  0.3407 -0.4973
28171SOL    HW187468   5.236   4.073   0.522 -1.5648  0.7883 -0.7291
28171SOL    HW287469   5.294   3.934   0.510  0.9395  1.7784 -0.6353
28172SOL     OW87470   5.290   8.238   3.629  0.1727  0.5772 -0.6192
28172SOL    HW187471   5.221   8.179   3.600  1.3390 -0.1698 -2.0085
28172SOL    HW287472   5.313   8.288   3.550  1.9604  0.0184 -0.4965
28173SOL     OW87473  10.116   8.264   0.721  0.0620 -0.3299 -0.1004
28173SOL    HW187474  10.107   8.184   0.772 -0.7914  1.0806  2.1198
28173SOL    HW287475  10.050   8.257   0.652 -0.6490 -1.1266  0.6525
28174SOL     OW87476   2.654   6.705  10.053  0.0452  0.0199  0.3489
28174SOL    HW187477   2.708   6.658  10.116  1.3020  1.0002  0.0468
28174SOL    HW287478   2.654   6.796  10.083  1.6249  0.7533 -1.6277
28175SOL     OW87479   4.530   4.803  10.248  0.2048 -0.2084  0.2616
28175SOL    HW187480   4.623   4.786  10.264  0.2020  0.3375  0.9119
28175SOL    HW287481   4.512   4.761  10.164  1.1065 -0.1024  0.0019
28176SOL     OW87482   0.841   7.066   8.615  0.2759 -0.4420 -0.0756
28176SOL    HW187483   0.885   7.016   8.547 -0.3338 -0.3944 -0.5109
28176SOL    HW287484   0.841   7.156   8.582  3.9223  0.5122  1.9348
28177SOL     OW87485   2.804   8.045   6.162 -0.1525  0.5706 -0.5040
28177SOL    HW187486   2.778   8.055   6.254 -1.1003  1.0446 -0.8174
28177SOL    HW287487   2.790   8.131   6.123  1.9848  0.8893 -0.6952
28178SOL     OW87488   6.907   3.343   6.870 -0.6716  0.5850 -0.1365
28178SOL    HW187489   6.933   3.417   6.923  0.3406  0.9466 -1.0973
28178SOL    HW287490   6.819   3.365   6.839 -1.5272  0.1041  1.7899
28179SOL     OW87491   2.438   2.893   0.336 -0.0293 -0.3471  0.1671
28179SOL    HW187492   2.458   2.932   0.251 -0.4191  1.8221  1.0011
28179SOL    HW287493   2.367   2.831   0.318  0.7172 -0.8377 -1.2469
28180SOL     OW87494   6.240   0.578   3.709  0.8859  0.4000 -0.0444
28180SOL    HW187495   6.180   0.507   3.683  0.7193  0.2078  0.8460
28180SOL    HW287496   6.290   0.596   3.630  0.9871 -0.7676 -0.2672
28181SOL     OW87497   0.321   9.424   2.902 -0.3970 -0.4426  0.3716
28181SOL    HW187498   0.266   9.484   2.952 -0.9399 -0.7297  0.1380
28181SOL    HW287499   0.262   9.352   2.879  0.1645 -0.9100  0.3798
28182SOL     OW87500   6.246   2.483   5.211  0.2450 -0.2912  0.1480
28182SOL    HW187501   6.263   2.577   5.198  2.3455 -0.5158  0.7855
28182SOL    HW287502   6.161   2.468   5.170 -1.2577  2.3370  1.9709
28183SOL     OW87503   2.162   8.960   8.487  0.5119 -0.0061 -0.1230
28183SOL    HW187504   2.134   8.955   8.395  0.5610 -0.8406 -0.1007
28183SOL    HW287505   2.258   8.958   8.483  0.5293 -2.5395  0.0323
28184SOL     OW87506   5.936   8.638   4.701 -0.3175 -0.5579 -0.7804
28184SOL    HW187507   6.012   8.668   4.751 -1.4845  0.0706  0.6672
28184SOL    HW287508   5.945   8.542   4.699  0.1641 -0.5346 -0.0524
28185SOL     OW87509   8.267   9.703   2.182 -0.3909 -0.2014 -0.3854
28185SOL    HW187510   8.357   9.726   2.203  0.3905 -2.5044 -0.9493
28185SOL    HW287511   8.256   9.727   2.090  0.1195 -1.1666 -0.7101
28186SOL     OW87512  10.674   9.196  10.189 -0.1425  0.0173  0.5790
28186SOL    HW187513  10.698   9.138  10.117  0.9060 -0.1302  1.0297
28186SOL    HW287514  10.705   9.283  10.161 -1.1317  0.2576  0.1875
28187SOL     OW87515   1.690   7.535   9.348 -0.2615  0.6219 -0.2082
28187SOL    HW187516   1.703   7.448   9.310 -0.3317 -0.2589  1.7122
28187SOL    HW287517   1.631   7.521   9.422 -1.7035  2.5846 -0.8798
28188SOL     OW87518   0.504   7.479   2.772  0.2596 -0.7477 -0.1012
28188SOL    HW187519   0.581   7.526   2.804 -0.5571  0.0761  0.7204
28188SOL    HW287520   0.525   7.386   2.785  0.8617 -0.5101  0.6811
28189SOL     OW87521   3.151   5.942   1.228  0.4371 -0.0592 -0.4955
28189SOL    HW187522   3.189   5.854   1.226  1.7626  0.4779 -2.9535
28189SOL    HW287523   3.065   5.932   1.188  0.4494 -0.3108 -0.4618
28190SOL     OW87524   9.470   8.889   2.843  0.0509 -0.3241 -0.1774
28190SOL    HW187525   9.423   8.957   2.793  0.4293  1.0506  1.2556
28190SOL    HW287526   9.562   8.910   2.831  0.2304 -1.3715 -0.7396
28191SOL     OW87527   0.678   3.357   2.428 -0.3319 -0.1790 -0.1431
28191SOL    HW187528   0.649   3.418   2.496  0.4931  0.5932 -0.4508
28191SOL    HW287529   0.773   3.371   2.424 -0.3956 -0.0427 -1.6033
28192SOL     OW87530  10.244   6.277   0.898 -0.2520  0.0250  0.1536
28192SOL    HW187531  10.304   6.203   0.904 -0.4389 -0.1080  0.4100
28192SOL    HW287532  10.157   6.238   0.886 -0.2650  0.2213 -0.4279
28193SOL     OW87533   0.666   6.412   9.574 -0.2814 -0.4072 -0.1999
28193SOL    HW187534   0.738   6.456   9.618 -0.8640 -0.6244  1.0254
28193SOL    HW287535   0.708   6.348   9.516  0.5016 -0.8472  0.8373
28194SOL     OW87536   9.878   2.307   7.375 -0.4029 -0.2334 -0.1774
28194SOL    HW187537   9.851   2.299   7.283  1.5027 -0.2272 -0.7928
28194SOL    HW287538   9.849   2.226   7.416 -0.4095 -0.6872 -1.0509
28195SOL     OW87539   1.659   3.280   1.522  0.0622 -0.0241 -0.7107
28195SOL    HW187540   1.636   3.267   1.430 -1.0661 -0.8647 -0.3368
28195SOL    HW287541   1.600   3.349   1.553 -0.3212 -0.5011 -0.3536
28196SOL     OW87542   8.180   4.461  10.577  0.0359 -0.4314  0.1781
28196SOL    HW187543   8.185   4.468  10.673 -0.5145  0.1780  0.1688
28196SOL    HW287544   8.091   4.433  10.559 -0.1350  0.3300 -0.1948
28197SOL     OW87545   8.969   1.397   1.074 -0.0835 -0.1886 -0.1507
28197SOL    HW187546   8.931   1.452   1.141 -1.6477  0.2653 -1.3398
28197SOL    HW287547   8.894   1.352   1.034  0.5216  0.9446 -2.7836
28198SOL     OW87548   3.772   3.137   9.552 -0.0383 -0.4947 -0.0741
28198SOL    HW187549   3.763   3.214   9.496  0.7277 -0.5551 -0.2884
28198SOL    HW287550   3.684   3.121   9.585 -0.2673  0.2701 -0.2990
28199SOL     OW87551   0.193   6.941   5.517 -0.2061 -0.1529 -0.0792
28199SOL    HW187552   0.204   6.880   5.445  3.0434  2.1339 -1.7691
28199SOL    HW287553   0.204   7.027   5.478 -3.6856  1.6431  2.3175
28200SOL     OW87554   0.851   7.192   6.019  0.2617 -0.3737  0.0352
28200SOL    HW187555   0.793   7.147   6.081  0.8806  1.2780  1.9056
28200SOL    HW287556   0.868   7.127   5.951 -1.5298 -1.8220  0.8785
28201SOL     OW87557   2.544   5.695   8.127 -0.1653 -0.5356  0.0823
28201SOL    HW187558   2.612   5.629   8.114 -0.7231 -1.1886  0.3864
28201SOL    HW287559   2.474   5.669   8.067 -0.5539 -0.4646  0.4974
28202SOL     OW87560   5.630   9.470   3.705  0.0432  0.2850 -0.5761
28202SOL    HW187561   5.677   9.505   3.629  3.7093 -0.7619  0.9964
28202SOL    HW287562   5.613   9.379   3.683 -1.7704  0.7325 -1.2666
28203SOL     OW87563   7.668   9.399   7.896 -0.4097 -0.0182 -0.1993
28203SOL    HW187564   7.744   9.389   7.838 -1.5915  0.7108 -1.9485
28203SOL    HW287565   7.656   9.313   7.935  0.7765 -0.3720 -0.5759
28204SOL     OW87566   9.459   3.157   7.579  0.0954  0.1544  0.0511
28204SOL    HW187567   9.431   3.164   7.670 -1.5468 -0.1437 -0.3948
28204SOL    HW287568   9.555   3.158   7.583  0.0797  2.3996  1.5995
28205SOL     OW87569   9.392   4.872   6.955  0.4193 -0.0918 -0.0747
28205SOL    HW187570   9.466   4.931   6.940  1.8196 -0.9482  2.7535
28205SOL    HW287571   9.353   4.902   7.037  0.1130 -2.0011  0.5369
28206SOL     OW87572   1.609   3.375   4.365 -0.2989 -0.3740 -0.1546
28206SOL    HW187573   1.625   3.281   4.374 -2.2447 -0.9331 -1.7491
28206SOL    HW287574   1.532   3.392   4.419  0.6669  0.5812  0.9875
28207SOL     OW87575   4.350   0.592   0.812 -0.5805 -0.3430 -0.6451
28207SOL    HW187576   4.426   0.535   0.809 -1.0901 -1.0306 -0.7556
28207SOL    HW287577   4.335   0.618   0.721 -0.1337  0.2604 -0.5484
28208SOL     OW87578   0.804   5.839   7.340 -0.0880  0.2657  0.7349
28208SOL    HW187579   0.719   5.857   7.381  0.8710  1.3778  2.3366
28208SOL    HW287580   0.782   5.808   7.252 -2.1396  0.9086  0.9681
28209SOL     OW87581   6.731   2.073   3.082  1.0145 -0.1278  0.7002
28209SOL    HW187582   6.783   2.070   3.162  1.2614 -0.5748  0.5286
28209SOL    HW287583   6.665   2.004   3.094  0.7896  0.0835  0.6927
28210SOL     OW87584   8.445   1.779   7.097 -0.4304 -0.2898  0.2201
28210SOL    HW187585   8.536   1.791   7.071 -0.0857 -0.9341  1.0624
28210SOL    HW287586   8.400   1.750   7.017  0.1376 -0.1316 -0.1594
28211SOL     OW87587   4.789   2.879   3.200  0.4012 -0.4112 -0.2003
28211SOL    HW187588   4.862   2.907   3.255  1.2503  1.6385 -2.2024
28211SOL    HW287589   4.830   2.838   3.123 -0.4443  1.2469 -1.6169
28212SOL     OW87590   5.487   4.850   2.850 -0.0387  0.0602 -0.0468
28212SOL    HW187591   5.478   4.943   2.869  0.3620  0.2803 -0.8618
28212SOL    HW287592   5.494   4.808   2.935  0.1048  0.8106  0.3189
28213SOL     OW87593   0.058   2.571   8.714 -0.4220  0.6336 -0.1164
28213SOL    HW187594  -0.028   2.612   8.708 -0.6438  0.0866 -0.7268
28213SOL    HW287595   0.081   2.549   8.624 -0.4784 -0.9020  0.2064
28214SOL     OW87596   6.599   0.144   0.202  0.2086  0.1659 -0.2191
28214SOL    HW187597   6.609   0.174   0.292 -1.0682 -0.4603  0.1484
28214SOL    HW287598   6.689   0.124   0.174  0.6542  0.6787  0.7909
28215SOL     OW87599   5.508   8.420   8.682 -0.2741  0.3142  0.4716
28215SOL    HW187600   5.488   8.513   8.673 -0.8925  0.0889 -0.7329
28215SOL    HW287601   5.575   8.403   8.616 -0.7278 -0.2372  0.1321
28216SOL     OW87602   2.653   2.863   8.948  0.1719  0.1399  0.0430
28216SOL    HW187603   2.649   2.769   8.967 -0.4793 -0.1265 -1.2518
28216SOL    HW287604   2.570   2.898   8.981  0.5997  0.3609  0.9202
28217SOL     OW87605   4.315   1.499   1.006 -0.1208 -0.2820  0.1992
28217SOL    HW187606   4.359   1.427   0.961  0.2989  0.8236 -1.2716
28217SOL    HW287607   4.359   1.506   1.090  0.8266 -0.8191 -0.2397
28218SOL     OW87608   2.526   4.232   3.165  1.0121 -0.5734  0.3324
28218SOL    HW187609   2.519   4.237   3.260 -0.7845 -0.4962  0.2335
28218SOL    HW287610   2.563   4.316   3.139  0.0997  0.0094  0.8738
28219SOL     OW87611   0.268   2.864   5.253  0.2412 -0.3137  0.0630
28219SOL    HW187612   0.195   2.905   5.206  2.1503  1.8567 -1.2242
28219SOL    HW287613   0.300   2.933   5.311  1.3157 -1.2021  0.5595
28220SOL     OW87614   4.879   2.240   4.204  0.0637  0.2371  0.9426
28220SOL    HW187615   4.881   2.336   4.202 -1.7956  0.3166  0.5343
28220SOL    HW287616   4.970   2.214   4.219  0.7003  2.0439  0.4978
28221SOL     OW87617   4.185   9.143   3.134  0.3950  0.8305 -0.8445
28221SOL    HW187618   4.214   9.223   3.179 -0.1681  0.4220  0.2791
28221SOL    HW287619   4.090   9.150   3.132  0.3572  0.3160 -0.9964
28222SOL     OW87620   1.027  10.289   6.390 -0.6745  0.1544  0.1388
28222SOL    HW187621   0.971  10.343   6.446  1.7307  1.9800  0.9565
28222SOL    HW287622   1.025  10.333   6.305 -0.3292  0.3518  0.2306
28223SOL     OW87623   8.107   5.483   3.453 -0.6383  0.5234 -0.2763
28223SOL    HW187624   8.019   5.507   3.424  0.0088  2.8256 -0.5249
28223SOL    HW287625   8.145   5.437   3.378 -1.1211  0.8108 -0.7060
28224SOL     OW87626   8.448   4.928   1.774  0.0122 -0.0913  0.0144
28224SOL    HW187627   8.523   4.918   1.833  0.2471  0.8590 -0.1065
28224SOL    HW287628   8.383   4.865   1.806  0.6788 -0.5930  0.4055
28225SOL     OW87629   5.909   2.294   3.818  0.3849  0.5981 -0.2372
28225SOL    HW187630   5.849   2.316   3.746  1.9014 -0.3476 -1.8603
28225SOL    HW287631   5.993   2.330   3.791  1.0886 -0.1665  0.8561
28226SOL     OW87632   3.083   8.373   2.095  0.1181 -0.6242  0.2022
28226SOL    HW187633   3.124   8.320   2.163  2.4664 -0.4378 -0.9802
28226SOL    HW287634   3.090   8.463   2.127  0.2117 -0.6309  0.2003
28227SOL     OW87635  10.021   6.144   9.858 -0.2382  0.0836 -0.1320
28227SOL    HW187636  10.035   6.222   9.912  1.0677  2.2354 -3.2712
28227SOL    HW287637   9.950   6.169   9.798  1.9438  0.0246 -2.9474
28228SOL     OW87638   1.799   3.605   5.975 -0.0969 -0.0460 -0.4816
28228SOL    HW187639   1.795   3.699   5.958  1.4389  0.0286 -0.5804
28228SOL    HW287640   1.762   3.595   6.062  0.2940  0.7396 -0.2143
28229SOL     OW87641   5.405   3.848   3.522  0.2425 -0.0286 -0.1703
28229SOL    HW187642   5.481   3.834   3.579 -0.1676 -1.1359  0.1135
28229SOL    HW287643   5.331   3.814   3.572 -0.8275  2.9889  0.5101
28230SOL     OW87644   0.025   7.574   9.023  0.2315 -0.4837 -0.1372
28230SOL    HW187645  -0.049   7.514   9.035  0.0895 -0.2499  0.1909
28230SOL    HW287646   0.002   7.624   8.945 -0.6888  0.6196  0.7958
28231SOL     OW87647  10.492   6.016   3.009  0.7855 -0.1098  0.7233
28231SOL    HW187648  10.538   5.937   2.978  1.0904  0.3350  0.0072
28231SOL    HW287649  10.426   5.983   3.070 -0.3954 -1.1261 -1.0255
28232SOL     OW87650   9.233   6.463   5.120 -0.6054 -0.1923 -0.5420
28232SOL    HW187651   9.232   6.500   5.209 -0.4095  0.1676 -0.6899
28232SOL    HW287652   9.297   6.515   5.073 -1.5316  0.3688 -1.2256
28233SOL     OW87653   6.691  10.605  10.318 -0.3934 -0.3009 -0.2645
28233SOL    HW187654   6.634  10.529  10.324 -1.6633  0.4568 -1.9224
28233SOL    HW287655   6.751  10.585  10.247 -1.5216  0.6690 -1.5548
28234SOL     OW87656   3.296   5.716   3.035  0.6113  0.3976 -0.5330
28234SOL    HW187657   3.271   5.722   2.943  1.0328  0.9698 -0.6076
28234SOL    HW287658   3.305   5.622   3.050 -0.2447  0.2520 -0.8620
28235SOL     OW87659   7.046   2.521   1.634 -0.2169 -0.0679  0.1746
28235SOL    HW187660   7.095   2.571   1.700 -2.1699  1.6145  0.4338
28235SOL    HW287661   6.981   2.472   1.684 -1.0323  0.3918 -0.4229
28236SOL     OW87662   7.512   7.313   2.002  0.6628 -0.3382  0.2137
28236SOL    HW187663   7.483   7.356   1.922  2.5434  0.0166 -0.3244
28236SOL    HW287664   7.493   7.221   1.988  0.1457 -0.1672 -0.2524
28237SOL     OW87665   3.343   3.816   7.920  0.4449  0.2334 -0.1792
28237SOL    HW187666   3.429   3.777   7.902  1.1111  0.8875  1.3877
28237SOL    HW287667   3.297   3.749   7.971  1.1796  0.9805  1.5573
28238SOL     OW87668   6.750   1.010   7.783  0.5564  0.0083 -0.2167
28238SOL    HW187669   6.836   1.044   7.757 -0.1150  0.9455 -1.3098
28238SOL    HW287670   6.762   0.916   7.788  1.8699  0.1889  0.5149
28239SOL     OW87671   2.900   4.291   2.441  0.0151  0.0711  0.2749
28239SOL    HW187672   2.942   4.320   2.523 -1.4387  0.6751  0.8454
28239SOL    HW287673   2.915   4.364   2.380 -0.0616  0.2167  0.4281
28240SOL     OW87674   5.331   8.395   6.449 -0.0391 -0.0577 -0.0139
28240SOL    HW187675   5.370   8.440   6.524  1.6685  0.5698 -1.2180
28240SOL    HW287676   5.370   8.307   6.451 -0.2380 -0.1461  0.0058
28241SOL     OW87677   1.239   8.686  10.597  0.1253  0.5949 -0.3843
28241SOL    HW187678   1.283   8.615  10.550  0.1224 -0.1991  0.7395
28241SOL    HW287679   1.155   8.696  10.553 -0.0331 -0.3880 -0.3300
28242SOL     OW87680   2.196   3.788   2.746  0.0048 -0.1381  0.2706
28242SOL    HW187681   2.257   3.842   2.696 -1.5294  0.4455 -1.0415
28242SOL    HW287682   2.141   3.851   2.793  0.1573 -0.6469  1.1470
28243SOL     OW87683   7.982   4.130   8.821 -0.3555 -0.2801  0.4974
28243SOL    HW187684   8.059   4.091   8.780 -0.8021  0.3167 -0.9584
28243SOL    HW287685   8.015   4.209   8.864 -0.2204  0.1969 -0.4765
28244SOL     OW87686   0.669   8.127   0.778 -0.3466  0.2237 -0.6007
28244SOL    HW187687   0.642   8.164   0.694 -1.1226 -0.4027 -0.6429
28244SOL    HW287688   0.614   8.171   0.842  0.7060  1.1821 -0.3359
28245SOL     OW87689   4.705   1.254   0.512 -0.7112  0.5104  0.4461
28245SOL    HW187690   4.720   1.293   0.598  0.5829 -0.5862  0.7429
28245SOL    HW287691   4.663   1.170   0.530 -0.1854  0.1517  0.0451
28246SOL     OW87692   3.066   6.877   9.094 -0.0147 -0.1150  0.2005
28246SOL    HW187693   3.106   6.807   9.042  1.1505  0.7800 -0.1445
28246SOL    HW287694   2.995   6.910   9.039  0.2480 -0.1881 -0.1884
28247SOL     OW87695   9.213  10.615   1.565  0.4850 -0.6136 -0.3229
28247SOL    HW187696   9.250  10.546   1.509 -1.0441 -0.5462 -1.4810
28247SOL    HW287697   9.269  10.615   1.643  0.8485 -2.7920 -0.5178
28248SOL     OW87698   0.289   0.149   8.496  0.1496  0.1977  0.0577
28248SOL    HW187699   0.350   0.107   8.557  1.1219  2.1855  0.5478
28248SOL    HW287700   0.251   0.076   8.447  2.4267 -1.2104  0.1849
28249SOL     OW87701   8.272   3.736   1.488 -0.1466  0.6066  0.1919
28249SOL    HW187702   8.357   3.778   1.498  1.6962 -2.8125  0.3587
28249SOL    HW287703   8.275   3.660   1.546 -1.4769 -2.1352 -2.9953
28250SOL     OW87704   4.464   9.699   9.089  0.0182  0.0998 -0.7262
28250SOL    HW187705   4.390   9.745   9.131 -0.3870 -0.0572 -1.2663
28250SOL    HW287706   4.435   9.608   9.083  1.4882 -0.6502  1.9197
28251SOL     OW87707   9.654   0.731   0.504 -0.7382  0.3213  0.1814
28251SOL    HW187708   9.637   0.824   0.514  0.3175  0.5530 -0.0840
28251SOL    HW287709   9.734   0.716   0.553  1.1596  0.2905 -2.7036
28252SOL     OW87710   4.688   0.357   0.085  0.2484 -0.3338  0.1633
28252SOL    HW187711   4.768   0.397   0.051  0.3873  0.7146  1.5978
28252SOL    HW287712   4.623   0.367   0.015  0.4253  2.0282  0.2595
28253SOL     OW87713   7.887   9.126   2.663  0.0880  0.2291  0.0678
28253SOL    HW187714   7.972   9.103   2.701 -0.4440  0.1447  1.2540
28253SOL    HW287715   7.906   9.202   2.608  1.0645 -0.2726 -0.3268
28254SOL     OW87716   6.841   1.939   9.088 -0.1794 -0.1297 -0.4897
28254SOL    HW187717   6.845   1.875   9.017  1.8867 -1.5003  0.7454
28254SOL    HW287718   6.927   1.981   9.087  0.7719 -1.7027  2.4084
28255SOL     OW87719   4.387   8.070   7.759  0.1952 -0.8604 -0.2817
28255SOL    HW187720   4.300   8.072   7.799 -0.3446 -1.5899 -1.3666
28255SOL    HW287721   4.379   8.124   7.680  0.5006 -1.5230 -0.7850
28256SOL     OW87722   5.308   6.647   8.506  0.5413 -0.3043  0.6620
28256SOL    HW187723   5.313   6.565   8.455  0.5209 -0.4900  0.9567
28256SOL    HW287724   5.283   6.713   8.442  0.3654 -0.5651  0.4583
28257SOL     OW87725  10.105   8.339   5.489 -0.5216  0.5941 -0.3699
28257SOL    HW187726  10.101   8.245   5.507 -0.9405  0.7638  0.5096
28257SOL    HW287727  10.167   8.373   5.554 -0.2988  0.9126 -0.7459
28258SOL     OW87728   2.514   3.902   1.370  0.1390 -0.3793  0.7955
28258SOL    HW187729   2.596   3.852   1.372 -0.0969 -0.8018  0.1733
28258SOL    HW287730   2.516   3.947   1.285  1.3128  2.3369  2.1205
28259SOL     OW87731   0.997   3.467   7.274  0.1770  0.9110 -0.2513
28259SOL    HW187732   1.090   3.444   7.273 -0.4687 -2.2043 -1.6385
28259SOL    HW287733   0.966   3.443   7.186 -2.0818  1.1265  0.4289
28260SOL     OW87734   4.508   6.411   1.649 -0.1130  0.2346  0.3558
28260SOL    HW187735   4.428   6.383   1.692  0.0129  1.4801  1.4797
28260SOL    HW287736   4.572   6.342   1.668 -0.3446  0.2754  1.3337
28261SOL     OW87737   0.396   9.033   6.042  0.2484 -0.3164 -0.5049
28261SOL    HW187738   0.431   9.097   5.981  0.3702 -0.9358 -1.1029
28261SOL    HW287739   0.301   9.043   6.035  0.2682  0.8398  0.5512
28262SOL     OW87740   5.034   6.319   1.546  0.0259 -0.2500 -0.4243
28262SOL    HW187741   5.076   6.234   1.531  1.4860  0.0152  1.8000
28262SOL    HW287742   5.104   6.376   1.577 -1.7419  0.3860  2.8833
28263SOL     OW87743   0.086   2.961   5.051  0.0466  0.2328 -0.4267
28263SOL    HW187744   0.028   3.026   5.091  0.8728  1.6130 -1.3627
28263SOL    HW287745   0.147   3.013   4.999  0.5473 -1.3333 -1.4739
28264SOL     OW87746   8.239  10.434   3.849 -0.1418 -0.4278  0.0776
28264SOL    HW187747   8.186  10.513   3.856 -0.0311 -0.4812  2.0601
28264SOL    HW287748   8.182  10.369   3.808  0.4998  1.2373 -3.8761
28265SOL     OW87749   6.218   8.071   2.876  0.1082 -0.2932  0.5638
28265SOL    HW187750   6.258   8.038   2.957  0.5031  0.4018  0.6676
28265SOL    HW287751   6.141   8.119   2.905  0.6422  0.5712  0.6161
28266SOL     OW87752   4.272   3.259   5.152 -0.1975  0.3396  0.2041
28266SOL    HW187753   4.278   3.175   5.108  0.2836  0.7745 -0.5981
28266SOL    HW287754   4.251   3.238   5.243 -0.4073 -0.6210 -0.0577
28267SOL     OW87755   4.387   6.508   5.115 -0.3811  0.5233 -0.3836
28267SOL    HW187756   4.371   6.551   5.199 -2.0746  1.1486 -1.0064
28267SOL    HW287757   4.477   6.475   5.122 -0.8247 -0.3428  2.0594
28268SOL     OW87758   5.320   2.679   3.507 -0.0273  0.2865 -0.2790
28268SOL    HW187759   5.392   2.739   3.489 -0.3942  0.5037 -1.0354
28268SOL    HW287760   5.364   2.598   3.534  0.6027 -0.2299 -2.6074
28269SOL     OW87761   1.515   1.617   1.889 -0.1540  0.1112  0.6130
28269SOL    HW187762   1.575   1.563   1.940 -0.4102  0.3965  1.2219
28269SOL    HW287763   1.451   1.555   1.854  1.6121 -0.5371 -1.7817
28270SOL     OW87764   4.797   8.326   3.794 -0.0609 -0.2939 -0.2443
28270SOL    HW187765   4.715   8.301   3.836 -0.5112 -1.0401 -1.5296
28270SOL    HW287766   4.827   8.403   3.844 -0.0082 -1.7488  2.1032
28271SOL     OW87767   0.696   0.560   9.620  0.5305 -0.4612  0.5112
28271SOL    HW187768   0.730   0.618   9.552  0.4467 -1.0219 -0.0204
28271SOL    HW287769   0.732   0.474   9.597 -0.4758 -0.8876  0.4777
28272SOL     OW87770   0.082   0.500   8.822  0.2161  0.2969  0.2979
28272SOL    HW187771   0.020   0.440   8.780 -0.4722  1.1100  0.1143
28272SOL    HW287772   0.128   0.541   8.749 -0.6292  1.3428  0.3297
28273SOL     OW87773   0.133   4.806   5.483  0.4588  0.3060  0.1150
28273SOL    HW187774   0.223   4.835   5.475  0.7895 -0.5367  0.6128
28273SOL    HW287775   0.121   4.744   5.411  0.7171 -0.6302  0.8598
28274SOL     OW87776   7.874   7.057   1.626 -0.4383  0.8524 -0.1652
28274SOL    HW187777   7.891   7.103   1.708  0.2386 -1.5330  1.1383
28274SOL    HW287778   7.791   7.012   1.640  0.4206 -0.8047 -0.1307
28275SOL     OW87779   2.396   0.072   6.870 -0.3727 -0.0229 -0.1044
28275SOL    HW187780   2.481   0.055   6.909 -0.8263 -0.0087  0.9063
28275SOL    HW287781   2.332   0.045   6.936 -1.1481  0.6258 -0.5597
28276SOL     OW87782   1.404   8.890  10.574  0.0797  0.3278  0.1139
28276SOL    HW187783   1.349   8.812  10.578 -1.4812  1.1125 -2.7749
28276SOL    HW287784   1.486   8.861  10.534 -0.1809  0.0057 -0.1878
28277SOL     OW87785   0.244   7.985   9.384  0.1391 -0.2457  0.3855
28277SOL    HW187786   0.250   8.016   9.474  0.8196 -2.1069  1.0335
28277SOL    HW287787   0.236   7.890   9.392 -0.8438 -0.3657 -1.4980
28278SOL     OW87788   4.665   2.008   8.758 -0.1332 -0.2750  0.4390
28278SOL    HW187789   4.580   2.043   8.731  1.1161  2.1718 -0.6653
28278SOL    HW287790   4.715   2.085   8.783  1.9901 -1.5878  0.4517
28279SOL     OW87791   2.119   1.342  10.192  0.2710 -0.2973 -0.2093
28279SOL    HW187792   2.029   1.357  10.223  0.5399 -1.7900  1.4841
28279SOL    HW287793   2.109   1.305  10.105 -0.6955  0.7886 -0.5766
28280SOL     OW87794   5.806   8.653   7.870 -0.1339 -0.0492 -0.0294
28280SOL    HW187795   5.757   8.668   7.789 -0.9160 -0.9856  0.2511
28280SOL    HW287796   5.867   8.582   7.849 -2.7675 -2.8669  1.0774
28281SOL     OW87797   9.033   6.908   0.874 -0.0604  0.3296  0.0614
28281SOL    HW187798   9.128   6.912   0.884 -0.0449  0.9468 -0.2742
28281SOL    HW287799   9.008   6.997   0.847 -0.5811 -0.1323 -1.0266
28282SOL     OW87800   4.979   8.876   5.803 -0.0872 -0.6060  0.1823
28282SOL    HW187801   4.946   8.907   5.888  0.8127  0.7866  0.0496
28282SOL    HW287802   5.069   8.851   5.820  0.0644 -0.4202 -0.3390
28283SOL     OW87803   4.581   4.012   4.429  0.7182 -0.0832 -0.5268
28283SOL    HW187804   4.641   4.034   4.500  1.5258  0.7372 -1.4463
28283SOL    HW287805   4.516   4.082   4.430 -1.7295 -2.1041  1.9595
28284SOL     OW87806   9.318   3.239   2.136 -0.0647  0.3477  0.5386
28284SOL    HW187807   9.372   3.205   2.208 -0.8914  0.6058  1.2947
28284SOL    HW287808   9.296   3.328   2.162 -0.4555  0.4113  0.0087
28285SOL     OW87809   2.118   5.938   0.808  0.0432  0.1805  0.6450
28285SOL    HW187810   2.034   5.971   0.778  0.7738  0.6706 -0.9828
28285SOL    HW287811   2.119   5.955   0.902 -1.9011 -0.3894  0.8176
28286SOL     OW87812   6.299   0.240   5.323  0.2460 -0.2435 -0.2438
28286SOL    HW187813   6.377   0.294   5.339 -1.2983  1.5643  1.7989
28286SOL    HW287814   6.331   0.150   5.332  1.9125  0.4564  1.7975
28287SOL     OW87815   5.639  10.672   6.899  0.3238  0.0329  0.0002
28287SOL    HW187816   5.624  10.609   6.970  2.5680 -0.0138  0.5207
28287SOL    HW287817   5.644  10.757   6.943  0.0571  0.2192 -0.3271
28288SOL     OW87818   9.753   2.810   2.247  0.7243 -0.5968  0.0194
28288SOL    HW187819   9.713   2.725   2.229  2.3121 -1.6509  1.1620
28288SOL    HW287820   9.743   2.859   2.165 -0.0833 -1.9285 -0.7176
28289SOL     OW87821   6.179  10.536  10.463  0.6024  0.3771  0.1502
28289SOL    HW187822   6.207  10.523  10.373  0.8982  1.9001 -0.0085
28289SOL    HW287823   6.210  10.624  10.485 -1.0012  0.7370  1.1492
28290SOL     OW87824   2.935   3.177   2.915  0.5255  0.5154 -0.1820
28290SOL    HW187825   2.951   3.253   2.859 -0.9168  1.0318  0.0744
28290SOL    HW287826   2.851   3.142   2.884 -0.5423  1.0657  1.8925
28291SOL     OW87827   9.976   3.290   3.017 -0.3567  0.7941 -0.1185
28291SOL    HW187828   9.907   3.273   3.081  0.3864 -0.8753  0.2896
28291SOL    HW287829   9.932   3.337   2.946 -2.8446 -3.2096 -1.5359
28292SOL     OW87830  10.583   6.708   8.642 -0.1046 -0.2203  0.2566
28292SOL    HW187831  10.575   6.656   8.562  1.2791 -0.5574  0.3179
28292SOL    HW287832  10.494   6.708   8.679 -0.5394 -0.9177 -0.7337
28293SOL     OW87833   6.314   4.256   0.672  0.4278  0.0543  0.7637
28293SOL    HW187834   6.331   4.209   0.753  0.4135 -1.3671 -0.0293
28293SOL    HW287835   6.389   4.235   0.616 -0.6118 -0.7949 -0.3599
28294SOL     OW87836   8.184   1.521   7.822  0.3178  0.0834 -0.4441
28294SOL    HW187837   8.199   1.500   7.914 -0.2803  1.0066 -0.1257
28294SOL    HW287838   8.216   1.611   7.812  0.4108 -0.0216 -1.1489
28295SOL     OW87839   9.244   7.257   4.617  0.0677  0.0734  0.3131
28295SOL    HW187840   9.338   7.243   4.627 -0.2362 -1.0577  1.8844
28295SOL    HW287841   9.212   7.180   4.571 -0.0905  0.4886 -0.2828
28296SOL     OW87842   2.876   7.478   6.413 -0.0628 -0.1032 -0.7206
28296SOL    HW187843   2.835   7.562   6.429 -0.0370  0.1829 -2.0048
28296SOL    HW287844   2.819   7.414   6.455 -1.7929  0.2937 -2.3637
28297SOL     OW87845   6.419   0.467   9.741  0.4943  0.7570  0.0444
28297SOL    HW187846   6.450   0.391   9.691  1.1046  0.8065  0.3413
28297SOL    HW287847   6.345   0.500   9.690  0.0326 -0.2144  0.0615
28298SOL     OW87848   9.688   9.889   3.702  0.0013  0.7879  0.3930
28298SOL    HW187849   9.688   9.841   3.619  0.7559 -0.5248  1.1218
28298SOL    HW287850   9.595   9.900   3.723 -0.1934 -0.2070  0.1147
28299SOL     OW87851   5.563   2.003   8.582  0.2962 -0.2419  0.3830
28299SOL    HW187852   5.516   2.056   8.646  0.3220 -0.6395  0.7375
28299SOL    HW287853   5.614   2.067   8.532 -1.3023  0.3025 -0.6266
28300SOL     OW87854   2.456   4.820   1.656  0.2328 -0.0809  0.2448
28300SOL    HW187855   2.476   4.729   1.678 -0.8693 -0.6977 -1.1494
28300SOL    HW287856   2.435   4.819   1.563  1.0984  1.7797 -0.0243
28301SOL     OW87857   9.570   4.581   7.533  0.2265  0.1897  0.6036
28301SOL    HW187858   9.567   4.656   7.473  0.1331  0.2170  0.6420
28301SOL    HW287859   9.659   4.582   7.568  0.1122  0.5080  0.8925
28302SOL     OW87860   8.987   4.316   9.332 -0.2668 -0.1450 -0.3855
28302SOL    HW187861   9.071   4.273   9.350 -0.5305  0.0198  1.4139
28302SOL    HW287862   9.003   4.367   9.253  1.1690 -0.5579 -0.3920
28303SOL     OW87863   7.217   8.729   0.966 -0.5194  0.3293  0.5586
28303SOL    HW187864   7.156   8.728   0.893 -0.2492  0.3794  0.3278
28303SOL    HW287865   7.282   8.796   0.942  0.0332 -0.2378  0.4613
28304SOL     OW87866  10.138   9.090   1.416 -0.5522  0.1484  0.1302
28304SOL    HW187867  10.155   9.000   1.444 -2.5923  0.1199  1.4646
28304SOL    HW287868  10.107   9.082   1.326 -2.0896 -0.6763  0.7009
28305SOL     OW87869   0.839   3.264   8.754  0.1893  0.7478 -0.4136
28305SOL    HW187870   0.927   3.229   8.770 -0.1572 -0.0144 -0.1328
28305SOL    HW287871   0.822   3.244   8.662  0.8445  2.1374 -0.8731
28306SOL     OW87872   6.653   7.211   0.966 -0.0835  0.1996  0.4141
28306SOL    HW187873   6.612   7.261   0.895  0.6309  0.6070  0.2779
28306SOL    HW287874   6.719   7.270   1.003 -1.0903  0.3370  2.0651
28307SOL     OW87875   8.309  10.337   5.968  0.7491  0.2021  0.2382
28307SOL    HW187876   8.342  10.335   5.878  0.9879 -1.0467  0.3376
28307SOL    HW287877   8.220  10.303   5.962  1.0070 -0.5523  0.5584
28308SOL     OW87878   7.722   2.910   4.728 -0.2596  0.3142  0.5460
28308SOL    HW187879   7.636   2.949   4.714  0.1533  3.2710  4.5752
28308SOL    HW287880   7.714   2.863   4.811  1.6309 -0.7432  0.1878
28309SOL     OW87881   9.865   7.800   5.984 -0.5197  0.1446  0.0471
28309SOL    HW187882   9.914   7.754   5.916 -0.4840 -0.2609  0.3430
28309SOL    HW287883   9.808   7.733   6.021  0.2606  0.0832  1.1793
28310SOL     OW87884   7.749  10.633   5.299 -0.1670  0.2474 -0.5168
28310SOL    HW187885   7.809  10.586   5.358  1.5682  3.8449  0.8870
28310SOL    HW287886   7.666  10.636   5.347  0.1872  0.1084  0.1175
28311SOL     OW87887   6.296   5.577   0.594  0.6136  0.9765 -0.2554
28311SOL    HW187888   6.270   5.510   0.531  3.1228  0.0982 -0.4929
28311SOL    HW287889   6.333   5.647   0.540 -1.1144  2.1970  0.0559
28312SOL     OW87890   7.066   6.338   7.881  0.1470  0.1498  0.0091
28312SOL    HW187891   7.049   6.254   7.926  0.9102 -1.1483 -2.0110
28312SOL    HW287892   7.160   6.339   7.867  0.1052  1.2373 -0.2278
28313SOL     OW87893   1.468   4.203   6.887  0.0802  0.4076  0.5196
28313SOL    HW187894   1.384   4.199   6.840 -0.7809 -2.4366  2.0672
28313SOL    HW287895   1.451   4.264   6.959 -0.6497 -0.1183  0.8031
28314SOL     OW87896  10.565   2.027   1.872  0.6602  0.1096  0.1449
28314SOL    HW187897  10.532   2.040   1.784 -0.4165 -0.6090  0.4238
28314SOL    HW287898  10.498   2.064   1.929  0.1934 -1.5221  0.7272
28315SOL     OW87899   1.268   3.072   2.772 -0.3495 -0.3862 -0.1397
28315SOL    HW187900   1.243   3.029   2.853 -1.5475 -0.6673 -0.6442
28315SOL    HW287901   1.325   3.009   2.727  0.3171 -0.2282  0.4662
28316SOL     OW87902   4.060   6.262   7.029 -0.5350 -0.2024 -0.1114
28316SOL    HW187903   4.098   6.326   7.088 -2.1256  0.0847  0.6298
28316SOL    HW287904   4.041   6.186   7.084  1.5824 -1.4998 -1.0200
28317SOL     OW87905   7.958   1.211   7.255 -0.2168  0.3877 -0.2531
28317SOL    HW187906   7.935   1.214   7.163 -1.0991 -0.0976 -0.0596
28317SOL    HW287907   7.971   1.303   7.280 -0.5653  0.5664 -0.7190
28318SOL     OW87908   0.565   2.269   7.111 -0.1271 -0.1571 -0.5387
28318SOL    HW187909   0.660   2.260   7.118  0.1364  1.0489 -1.8545
28318SOL    HW287910   0.550   2.284   7.017 -1.2592  2.6939 -0.0240
28319SOL     OW87911   9.954   6.990   1.789  0.3543 -0.3594 -0.5306
28319SOL    HW187912   9.982   6.939   1.712  0.8762 -0.6151 -0.1837
28319SOL    HW287913  10.036   7.011   1.834 -0.0377 -1.9224  1.0171
28320SOL     OW87914   5.771   1.698   6.350 -0.2057  0.7713 -0.3918
28320SOL    HW187915   5.773   1.783   6.308 -0.5671 -0.0398 -2.1428
28320SOL    HW287916   5.683   1.691   6.387 -0.3001  1.0118 -0.5720
28321SOL     OW87917   2.857   5.495   5.761  0.0808 -0.4747  0.0291
28321SOL    HW187918   2.899   5.420   5.719 -1.4800 -0.1441 -2.3310
28321SOL    HW287919   2.778   5.458   5.801  0.9801 -0.5851  1.8066
28322SOL     OW87920   9.496   5.340   9.629 -0.3038  0.4490 -0.4354
28322SOL    HW187921   9.420   5.305   9.677 -0.3532  0.1348 -0.7405
28322SOL    HW287922   9.570   5.288   9.660 -0.1406  1.0303  0.1671
28323SOL     OW87923  10.196   6.595   3.510 -0.0121  0.1886 -0.2433
28323SOL    HW187924  10.248   6.670   3.482  0.5877 -0.2184 -0.2207
28323SOL    HW287925  10.106   6.618   3.485  0.0468  1.2442  0.4427
28324SOL     OW87926   7.401   2.934   8.471  0.2180 -0.0064  0.5717
28324SOL    HW187927   7.368   3.019   8.503  0.2300 -0.5691  2.1661
28324SOL    HW287928   7.322   2.881   8.460  0.2874 -0.0949  0.5061
28325SOL     OW87929   0.250   2.322   2.743 -0.0559  0.6971 -0.0036
28325SOL    HW187930   0.262   2.355   2.832  0.3886  1.0512 -0.1933
28325SOL    HW287931   0.300   2.240   2.741 -2.2873 -0.7778  0.8904
28326SOL     OW87932   5.757   2.400   5.978 -0.1290  0.3310 -0.3572
28326SOL    HW187933   5.702   2.328   6.011 -3.1189  1.6726 -2.0582
28326SOL    HW287934   5.782   2.372   5.890  2.3450 -0.3845  0.4866
28327SOL     OW87935   9.144   6.823  10.061  0.1542  0.0356  0.1128
28327SOL    HW187936   9.101   6.794  10.141  0.2433  1.9064  0.8922
28327SOL    HW287937   9.210   6.886  10.091 -1.9931  3.3765 -1.5265
28328SOL     OW87938   3.350  10.234   7.944 -0.1296  0.7536  0.7148
28328SOL    HW187939   3.272  10.214   7.892  0.4167 -2.5583  0.9576
28328SOL    HW287940   3.322  10.305   8.002 -2.0944  1.5061 -0.9859
28329SOL     OW87941   6.043   1.542   9.709 -0.4940  0.1278 -0.0970
28329SOL    HW187942   6.056   1.462   9.759 -0.7165  0.0615 -0.1413
28329SOL    HW287943   5.951   1.564   9.723 -1.1795 -1.1060 -2.2272
28330SOL     OW87944   2.532  10.078   6.875 -0.1375 -0.0434  0.3228
28330SOL    HW187945   2.621  10.061   6.906 -0.1340 -1.5798 -0.4395
28330SOL    HW287946   2.532  10.171   6.854  1.4550 -0.1207 -0.1599
28331SOL     OW87947   2.555   6.031   4.975  0.3470  0.1636  0.3424
28331SOL    HW187948   2.461   6.013   4.975  0.4092 -0.2522  1.9042
28331SOL    HW287949   2.564   6.113   5.022  0.8295 -0.1980  0.8905
28332SOL     OW87950   0.662   1.079   3.391 -0.2560  0.2324  0.2944
28332SOL    HW187951   0.668   1.161   3.341  0.2435 -0.2668 -0.4847
28332SOL    HW287952   0.624   1.016   3.330 -0.0584 -0.2765  0.6889
28333SOL     OW87953   1.867   5.896   3.898  0.4931  0.1716 -0.4517
28333SOL    HW187954   1.887   5.803   3.886 -0.7409 -0.2579  0.5162
28333SOL    HW287955   1.868   5.908   3.993 -0.5335  0.8535 -0.5084
28334SOL     OW87956   1.174   7.159   6.459  0.9672 -0.0750 -0.2034
28334SOL    HW187957   1.197   7.194   6.372 -1.0046 -0.7899 -1.0615
28334SOL    HW287958   1.199   7.067   6.455  1.1061 -0.0507  0.0865
28335SOL     OW87959   6.034   2.071   9.327  0.1045  0.5368 -0.5974
28335SOL    HW187960   6.053   1.978   9.313 -2.0234 -0.4504  2.1849
28335SOL    HW287961   6.116   2.107   9.360  1.2356 -0.0694 -2.5809
28336SOL     OW87962   2.235   7.065   5.533 -0.0919 -0.5624  0.0939
28336SOL    HW187963   2.151   7.102   5.559  0.1928  0.1095  0.0837
28336SOL    HW287964   2.272   7.031   5.615  0.3136  0.5615  0.4021
28337SOL     OW87965   8.793   6.479   5.657  0.0222 -0.2372  0.4169
28337SOL    HW187966   8.878   6.471   5.700 -0.2251 -0.9994  0.7780
28337SOL    HW287967   8.749   6.549   5.704  0.9424  1.0941 -0.6256
28338SOL     OW87968   5.450   4.271   3.241  0.2679 -0.3893  0.3921
28338SOL    HW187969   5.372   4.266   3.297  0.8277  0.1034  1.2543
28338SOL    HW287970   5.419   4.312   3.160 -0.6065 -1.3113  0.2373
28339SOL     OW87971   2.047   7.893   6.503 -0.1080  0.9251  0.4179
28339SOL    HW187972   2.126   7.878   6.451 -0.2975  0.3260  0.2935
28339SOL    HW287973   2.034   7.988   6.501 -0.3198  0.8837 -0.9465
28340SOL     OW87974   9.748   6.173   7.308 -0.3389  0.1065  0.0638
28340SOL    HW187975   9.760   6.185   7.402 -1.4166 -2.2915  0.5824
28340SOL    HW287976   9.657   6.143   7.299  0.2797 -1.4742 -1.5089
28341SOL     OW87977  10.100   5.736   4.637  0.6206 -0.4964 -0.3187
28341SOL    HW187978  10.011   5.744   4.671  0.3017 -0.4396 -1.1253
28341SOL    HW287979  10.148   5.689   4.705  0.1817  0.1843  0.4760
28342SOL     OW87980   9.325   6.585   3.440 -0.8137 -0.6434 -0.1951
28342SOL    HW187981   9.300   6.673   3.469 -0.9898 -0.9886  0.7123
28342SOL    HW287982   9.242   6.538   3.434 -0.7760 -0.6182 -1.1832
28343SOL     OW87983   5.475   8.668   5.211  0.0460  0.4879  0.0189
28343SOL    HW187984   5.490   8.647   5.119 -0.6908 -0.8887  0.1862
28343SOL    HW287985   5.462   8.763   5.212  1.4633  0.7281 -1.0753
28344SOL     OW87986   1.450  10.464   5.451  0.2328 -0.2691  0.4692
28344SOL    HW187987   1.360  10.434   5.466 -0.1845  0.9797  0.6386
28344SOL    HW287988   1.504  10.403   5.500 -0.5967 -0.5457  1.0647
28345SOL     OW87989   3.307   1.744   4.189 -0.0969 -0.0912 -0.2195
28345SOL    HW187990   3.304   1.649   4.203 -0.0506 -0.3272 -1.6337
28345SOL    HW287991   3.342   1.780   4.270 -0.7617 -1.2197  0.5904
28346SOL     OW87992   9.634   3.383   8.183  0.8056  0.2193 -0.0939
28346SOL    HW187993   9.726   3.406   8.178  0.9682  0.3108  2.1565
28346SOL    HW287994   9.598   3.440   8.252 -0.9187  0.1449 -0.8705
28347SOL     OW87995   6.036   7.087   1.211  0.0101  0.6350 -0.4318
28347SOL    HW187996   6.022   7.094   1.117  0.6771  0.2605 -0.5657
28347SOL    HW287997   6.104   7.020   1.220 -0.3206  0.3990  0.3356
28348SOL     OW87998   5.610   2.027   9.696 -0.0699 -0.0052  0.1555
28348SOL    HW187999   5.523   1.987   9.700  0.9922 -2.3820  0.6567
28348SOL    HW288000   5.617   2.077   9.778 -1.4584  1.4715 -0.5461
28349SOL     OW88001   2.749   4.318   7.757 -0.2088  0.3801  0.0734
28349SOL    HW188002   2.807   4.342   7.830 -2.0367  1.0901  1.3837
28349SOL    HW288003   2.802   4.330   7.679  1.3875  1.0187  1.2004
28350SOL     OW88004   7.746   9.331   5.333  0.5041 -0.2526 -0.3671
28350SOL    HW188005   7.804   9.309   5.261 -0.1940  0.8516 -1.2967
28350SOL    HW288006   7.744   9.427   5.335 -0.9255 -0.2638 -0.0807
28351SOL     OW88007   2.577   6.623   6.198  0.2512  0.0991 -0.0196
28351SOL    HW188008   2.558   6.588   6.285  1.1277 -1.9013 -0.5718
28351SOL    HW288009   2.507   6.589   6.143  0.9256 -0.5697 -0.4961
28352SOL     OW88010   3.105   6.286   3.957  0.3806 -0.5521  0.6284
28352SOL    HW188011   3.096   6.226   4.031  1.6571 -2.2667 -0.5539
28352SOL    HW288012   3.167   6.352   3.987  1.1048 -1.3907  1.0037
28353SOL     OW88013   7.703   3.012   5.022 -0.1081  0.2086  0.5927
28353SOL    HW188014   7.622   2.975   4.986  0.4998 -0.0950 -0.5288
28353SOL    HW288015   7.696   3.106   5.008 -1.2058  0.4509  2.5042
28354SOL     OW88016   4.216   1.375   3.742 -0.0513  0.2262  0.0856
28354SOL    HW188017   4.221   1.427   3.822 -0.4099 -0.2045  0.3906
28354SOL    HW288018   4.301   1.386   3.700  0.7927 -0.9556  1.4086
28355SOL     OW88019   0.336   2.336   1.464 -0.1107 -0.1613  0.0804
28355SOL    HW188020   0.359   2.429   1.454 -0.3464 -0.2472 -1.6374
28355SOL    HW288021   0.267   2.335   1.530  0.4699  0.7847  0.7237
28356SOL     OW88022   2.832   4.292   4.903  0.5204  0.0011  0.2675
28356SOL    HW188023   2.869   4.237   4.973  0.4232 -0.8426 -0.3271
28356SOL    HW288024   2.905   4.349   4.876  0.4253  0.6735  1.3726
28357SOL     OW88025   8.749   4.451   8.369 -0.5683  0.5568 -0.3623
28357SOL    HW188026   8.740   4.363   8.407 -2.5075 -0.0009 -1.9780
28357SOL    HW288027   8.828   4.486   8.410 -0.6421 -1.3014  1.5584
28358SOL     OW88028   7.123   3.966   1.670 -0.1629  0.2967  0.4915
28358SOL    HW188029   7.214   3.988   1.650 -0.6558  0.5375 -1.7858
28358SOL    HW288030   7.124   3.872   1.688  0.5297  0.2899  0.4459
28359SOL     OW88031   0.068   8.133   9.603 -0.2148 -0.1645  0.0528
28359SOL    HW188032   0.023   8.056   9.637 -1.5635  0.2092 -0.7684
28359SOL    HW288033   0.051   8.130   9.508  2.3962 -0.5499 -0.4735
28360SOL     OW88034   6.657   7.935   5.217 -0.5186 -0.4763  0.3155
28360SOL    HW188035   6.626   8.025   5.225  1.4923  0.4490 -1.3369
28360SOL    HW288036   6.586   7.889   5.172 -1.2235  0.4723  0.4266
28361SOL     OW88037   1.706   7.153   2.570  0.1019  0.6829 -0.7215
28361SOL    HW188038   1.783   7.098   2.580  0.6341  1.6766  1.2019
28361SOL    HW288039   1.741   7.242   2.560 -0.7536  1.0721 -0.4119
28362SOL     OW88040   6.838   1.040   1.206  0.4408 -0.1160 -0.2548
28362SOL    HW188041   6.869   0.964   1.157 -0.8140 -0.6329 -0.2643
28362SOL    HW288042   6.842   1.113   1.144  0.3899 -0.4398 -0.6338
28363SOL     OW88043   6.975   0.963   2.679  0.3877  0.4557 -0.1411
28363SOL    HW188044   6.936   0.924   2.757 -0.7335 -2.6182 -2.0282
28363SOL    HW288045   7.068   0.943   2.685  0.7029  2.2097  1.3917
28364SOL     OW88046   8.534   3.893   8.850  0.1674 -0.0451 -0.0455
28364SOL    HW188047   8.545   3.961   8.784  2.0106 -1.5001 -1.3512
28364SOL    HW288048   8.454   3.847   8.824  0.2031  0.1718 -0.5512
28365SOL     OW88049   7.343   1.280   4.782  0.1297  0.1068  0.4118
28365SOL    HW188050   7.266   1.230   4.754 -0.6626  0.7555  1.3814
28365SOL    HW288051   7.308   1.365   4.808  1.2599  0.6135  0.3191
28366SOL     OW88052   1.941   6.458   4.635  0.0220  0.1635 -0.3537
28366SOL    HW188053   2.032   6.429   4.642 -0.0755 -1.3462 -3.4553
28366SOL    HW288054   1.946   6.554   4.637  1.5911  0.0910  0.2614
28367SOL     OW88055   4.551   9.409   7.011 -0.1848 -0.3140 -0.6045
28367SOL    HW188056   4.502   9.334   7.045  0.1576 -0.6389 -0.8160
28367SOL    HW288057   4.497   9.485   7.033 -0.1574 -0.5519  0.3100
28368SOL     OW88058  10.580   8.820   7.782  0.0451  0.2624 -0.2826
28368SOL    HW188059  10.495   8.854   7.752 -0.6645 -1.1085  0.0847
28368SOL    HW288060  10.558   8.748   7.841  1.4655  0.8079  0.9841
28369SOL     OW88061   1.615   1.502   4.787  0.5329 -0.4162 -0.5589
28369SOL    HW188062   1.673   1.427   4.778  0.4794 -0.4491 -0.6431
28369SOL    HW288063   1.652   1.567   4.727  1.2558  0.0605  0.3913
28370SOL     OW88064   4.203   8.749   7.055 -0.1309  0.4461  0.2239
28370SOL    HW188065   4.148   8.817   7.092  0.4683  1.2322 -0.2925
28370SOL    HW288066   4.257   8.719   7.128 -0.6561  0.2575  0.5370
28371SOL     OW88067   2.748   4.713   7.357 -0.1255 -0.2818 -0.2207
28371SOL    HW188068   2.745   4.618   7.347 -0.2265 -0.5674  2.0896
28371SOL    HW288069   2.660   4.738   7.385  0.6276  0.0587  2.0512
28372SOL     OW88070   1.355   1.829   9.641 -0.4940  0.6098 -0.2521
28372SOL    HW188071   1.327   1.840   9.550 -0.6195  3.1496  0.0350
28372SOL    HW288072   1.282   1.784   9.684 -0.0830 -1.4066 -1.5286
28373SOL     OW88073   7.975   2.517   5.697  0.1242  0.1202 -0.1283
28373SOL    HW188074   7.937   2.549   5.616  1.6806 -0.0164 -0.9484
28373SOL    HW288075   7.919   2.443   5.723 -0.0028 -0.2704 -1.4442
28374SOL     OW88076   0.852   4.051  10.137 -0.5698  0.5725  0.3980
28374SOL    HW188077   0.941   4.081  10.121 -1.1494  2.2149  0.0737
28374SOL    HW288078   0.858   3.955  10.135  1.1294  0.6604  0.1550
28375SOL     OW88079  10.191   9.620   1.821  0.3511 -0.6406 -0.1356
28375SOL    HW188080  10.191   9.701   1.769  1.7900 -0.7101 -0.2821
28375SOL    HW288081  10.136   9.560   1.770 -0.0792 -0.0136 -0.4356
28376SOL     OW88082   3.891   5.963   8.236  0.0913 -0.2495 -0.2250
28376SOL    HW188083   3.838   5.888   8.263 -2.1102  1.5713  0.8961
28376SOL    HW288084   3.882   6.025   8.308  0.5864  1.6990 -1.7619
28377SOL     OW88085   4.719   8.713   9.310 -0.5919  0.0365 -0.1024
28377SOL    HW188086   4.636   8.684   9.271  0.3149 -1.1715 -1.2278
28377SOL    HW288087   4.773   8.635   9.312  0.2824  0.6403  1.3373
28378SOL     OW88088   2.637   3.374   4.733 -0.0598  0.5220  0.1246
28378SOL    HW188089   2.668   3.458   4.701  0.1849 -0.2899 -1.8866
28378SOL    HW288090   2.574   3.396   4.802 -0.7707  2.3669 -1.0528
28379SOL     OW88091   1.516   2.584   8.726  0.1496  0.0999  0.6207
28379SOL    HW188092   1.537   2.494   8.751  0.8874 -0.4315 -1.6417
28379SOL    HW288093   1.599   2.630   8.734  0.6789 -0.3301 -1.5946
28380SOL     OW88094   4.149   8.479   6.393 -0.1085  0.3061  0.1940
28380SOL    HW188095   4.120   8.434   6.473 -0.5652  2.3122  1.2220
28380SOL    HW288096   4.244   8.466   6.392 -0.3327 -1.5844 -0.1631
28381SOL     OW88097   1.027   3.296  10.168 -0.0808 -0.2411 -0.0453
28381SOL    HW188098   1.084   3.316  10.242 -0.2648 -1.1218  0.3511
28381SOL    HW288099   0.966   3.231  10.202 -1.2799  0.6189 -0.4769
28382SOL     OW88100   2.399   6.679   9.981 -0.3572 -0.0841  0.0461
28382SOL    HW188101   2.484   6.704  10.017 -0.6188  0.6570  0.1771
28382SOL    HW288102   2.372   6.755   9.929 -0.4123 -0.7724 -0.9627
28383SOL     OW88103   5.096   3.775   2.663  0.0832  0.0857  0.2800
28383SOL    HW188104   5.101   3.755   2.757 -0.1502  1.4555  0.5986
28383SOL    HW288105   5.010   3.742   2.636 -0.3501  0.7406  0.8246
28384SOL     OW88106   3.364   7.299   6.737 -0.3553 -0.0648 -0.1957
28384SOL    HW188107   3.317   7.335   6.812 -0.7848  0.4275 -0.6878
28384SOL    HW288108   3.456   7.323   6.753 -0.5410  0.6711 -0.1693
28385SOL     OW88109   2.840   3.288   4.182 -0.9953 -0.3310 -0.1542
28385SOL    HW188110   2.915   3.348   4.176 -1.1573  0.0155  0.9550
28385SOL    HW288111   2.774   3.327   4.124 -0.4512 -0.4529 -0.8725
28386SOL     OW88112   6.565  10.368  10.370 -0.7648  0.0516 -0.2422
28386SOL    HW188113   6.476  10.349  10.398 -0.3550 -0.4560  0.7721
28386SOL    HW288114   6.615  10.289  10.395 -0.0607  0.2758 -0.9024
28387SOL     OW88115   0.970   9.746   7.976  0.4308 -0.5719  0.1700
28387SOL    HW188116   0.941   9.836   7.963  2.3340 -0.1271 -1.4797
28387SOL    HW288117   0.895   9.693   7.950  0.0990  0.5352 -1.2601
28388SOL     OW88118   4.699   1.922   6.351  0.2464 -0.1271 -0.0738
28388SOL    HW188119   4.760   1.872   6.405 -1.8701 -0.4648  2.1870
28388SOL    HW288120   4.696   1.874   6.268  1.6766 -1.1057  0.4065
28389SOL     OW88121   0.320   6.512   9.750  0.3515 -0.8257 -0.1703
28389SOL    HW188122   0.397   6.519   9.806  1.2408 -0.6085 -1.3614
28389SOL    HW288123   0.273   6.595   9.763 -0.2006 -1.3289  1.2423
28390SOL     OW88124   4.373   4.513   7.421  0.3231  0.2839 -0.1498
28390SOL    HW188125   4.434   4.466   7.478  0.1041 -0.0766 -0.2084
28390SOL    HW288126   4.333   4.445   7.367  0.8944  0.6791 -1.0987
28391SOL     OW88127   6.354   7.136   1.006 -0.0341  0.5272 -0.0421
28391SOL    HW188128   6.418   7.079   0.964  0.6677 -1.1016  2.9861
28391SOL    HW288129   6.354   7.215   0.952  2.1346 -0.6450 -1.9527
28392SOL     OW88130   5.512   4.916   4.179 -0.2602  0.1646 -0.1338
28392SOL    HW188131   5.423   4.923   4.211 -1.0658 -1.7042 -1.7746
28392SOL    HW288132   5.559   4.868   4.247 -0.5424  0.9379  0.6209
28393SOL     OW88133  10.293   9.369   4.183 -0.1000  0.1209  0.2413
28393SOL    HW188134  10.358   9.424   4.227  1.4005 -0.4740 -1.1443
28393SOL    HW288135  10.318   9.280   4.205  0.3946 -0.1699 -1.3721
28394SOL     OW88136   7.604   2.764  10.565  0.0279 -0.2528 -0.5828
28394SOL    HW188137   7.689   2.727  10.587 -0.0293 -1.1179 -1.7438
28394SOL    HW288138   7.592   2.836  10.627  1.7569  0.0975 -0.6250
28395SOL     OW88139   7.250   6.055   0.569  0.4405  0.0553 -0.4019
28395SOL    HW188140   7.276   6.039   0.660  1.2631  2.5879 -0.1151
28395SOL    HW288141   7.330   6.083   0.525 -0.2105  0.1063 -1.5931
28396SOL     OW88142   8.517   0.487   3.128 -0.4021  0.1431  0.8645
28396SOL    HW188143   8.608   0.500   3.157  0.4420 -3.9634  0.5632
28396SOL    HW288144   8.465   0.523   3.200  1.4682  0.7648  2.0101
28397SOL     OW88145   8.202   9.249   0.571  0.3680 -0.0707  0.4758
28397SOL    HW188146   8.289   9.289   0.567  0.9838 -1.4730 -2.3958
28397SOL    HW288147   8.202   9.202   0.655  2.1183  0.5313  0.8662
28398SOL     OW88148   2.691   4.229   9.547 -0.1736  0.2857  0.0486
28398SOL    HW188149   2.771   4.225   9.496 -0.6730  1.9295 -0.9396
28398SOL    HW288150   2.622   4.198   9.488 -0.6261  1.3593 -0.0174
28399SOL     OW88151   4.953   4.170   3.267  0.5189 -0.0813  0.4193
28399SOL    HW188152   5.009   4.190   3.192  0.3055  0.1306  0.3154
28399SOL    HW288153   4.934   4.255   3.306 -1.6045  0.1294 -0.8932
28400SOL     OW88154   6.312   7.719   9.679 -1.0112 -0.2665 -0.2972
28400SOL    HW188155   6.312   7.726   9.774  0.0693 -0.7633 -0.2551
28400SOL    HW288156   6.229   7.676   9.658  0.0850 -3.0209  0.6611
28401SOL     OW88157   9.108  10.209   3.970 -0.1974  0.0514  0.1533
28401SOL    HW188158   9.060  10.158   3.906  2.3520 -1.1617 -0.9304
28401SOL    HW288159   9.153  10.144   4.024 -0.1431  1.1210  1.4680
28402SOL     OW88160   3.200   1.065  10.633 -0.4745 -0.4099  0.6289
28402SOL    HW188161   3.283   1.019  10.644 -0.0955  0.2950  0.8209
28402SOL    HW288162   3.173   1.088  10.722 -1.0749 -0.9569  0.5992
28403SOL     OW88163   7.024   5.931   8.956 -0.3207  0.2185 -0.0502
28403SOL    HW188164   6.978   5.974   8.884 -1.4157 -0.9488 -0.0882
28403SOL    HW288165   7.103   5.895   8.917 -0.1645  0.8685 -0.3414
28404SOL     OW88166   9.361   1.216   3.697  0.4432  0.1229 -0.2284
28404SOL    HW188167   9.374   1.122   3.709  0.9751  0.5128  3.1087
28404SOL    HW288168   9.267   1.227   3.690  0.4187 -0.6926 -1.4707
28405SOL     OW88169   7.599   7.707   7.088  0.1155 -0.3238  0.2091
28405SOL    HW188170   7.514   7.664   7.074  0.0266  0.1423 -0.7629
28405SOL    HW288171   7.607   7.714   7.183  0.0626 -2.3535  0.4156
28406SOL     OW88172   0.440   0.364   4.755  0.1880 -0.4846 -0.1985
28406SOL    HW188173   0.506   0.307   4.794 -0.0602 -1.5848 -1.3314
28406SOL    HW288174   0.485   0.447   4.742  0.2876 -0.0703  2.3492
28407SOL     OW88175   6.703   7.642   9.984 -0.1613  0.7640  0.2201
28407SOL    HW188176   6.720   7.720   9.930  2.3010  0.3835  0.3328
28407SOL    HW288177   6.769   7.579   9.956  0.9621  0.3869  3.3690
28408SOL     OW88178   5.076   2.339   8.719 -0.3770 -0.1583 -0.2349
28408SOL    HW188179   5.086   2.253   8.761  2.4199  0.2410  0.1296
28408SOL    HW288180   5.118   2.329   8.634 -1.3378  0.4949 -0.8081
28409SOL     OW88181   7.185   1.327   7.139  0.4423  0.5213  0.4951
28409SOL    HW188182   7.169   1.383   7.215  1.4348  1.1758  0.2430
28409SOL    HW288183   7.098   1.307   7.106  0.0446  2.6221  0.1192
28410SOL     OW88184   6.145   8.878   7.797  0.3935  0.0917  0.0359
28410SOL    HW188185   6.214   8.813   7.786 -0.0244 -0.6389  1.4183
28410SOL    HW288186   6.165   8.920   7.881  0.0045  0.9409 -0.2847
28411SOL     OW88187   4.202   0.936  10.018 -0.0637 -0.1564 -0.6015
28411SOL    HW188188   4.205   1.000   9.947  1.0496 -0.9913 -1.3374
28411SOL    HW288189   4.160   0.859   9.981 -2.6953  0.5503  0.6829
28412SOL     OW88190   8.812   7.869   0.346  0.3982 -0.2558  0.0279
28412SOL    HW188191   8.854   7.941   0.391 -1.0346  0.0132  1.0071
28412SOL    HW288192   8.760   7.825   0.414 -0.2356 -1.0518 -0.9403
28413SOL     OW88193   5.401   7.297   0.196  0.2700  0.5714 -0.3123
28413SOL    HW188194   5.489   7.262   0.185 -0.2793 -0.8892 -0.4314
28413SOL    HW288195   5.347   7.219   0.210 -1.1975  1.3111 -1.5856
28414SOL     OW88196   2.263  10.689   2.160  0.4260  0.2270 -0.0178
28414SOL    HW188197   2.207  10.754   2.117 -0.6468 -0.2357  0.6156
28414SOL    HW288198   2.228  10.604   2.130 -0.0830 -0.0928  1.3890
28415SOL     OW88199   7.526   3.022   6.767  0.1510  0.3723 -0.5365
28415SOL    HW188200   7.501   3.082   6.837  1.8837  0.3937  0.1177
28415SOL    HW288201   7.552   3.079   6.695  0.9258  0.4078 -0.2363
28416SOL     OW88202   1.219   5.278   1.268  0.1556 -0.3819 -0.4463
28416SOL    HW188203   1.288   5.315   1.322 -1.8784  1.2661  1.2000
28416SOL    HW288204   1.226   5.325   1.185  0.4369  0.4659  0.0432
28417SOL     OW88205   0.695   6.545   6.359 -0.2324  0.7179 -0.3910
28417SOL    HW188206   0.681   6.529   6.452  1.8181  1.9490  0.1902
28417SOL    HW288207   0.734   6.464   6.327  3.6018  1.7897  0.9966
28418SOL     OW88208   0.315   3.184   0.789  0.1916 -0.2882  0.2970
28418SOL    HW188209   0.298   3.128   0.865 -1.0402 -0.6001 -0.1877
28418SOL    HW288210   0.284   3.271   0.816  0.4060 -0.2444  0.4014
28419SOL     OW88211  10.006   5.557   7.173  0.0720  0.3209  0.3639
28419SOL    HW188212   9.911   5.562   7.166  0.0150 -0.3252  0.6004
28419SOL    HW288213  10.034   5.516   7.091  0.2647  1.6028 -0.2377
28420SOL     OW88214   7.156   9.739   2.246  0.6221  0.1806 -0.1793
28420SOL    HW188215   7.158   9.822   2.198  3.6941 -0.2107 -0.8917
28420SOL    HW288216   7.164   9.672   2.178  1.4423 -0.5438  0.6071
28421SOL     OW88217   5.230   9.401   9.858 -0.0406  0.2114  0.4191
28421SOL    HW188218   5.294   9.330   9.862 -0.8319 -0.4753  2.8044
28421SOL    HW288219   5.153   9.361   9.816  0.2232  0.3027 -0.1628
28422SOL     OW88220  10.688   5.458   4.588  0.4870  0.0417 -0.3126
28422SOL    HW188221  10.752   5.493   4.525  0.0481 -0.6317 -1.1576
28422SOL    HW288222  10.605   5.462   4.541 -0.2228  1.4822  0.9875
28423SOL     OW88223   2.645   7.796   6.903 -0.2834 -0.0328 -0.2677
28423SOL    HW188224   2.617   7.879   6.939  0.1612 -0.2329  0.5640
28423SOL    HW288225   2.679   7.747   6.978 -1.6268 -1.4363 -0.5152
28424SOL     OW88226   8.596   3.100   0.552  0.3637 -0.2161  0.1589
28424SOL    HW188227   8.544   3.028   0.517  0.5713 -1.0770  1.5269
28424SOL    HW288228   8.607   3.160   0.478  0.1676 -1.5751 -1.0308
28425SOL     OW88229   2.193   0.579   8.873 -0.0111  0.5721 -0.0502
28425SOL    HW188230   2.143   0.514   8.823 -1.4030  2.5009 -1.3354
28425SOL    HW288231   2.193   0.545   8.962 -1.7628 -0.6074 -0.4350
28426SOL     OW88232   8.267   7.961   5.573 -0.1144 -0.0255  0.2125
28426SOL    HW188233   8.221   7.891   5.527 -1.4622 -0.1826  1.6971
28426SOL    HW288234   8.337   7.987   5.513  0.1060 -2.2563 -0.6076
28427SOL     OW88235   5.340   3.111   0.923  0.2361  0.2240  0.0946
28427SOL    HW188236   5.348   3.143   1.013  0.3418  0.5893 -0.0435
28427SOL    HW288237   5.251   3.077   0.917 -0.1825  1.3034 -0.0123
28428SOL     OW88238   1.277   3.814   9.671  0.1308  0.0614 -0.7717
28428SOL    HW188239   1.243   3.725   9.680 -1.9639  0.7861 -1.0699
28428SOL    HW288240   1.208   3.870   9.705  2.2993  1.5391  1.6006
28429SOL     OW88241   4.388   4.300   2.555  0.3657 -0.5416  0.3475
28429SOL    HW188242   4.477   4.301   2.589  0.7240  0.0888 -0.5827
28429SOL    HW288243   4.398   4.302   2.460 -0.6469  1.7670  0.2387
28430SOL     OW88244   8.822  10.059  10.339  0.3829  0.0555 -0.2715
28430SOL    HW188245   8.775  10.008  10.406 -0.2293 -0.8473 -1.3484
28430SOL    HW288246   8.900  10.092  10.384 -0.6749  0.5938  1.2364
28431SOL     OW88247   3.216   8.918  10.194  0.6578  0.3987  0.4861
28431SOL    HW188248   3.217   8.916  10.290 -0.9203 -0.2102  0.5188
28431SOL    HW288249   3.217   8.826  10.167  1.8184  0.5652 -0.1270
28432SOL     OW88250   6.867   0.621   2.620  0.4332 -0.1123 -0.1151
28432SOL    HW188251   6.802   0.687   2.641  1.8006  1.5052 -0.7065
28432SOL    HW288252   6.834   0.578   2.541 -0.5119 -0.2232  0.3304
28433SOL     OW88253   6.692   3.124   7.985 -0.3941 -0.3610  0.2849
28433SOL    HW188254   6.702   3.177   7.906  2.0151 -1.2303 -0.0802
28433SOL    HW288255   6.598   3.107   7.991 -0.7812  0.8132 -1.6432
28434SOL     OW88256   9.412   5.323   5.107 -0.3976  0.8265 -0.0260
28434SOL    HW188257   9.394   5.335   5.200 -0.1470 -0.3606  0.1971
28434SOL    HW288258   9.508   5.318   5.102 -0.3724  1.6372 -0.4552
28435SOL     OW88259   8.721   0.458   6.337 -0.5541 -0.1285  0.0621
28435SOL    HW188260   8.715   0.364   6.323 -0.5220 -0.1859  0.4474
28435SOL    HW288261   8.656   0.477   6.404  1.5156 -0.3427  2.2643
28436SOL     OW88262   5.178   2.472   9.322 -0.4751  0.1506  0.2890
28436SOL    HW188263   5.104   2.446   9.378 -0.4529 -0.1994  0.1526
28436SOL    HW288264   5.255   2.461   9.378 -0.5834  1.2203  0.6798
28437SOL     OW88265   9.146   2.746   0.091  0.4053 -0.0284  0.3637
28437SOL    HW188266   9.082   2.816   0.107  0.2729 -0.1735  0.4665
28437SOL    HW288267   9.189   2.732   0.176 -1.6157 -2.1267  1.1346
28438SOL     OW88268   5.964   7.952   2.129  0.1123  1.1425  0.0786
28438SOL    HW188269   5.921   7.954   2.043  2.2578  0.8481 -1.0620
28438SOL    HW288270   6.057   7.961   2.109  0.6630  1.0596  2.4033
28439SOL     OW88271   9.356   3.024   9.416 -0.5435 -0.5005  0.0566
28439SOL    HW188272   9.348   2.953   9.479 -0.6588  0.3296  0.9921
28439SOL    HW288273   9.268   3.060   9.408 -0.4804 -0.4361 -0.3873
28440SOL     OW88274   5.959   3.579   7.651  0.5142 -0.1187 -0.0730
28440SOL    HW188275   5.947   3.660   7.702  0.8311 -0.0209 -0.1532
28440SOL    HW288276   5.923   3.599   7.565 -0.1805 -0.3403  0.1588
28441SOL     OW88277  10.339   7.186   3.172 -0.5785 -0.3109  0.1840
28441SOL    HW188278  10.320   7.230   3.255 -0.2996 -0.7640  0.4942
28441SOL    HW288279  10.257   7.193   3.123 -0.1619  1.6936 -0.3238
28442SOL     OW88280   3.685   7.013   5.044 -0.5425 -0.4214 -0.2055
28442SOL    HW188281   3.679   7.082   5.110  1.1188  1.1958 -1.6313
28442SOL    HW288282   3.764   6.964   5.067  0.7202  0.8732 -1.5375
28443SOL     OW88283   3.924   8.488   2.787 -0.0620 -0.1990  0.5193
28443SOL    HW188284   4.013   8.516   2.807 -0.6041  1.7898  0.3974
28443SOL    HW288285   3.873   8.512   2.864 -0.3771 -2.1025  0.9433
28444SOL     OW88286  10.395   9.184   6.636 -0.4785 -0.4380  0.3308
28444SOL    HW188287  10.483   9.148   6.637 -0.2848  0.0225  0.2752
28444SOL    HW288288  10.341   9.118   6.679  0.0653 -0.2755  1.2933
28445SOL     OW88289   5.247   4.029   2.112 -0.1818  0.2417 -0.1446
28445SOL    HW188290   5.338   4.012   2.136  0.1443  0.9359 -0.8691
28445SOL    HW288291   5.196   3.991   2.184  0.6930  0.3629  0.5572
28446SOL     OW88292   0.636   5.430   1.012  0.3108 -0.3422  0.5089
28446SOL    HW188293   0.708   5.460   1.068 -0.2929  0.7708  0.7282
28446SOL    HW288294   0.560   5.425   1.070 -0.3874  1.0913 -0.2280
28447SOL     OW88295   1.781   5.091   6.665 -0.0230 -0.0707 -0.7279
28447SOL    HW188296   1.720   5.079   6.738  0.0545 -1.5421 -0.8788
28447SOL    HW288297   1.848   5.150   6.700 -0.8185  0.5099 -0.1319
28448SOL     OW88298   6.695   0.346   5.865 -0.2325  0.0329 -0.0514
28448SOL    HW188299   6.649   0.350   5.949  0.4320 -0.9418  0.3740
28448SOL    HW288300   6.780   0.386   5.882  0.1692 -0.7946 -0.0685
28449SOL     OW88301   0.428   8.061   3.532 -0.0054 -0.2786  0.3471
28449SOL    HW188302   0.506   8.083   3.482 -0.0416  1.4840  1.0153
28449SOL    HW288303   0.404   7.974   3.500  0.9949  0.0264 -1.3987
28450SOL     OW88304   5.021   5.696   2.921  0.2884  0.3402  0.0891
28450SOL    HW188305   4.968   5.616   2.921  1.5204 -0.6524 -3.0792
28450SOL    HW288306   4.986   5.749   2.992 -1.2183 -2.5910  1.6993
28451SOL     OW88307  10.038   6.702   4.177 -0.1956 -0.0385 -0.5043
28451SOL    HW188308   9.988   6.782   4.197  1.8626  1.4252 -0.8971
28451SOL    HW288309  10.061   6.667   4.263 -3.9754 -2.2893 -0.1734
28452SOL     OW88310   0.598   4.877   4.903  0.8193 -0.2246 -0.1664
28452SOL    HW188311   0.651   4.914   4.832  1.1991 -1.1487 -0.3853
28452SOL    HW288312   0.566   4.953   4.951 -0.4791  0.5064 -2.0483
28453SOL     OW88313   8.671   5.030   8.353  0.2456 -0.0918  0.4021
28453SOL    HW188314   8.580   5.014   8.330 -0.5145  4.0720 -0.1789
28453SOL    HW288315   8.671   5.036   8.449  0.5725 -2.8186  0.6552
28454SOL     OW88316   2.841   9.663   2.470 -0.8881 -0.1845 -0.3704
28454SOL    HW188317   2.885   9.741   2.503 -1.3068  0.4470 -1.2430
28454SOL    HW288318   2.750   9.672   2.501 -1.5826  0.9976 -2.5158
28455SOL     OW88319   1.912   2.309   6.600 -0.0098  0.1365  0.1711
28455SOL    HW188320   1.866   2.241   6.649  0.7097 -0.0682  0.5777
28455SOL    HW288321   1.923   2.272   6.512 -0.2810  0.0399  0.1756
28456SOL     OW88322   8.053   9.146   0.131  0.8802 -0.2684  0.0199
28456SOL    HW188323   8.132   9.105   0.095  2.1580  0.1780  2.1678
28456SOL    HW288324   8.051   9.119   0.223 -0.1373  1.6695  0.6230
28457SOL     OW88325   4.949   4.026   0.832 -0.0233  0.4866  0.5602
28457SOL    HW188326   5.038   4.055   0.851  0.4260  0.5412 -1.4759
28457SOL    HW288327   4.931   4.058   0.744 -0.3692 -3.3551 -0.9520
28458SOL     OW88328   7.597   6.173   3.661  0.2464 -0.1414  0.5730
28458SOL    HW188329   7.506   6.198   3.675  0.3378  0.3226  0.3530
28458SOL    HW288330   7.625   6.137   3.745 -0.2244 -0.5649  0.5570
28459SOL     OW88331   7.975  10.335   9.892 -0.0786 -0.5435  0.1239
28459SOL    HW188332   7.900  10.392   9.873 -0.4146 -0.8240  0.5983
28459SOL    HW288333   8.022  10.380   9.962  0.3289 -0.2530 -0.3312
28460SOL     OW88334   0.855   2.973   8.875  0.2638 -0.3165 -0.0493
28460SOL    HW188335   0.936   2.995   8.828  0.8532 -0.7874  0.7113
28460SOL    HW288336   0.864   3.017   8.959 -1.7245  2.2572 -1.0887
28461SOL     OW88337   2.923   0.568   8.316  0.2560  0.5371  0.5322
28461SOL    HW188338   2.877   0.649   8.337 -0.1237  1.3179 -2.7971
28461SOL    HW288339   3.000   0.596   8.266  1.3771 -1.0685  1.2560
28462SOL     OW88340   6.087   6.906  10.215 -0.7999 -0.2486  0.3098
28462SOL    HW188341   6.128   6.821  10.200 -0.1440  0.2057 -0.5180
28462SOL    HW288342   6.117   6.961  10.143  0.1677  1.2063  1.7607
28463SOL     OW88343   0.841   4.250   3.994  0.2016 -0.7170  0.6176
28463SOL    HW188344   0.829   4.172   4.049  0.5842 -0.1267  1.5646
28463SOL    HW288345   0.860   4.215   3.907  1.3306 -1.7029  1.2243
28464SOL     OW88346   2.999   8.879   8.505 -0.5532 -0.2713  0.5981
28464SOL    HW188347   3.053   8.925   8.441 -1.3602  1.2093  0.9488
28464SOL    HW288348   2.957   8.948   8.555 -0.9319 -1.4078  1.9008
28465SOL     OW88349   9.942   4.717   9.560 -0.6899  0.3307  0.0717
28465SOL    HW188350   9.889   4.754   9.489 -0.3057  0.1139 -0.3365
28465SOL    HW288351  10.001   4.656   9.516 -1.7221 -1.2582  0.7870
28466SOL     OW88352   6.876   2.524   1.401  0.7158  0.0774  0.0214
28466SOL    HW188353   6.939   2.522   1.473  1.6490 -0.6624 -0.7756
28466SOL    HW288354   6.836   2.610   1.406  2.0508  0.7106  0.3614
28467SOL     OW88355   6.762   7.546   7.242  0.0871 -0.2798  0.3340
28467SOL    HW188356   6.743   7.516   7.331 -2.7176  0.3042  0.0324
28467SOL    HW288357   6.784   7.467   7.194  2.9869 -0.4631  1.7517
28468SOL     OW88358  10.421   7.604   1.990 -0.0447  0.4241 -0.5335
28468SOL    HW188359  10.417   7.518   2.032  2.4524  1.1894  1.5161
28468SOL    HW288360  10.486   7.594   1.920 -0.7000  0.3565 -1.1463
28469SOL     OW88361   1.166   9.531   6.135 -0.6362  0.2749 -0.2887
28469SOL    HW188362   1.222   9.601   6.101 -0.8784  0.5403 -0.1480
28469SOL    HW288363   1.227   9.463   6.162 -0.2536  1.2386  1.4268
28470SOL     OW88364   9.738   2.284  10.347  0.1797  0.0141  0.0595
28470SOL    HW188365   9.746   2.196  10.384  0.1920 -0.1512 -0.3223
28470SOL    HW288366   9.652   2.315  10.375  0.0848 -0.2092  0.0164
28471SOL     OW88367   1.335   4.121   3.206  0.8007  1.1154 -0.5343
28471SOL    HW188368   1.310   4.034   3.237 -3.1057  2.0212 -0.5836
28471SOL    HW288369   1.388   4.158   3.276 -1.1599  0.2154  1.5280
28472SOL     OW88370   1.560   7.391   2.333  0.5481  0.0355 -0.5647
28472SOL    HW188371   1.607   7.308   2.329  0.1684 -0.1450 -1.5074
28472SOL    HW288372   1.516   7.389   2.418  1.3198 -0.2887 -0.1640
28473SOL     OW88373   2.953   4.796   2.086 -0.1513  0.5023 -0.0469
28473SOL    HW188374   2.873   4.846   2.099 -1.7501 -1.6301 -0.9519
28473SOL    HW288375   2.922   4.711   2.053  2.4601 -0.6012  0.1393
28474SOL     OW88376   2.513   4.513   8.544  0.0480  0.3790  0.1715
28474SOL    HW188377   2.579   4.516   8.614 -0.1877 -0.1645  0.4208
28474SOL    HW288378   2.544   4.577   8.479  2.0569 -1.4719 -0.8097
28475SOL     OW88379   2.966   8.058   4.850 -0.4793 -0.1320  0.2142
28475SOL    HW188380   2.899   8.036   4.914 -1.9613 -0.4961 -1.3716
28475SOL    HW288381   2.940   8.144   4.817  0.3020  0.0850  0.1650
28476SOL     OW88382   6.772   9.248   9.811 -0.4187  0.1193 -0.0617
28476SOL    HW188383   6.772   9.270   9.718 -1.0795  0.3231 -0.0172
28476SOL    HW288384   6.849   9.293   9.846 -1.0681  1.3658 -0.2063
28477SOL     OW88385   3.242   5.447   3.725 -0.1004 -0.3503 -0.1381
28477SOL    HW188386   3.286   5.395   3.793 -0.2784  0.4304  0.5874
28477SOL    HW288387   3.197   5.516   3.774 -0.2097  0.2404 -1.0634
28478SOL     OW88388   3.828   6.856   6.279  0.2849  0.0541 -0.6803
28478SOL    HW188389   3.832   6.803   6.359 -1.4711 -0.9308 -1.1949
28478SOL    HW288390   3.880   6.806   6.216 -0.3412 -0.4371 -0.8168
28479SOL     OW88391   4.925   0.797   8.231  0.1624 -0.4917 -0.1115
28479SOL    HW188392   4.974   0.814   8.151 -0.7967 -0.3760 -0.6879
28479SOL    HW288393   4.969   0.722   8.271  0.6471 -0.5515 -0.7495
28480SOL     OW88394   7.448  10.416   9.935 -0.1757  0.2965 -0.6543
28480SOL    HW188395   7.425  10.325   9.915 -0.9110  0.2493  0.3558
28480SOL    HW288396   7.523  10.408   9.994 -0.5892  0.3257 -0.1204
28481SOL     OW88397   8.781   6.860   1.234 -0.2404 -0.2577 -0.1542
28481SOL    HW188398   8.742   6.794   1.290  3.1832  0.2159  3.1359
28481SOL    HW288399   8.839   6.812   1.175 -1.1482 -0.4582 -0.9124
28482SOL     OW88400   5.525   3.925   2.186  0.1740 -0.3610  0.8117
28482SOL    HW188401   5.560   3.848   2.141  0.7137  0.3084  0.0578
28482SOL    HW288402   5.577   3.931   2.267 -0.2873 -1.1284  1.1760
28483SOL     OW88403   7.686   9.937   7.029 -0.2560  0.2247 -0.2279
28483SOL    HW188404   7.636  10.019   7.039 -2.3602 -0.6194 -2.7233
28483SOL    HW288405   7.748   9.956   6.959 -1.1374 -0.4282 -1.2112
28484SOL     OW88406   9.826   5.405   8.154  0.4920 -0.0346 -0.5392
28484SOL    HW188407   9.891   5.466   8.189  1.0395 -0.5129 -0.7063
28484SOL    HW288408   9.747   5.458   8.144  0.6492  0.3868  0.3333
28485SOL     OW88409   7.946   8.549   2.031  0.4778 -0.1339  0.1988
28485SOL    HW188410   8.029   8.586   2.058  0.4650 -0.4718  0.7125
28485SOL    HW288411   7.882   8.619   2.043  0.2702 -0.6148  2.1674
28486SOL     OW88412   1.607   2.822   4.242  0.1067 -0.6087  0.6455
28486SOL    HW188413   1.679   2.882   4.221  0.9157 -2.0615 -0.9861
28486SOL    HW288414   1.552   2.821   4.163 -1.1525 -0.3378  1.4785
28487SOL     OW88415   9.197   3.275   1.201  0.0143 -0.4416  0.0268
28487SOL    HW188416   9.225   3.234   1.283  0.2932 -1.2719 -0.4688
28487SOL    HW288417   9.208   3.207   1.135 -2.5112 -0.6093 -0.3411
28488SOL     OW88418   1.079   1.839   7.706  0.5098  0.0337 -0.2085
28488SOL    HW188419   1.082   1.883   7.621 -3.5546 -0.2548 -0.6968
28488SOL    HW288420   1.078   1.746   7.685  1.2147 -0.0921  0.2940
28489SOL     OW88421   8.752   2.682   8.104 -0.3063 -0.7768  0.0333
28489SOL    HW188422   8.796   2.761   8.135 -0.7602  0.3407 -1.9909
28489SOL    HW288423   8.662   2.690   8.137 -0.2868 -0.5449  0.0321
28490SOL     OW88424   8.253   6.292   3.191  0.1007  0.1741 -0.4396
28490SOL    HW188425   8.162   6.319   3.185  0.1130  0.4756  0.4929
28490SOL    HW288426   8.263   6.260   3.281  1.4524  2.3032  0.2596
28491SOL     OW88427   5.151   3.117   4.310  0.5122  0.3209  0.5424
28491SOL    HW188428   5.110   3.128   4.224 -0.9987 -1.9562  0.9165
28491SOL    HW288429   5.245   3.126   4.292  0.1183  2.3503 -0.8759
28492SOL     OW88430  10.510   8.117  10.610  0.2233  0.6648  1.1189
28492SOL    HW188431  10.542   8.203  10.582 -0.2948  0.9772  1.4660
28492SOL    HW288432  10.568   8.092  10.681  0.5519  0.5987  0.8281
28493SOL     OW88433   6.107   9.097   8.602 -0.0775  0.6902 -0.1013
28493SOL    HW188434   6.022   9.142   8.597 -0.7543 -0.4998  0.3929
28493SOL    HW288435   6.170   9.162   8.571 -0.9862  2.0869  0.8686
28494SOL     OW88436  10.400   6.624   0.202  0.1476 -0.2738 -0.6442
28494SOL    HW188437  10.351   6.622   0.284  1.2166  1.6163  0.0900
28494SOL    HW288438  10.348   6.680   0.144  0.6606  0.4834 -0.3806
28495SOL     OW88439   7.401   0.020   8.904 -0.0463  0.0525 -0.5345
28495SOL    HW188440   7.312  -0.009   8.927  0.0392 -0.2530 -0.5857
28495SOL    HW288441   7.452   0.003   8.983 -0.1725  0.8513 -0.2739
28496SOL     OW88442   9.610   2.157   3.482  0.4826 -0.1986 -0.3414
28496SOL    HW188443   9.568   2.118   3.406  3.7297 -2.8653 -0.9717
28496SOL    HW288444   9.598   2.093   3.552 -1.7199  1.8364  1.3212
28497SOL     OW88445   3.833   3.742   3.501  0.0993 -0.5538 -0.2643
28497SOL    HW188446   3.775   3.780   3.436 -0.6143  0.6932  1.0415
28497SOL    HW288447   3.917   3.786   3.487 -0.3010  0.3982  0.2186
28498SOL     OW88448   5.740   6.214   3.933  0.0854 -0.0093  0.2001
28498SOL    HW188449   5.820   6.262   3.909 -1.3784  2.8007  0.4723
28498SOL    HW288450   5.743   6.208   4.029 -0.0461  0.1943  0.2193
28499SOL     OW88451   6.286   6.770   2.350  0.0836 -0.0290 -0.2363
28499SOL    HW188452   6.301   6.682   2.386 -1.4366  0.0569  0.7214
28499SOL    HW288453   6.300   6.829   2.425 -1.3485  0.3181 -0.2207
28500SOL     OW88454   3.716   3.532   7.806  0.0886 -0.0275 -0.1006
28500SOL    HW188455   3.787   3.477   7.839 -0.0376 -0.3764 -0.4023
28500SOL    HW288456   3.754   3.576   7.730 -0.3100 -0.9912 -0.8873
28501SOL     OW88457   3.945   5.854   6.876  0.2511 -0.0374  0.4344
28501SOL    HW188458   4.027   5.898   6.898  2.1225 -1.6165 -2.5581
28501SOL    HW288459   3.923   5.803   6.954  2.4699 -0.0061  1.1388
28502SOL     OW88460   1.439   2.343   1.843 -0.0534 -0.2899 -0.4379
28502SOL    HW188461   1.373   2.278   1.865 -0.0531  0.3871  1.8006
28502SOL    HW288462   1.509   2.330   1.908  1.2509  0.1195 -1.6889
28503SOL     OW88463  10.622   7.757  10.614 -0.1522  0.2867 -0.0108
28503SOL    HW188464  10.570   7.756  10.695 -1.8493 -1.4567 -0.9992
28503SOL    HW288465  10.705   7.717  10.638 -0.9416 -0.9780  0.7476
28504SOL     OW88466   6.088   0.054   2.535 -0.3239  0.1239  0.4461
28504SOL    HW188467   6.142   0.108   2.479 -0.2895 -1.7305 -1.4493
28504SOL    HW288468   6.144   0.032   2.610  0.6721  0.2949 -0.2391
28505SOL     OW88469   0.831   5.016   8.140  0.2555 -0.1685  0.1870
28505SOL    HW188470   0.886   5.026   8.063  1.0315 -1.4207  0.5502
28505SOL    HW288471   0.800   5.105   8.159  1.8946  0.5307 -0.2320
28506SOL     OW88472   9.546   6.868   6.826  0.8287 -0.2679  0.8645
28506SOL    HW188473   9.527   6.789   6.877 -1.4842  0.3385  1.0453
28506SOL    HW288474   9.499   6.938   6.871 -0.0209  0.5722 -1.2028
28507SOL     OW88475   4.245   5.442   9.840  0.4010  0.1964  0.7253
28507SOL    HW188476   4.315   5.506   9.838  0.2141  0.5172  2.4934
28507SOL    HW288477   4.266   5.386   9.915  0.2403 -1.4509 -0.4088
28508SOL     OW88478   8.729   9.603   5.572 -0.1137  0.5630  0.1240
28508SOL    HW188479   8.781   9.663   5.626  0.6657  0.6290 -0.6740
28508SOL    HW288480   8.674   9.556   5.635  1.3629  0.0403  1.0848
28509SOL     OW88481   6.432   9.589   3.410 -0.3160  0.1507 -0.5404
28509SOL    HW188482   6.455   9.588   3.317 -0.4043 -0.9428 -0.5656
28509SOL    HW288483   6.504   9.543   3.453 -0.7890 -0.2905 -0.2062
28510SOL     OW88484   0.718   4.043   3.715  0.2730 -0.4236  0.3503
28510SOL    HW188485   0.743   4.118   3.661 -0.6228  0.1669  0.7258
28510SOL    HW288486   0.793   3.984   3.710 -0.0073 -0.6695 -2.0165
28511SOL     OW88487   9.454   7.013   9.114  0.0407  0.1513  0.0534
28511SOL    HW188488   9.492   6.945   9.059 -1.3672  1.0397 -2.1620
28511SOL    HW288489   9.453   7.091   9.058 -4.5326  0.3023  0.0299
28512SOL     OW88490   8.659   4.196   6.298 -0.3695  0.1450  0.5848
28512SOL    HW188491   8.688   4.147   6.375 -0.4218 -0.1823  0.3977
28512SOL    HW288492   8.568   4.219   6.316 -0.3448  0.1795  0.6723
28513SOL     OW88493   9.564   2.771   3.448 -0.5779  0.3382  0.1352
28513SOL    HW188494   9.534   2.691   3.405 -1.1248  1.4554 -1.7092
28513SOL    HW288495   9.655   2.753   3.472 -1.2230 -1.4419  1.4461
28514SOL     OW88496   5.705   8.797   9.374 -0.0585 -0.5748 -0.2101
28514SOL    HW188497   5.720   8.819   9.466 -0.2506  1.6864 -0.6668
28514SOL    HW288498   5.618   8.757   9.372  0.0321 -0.8152  0.6080
28515SOL     OW88499   5.881   8.243   2.623  1.3625 -0.2538 -0.0562
28515SOL    HW188500   5.810   8.303   2.602  2.3652  1.1893  0.5272
28515SOL    HW288501   5.838   8.168   2.664  0.1200  0.2156 -0.4445
28516SOL     OW88502   6.178   9.241   1.468  0.1581  0.1848 -0.1411
28516SOL    HW188503   6.230   9.207   1.540 -1.0822  0.4663  0.9136
28516SOL    HW288504   6.124   9.168   1.440 -0.7449  0.5997  0.5000
28517SOL     OW88505   1.192   7.387   4.312 -0.0042 -0.4200  0.5661
28517SOL    HW188506   1.177   7.435   4.231 -0.2337 -0.8837  0.3303
28517SOL    HW288507   1.114   7.402   4.365 -0.6329 -1.5156 -0.0056
28518SOL     OW88508  10.323   5.748  10.093 -0.2226  0.0500 -0.7042
28518SOL    HW188509  10.257   5.685  10.122  0.7166 -0.1766  1.1232
28518SOL    HW288510  10.379   5.699  10.033  0.5945 -0.9761  0.8239
28519SOL     OW88511   9.735   3.422   0.876 -0.0297 -0.2369  0.3848
28519SOL    HW188512   9.732   3.431   0.781  1.0309  1.5744  0.4733
28519SOL    HW288513   9.821   3.386   0.894  1.2600  2.7010  0.7582
28520SOL     OW88514   9.604   1.053   8.290 -0.0207  0.2155  0.0489
28520SOL    HW188515   9.630   0.964   8.265  0.7981  1.1600 -2.8790
28520SOL    HW288516   9.620   1.057   8.385 -1.6071 -3.1783  0.5980
28521SOL     OW88517   2.631   8.652   3.035  0.4137 -0.5842  0.1462
28521SOL    HW188518   2.686   8.663   3.112  0.7810 -1.7523  0.0726
28521SOL    HW288519   2.543   8.638   3.070  0.3029  0.4179  0.2914
28522SOL     OW88520  10.264  10.359   4.719  0.1625  0.2682 -0.2929
28522SOL    HW188521  10.224  10.436   4.759 -0.3376  0.6921 -1.5655
28522SOL    HW288522  10.269  10.380   4.626 -1.7701 -1.9889 -1.0050
28523SOL     OW88523   4.598   1.837   2.779 -0.4103 -0.0385 -0.1687
28523SOL    HW188524   4.574   1.927   2.755 -1.8782 -0.1138  0.8697
28523SOL    HW288525   4.639   1.801   2.701  0.4660  1.6151 -0.5138
28524SOL     OW88526   3.404   7.065   7.160 -0.0348  0.5868  0.3673
28524SOL    HW188527   3.484   7.118   7.153  3.1043 -3.7079 -0.7203
28524SOL    HW288528   3.422   7.006   7.234 -1.4507 -1.5614 -0.9233
28525SOL     OW88529   7.149   5.632   5.553  0.1896  0.4433  0.0849
28525SOL    HW188530   7.065   5.630   5.600 -0.3421  1.1260 -0.8028
28525SOL    HW288531   7.176   5.540   5.549  0.1133  0.3397  1.4670
28526SOL     OW88532   8.950   7.535   5.831 -0.8918 -0.5697  1.0642
28526SOL    HW188533   8.950   7.456   5.884  0.9414 -1.1115  0.3093
28526SOL    HW288534   9.015   7.592   5.871 -0.2450 -0.5577  0.0289
28527SOL     OW88535  10.222   7.649   6.469  0.5654  0.3754  0.1613
28527SOL    HW188536  10.262   7.564   6.452 -1.1354 -0.0818 -1.9949
28527SOL    HW288537  10.161   7.633   6.542 -1.2096 -0.8494 -1.4724
28528SOL     OW88538   6.638   1.638   8.359 -0.5363 -0.0785  0.0609
28528SOL    HW188539   6.544   1.621   8.358 -0.7291  0.4401  2.2240
28528SOL    HW288540   6.674   1.573   8.420  0.4373  0.0002 -0.4056
28529SOL     OW88541   4.751   8.151   8.404 -0.0206  0.1715 -0.5984
28529SOL    HW188542   4.681   8.174   8.344 -0.1517 -0.4722 -0.6986
28529SOL    HW288543   4.831   8.184   8.362 -0.1956  0.4047 -0.7517
28530SOL     OW88544   0.555   8.799   3.266 -0.5230 -0.5699  0.2940
28530SOL    HW188545   0.611   8.722   3.280 -2.3786 -1.6277  2.7907
28530SOL    HW288546   0.506   8.779   3.186  0.1932 -1.2309  0.0096
28531SOL     OW88547   0.456   3.917   0.175  0.1650  0.1441  0.5202
28531SOL    HW188548   0.474   4.007   0.204  0.3395  0.2509  0.0891
28531SOL    HW288549   0.478   3.863   0.251  0.9332  0.3928  0.4865
28532SOL     OW88550   2.834   2.579   0.748  0.1255  0.0277 -0.1727
28532SOL    HW188551   2.807   2.646   0.685 -1.4062  0.2842  0.7038
28532SOL    HW288552   2.785   2.501   0.723  1.8165 -0.8046 -1.1193
28533SOL     OW88553   9.826   9.604   2.952 -0.1578 -0.0642  0.4361
28533SOL    HW188554   9.731   9.595   2.948 -0.0800 -1.0272  0.5833
28533SOL    HW288555   9.854   9.533   3.009  0.5080  1.2489  1.8180
28534SOL     OW88556   1.894   3.312   3.612  0.4558  0.4167  0.0381
28534SOL    HW188557   1.888   3.351   3.699 -1.2070  0.0602  0.1345
28534SOL    HW288558   1.965   3.248   3.619  0.9024  0.9882  0.8771
28535SOL     OW88559   3.141   5.412   8.906 -0.1213 -0.1652 -0.4443
28535SOL    HW188560   3.095   5.490   8.938  0.2774  0.4850 -1.4158
28535SOL    HW288561   3.166   5.434   8.817 -0.1272 -1.4770 -0.7845
28536SOL     OW88562   8.672   2.849   4.372 -0.2301 -0.2010 -0.3729
28536SOL    HW188563   8.656   2.800   4.453  0.3257  2.1071  1.2445
28536SOL    HW288564   8.594   2.832   4.319 -0.4339 -2.0996  0.4515
28537SOL     OW88565   6.010   8.214   0.211  0.3199  0.2042 -0.3245
28537SOL    HW188566   5.959   8.229   0.131  0.4489 -1.2277 -0.7007
28537SOL    HW288567   6.075   8.284   0.211  1.0417 -0.3928 -2.0916
28538SOL     OW88568   9.675   1.667   2.005 -0.0941 -0.2413 -0.0573
28538SOL    HW188569   9.669   1.576   1.976 -1.5674 -0.5948  1.2427
28538SOL    HW288570   9.698   1.715   1.925  1.2709 -1.7778 -0.6559
28539SOL     OW88571  10.559   2.051   5.092  0.3499 -0.3513 -0.1244
28539SOL    HW188572  10.484   2.051   5.033 -0.0714  0.8355  0.3771
28539SOL    HW288573  10.589   1.960   5.092 -1.5826 -1.0606  0.2753
28540SOL     OW88574   8.564   2.487   8.395  0.4799 -0.1428  0.8160
28540SOL    HW188575   8.568   2.413   8.455  0.5269 -0.7659  0.0665
28540SOL    HW288576   8.625   2.465   8.324  0.0395  0.3237  0.2714
28541SOL     OW88577   3.082   1.107   8.718 -0.0177  0.0650  0.1266
28541SOL    HW188578   3.111   1.115   8.809 -0.8195  1.6819  0.2672
28541SOL    HW288579   2.991   1.077   8.724  0.1571 -0.5439 -0.1764
28542SOL     OW88580   7.813   6.869   8.310  0.3304 -0.8512 -0.4578
28542SOL    HW188581   7.871   6.919   8.367 -0.4208 -0.3776 -0.0916
28542SOL    HW288582   7.822   6.909   8.224 -0.3785  0.0163 -0.1334
28543SOL     OW88583   4.959   2.900   5.016 -0.2578  0.2275  0.7817
28543SOL    HW188584   4.938   2.960   4.944  2.6722 -0.8727 -1.1717
28543SOL    HW288585   4.970   2.957   5.092 -1.2952  1.6949 -0.1157
28544SOL     OW88586   1.935   8.677   9.664  0.0549 -0.7828 -0.1465
28544SOL    HW188587   2.027   8.661   9.689 -0.2534 -2.0903  0.2369
28544SOL    HW288588   1.926   8.772   9.666  1.9576 -0.4675 -2.2621
28545SOL     OW88589   2.194  10.234   1.488 -0.3904 -0.4294 -0.1791
28545SOL    HW188590   2.282  10.196   1.485 -0.3616 -0.4232  0.5685
28545SOL    HW288591   2.198  10.309   1.428 -0.0236 -0.7081 -0.5069
28546SOL     OW88592   3.476   8.224   1.330  0.0758 -0.0398 -0.3088
28546SOL    HW188593   3.396   8.208   1.379 -1.3571 -0.8733 -2.7669
28546SOL    HW288594   3.460   8.307   1.284  0.9438  0.1609 -0.2731
28547SOL     OW88595   0.939   1.190   2.763 -0.6202  0.1241  0.3544
28547SOL    HW188596   0.919   1.224   2.850  0.3369  0.4934  0.4488
28547SOL    HW288597   0.872   1.125   2.746 -0.9266  0.1827  1.2962
28548SOL     OW88598  10.545   0.114   4.006 -0.4853 -0.1730  0.4883
28548SOL    HW188599  10.620   0.057   3.989 -0.3741  0.6439 -2.3578
28548SOL    HW288600  10.570   0.162   4.085  0.3608 -2.4376  1.6884
28549SOL     OW88601   7.603   5.632   7.184 -0.0328 -0.1553 -0.1068
28549SOL    HW188602   7.636   5.548   7.152  0.9794  0.3224 -0.3726
28549SOL    HW288603   7.640   5.639   7.272  1.4251  0.8031 -0.7456
28550SOL     OW88604   2.047   3.123   7.529  0.4582  0.3281 -0.1402
28550SOL    HW188605   2.114   3.120   7.461  1.0474 -0.5540  0.4654
28550SOL    HW288606   2.081   3.069   7.599 -0.4574  0.6633  0.5840
28551SOL     OW88607   2.691   2.018   5.008  0.5247 -0.0463  0.1127
28551SOL    HW188608   2.620   1.993   5.067 -0.2188  0.8301 -0.3832
28551SOL    HW288609   2.730   2.095   5.049  0.9486 -0.2975  0.1871
28552SOL     OW88610   5.519   4.473   3.453  0.1312  0.1250 -0.0726
28552SOL    HW188611   5.522   4.448   3.360  3.7374  0.3567 -0.1471
28552SOL    HW288612   5.529   4.569   3.452  0.3878  0.1056  0.5466
28553SOL     OW88613   3.494   7.015   7.932  0.1833  0.0722  0.3913
28553SOL    HW188614   3.533   7.101   7.921  0.3452 -0.0919 -0.3151
28553SOL    HW288615   3.560   6.965   7.980 -0.3844  0.6729  1.8866
28554SOL     OW88616   0.118   2.078   4.561 -0.3954 -0.1999  0.4873
28554SOL    HW188617   0.107   2.098   4.654  0.0709 -0.1634  0.5381
28554SOL    HW288618   0.209   2.101   4.542 -1.3191  3.0469 -0.7832
28555SOL     OW88619   0.492   0.744   8.673 -0.0440  0.1614 -0.1001
28555SOL    HW188620   0.544   0.734   8.594  3.3953  0.3363  1.9380
28555SOL    HW288621   0.470   0.655   8.699  3.4404 -0.4646  1.3757
28556SOL     OW88622   5.183   4.988   5.934  0.2570  0.1061  0.3537
28556SOL    HW188623   5.249   4.980   6.003  0.5903 -1.0765 -0.0746
28556SOL    HW288624   5.226   5.036   5.864  0.5096 -0.2215  0.2795
28557SOL     OW88625   2.781   0.935   7.359 -0.3491 -0.0951  0.3444
28557SOL    HW188626   2.753   0.846   7.379  0.0761 -0.1182  0.8565
28557SOL    HW288627   2.746   0.952   7.271 -1.2834 -0.4009  0.6488
28558SOL     OW88628   0.374   3.111   5.699  0.4154  0.1189 -0.0287
28558SOL    HW188629   0.315   3.036   5.707 -0.0730  0.5715  0.7264
28558SOL    HW288630   0.454   3.085   5.745  0.7071 -0.3790 -0.7939
28559SOL     OW88631   6.959   7.409   0.657 -0.2950  0.1360  0.1681
28559SOL    HW188632   6.874   7.416   0.613  0.5932  0.1139 -1.6600
28559SOL    HW288633   7.021   7.388   0.586  0.9042 -2.2001  1.7740
28560SOL     OW88634   0.015   0.537   8.215  0.0507  0.0455  0.2158
28560SOL    HW188635  -0.041   0.464   8.188  0.1671 -1.0067  2.5545
28560SOL    HW288636   0.011   0.536   8.310  2.5755  1.1063  0.4199
28561SOL     OW88637   7.237   6.581  10.655  0.5495  0.3435  0.1972
28561SOL    HW188638   7.198   6.551  10.573 -0.4793 -1.6766  1.3541
28561SOL    HW288639   7.278   6.665  10.632  0.5484 -0.2704 -2.4201
28562SOL     OW88640  10.686   7.581   6.358  0.0853  0.4953 -0.2083
28562SOL    HW188641  10.683   7.666   6.314 -1.2688 -0.0622 -1.2837
28562SOL    HW288642  10.608   7.580   6.414  1.6668  1.1057  2.1287
28563SOL     OW88643   4.306  10.309   3.976  0.0166  0.6594 -0.1032
28563SOL    HW188644   4.342  10.226   3.947 -0.0494  1.3127 -2.2420
28563SOL    HW288645   4.212  10.292   3.987  0.3007 -0.0259  1.5118
28564SOL     OW88646   2.807   8.262   5.705  0.1821 -0.0239 -0.5897
28564SOL    HW188647   2.825   8.217   5.788  2.0546  0.8209 -0.5054
28564SOL    HW288648   2.885   8.248   5.652 -0.3336  0.8209 -1.6115
28565SOL     OW88649   7.883   2.813   9.612  0.4487 -0.4359  0.5181
28565SOL    HW188650   7.902   2.834   9.703  1.1598 -0.0741  0.2903
28565SOL    HW288651   7.790   2.835   9.602  0.8610  1.5250  0.6064
28566SOL     OW88652   9.131   4.872   8.967 -0.7773  0.0966  0.1635
28566SOL    HW188653   9.119   4.960   8.931  1.3232  0.7369  0.8971
28566SOL    HW288654   9.121   4.884   9.061  0.5998 -0.2179  0.3609
28567SOL     OW88655   4.254   4.180   8.619 -0.8384  0.3275 -0.4247
28567SOL    HW188656   4.165   4.214   8.628 -0.7827  0.3216  0.1459
28567SOL    HW288657   4.248   4.117   8.547 -0.9714  1.4322 -1.4083
28568SOL     OW88658   5.734  10.528   2.556  0.1221 -0.1882  0.1338
28568SOL    HW188659   5.766  10.617   2.572 -0.6924 -0.4579  4.4657
28568SOL    HW288660   5.640  10.532   2.577  0.0790 -2.0621  0.4740
28569SOL     OW88661   7.402   5.943   4.459 -0.2231 -0.3510 -0.0346
28569SOL    HW188662   7.497   5.939   4.447 -0.1331  1.1775  0.0495
28569SOL    HW288663   7.368   5.888   4.388  0.7120 -1.0598  0.0350
28570SOL     OW88664   1.220  10.203   1.889  0.2642  0.1923 -0.1113
28570SOL    HW188665   1.142  10.175   1.841  0.0815 -2.5803  1.6048
28570SOL    HW288666   1.293  10.159   1.845  0.3631 -0.5085  0.7439
28571SOL     OW88667   4.152   3.171   9.538  0.0212 -0.1153 -0.1955
28571SOL    HW188668   4.181   3.121   9.461 -0.1211 -0.6737  0.1084
28571SOL    HW288669   4.097   3.110   9.587  0.9787 -0.1272  0.9069
28572SOL     OW88670   3.083   5.294   8.509 -0.0217 -0.2092 -0.5520
28572SOL    HW188671   3.127   5.353   8.569 -0.6983  0.4937 -0.7366
28572SOL    HW288672   3.077   5.211   8.557 -1.7497  0.6940  0.9094
28573SOL     OW88673   3.076   5.081   8.690  0.2833  0.3229 -1.0430
28573SOL    HW188674   3.007   5.015   8.691 -1.7426  2.3068 -0.5109
28573SOL    HW288675   3.104   5.088   8.781  0.9007 -0.1971 -1.1920
28574SOL     OW88676   3.565   3.355   0.585 -0.2539  0.1531 -0.5912
28574SOL    HW188677   3.592   3.356   0.494 -1.1997 -0.1286 -0.8893
28574SOL    HW288678   3.477   3.392   0.584 -1.3027 -2.1347 -0.1658
28575SOL     OW88679   4.265  10.505   6.110  0.0489  0.0154  0.7274
28575SOL    HW188680   4.194  10.442   6.104 -1.2465  1.3809  1.1636
28575SOL    HW288681   4.252  10.565   6.037  1.2455 -0.1859  0.3275
28576SOL     OW88682   4.029  10.256   4.027  0.0276 -0.2825  0.0622
28576SOL    HW188683   3.993  10.172   4.057  0.9289 -0.8716 -0.4707
28576SOL    HW288684   3.960  10.293   3.972 -0.4005 -0.6511  0.3450
28577SOL     OW88685   4.638   5.297   0.501  0.3537 -0.2773  0.0798
28577SOL    HW188686   4.551   5.336   0.493  1.0552  1.3116 -0.1620
28577SOL    HW288687   4.662   5.309   0.593  0.9351  0.7150 -0.1866
28578SOL     OW88688   4.585   1.912   0.021  0.3090 -0.1245  0.0448
28578SOL    HW188689   4.556   1.878   0.106 -1.3999  0.4858 -0.2664
28578SOL    HW288690   4.537   1.860  -0.043 -0.7981  1.4602 -0.4725
28579SOL     OW88691  10.603   5.831   1.969 -0.2630  0.5620 -0.1922
28579SOL    HW188692  10.673   5.767   1.968 -0.6609  0.0622  1.2723
28579SOL    HW288693  10.526   5.784   1.937 -0.5777  0.2450  0.9748
28580SOL     OW88694   7.334   3.856   5.192  0.0906  0.0300 -0.4772
28580SOL    HW188695   7.293   3.769   5.193  0.8053 -0.3255  1.5303
28580SOL    HW288696   7.413   3.844   5.139  0.0523 -0.4818 -0.4273
28581SOL     OW88697   4.955   5.647   4.810  0.1740  0.3155  0.3480
28581SOL    HW188698   4.963   5.584   4.738  0.1430  0.4395  0.2356
28581SOL    HW288699   4.944   5.593   4.888  0.5408  0.1717  0.3038
28582SOL     OW88700   1.286   9.896   9.307 -0.3828 -0.4319  0.0711
28582SOL    HW188701   1.296   9.817   9.360 -1.5575 -2.4529 -2.4553
28582SOL    HW288702   1.351   9.887   9.237 -0.7330  0.6931 -0.4323
28583SOL     OW88703   1.080   1.289   4.033  0.4051  0.3385  0.2301
28583SOL    HW188704   1.115   1.229   4.099  1.7851  1.4700  0.5825
28583SOL    HW288705   1.098   1.376   4.069 -0.7749  0.9854 -0.6634
28584SOL     OW88706   5.570   8.133   1.981 -0.1809 -0.4082  0.2593
28584SOL    HW188707   5.505   8.192   1.943  0.6509  0.1101 -0.3866
28584SOL    HW288708   5.557   8.050   1.936 -0.2738 -0.2585  0.0101
28585SOL     OW88709   7.130   0.665   2.721  0.0555 -0.4629  0.4759
28585SOL    HW188710   7.138   0.696   2.811  0.0994  2.9437 -0.5619
28585SOL    HW288711   7.035   0.658   2.707  0.0519 -1.3485  0.8236
28586SOL     OW88712   7.749   4.111   0.857  0.2598  0.2367  0.0971
28586SOL    HW188713   7.660   4.084   0.835  0.0954  1.2385 -0.5438
28586SOL    HW288714   7.758   4.197   0.818  2.6410 -1.1543 -2.8270
28587SOL     OW88715   7.778   7.340   1.988 -0.3286 -0.4521  0.0579
28587SOL    HW188716   7.796   7.316   2.079  0.7653  0.3649  0.0714
28587SOL    HW288717   7.685   7.363   1.988 -1.0366 -3.0018  0.3777
28588SOL     OW88718   7.835   3.877   0.002 -0.4845  0.1877 -0.3135
28588SOL    HW188719   7.801   3.812   0.065 -2.2463  0.6683 -0.7116
28588SOL    HW288720   7.791   3.855  -0.080  0.0499  0.9703 -0.8121
28589SOL     OW88721   0.846   2.333   6.574  0.7211  0.2272 -0.3188
28589SOL    HW188722   0.902   2.269   6.529  0.4932  0.9255 -1.6460
28589SOL    HW288723   0.861   2.316   6.667  2.1192 -0.4830 -0.6387
28590SOL     OW88724   5.377   6.669  10.040 -0.1882  0.6093 -0.0868
28590SOL    HW188725   5.294   6.651   9.996  0.3878 -0.8870 -0.6162
28590SOL    HW288726   5.371   6.761  10.067 -1.4480  0.9174 -1.3332
28591SOL     OW88727   3.016   6.601   5.738  0.0319  0.3136  0.3825
28591SOL    HW188728   2.971   6.596   5.654 -1.5801 -1.3459  1.2720
28591SOL    HW288729   3.065   6.519   5.744 -0.2839  0.1831  1.2858
28592SOL     OW88730   5.370   4.092   9.699  0.6550  0.6455  0.0408
28592SOL    HW188731   5.459   4.087   9.665  0.5614 -0.4063 -0.0856
28592SOL    HW288732   5.334   4.005   9.684 -0.6816  1.3071 -0.6706
28593SOL     OW88733   5.464   2.041   3.302  0.1917  0.0887 -0.2498
28593SOL    HW188734   5.468   1.949   3.326  1.4898  0.0674 -0.4414
28593SOL    HW288735   5.399   2.079   3.360  0.9017 -0.6027  1.0304
28594SOL     OW88736   9.242   1.182   5.729 -0.4640 -0.3436  0.3552
28594SOL    HW188737   9.299   1.125   5.679 -0.4302  0.7643 -0.9085
28594SOL    HW288738   9.182   1.122   5.774 -0.1340 -1.3780 -0.5499
28595SOL     OW88739  10.376   1.683   8.007 -0.3765 -0.6466 -0.0262
28595SOL    HW188740  10.403   1.706   7.918 -0.2507  0.6648  0.3295
28595SOL    HW288741  10.348   1.592   8.001  2.0068 -1.3927 -0.8852
28596SOL     OW88742   5.589   5.976   0.570 -0.4353 -0.3275  0.1042
28596SOL    HW188743   5.673   5.975   0.525  0.6286 -0.0235  1.9582
28596SOL    HW288744   5.549   6.060   0.545  0.4074  0.1110  0.1827
28597SOL     OW88745   7.190   3.385   5.073  0.6901 -0.8807 -0.8985
28597SOL    HW188746   7.099   3.385   5.044 -0.0113 -4.3393  0.8405
28597SOL    HW288747   7.186   3.390   5.169  2.3381 -0.8015 -0.7904
28598SOL     OW88748   9.763   4.710   6.717  0.0653  0.0669  0.1307
28598SOL    HW188749   9.776   4.790   6.768  0.0821 -0.5737  1.1647
28598SOL    HW288750   9.808   4.727   6.634 -0.9158  1.5592 -0.1305
28599SOL     OW88751   1.812   0.154   9.843 -0.0958  0.3024  0.0815
28599SOL    HW188752   1.849   0.175   9.929 -0.0145  0.7010 -0.0493
28599SOL    HW288753   1.756   0.229   9.822  1.5685  1.2776 -1.1814
28600SOL     OW88754   7.394   5.258   1.570 -0.1257  0.4597  0.1324
28600SOL    HW188755   7.305   5.228   1.551 -0.1289  1.1671 -1.0678
28600SOL    HW288756   7.422   5.204   1.644 -0.5263 -1.7228 -1.2256
28601SOL     OW88757   5.665   3.857  10.658 -0.3280 -0.4869  0.3380
28601SOL    HW188758   5.629   3.875  10.745 -0.1646 -1.9253  0.7371
28601SOL    HW288759   5.757   3.880  10.665  0.2321 -2.7191  1.3128
28602SOL     OW88760   1.739  10.232   0.587  0.3824  0.2641 -0.0342
28602SOL    HW188761   1.679  10.260   0.518 -0.7779 -0.7011  0.5518
28602SOL    HW288762   1.710  10.279   0.665 -0.4171 -1.0952  0.5267
28603SOL     OW88763   5.886   7.996  10.541  0.6489  0.2002 -0.2205
28603SOL    HW188764   5.944   7.958  10.607 -0.4499 -0.9547  0.1325
28603SOL    HW288765   5.924   7.970  10.458  2.1940  1.8898 -0.1118
28604SOL     OW88766   2.220   0.907   7.272 -0.0436 -0.0832 -0.4908
28604SOL    HW188767   2.299   0.928   7.322 -0.7645 -0.0595  0.6705
28604SOL    HW288768   2.249   0.844   7.206  0.8775 -0.3294  0.1383
28605SOL     OW88769   6.430   5.182   3.620  0.1184  0.0854 -0.4394
28605SOL    HW188770   6.412   5.276   3.619  1.3766  0.3493 -0.7876
28605SOL    HW288771   6.464   5.164   3.532  0.1450 -0.6358 -0.2853
28606SOL     OW88772   3.094   7.764   6.098  0.2312  0.3754  0.1375
28606SOL    HW188773   3.087   7.754   6.003  2.1039  1.6323 -0.1943
28606SOL    HW288774   3.008   7.796   6.125 -0.4362 -0.3163 -1.0695
28607SOL     OW88775   6.986   4.287   2.228  0.3863  0.0518  0.1186
28607SOL    HW188776   6.995   4.247   2.314  2.6009 -1.7819 -0.8538
28607SOL    HW288777   6.948   4.218   2.173  2.3996 -0.1386 -1.1456
28608SOL     OW88778   3.996   1.457   9.653 -0.2881 -0.4686 -0.0798
28608SOL    HW188779   4.077   1.503   9.630 -0.6295  0.2339  0.1078
28608SOL    HW288780   3.941   1.524   9.694 -1.6515 -0.4995 -1.7453
28609SOL     OW88781   9.976   8.123   9.789 -0.3996 -0.2927  0.5598
28609SOL    HW188782   9.966   8.205   9.838 -1.7892  0.0328 -0.2125
28609SOL    HW288783   9.903   8.068   9.818  0.4348 -1.2346  0.9598
28610SOL     OW88784   5.252   5.531  10.579 -0.0687 -0.2624 -0.1718
28610SOL    HW188785   5.287   5.538  10.490 -1.3154 -2.1089 -0.8851
28610SOL    HW288786   5.216   5.442  10.583 -1.8928  0.4793  1.4975
28611SOL     OW88787   5.256   2.315   6.590 -0.4556  0.6414  0.3813
28611SOL    HW188788   5.324   2.320   6.658  1.4731  0.7867 -1.4487
28611SOL    HW288789   5.226   2.224   6.594  2.1520 -0.3881 -0.7663
28612SOL     OW88790   7.690   0.476   0.284  0.1746  0.3134 -0.0714
28612SOL    HW188791   7.679   0.437   0.371  0.9445 -0.2863 -0.2358
28612SOL    HW288792   7.603   0.471   0.245 -0.4183  1.4921  1.0231
28613SOL     OW88793   4.144   0.069   9.728  0.0928 -0.4776 -0.1209
28613SOL    HW188794   4.102   0.146   9.766 -0.1264  0.1566 -1.5840
28613SOL    HW288795   4.211   0.045   9.792 -1.2185 -0.3601  1.3483
28614SOL     OW88796   3.091   1.327   2.894  0.0103 -0.7767  0.3246
28614SOL    HW188797   3.098   1.419   2.919 -1.1414 -0.3411 -0.8337
28614SOL    HW288798   3.177   1.290   2.912  0.7110  0.7082  0.1195
28615SOL     OW88799   7.540   7.676   2.089 -0.8162 -0.0392 -0.8234
28615SOL    HW188800   7.562   7.611   2.023  0.9401 -0.2515 -0.0849
28615SOL    HW288801   7.621   7.689   2.138 -1.5255  1.6019  0.0053
28616SOL     OW88802   1.580   6.659   2.748 -0.5161 -0.6444 -0.4649
28616SOL    HW188803   1.611   6.747   2.769 -1.5993 -0.4826  0.5964
28616SOL    HW288804   1.506   6.645   2.808 -1.1424 -1.8003 -1.4674
28617SOL     OW88805   5.994   8.101   5.196 -0.1520  0.0287 -0.6285
28617SOL    HW188806   5.976   8.038   5.266  0.9593 -0.0708 -0.4275
28617SOL    HW288807   5.991   8.187   5.240 -0.4117  0.0358 -0.6567
28618SOL     OW88808   9.743   8.969   2.863 -0.2282 -0.0585  0.4412
28618SOL    HW188809   9.799   8.982   2.940 -1.0495  2.0123  0.7650
28618SOL    HW288810   9.760   9.047   2.809 -2.3159  0.3243  0.2688
28619SOL     OW88811   7.017   6.946   6.013 -0.1259 -0.0015  0.8327
28619SOL    HW188812   6.948   6.996   6.055 -0.4123  2.9616 -2.6932
28619SOL    HW288813   6.981   6.922   5.927  2.3658 -0.5036 -0.1665
28620SOL     OW88814   1.587   1.720   4.288 -0.1748  0.0054 -0.0867
28620SOL    HW188815   1.498   1.732   4.324 -0.0959 -0.9790  0.4750
28620SOL    HW288816   1.639   1.789   4.331 -0.4374 -0.1135  0.4385
28621SOL     OW88817   7.740   2.254   0.759  0.2693 -0.0810 -0.5578
28621SOL    HW188818   7.824   2.238   0.802  0.9200 -0.2619 -1.8356
28621SOL    HW288819   7.753   2.336   0.711 -1.2754  1.5133  1.5884
28622SOL     OW88820   8.880   2.894   5.355 -0.0202  0.2598  0.6967
28622SOL    HW188821   8.874   2.800   5.339 -0.5785  0.1553  1.4887
28622SOL    HW288822   8.791   2.926   5.346  0.3692  0.9611 -0.9384
28623SOL     OW88823   0.121   5.297   5.863 -0.1322 -0.2478 -0.1760
28623SOL    HW188824   0.042   5.318   5.812  0.0402 -0.1679 -0.4094
28623SOL    HW288825   0.091   5.231   5.927 -0.6117  0.4842  0.3762
28624SOL     OW88826   5.547   9.661   4.185 -0.1859  0.2227  0.0018
28624SOL    HW188827   5.588   9.683   4.102 -1.4484  0.1068 -0.6796
28624SOL    HW288828   5.585   9.576   4.208  0.0243  0.1541 -0.5710
28625SOL     OW88829   4.114   9.928   8.511 -0.1693  0.2275  0.1036
28625SOL    HW188830   4.076   9.847   8.476 -1.7472  0.3962  1.3410
28625SOL    HW288831   4.045   9.965   8.566  2.0481  0.1229  3.1761
28626SOL     OW88832   9.482   4.276   3.014 -0.3677  0.0725 -0.0752
28626SOL    HW188833   9.553   4.301   2.955  0.1433 -0.2131  0.4090
28626SOL    HW288834   9.473   4.351   3.073 -0.6324  0.2072 -0.2847
28627SOL     OW88835   1.029   1.588  10.452 -0.0459  0.0813 -0.6791
28627SOL    HW188836   1.065   1.510  10.494  0.7944  0.4173 -0.7562
28627SOL    HW288837   0.939   1.564  10.430  0.3707 -1.0554 -1.1949
28628SOL     OW88838   4.919   2.108   4.675  0.4529  0.0756  0.0733
28628SOL    HW188839   4.881   2.072   4.754  1.7546 -1.3585  0.0835
28628SOL    HW288840   4.856   2.174   4.646 -0.6830 -0.3147  1.5474
28629SOL     OW88841   6.169   1.097   8.284 -0.0483  0.2714  0.6007
28629SOL    HW188842   6.238   1.116   8.220 -0.2414  1.1455  0.6278
28629SOL    HW288843   6.090   1.087   8.232 -0.2467  1.1998  0.6949
28630SOL     OW88844   3.947   8.827   5.996 -0.3890 -0.4749  0.0561
28630SOL    HW188845   3.958   8.870   5.911  0.9437  1.6716  1.2158
28630SOL    HW288846   3.973   8.736   5.980 -0.2998 -0.1697 -1.8411
28631SOL     OW88847   2.533   0.896   5.398 -0.2107 -0.2320 -0.6990
28631SOL    HW188848   2.548   0.989   5.416  0.1671 -0.1413 -1.4377
28631SOL    HW288849   2.621   0.859   5.393 -0.2535 -0.1688 -2.6970
28632SOL     OW88850   1.554   2.072   8.987  0.3129  0.4431  0.0071
28632SOL    HW188851   1.494   2.053   8.915 -0.0905  1.3252  0.1014
28632SOL    HW288852   1.588   1.987   9.013  1.2474  0.1772 -1.8969
28633SOL     OW88853   1.547   7.608   1.130  0.1955 -0.5606  0.4388
28633SOL    HW188854   1.468   7.593   1.183 -0.2962 -1.2386 -0.4741
28633SOL    HW288855   1.518   7.666   1.060  0.5943 -0.5285  0.2994
28634SOL     OW88856   5.367   4.723   7.560  0.1759  0.1047 -0.6604
28634SOL    HW188857   5.280   4.726   7.601 -0.2903  0.5969 -1.6422
28634SOL    HW288858   5.424   4.771   7.620 -0.4542  0.6532 -0.4907
28635SOL     OW88859   6.394   8.317   4.392 -0.8645 -0.4215 -0.1434
28635SOL    HW188860   6.453   8.307   4.466 -0.7553 -1.9492 -0.3915
28635SOL    HW288861   6.418   8.246   4.333 -1.1046  0.6327 -1.5500
28636SOL     OW88862   0.015   9.182   4.238  0.1883  0.0334 -0.4060
28636SOL    HW188863   0.093   9.186   4.294 -0.4262  0.3503  0.4440
28636SOL    HW288864  -0.002   9.273   4.215  2.0032 -0.2265 -3.3937
28637SOL     OW88865   0.406   1.984   5.750 -0.5731  0.5866  0.4986
28637SOL    HW188866   0.332   1.979   5.811  0.3324  0.0976  1.5963
28637SOL    HW288867   0.432   1.892   5.737  1.8262  0.8340  2.7019
28638SOL     OW88868   9.788   5.671   2.336  0.2918  0.7849 -0.2731
28638SOL    HW188869   9.853   5.688   2.404 -0.6541 -0.5320  1.0392
28638SOL    HW288870   9.789   5.576   2.325 -0.0380  0.9143 -1.6546
28639SOL     OW88871   9.481   4.549   5.567 -0.8582  0.1715  0.0486
28639SOL    HW188872   9.457   4.639   5.545 -2.0071 -0.2830 -0.6638
28639SOL    HW288873   9.450   4.497   5.492 -0.7105 -0.8797  0.6983
28640SOL     OW88874   4.696   8.777   0.985 -0.4993 -0.3960 -0.4601
28640SOL    HW188875   4.643   8.797   0.908 -0.9317 -0.9663 -0.3174
28640SOL    HW288876   4.682   8.852   1.043 -0.3790 -0.0882 -0.8233
28641SOL     OW88877   6.658   6.329   4.553  0.3979 -0.9721 -0.1475
28641SOL    HW188878   6.687   6.404   4.603  0.5954 -1.0546 -0.1396
28641SOL    HW288879   6.568   6.314   4.582 -0.4852  0.7181 -1.8355
28642SOL     OW88880   2.581  10.565   1.430  0.1097 -0.1218 -0.2847
28642SOL    HW188881   2.547  10.652   1.412  1.3462  0.4392 -0.0441
28642SOL    HW288882   2.571  10.517   1.348 -0.6904  0.2121 -0.3840
28643SOL     OW88883   5.015   4.770   2.570  0.2608  0.4563 -0.7675
28643SOL    HW188884   5.107   4.780   2.546  0.5974  0.7977  0.6141
28643SOL    HW288885   5.016   4.748   2.663 -1.0432  0.1135 -0.8135
28644SOL     OW88886   8.063   1.141   4.547  0.2886 -0.7660 -0.4310
28644SOL    HW188887   7.987   1.085   4.534 -0.7423  0.0099  1.7865
28644SOL    HW288888   8.043   1.220   4.497  0.3853 -1.1588 -1.1135
28645SOL     OW88889   8.976   2.120   4.092  0.1073  0.0126  0.2484
28645SOL    HW188890   9.054   2.143   4.144  0.4788 -1.6854  0.5215
28645SOL    HW288891   8.921   2.071   4.153  0.5692 -2.0696 -0.8946
28646SOL     OW88892   2.244   3.840   6.015  0.3893 -0.9711 -0.3866
28646SOL    HW188893   2.190   3.849   5.937 -0.8961 -1.8966  0.3420
28646SOL    HW288894   2.278   3.928   6.033 -1.5202 -0.1771 -0.4485
28647SOL     OW88895   8.707  10.610   3.195  0.0160  0.3378 -0.0942
28647SOL    HW188896   8.769  10.682   3.184 -0.9090  0.8141 -3.2426
28647SOL    HW288897   8.621  10.652   3.200 -0.2950 -0.4348  1.4152
28648SOL     OW88898   9.749  10.542   1.401 -0.1558 -0.7409 -0.0308
28648SOL    HW188899   9.751  10.632   1.433  0.6508 -0.6006 -0.4410
28648SOL    HW288900   9.796  10.492   1.467  0.1274 -0.7173 -0.2121
28649SOL     OW88901   3.676   5.418   3.915 -0.3182  0.1709 -0.1837
28649SOL    HW188902   3.741   5.469   3.868 -0.0152 -0.0686 -0.0267
28649SOL    HW288903   3.613   5.482   3.946 -1.1205  0.2422 -1.8292
28650SOL     OW88904   6.615   6.513   8.370 -0.2104  0.4752 -0.1481
28650SOL    HW188905   6.685   6.530   8.308  1.7894 -1.2106  1.4934
28650SOL    HW288906   6.638   6.566   8.447 -1.0933  0.3866  0.1889
28651SOL     OW88907   9.538   1.222   8.787 -0.5081 -0.1853 -0.3391
28651SOL    HW188908   9.542   1.216   8.691 -1.4584  0.9272 -0.4729
28651SOL    HW288909   9.460   1.276   8.804 -0.6423 -0.7863  1.0799
28652SOL     OW88910   4.124   0.363   5.589  0.5908 -0.4345  0.3763
28652SOL    HW188911   4.178   0.324   5.658  0.6874  0.1308  0.6265
28652SOL    HW288912   4.182   0.427   5.547  0.7074 -1.1519 -0.5884
28653SOL     OW88913   5.767   0.645   8.591 -0.0508  0.0401  0.9826
28653SOL    HW188914   5.835   0.596   8.545 -0.3159  1.1934 -0.7507
28653SOL    HW288915   5.694   0.649   8.528 -0.3280  1.9137  1.3710
28654SOL     OW88916   2.332   8.076   2.897 -0.4190 -0.4632  0.4211
28654SOL    HW188917   2.391   8.004   2.878  0.5258  0.6809 -1.2135
28654SOL    HW288918   2.383   8.135   2.953 -0.1273  0.3278 -0.6540
28655SOL     OW88919   0.947   8.766   9.088 -0.5199 -0.2434  0.2574
28655SOL    HW188920   1.022   8.753   9.030 -1.2910 -0.5035 -0.7051
28655SOL    HW288921   0.930   8.679   9.124  0.1071 -0.0376  1.0877
28656SOL     OW88922   8.039   9.079   9.853 -0.0604 -0.1049 -0.5485
28656SOL    HW188923   8.008   9.043   9.770 -0.1580  1.0032 -1.0092
28656SOL    HW288924   8.110   9.139   9.828 -1.0729  1.3756  0.0163
28657SOL     OW88925   7.748   5.390   7.304  0.3309 -0.1366  0.4212
28657SOL    HW188926   7.821   5.452   7.302 -0.3097  0.8029  2.5533
28657SOL    HW288927   7.741   5.366   7.397 -1.5249 -0.8470  0.1284
28658SOL     OW88928   7.924   8.345   6.054 -0.2178 -0.7246  0.3096
28658SOL    HW188929   7.848   8.402   6.050 -0.8387 -1.5865 -1.2138
28658SOL    HW288930   7.959   8.356   6.142  0.2805  2.7141 -0.1904
28659SOL     OW88931   5.051   5.922   8.774  0.1057  0.3885  0.4084
28659SOL    HW188932   5.022   5.985   8.708 -0.8368 -0.7273 -0.2766
28659SOL    HW288933   5.105   5.860   8.726 -1.7468 -1.2628  0.3094
28660SOL     OW88934  10.480   5.002   4.410 -0.2974 -0.5518  0.1031
28660SOL    HW188935  10.554   4.959   4.367  0.8461  0.5357  0.9362
28660SOL    HW288936  10.431   5.042   4.338  1.2045  0.6569 -0.2946
28661SOL     OW88937   0.173   4.609   0.772 -0.4658  0.3114  0.5385
28661SOL    HW188938   0.265   4.598   0.750 -0.2152 -0.0582  1.7208
28661SOL    HW288939   0.128   4.613   0.687  0.7907  1.9718 -0.1029
28662SOL     OW88940   8.902   6.044   6.288  0.4793 -0.0458  0.4494
28662SOL    HW188941   8.918   6.135   6.265  1.7119 -0.2975  0.2465
28662SOL    HW288942   8.816   6.024   6.251 -0.0071  1.1560  0.8982
28663SOL     OW88943   7.578   7.687   9.831 -0.2579 -0.0877  0.1256
28663SOL    HW188944   7.537   7.677   9.917 -1.1366  0.9597 -0.1410
28663SOL    HW288945   7.533   7.762   9.792  0.6241 -0.0982 -0.9648
28664SOL     OW88946   1.227   1.939   1.359  0.3527  0.3007 -0.2148
28664SOL    HW188947   1.268   1.899   1.283 -0.6428  1.2655 -1.2972
28664SOL    HW288948   1.198   2.025   1.329 -2.3096 -0.2539  0.4871
28665SOL     OW88949   0.509   9.852   0.137 -0.2104 -0.8934 -0.1229
28665SOL    HW188950   0.599   9.854   0.106 -0.5641  0.7261 -1.1898
28665SOL    HW288951   0.461   9.809   0.066 -0.4438 -0.7420 -0.0577
28666SOL     OW88952   9.187  10.594   3.546  0.2445  0.3637  0.0586
28666SOL    HW188953   9.106  10.573   3.593  0.6884 -0.7749  0.3388
28666SOL    HW288954   9.206  10.685   3.571 -0.3921  0.3007  0.8076
28667SOL     OW88955   7.375   0.648   4.101 -0.0918  0.1075 -0.4646
28667SOL    HW188956   7.311   0.654   4.172 -0.3146 -0.2538 -0.6339
28667SOL    HW288957   7.329   0.685   4.025  0.8458  2.4460  0.0310
28668SOL     OW88958   4.061   3.734   5.736  0.2145 -0.3331 -0.3097
28668SOL    HW188959   4.044   3.708   5.827 -1.2052 -1.0561 -0.7503
28668SOL    HW288960   4.007   3.675   5.684  1.8756 -0.6823 -1.7107
28669SOL     OW88961   8.010   9.645   9.393  0.3348 -0.4378 -0.2188
28669SOL    HW188962   8.029   9.553   9.377 -1.5384 -0.8517 -0.3438
28669SOL    HW288963   7.937   9.665   9.334  0.2346  0.9273  0.3247
28670SOL     OW88964   8.537   6.863   2.993  0.0840  0.1228 -0.4237
28670SOL    HW188965   8.550   6.957   2.999  1.4031 -0.0385 -0.5260
28670SOL    HW288966   8.625   6.826   2.992 -0.3543 -1.0135 -1.9978
28671SOL     OW88967   1.598   8.770   8.053 -0.1481 -0.6730  0.2448
28671SOL    HW188968   1.573   8.713   7.980 -0.0753  1.4691 -1.5742
28671SOL    HW288969   1.682   8.736   8.082  0.7359 -0.5229 -1.9455
28672SOL     OW88970   1.444  10.559   1.227  0.2876  0.1068 -0.2785
28672SOL    HW188971   1.421  10.477   1.270 -0.3427 -0.3932 -1.5152
28672SOL    HW288972   1.537  10.571   1.246 -0.3466  1.0178  2.9853
28673SOL     OW88973   3.159   3.498   0.585 -0.2203  0.4610 -0.1579
28673SOL    HW188974   3.215   3.553   0.640 -0.8387  1.5388 -0.5865
28673SOL    HW288975   3.125   3.557   0.518 -0.7016 -0.5010 -0.7843
28674SOL     OW88976   4.922  10.029   4.957  0.3963  0.0148  0.5043
28674SOL    HW188977   4.850  10.086   4.985 -1.6384 -2.6540  1.1234
28674SOL    HW288978   4.944   9.979   5.035  2.1938 -0.0198  0.0074
28675SOL     OW88979   6.720   5.319   2.873 -0.3885 -0.1164 -0.0856
28675SOL    HW188980   6.699   5.307   2.965  2.2017 -1.0389  0.4623
28675SOL    HW288981   6.803   5.273   2.861  1.2126  2.9722 -2.0397
28676SOL     OW88982   8.404   6.974   4.534 -0.7070  0.0406 -0.0027
28676SOL    HW188983   8.361   6.933   4.609 -1.2115 -0.0959 -0.3571
28676SOL    HW288984   8.478   6.916   4.514 -0.9175 -0.2452  0.0262
28677SOL     OW88985   2.742   9.511   2.058  0.0873 -0.4087 -0.1358
28677SOL    HW188986   2.687   9.474   2.127  1.1868 -0.9443  0.4758
28677SOL    HW288987   2.804   9.442   2.037  0.6370  0.2420 -0.7033
28678SOL     OW88988  10.616   6.873   4.797  0.1760 -0.1524  0.2833
28678SOL    HW188989  10.599   6.781   4.778  1.7527 -0.3822 -0.1598
28678SOL    HW288990  10.585   6.886   4.886 -0.6205 -0.9477  0.1307
28679SOL     OW88991   0.885   9.379   9.437 -0.5964 -0.5930  0.6620
28679SOL    HW188992   0.959   9.410   9.385 -1.0823  0.9386  0.8530
28679SOL    HW288993   0.878   9.285   9.415  1.3201 -0.7460  0.5728
28680SOL     OW88994   4.668  10.014   6.163  0.0363  0.0982  0.3344
28680SOL    HW188995   4.654   9.968   6.246  1.2889 -1.0906 -0.0656
28680SOL    HW288996   4.660   9.946   6.096  2.3806  0.2952 -0.2503
28681SOL     OW88997   2.855   2.519   5.675  0.3678 -0.3601  0.4383
28681SOL    HW188998   2.806   2.437   5.662  0.9062 -0.6950  0.4699
28681SOL    HW288999   2.793   2.588   5.655  0.0911 -0.7970 -0.2292
28682SOL     OW89000   3.307   6.382   8.357  0.1353  0.0754 -0.3489
28682SOL    HW189001   3.289   6.328   8.434  0.9155  0.1867 -0.0807
28682SOL    HW289002   3.225   6.429   8.341  0.5734  1.7470  1.7916
28683SOL     OW89003   3.099  10.345   9.102 -0.0668 -0.0392 -0.0111
28683SOL    HW189004   3.076  10.424   9.150 -0.3022  0.1999 -0.5025
28683SOL    HW289005   3.100  10.373   9.010  0.2445 -0.5127 -0.1542
28684SOL     OW89006   7.083   7.816   4.607 -0.1173  0.6078 -0.5137
28684SOL    HW189007   7.090   7.819   4.702  1.8024  1.0167 -0.6189
28684SOL    HW289008   7.041   7.898   4.583 -0.3497  0.6330 -0.0322
28685SOL     OW89009   6.694   2.267   6.908  0.2362 -0.4879  0.4059
28685SOL    HW189010   6.621   2.231   6.857  1.0299  0.6893 -1.6801
28685SOL    HW289011   6.666   2.355   6.932  0.5427 -0.4184  0.5199
28686SOL     OW89012   9.341   2.457   6.776 -0.5514  0.0470  0.2885
28686SOL    HW189013   9.372   2.467   6.865 -1.3631 -2.4248  0.9348
28686SOL    HW289014   9.414   2.485   6.721  0.1725  1.0484  1.7085
28687SOL     OW89015   3.588   6.718   5.357  0.1879  0.2429  0.6434
28687SOL    HW189016   3.501   6.727   5.317  0.9039 -0.2554 -1.1202
28687SOL    HW289017   3.618   6.808   5.370  0.1870  0.4262 -0.5561
28688SOL     OW89018   8.235   7.704   5.235 -0.4147  0.1256  0.3037
28688SOL    HW189019   8.168   7.661   5.182 -0.2403  0.9708 -0.6449
28688SOL    HW289020   8.194   7.785   5.265 -0.0630  0.2943  0.3374
28689SOL     OW89021   3.099   2.424   5.518  0.6247  0.5025 -0.0051
28689SOL    HW189022   3.040   2.448   5.590  0.2718  0.0098 -0.1188
28689SOL    HW289023   3.095   2.498   5.458 -0.8825 -0.0308 -0.6251
28690SOL     OW89024   1.356   3.553   6.886  0.0850  0.4883 -0.2181
28690SOL    HW189025   1.272   3.590   6.911 -0.1440 -0.4622  0.4632
28690SOL    HW289026   1.344   3.458   6.892  0.4841  0.2436 -2.4943
28691SOL     OW89027   1.809   2.809   3.890  0.2818  0.5687 -0.0284
28691SOL    HW189028   1.851   2.786   3.974 -0.0909  0.5955  0.1645
28691SOL    HW289029   1.815   2.728   3.839 -2.3400 -0.5002  1.1738
28692SOL     OW89030   4.173   7.370   8.126 -0.2289  0.3796  0.2221
28692SOL    HW189031   4.168   7.333   8.038 -2.3971 -0.7077  0.7227
28692SOL    HW289032   4.107   7.440   8.126  1.5946  2.1876  0.2497
28693SOL     OW89033  10.041   5.306   9.084  0.2887  0.0421 -0.0362
28693SOL    HW189034   9.976   5.376   9.078  1.3797  1.1782  0.8820
28693SOL    HW289035  10.106   5.327   9.017  1.2576  0.6335  1.0541
28694SOL     OW89036   8.133   6.414   9.437 -0.4173  0.6026  0.1414
28694SOL    HW189037   8.158   6.498   9.397  0.5446  0.0768 -0.3919
28694SOL    HW289038   8.061   6.382   9.382  0.5267  0.1513 -0.8640
28695SOL     OW89039   6.915   1.588   4.146  0.4764 -0.2666  0.3392
28695SOL    HW189040   6.883   1.570   4.058 -1.1161  0.1426  0.8026
28695SOL    HW289041   6.918   1.683   4.151 -1.1411 -0.2219  1.2595
28696SOL     OW89042   2.084   7.581   0.630 -0.4897  0.0918 -0.1370
28696SOL    HW189043   2.142   7.654   0.610 -3.1509  2.3323 -0.3107
28696SOL    HW289044   2.069   7.537   0.546  0.2235  0.0538 -0.2442
28697SOL     OW89045   2.693   7.722   2.977 -0.2307  0.4557  0.4944
28697SOL    HW189046   2.708   7.673   3.058 -2.7926  1.4453  1.6865
28697SOL    HW289047   2.629   7.669   2.930  1.6383 -0.3929 -1.2438
28698SOL     OW89048   3.442   5.780   6.104 -0.1217 -0.5029 -0.7172
28698SOL    HW189049   3.370   5.730   6.065  0.0870 -2.0324  0.7304
28698SOL    HW289050   3.457   5.852   6.043 -1.9703 -0.9170 -1.7331
28699SOL     OW89051   9.820   8.525   3.351 -0.0674  0.0078 -0.1116
28699SOL    HW189052   9.909   8.536   3.318  0.2504 -0.0478  0.7130
28699SOL    HW289053   9.800   8.432   3.336  0.3181 -0.1650  0.4464
28700SOL     OW89054   1.827   0.942   9.043  0.6083  0.0555  0.3551
28700SOL    HW189055   1.808   0.965   9.134  0.1108  0.8043  0.0722
28700SOL    HW289056   1.742   0.941   9.000  0.8329 -0.3655 -0.0906
28701SOL     OW89057  10.621   8.242   3.718  0.1561 -0.2683  0.0920
28701SOL    HW189058  10.690   8.293   3.761 -0.7073  1.5411 -0.5626
28701SOL    HW289059  10.663   8.158   3.697  2.2309  0.8183 -0.4312
28702SOL     OW89060   8.631   8.701   5.194  0.9549 -0.3302  0.4198
28702SOL    HW189061   8.608   8.658   5.277 -0.6281 -2.7515 -1.1554
28702SOL    HW289062   8.717   8.667   5.173  0.8786 -0.5998  0.5309
28703SOL     OW89063   0.331   5.583   9.772 -0.4378 -0.2988  0.3629
28703SOL    HW189064   0.275   5.656   9.747 -1.1697 -0.8852  0.2405
28703SOL    HW289065   0.300   5.510   9.719  1.1261 -0.3971 -0.4704
28704SOL     OW89066   6.862   6.846   1.759  0.0708  0.3780 -0.0601
28704SOL    HW189067   6.944   6.859   1.806 -1.0078  0.6560  1.8448
28704SOL    HW289068   6.794   6.852   1.827 -1.5948  1.0646 -1.7078
28705SOL     OW89069   4.943   7.059   6.233  0.0273 -0.4962 -0.2743
28705SOL    HW189070   4.903   7.043   6.318  0.3357 -1.6599 -0.3318
28705SOL    HW289071   4.882   7.022   6.169 -0.0924  0.1620 -0.5515
28706SOL     OW89072   4.298   7.328   4.844 -0.2186 -0.2439  0.4092
28706SOL    HW189073   4.358   7.305   4.773 -0.9908 -1.9567  0.2711
28706SOL    HW289074   4.211   7.321   4.805 -0.5982  0.4600  1.0926
28707SOL     OW89075   8.104  10.080   9.795 -0.1026  0.1639 -0.3281
28707SOL    HW189076   8.025  10.052   9.749 -0.5787 -1.1000  1.1662
28707SOL    HW289077   8.086  10.171   9.820  0.6989  1.3683 -3.6315
28708SOL     OW89078   3.881   8.243   5.518 -0.2176  0.1004 -0.1226
28708SOL    HW189079   3.845   8.198   5.594 -0.6973  0.1058 -0.3434
28708SOL    HW289080   3.879   8.178   5.448 -0.2558  0.2466 -0.2590
28709SOL     OW89081   9.680   7.957   4.439  0.4185 -0.5723  0.0642
28709SOL    HW189082   9.760   7.993   4.399  0.8670 -1.8196 -0.2249
28709SOL    HW289083   9.620   7.946   4.366 -0.1818  0.7256  0.3396
28710SOL     OW89084   0.048   9.441  10.073  0.0671 -0.2253  0.5369
28710SOL    HW189085   0.020   9.425   9.983  0.7379 -0.6784  0.4101
28710SOL    HW289086   0.070   9.534  10.075  0.7672 -0.3737  0.0341
28711SOL     OW89087   3.792   7.452   8.951  0.0868  0.3730 -0.6780
28711SOL    HW189088   3.774   7.546   8.960  0.9017  0.5178 -0.5417
28711SOL    HW289089   3.886   7.447   8.935  0.1224 -0.4464 -0.2409
28712SOL     OW89090   9.531   7.147   7.288 -0.0850 -0.8385 -0.3219
28712SOL    HW189091   9.471   7.208   7.246  0.2655 -2.3089 -3.1834
28712SOL    HW289092   9.615   7.193   7.290 -0.7053  0.3645  1.6628
28713SOL     OW89093   7.764   9.816   6.202  0.0616  0.0919 -0.5376
28713SOL    HW189094   7.793   9.906   6.215  0.2783 -0.1575  0.8710
28713SOL    HW289095   7.833   9.762   6.240 -0.2083 -0.6656 -1.0852
28714SOL     OW89096   5.111   6.054   9.631  0.7795  0.0799  0.1661
28714SOL    HW189097   5.125   6.148   9.641  0.7505 -0.0455  1.6042
28714SOL    HW289098   5.087   6.024   9.718 -0.9001 -0.9910 -0.6229
28715SOL     OW89099   8.732   9.275   4.378  0.2309  0.2434 -0.2219
28715SOL    HW189100   8.826   9.286   4.366  0.8749 -0.2506  3.1651
28715SOL    HW289101   8.699   9.365   4.391 -0.1912  0.6044 -3.1932
28716SOL     OW89102   5.429   5.698   8.683  0.8656  0.4933  0.0655
28716SOL    HW189103   5.378   5.757   8.628  1.0215  1.5884  1.0545
28716SOL    HW289104   5.513   5.742   8.696  0.9163  0.1684  0.9787
28717SOL     OW89105  10.193   6.871   2.857 -0.2107 -0.3047  0.2049
28717SOL    HW189106  10.219   6.961   2.878 -2.0423  0.3463 -0.0960
28717SOL    HW289107  10.158   6.877   2.767 -0.5911 -1.2507  0.2822
28718SOL     OW89108   1.714   4.397   2.868 -0.2064 -0.2222  0.2920
28718SOL    HW189109   1.739   4.335   2.936  0.0829 -0.8443 -0.3773
28718SOL    HW289110   1.783   4.464   2.869 -0.1499 -0.2855  0.5341
28719SOL     OW89111   1.446   3.623   7.248  0.1930 -0.6670  0.4436
28719SOL    HW189112   1.535   3.607   7.215  0.6670 -0.1532  1.4306
28719SOL    HW289113   1.451   3.710   7.288 -0.7151 -0.7129  0.6686
28720SOL     OW89114   2.615   0.146   5.839  0.4585  0.3506 -0.2391
28720SOL    HW189115   2.606   0.131   5.933  1.6196 -0.5725 -0.2419
28720SOL    HW289116   2.533   0.114   5.801  1.1221 -2.0829  0.2065
28721SOL     OW89117   1.918   7.705   8.401 -0.5156 -0.1424  0.3256
28721SOL    HW189118   1.947   7.793   8.425  0.9927 -0.8677  1.4152
28721SOL    HW289119   1.949   7.693   8.312  0.4063  0.0091  0.6092
28722SOL     OW89120   2.052   3.744   0.096  1.0677 -0.4149  0.0872
28722SOL    HW189121   2.138   3.783   0.116 -0.0909  1.6020  1.5049
28722SOL    HW289122   2.012   3.729   0.182 -0.6514  0.2504 -0.5593
28723SOL     OW89123   4.580   6.659   0.173  0.4615  0.1434  0.1365
28723SOL    HW189124   4.505   6.711   0.145  0.8932  1.7028  1.6340
28723SOL    HW289125   4.556   6.569   0.154 -1.0958  0.7384 -0.9141
28724SOL     OW89126   9.965   6.545   6.610 -0.1869 -0.6094  0.9287
28724SOL    HW189127   9.885   6.586   6.642  0.9325  1.7333  0.8805
28724SOL    HW289128  10.022   6.618   6.586  1.1684 -2.2193 -1.0967
28725SOL     OW89129   2.918   8.646   8.362 -0.5700 -0.0753 -0.0265
28725SOL    HW189130   2.953   8.704   8.431 -0.7379 -0.3801  0.3196
28725SOL    HW289131   2.865   8.703   8.307 -2.8181 -0.3223  1.7528
28726SOL     OW89132   6.742   9.632   6.642 -0.1083 -0.5737  0.5730
28726SOL    HW189133   6.833   9.656   6.625 -0.8111  3.0954  1.0854
28726SOL    HW289134   6.730   9.649   6.736 -1.8271  1.5059  0.0851
28727SOL     OW89135   6.040   0.514   2.664 -0.2801 -0.2409 -0.3458
28727SOL    HW189136   6.091   0.531   2.585 -0.8424  0.2861 -0.6081
28727SOL    HW289137   6.077   0.434   2.700  0.7361  0.1368 -0.5189
28728SOL     OW89138   7.322   4.683   1.048  0.2341  0.3254  0.1105
28728SOL    HW189139   7.294   4.614   0.988 -0.5671 -0.2525  1.1304
28728SOL    HW289140   7.381   4.639   1.109 -1.2729  0.2089  1.5568
28729SOL     OW89141   7.472   2.835   0.538 -0.5660 -0.4238 -0.2192
28729SOL    HW189142   7.382   2.810   0.559 -0.1616 -1.2482  0.6307
28729SOL    HW289143   7.496   2.897   0.607 -1.0484  1.1893 -1.4457
28730SOL     OW89144   8.181   4.179   7.878 -0.5040  0.0075  0.1281
28730SOL    HW189145   8.271   4.200   7.904  0.0543 -1.1041 -0.8106
28730SOL    HW289146   8.162   4.096   7.923 -0.0972 -1.1005 -1.6452
28731SOL     OW89147   0.241   9.813   7.978 -0.2900 -1.0362 -0.2130
28731SOL    HW189148   0.218   9.722   7.997 -1.3454 -0.5548  0.9760
28731SOL    HW289149   0.208   9.862   8.053  0.0257  0.3736 -0.9604
28732SOL     OW89150   6.825   7.495   0.248 -0.4305 -0.2785 -0.1051
28732SOL    HW189151   6.777   7.577   0.233  0.0972 -0.1800 -1.3692
28732SOL    HW289152   6.905   7.504   0.197  0.2795 -1.0432  0.8246
28733SOL     OW89153  10.004   0.564   1.802  0.5944  0.1673 -0.4307
28733SOL    HW189154   9.988   0.558   1.708  0.2618  2.3444 -0.5797
28733SOL    HW289155   9.926   0.607   1.837  1.1535  0.3352  0.6672
28734SOL     OW89156   5.206   7.802   4.706 -0.2124 -0.1521  0.2666
28734SOL    HW189157   5.283   7.756   4.738 -1.0822 -4.0744 -2.5781
28734SOL    HW289158   5.235   7.846   4.626 -0.4532  0.2644  0.4036
28735SOL     OW89159  10.250   9.653   2.676 -0.5322  0.1236  0.4466
28735SOL    HW189160  10.281   9.607   2.754 -1.3802 -1.3482 -0.0401
28735SOL    HW289161  10.154   9.650   2.682 -0.6132  0.0123 -0.6084
28736SOL     OW89162   0.530   5.910   6.261  0.3728  0.5989  0.3442
28736SOL    HW189163   0.519   5.960   6.342  0.1184 -1.0178  1.3475
28736SOL    HW289164   0.441   5.885   6.236  0.5646 -0.1340  0.3801
28737SOL     OW89165   9.208   2.666   4.197 -0.1381 -0.3526 -0.1836
28737SOL    HW189166   9.238   2.756   4.206  0.6357 -0.6726  0.6457
28737SOL    HW289167   9.119   2.673   4.163  0.1699  0.6963 -0.8074
28738SOL     OW89168   3.871   7.176   5.524 -0.1750 -0.4277  0.0225
28738SOL    HW189169   3.948   7.140   5.568 -0.2977 -1.4263 -0.5603
28738SOL    HW289170   3.863   7.265   5.559  0.3430 -0.8359  1.2314
28739SOL     OW89171   7.702   6.912   8.732  0.5059  0.0171 -0.3652
28739SOL    HW189172   7.774   6.947   8.679  1.0096  0.6524  0.7190
28739SOL    HW289173   7.625   6.919   8.674  1.0466  0.6702 -1.0246
28740SOL     OW89174   4.628   4.875   1.753  0.9010 -0.4032 -0.4917
28740SOL    HW189175   4.664   4.952   1.798  2.6324 -0.8981 -0.9796
28740SOL    HW289176   4.637   4.895   1.660  0.2157 -0.7023 -0.6330
28741SOL     OW89177   1.809   8.534   5.469  0.0224  0.3562  0.3136
28741SOL    HW189178   1.802   8.553   5.375  2.8181 -0.6599 -0.1901
28741SOL    HW289179   1.832   8.619   5.508  0.5611  0.4475 -0.1843
28742SOL     OW89180   3.443   5.716   7.312  0.1589  0.5631 -0.0445
28742SOL    HW189181   3.350   5.735   7.305 -0.2908 -1.6206 -0.7430
28742SOL    HW289182   3.486   5.789   7.266 -1.3486  0.4047 -1.8162
28743SOL     OW89183   7.732   5.381   2.669  0.3171  0.1668 -0.0751
28743SOL    HW189184   7.693   5.466   2.649 -1.2521 -0.7554 -1.1486
28743SOL    HW289185   7.822   5.388   2.636 -0.4484  0.7020 -2.2402
28744SOL     OW89186   7.056   5.019   0.454  0.0478 -0.7685 -0.4975
28744SOL    HW189187   7.078   4.999   0.363  0.5017 -0.5622 -0.4350
28744SOL    HW289188   7.015   5.105   0.451  2.1460  0.3004 -0.2577
28745SOL     OW89189   7.119   2.342   2.897 -0.1809  0.1889 -0.7327
28745SOL    HW189190   7.162   2.395   2.965 -1.6570  1.6255 -0.8559
28745SOL    HW289191   7.026   2.352   2.914 -0.5572 -0.2618 -2.3655
28746SOL     OW89192   3.556   4.045   5.898  0.1534  0.2103  0.1458
28746SOL    HW189193   3.518   3.978   5.841 -1.4440  1.7203 -0.6882
28746SOL    HW289194   3.629   4.081   5.848  0.5990 -0.4618  0.3154
28747SOL     OW89195   5.146   3.161   8.565 -0.6558  0.2843  0.1513
28747SOL    HW189196   5.076   3.103   8.596 -1.1672  0.4776 -0.6130
28747SOL    HW289197   5.124   3.177   8.473  0.1028  0.7837  0.0540
28748SOL     OW89198   5.312   0.919  10.676  0.3269 -0.2103 -0.5469
28748SOL    HW189199   5.384   0.857  10.662 -0.8529 -1.3024 -2.2103
28748SOL    HW289200   5.263   0.882  10.749  2.4025  1.5676  1.9551
28749SOL     OW89201   2.827   4.202   5.332 -0.2088 -0.0622  0.5308
28749SOL    HW189202   2.846   4.197   5.238  0.6620 -2.1918  0.7647
28749SOL    HW289203   2.909   4.230   5.372 -0.3538  0.0676  0.7431
28750SOL     OW89204   9.694   7.301   5.992  0.4901  0.0956  0.0123
28750SOL    HW189205   9.744   7.269   5.917 -1.3209 -1.8557 -0.4327
28750SOL    HW289206   9.639   7.227   6.018 -1.3428  1.7873  1.1903
28751SOL     OW89207   3.872   3.139   0.686  0.0823 -0.0605 -0.4186
28751SOL    HW189208   3.826   3.100   0.611 -1.0193  1.5211 -0.6328
28751SOL    HW289209   3.816   3.121   0.761  0.3720 -0.2554 -0.2476
28752SOL     OW89210   3.786   5.913   7.352 -0.4406  0.7107 -0.7055
28752SOL    HW189211   3.782   5.818   7.366 -1.9325  0.7907 -0.4340
28752SOL    HW289212   3.700   5.936   7.316 -0.9825  2.2650  1.3431
28753SOL     OW89213   1.183   0.141   9.748 -0.2925 -0.2409  0.0561
28753SOL    HW189214   1.274   0.152   9.775  0.6145  0.3954 -2.8760
28753SOL    HW289215   1.166   0.048   9.758  0.5396 -0.3147  0.9673
28754SOL     OW89216   0.355   2.538   9.860  0.0170  0.1577 -0.8666
28754SOL    HW189217   0.299   2.462   9.870  0.1582 -0.1667 -2.2580
28754SOL    HW289218   0.334   2.594   9.934  0.4788 -1.5673  0.6592
28755SOL     OW89219   0.646   2.839   7.155  0.4367 -0.0079  0.1214
28755SOL    HW189220   0.628   2.746   7.168 -0.9271  0.3612  1.1407
28755SOL    HW289221   0.705   2.862   7.227  0.8569 -0.0918 -0.1904
28756SOL     OW89222   1.424   5.556   8.820  0.4631  0.3241 -0.1880
28756SOL    HW189223   1.350   5.584   8.767 -0.6579 -0.7952  0.7072
28756SOL    HW289224   1.389   5.484   8.873  1.7129  0.9083  1.5219
28757SOL     OW89225   9.477   2.180   0.485 -0.1122 -0.6470 -0.0766
28757SOL    HW189226   9.468   2.098   0.437  1.1155 -0.8552  0.0058
28757SOL    HW289227   9.554   2.221   0.448 -1.6726  1.3381 -1.2998
28758SOL     OW89228   9.756   2.515   9.384  0.1510  0.0763  0.2624
28758SOL    HW189229   9.685   2.529   9.446 -0.1235 -0.5378  0.0982
28758SOL    HW289230   9.835   2.509   9.438  0.1522  1.2671  0.4006
28759SOL     OW89231   5.355   0.497   7.611  0.5540 -0.0277  0.0966
28759SOL    HW189232   5.283   0.510   7.550  1.0684 -0.4425 -0.6089
28759SOL    HW289233   5.432   0.530   7.566  0.6852  1.2565  1.2077
28760SOL     OW89234   5.549   9.259   0.745  0.4213  0.0779 -0.3688
28760SOL    HW189235   5.558   9.165   0.729 -0.7039 -0.3031  1.0517
28760SOL    HW289236   5.572   9.270   0.838  0.0555  1.1299 -0.3886
28761SOL     OW89237   5.811   6.112   4.492 -0.8354 -0.0902  0.0900
28761SOL    HW189238   5.899   6.109   4.454 -0.8949  1.6690 -0.2806
28761SOL    HW289239   5.812   6.188   4.550 -2.0163 -0.2424  0.3473
28762SOL     OW89240   4.008   8.157   4.115  0.8162  0.1996 -0.0952
28762SOL    HW189241   3.997   8.175   4.209  2.6059 -0.6490  0.3128
28762SOL    HW289242   3.949   8.084   4.097  0.1733  0.6228  0.2773
28763SOL     OW89243   0.176   3.156   2.145 -0.4087 -0.4230 -0.0882
28763SOL    HW189244   0.169   3.075   2.095 -1.0090 -1.1838  1.1672
28763SOL    HW289245   0.217   3.130   2.227  0.3583  0.7495 -0.0730
28764SOL     OW89246   2.769   3.563   6.519 -0.5580  0.5605 -0.2903
28764SOL    HW189247   2.863   3.582   6.514  0.1194 -2.6012 -2.8469
28764SOL    HW289248   2.755   3.535   6.609  2.2421 -3.7991 -0.9353
28765SOL     OW89249   4.043   7.841   2.515  0.1669  0.5708  0.4618
28765SOL    HW189250   4.026   7.763   2.462 -0.3874  1.1710 -0.2786
28765SOL    HW289251   4.111   7.888   2.467  0.0852  0.8275  0.5950
28766SOL     OW89252   7.886   8.447   2.498  0.0937 -0.3078  0.4354
28766SOL    HW189253   7.808   8.490   2.534  0.4590 -1.4024  2.7334
28766SOL    HW289254   7.956   8.470   2.558  1.3215 -0.3323 -0.9254
28767SOL     OW89255   0.401  10.067   3.345 -0.3095 -0.1591 -0.0194
28767SOL    HW189256   0.307  10.083   3.342 -0.0319  1.8131 -0.0454
28767SOL    HW289257   0.432  10.123   3.416  1.1474  1.2934 -1.6890
28768SOL     OW89258   6.125   2.531   9.549 -0.2706  0.2188  0.3023
28768SOL    HW189259   6.149   2.568   9.464  0.6498  0.7763  0.7782
28768SOL    HW289260   6.154   2.440   9.544 -1.6311 -0.1882 -0.5197
28769SOL     OW89261   5.937   1.971  10.009  0.4277 -0.1079 -0.1620
28769SOL    HW189262   5.985   1.986  10.091  1.6513 -1.0252 -0.6650
28769SOL    HW289263   5.929   2.057   9.969  0.9346  0.1789  0.3434
28770SOL     OW89264  10.070   2.842   4.496 -0.0260 -0.8576  0.3296
28770SOL    HW189265  10.015   2.850   4.418 -1.0938  1.4968  1.2229
28770SOL    HW289266  10.151   2.888   4.473 -1.1046  1.6423  1.1480
28771SOL     OW89267  10.668   0.805   3.452  0.0676 -0.3464 -0.1006
28771SOL    HW189268  10.617   0.725   3.464  0.6478 -0.6045  0.7428
28771SOL    HW289269  10.734   0.802   3.521 -0.5274  1.3580  0.6132
28772SOL     OW89270   9.836   3.909   8.339  0.1072 -0.0288  0.0337
28772SOL    HW189271   9.779   3.877   8.409  1.2658 -1.1392  0.4982
28772SOL    HW289272   9.779   3.909   8.261 -1.8683  3.3554  1.2814
28773SOL     OW89273   0.090  10.144   5.669 -0.1900  0.0298  0.1445
28773SOL    HW189274   0.045  10.226   5.647 -1.1727 -0.0690  1.6430
28773SOL    HW289275   0.169  10.172   5.716 -1.1621  0.1340  1.7833
28774SOL     OW89276   7.963   0.011   7.132 -0.2462  0.5067 -0.0123
28774SOL    HW189277   7.962  -0.018   7.041  1.1869 -1.1632  0.4343
28774SOL    HW289278   7.912  -0.055   7.179  0.9302  0.0561  0.6805
28775SOL     OW89279   7.679   0.116   4.282  0.0933  0.3051 -0.1427
28775SOL    HW189280   7.719   0.196   4.249  1.5023 -0.9211 -1.5726
28775SOL    HW289281   7.753   0.056   4.295 -1.1012 -1.5401 -1.3664
28776SOL     OW89282   9.716   5.386  10.486 -0.3372 -0.3888  0.4704
28776SOL    HW189283   9.794   5.333  10.471  0.0561  0.4037 -0.3613
28776SOL    HW289284   9.729   5.424  10.573  0.6890  0.5377 -0.0710
28777SOL     OW89285   6.627   3.463   8.817  0.2375  0.0930 -0.1786
28777SOL    HW189286   6.687   3.520   8.769  1.5561 -0.4313  0.7710
28777SOL    HW289287   6.633   3.494   8.908  0.1282 -0.8366  0.1570
28778SOL     OW89288   3.092   2.507   8.265 -0.1451 -0.3690  0.5151
28778SOL    HW189289   3.178   2.545   8.281 -0.4990  1.0831 -0.8108
28778SOL    HW289290   3.059   2.553   8.188 -2.2353 -0.6763  1.1604
28779SOL     OW89291   3.526   7.724   7.507 -0.3366 -0.0831  0.8290
28779SOL    HW189292   3.583   7.649   7.523  0.9358  1.0302  1.7387
28779SOL    HW289293   3.559   7.762   7.425 -0.8474 -0.3753  0.4806
28780SOL     OW89294   1.419   1.220   3.551  0.4283  0.3085  0.4244
28780SOL    HW189295   1.388   1.139   3.591 -0.2183 -1.6244 -3.4763
28780SOL    HW289296   1.339   1.266   3.526  0.7417  0.2268 -0.7819
28781SOL     OW89297   6.477   6.779   2.135 -0.2513 -0.0512  0.3837
28781SOL    HW189298   6.448   6.868   2.114  0.5294  0.0938 -0.1502
28781SOL    HW289299   6.410   6.744   2.193 -0.5132  0.9292  0.6894
28782SOL     OW89300   4.545   5.304   1.065  0.0367 -0.0966 -0.2070
28782SOL    HW189301   4.491   5.365   1.014  0.0584 -0.1203 -0.2586
28782SOL    HW289302   4.629   5.348   1.073  0.2299 -0.3560 -0.7200
28783SOL     OW89303   3.761   1.329   0.466 -0.1280  0.6887  0.2614
28783SOL    HW189304   3.696   1.397   0.486  0.1532  0.7333  1.1007
28783SOL    HW289305   3.816   1.326   0.545  0.4272  0.1324 -0.1413
28784SOL     OW89306   5.226   0.941   0.421 -0.1618  0.0169  0.3821
28784SOL    HW189307   5.222   0.882   0.497  0.2968 -0.3679  0.1166
28784SOL    HW289308   5.282   1.013   0.450  0.7331 -0.5584  0.1410
28785SOL     OW89309   0.463   4.968   8.545  0.0438  0.6036 -0.4792
28785SOL    HW189310   0.505   5.051   8.565 -0.3092  0.3386  1.5959
28785SOL    HW289311   0.531   4.915   8.504  1.2247  0.8088  1.1416
28786SOL     OW89312   1.528   8.651   1.839  0.0182 -0.1451 -0.3538
28786SOL    HW189313   1.468   8.611   1.901 -1.2911 -0.7769 -1.9377
28786SOL    HW289314   1.605   8.674   1.891 -0.7414 -1.2376  1.3467
28787SOL     OW89315   1.958   7.637   9.760 -0.5477  0.0409  0.0859
28787SOL    HW189316   1.910   7.669   9.836  1.6297 -0.3398  1.7154
28787SOL    HW289317   2.021   7.707   9.740 -0.1276 -0.4811 -0.4623
28788SOL     OW89318   3.762   3.088   6.762  0.3199 -0.4455 -0.2158
28788SOL    HW189319   3.694   3.053   6.703 -0.2256  0.2273 -0.0075
28788SOL    HW289320   3.742   3.181   6.768  2.3069  0.1274 -1.5258
28789SOL     OW89321   6.286   1.708   2.410 -0.4866  0.4641  0.1847
28789SOL    HW189322   6.297   1.803   2.405  0.4263  0.2861 -2.4359
28789SOL    HW289323   6.373   1.673   2.390 -1.1100 -0.9410 -0.1547
28790SOL     OW89324   2.084   1.479   0.906  0.3826 -0.0309  0.2028
28790SOL    HW189325   2.045   1.566   0.895 -0.2196 -0.3751 -0.4819
28790SOL    HW289326   2.058   1.431   0.827 -0.1957 -1.1618  1.0470
28791SOL     OW89327   9.612   8.726   6.095  0.0569 -0.1216 -0.0025
28791SOL    HW189328   9.598   8.632   6.089  3.1191 -0.7580  1.1461
28791SOL    HW289329   9.629   8.754   6.005  0.1874 -0.8595 -0.2112
28792SOL     OW89330   0.721   1.518   5.957  0.2933 -0.6828  0.3901
28792SOL    HW189331   0.749   1.446   6.013 -0.9991 -0.4480  1.3880
28792SOL    HW289332   0.658   1.566   6.010 -1.4772 -0.8204 -1.4706
28793SOL     OW89333   0.353   6.236   5.224  0.0887 -0.0499 -0.5884
28793SOL    HW189334   0.423   6.245   5.159 -0.7956 -0.3317 -1.6034
28793SOL    HW289335   0.306   6.156   5.198 -0.9288  0.4140 -0.2388
28794SOL     OW89336   9.033   5.812   0.811 -0.0418  0.0726  0.0280
28794SOL    HW189337   9.066   5.785   0.896  1.7583  2.3262  0.1292
28794SOL    HW289338   8.939   5.823   0.824  0.0365 -0.6988  1.4018
28795SOL     OW89339   9.047   3.188   2.020 -0.1314 -0.1772 -0.0080
28795SOL    HW189340   8.964   3.160   1.982  0.5476 -2.1631 -0.1329
28795SOL    HW289341   9.022   3.238   2.098 -1.4631 -1.9303  0.7540
28796SOL     OW89342   4.701   9.265   4.201  0.0714  0.3400  0.9372
28796SOL    HW189343   4.738   9.346   4.237 -0.8000  1.4852 -0.6427
28796SOL    HW289344   4.640   9.235   4.269 -0.5187  1.6914  1.0440
28797SOL     OW89345   5.813   6.866   7.320 -0.1949 -0.1425  0.3044
28797SOL    HW189346   5.773   6.912   7.394  0.4374 -0.4106  0.8235
28797SOL    HW289347   5.905   6.857   7.345 -0.0826 -0.6806 -0.2952
28798SOL     OW89348   9.647   0.183   1.031  0.3337  0.0812 -0.5576
28798SOL    HW189349   9.582   0.137   1.084  0.2528  0.4706 -0.3143
28798SOL    HW289350   9.700   0.113   0.993 -0.6193 -0.2794 -1.2792
28799SOL     OW89351   8.561   7.212   0.452  0.1060 -0.0342 -0.3902
28799SOL    HW189352   8.483   7.250   0.413 -0.6840 -0.7134  0.4689
28799SOL    HW289353   8.594   7.149   0.387  1.4935  2.0970 -1.8757
28800SOL     OW89354   4.102   0.080   9.186 -0.4251  0.5094  0.0837
28800SOL    HW189355   4.139   0.029   9.113 -1.5300 -0.8463  0.4222
28800SOL    HW289356   4.178   0.102   9.240  0.4303  1.6049 -1.4681
28801SOL     OW89357   9.744   8.810   5.398 -0.0228  0.3744  0.2127
28801SOL    HW189358   9.833   8.816   5.433  0.6861 -1.4748 -1.0665
28801SOL    HW289359   9.705   8.736   5.445 -0.7825  0.9876  0.5539
28802SOL     OW89360   4.931   8.662   7.554 -0.3550 -0.1404 -0.6962
28802SOL    HW189361   4.917   8.749   7.592 -1.1218 -0.2077 -0.8012
28802SOL    HW289362   5.010   8.630   7.597 -1.7452 -0.6439  1.6913
28803SOL     OW89363   1.872   1.767   3.016 -0.2337 -0.1397 -0.3527
28803SOL    HW189364   1.795   1.725   3.056 -0.1623  1.2018  1.2955
28803SOL    HW289365   1.899   1.832   3.080  2.9440 -1.2661 -0.3885
28804SOL     OW89366   2.139   8.546   4.783 -0.5289  0.3781  0.0235
28804SOL    HW189367   2.147   8.456   4.817 -0.3147  0.5539  0.4556
28804SOL    HW289368   2.050   8.572   4.805  0.0565  1.0134  1.8081
28805SOL     OW89369   2.244   5.486   8.413 -0.4003  0.1773 -0.0634
28805SOL    HW189370   2.164   5.457   8.368  0.8590 -1.3828 -1.4335
28805SOL    HW289371   2.266   5.569   8.372  1.4879 -1.8181 -3.6475
28806SOL     OW89372   4.283  10.508   9.486  0.0255  0.0037  0.0377
28806SOL    HW189373   4.284  10.522   9.580 -2.1027 -2.7188  0.6022
28806SOL    HW289374   4.364  10.548   9.454  1.3371  0.0874  3.1539
28807SOL     OW89375  10.303   0.386   5.110  0.3222 -0.6363  0.1262
28807SOL    HW189376  10.394   0.414   5.106 -0.4753  2.0779 -2.0155
28807SOL    HW289377  10.267   0.432   5.186  0.2572  0.1026 -0.3375
28808SOL     OW89378   8.934   3.832   6.138 -0.2398 -0.0861  0.2433
28808SOL    HW189379   8.930   3.927   6.133  1.5444 -0.0362 -1.0926
28808SOL    HW289380   8.936   3.803   6.047 -4.1995 -1.6821  0.4590
28809SOL     OW89381   3.767   8.951   1.054 -0.0513 -0.2401 -0.3601
28809SOL    HW189382   3.805   8.937   1.141  1.1096  0.1861 -0.7808
28809SOL    HW289383   3.842   8.971   0.998 -0.7548 -0.7360 -1.5134
28810SOL     OW89384   4.422  10.399  10.195  0.1328 -0.2976 -0.0796
28810SOL    HW189385   4.379  10.386  10.111  0.3970 -2.6367  0.0667
28810SOL    HW289386   4.393  10.485  10.224  0.0220  0.5686 -2.5253
28811SOL     OW89387   4.664   6.493   1.191 -0.0411 -0.6916  0.7083
28811SOL    HW189388   4.728   6.446   1.243 -1.5270 -0.9915  2.3628
28811SOL    HW289389   4.611   6.425   1.150  0.1126 -0.4450  0.0775
28812SOL     OW89390   4.852   2.650   3.782 -0.1474  0.1912  0.4394
28812SOL    HW189391   4.935   2.604   3.800 -0.9683 -0.8556  1.7593
28812SOL    HW289392   4.810   2.656   3.868 -2.0861 -0.5659 -0.4178
28813SOL     OW89393   6.247   0.239   9.935 -0.9725  0.1176  0.3597
28813SOL    HW189394   6.293   0.277  10.010  1.8282 -0.4260 -0.9540
28813SOL    HW289395   6.205   0.314   9.892 -0.7971  0.7471  1.2453
28814SOL     OW89396   4.904   3.480   7.686  0.3751 -0.1287 -0.1047
28814SOL    HW189397   4.881   3.387   7.695 -0.3548 -0.2480 -2.5281
28814SOL    HW289398   4.839   3.515   7.625  0.6238  2.0103  0.7642
28815SOL     OW89399   3.941   1.188   2.274  0.6302 -0.4745  0.4729
28815SOL    HW189400   3.905   1.181   2.186  0.6147 -0.7168  0.4979
28815SOL    HW289401   3.878   1.143   2.330 -0.1406  0.9810  0.8281
28816SOL     OW89402   0.295   5.735   6.561  0.2073  0.0882 -0.3630
28816SOL    HW189403   0.371   5.688   6.527 -0.7341 -1.1038 -0.9329
28816SOL    HW289404   0.330   5.795   6.626  1.4505 -1.7401  0.7481
28817SOL     OW89405   5.081   6.257   1.120  0.0190  0.8753  1.0492
28817SOL    HW189406   4.990   6.259   1.147 -0.3122  0.3680  0.0139
28817SOL    HW289407   5.129   6.298   1.192 -1.0108  1.0599  1.6360
28818SOL     OW89408  10.238   9.045   0.582 -0.1926 -0.2303 -0.0554
28818SOL    HW189409  10.267   9.136   0.574  2.4818 -0.9210  0.5453
28818SOL    HW289410  10.244   9.010   0.494  3.0838 -0.8575  0.2684
28819SOL     OW89411   5.517   5.839   2.976  0.4263 -0.3163  0.2721
28819SOL    HW189412   5.513   5.777   2.903 -0.6744 -2.4169  1.9760
28819SOL    HW289413   5.591   5.895   2.956  0.5146 -1.1685 -2.1602
28820SOL     OW89414   9.479   6.267   9.874  0.0390 -0.8112 -0.2731
28820SOL    HW189415   9.572   6.286   9.888 -0.2961  0.0240  1.0142
28820SOL    HW289416   9.461   6.190   9.928  0.0708 -1.2323 -0.8552
28821SOL     OW89417   7.300   9.643   3.904  0.4010  0.0754  0.3796
28821SOL    HW189418   7.390   9.658   3.877  0.5055 -0.1118  0.6230
28821SOL    HW289419   7.296   9.549   3.922  0.3740  0.2243  1.1738
28822SOL     OW89420   2.200   0.522   6.549  0.2185  0.6600 -0.9362
28822SOL    HW189421   2.203   0.446   6.491 -1.2613  0.9064 -1.3818
28822SOL    HW289422   2.107   0.545   6.553  0.5555  1.9771 -0.1926
28823SOL     OW89423   2.959   5.441   8.026  0.3221  0.4227 -0.0036
28823SOL    HW189424   2.865   5.452   8.009  0.4333  1.7877  0.1579
28823SOL    HW289425   2.981   5.357   7.986 -0.7502  0.5754 -0.9745
28824SOL     OW89426   8.830   9.740   0.541  0.4540 -0.2850  0.1685
28824SOL    HW189427   8.791   9.658   0.571  0.3774  0.5397  2.4895
28824SOL    HW289428   8.922   9.733   0.565  0.5623  0.0788 -0.1371
28825SOL     OW89429   8.395   1.559   0.062  0.1038 -0.1070 -0.2866
28825SOL    HW189430   8.319   1.583   0.009 -0.3681  0.3406  0.5666
28825SOL    HW289431   8.432   1.643   0.090 -0.5906 -0.3110  1.3784
28826SOL     OW89432   6.843   3.746   7.599 -0.7240  0.3900 -0.0542
28826SOL    HW189433   6.804   3.662   7.572 -0.4529  0.3185 -0.2195
28826SOL    HW289434   6.848   3.797   7.519 -0.5531  0.4331 -0.0156
28827SOL     OW89435   0.461   6.287   5.507 -0.3639  0.0510  0.1282
28827SOL    HW189436   0.368   6.285   5.485 -0.1815  0.8172 -0.7961
28827SOL    HW289437   0.468   6.350   5.578 -0.4388  0.7541 -0.4753
28828SOL     OW89438   6.684   6.508   1.758 -0.0307  0.2421  0.7233
28828SOL    HW189439   6.730   6.431   1.727 -0.3244  0.0377  0.7838
28828SOL    HW289440   6.703   6.576   1.693 -0.3538 -0.0819  0.2804
28829SOL     OW89441   4.843   5.547   7.242  0.4220  0.3726 -0.2400
28829SOL    HW189442   4.937   5.552   7.263  0.4480  4.8992 -0.4179
28829SOL    HW289443   4.837   5.572   7.150 -0.9217 -1.1939 -0.6165
28830SOL     OW89444   0.608   1.487   0.363 -0.1306 -0.0410 -0.0533
28830SOL    HW189445   0.526   1.484   0.413  0.4007  2.4816  1.0846
28830SOL    HW289446   0.579   1.487   0.271 -1.2270 -2.1457  0.2206
28831SOL     OW89447   3.686  10.684   2.131 -0.7978  0.0167  0.2368
28831SOL    HW189448   3.696  10.774   2.161  0.9013 -0.2473  0.5673
28831SOL    HW289449   3.642  10.691   2.046  2.2682  1.4901 -1.4085
28832SOL     OW89450   4.500   0.144   2.414  0.2117 -0.3244 -0.0308
28832SOL    HW189451   4.550   0.223   2.391 -0.3694 -0.1429 -0.7067
28832SOL    HW289452   4.438   0.173   2.481  0.1642 -0.2619 -0.1019
28833SOL     OW89453   4.932   8.641   4.366  0.1862  0.0384 -0.9240
28833SOL    HW189454   4.978   8.560   4.389  1.0618  0.6449 -0.5176
28833SOL    HW289455   4.840   8.614   4.360  0.2787 -0.7350  0.5183
28834SOL     OW89456   3.246   8.791   9.092 -0.0657 -0.0577  0.5407
28834SOL    HW189457   3.247   8.758   9.182 -3.6361  1.9549  1.5151
28834SOL    HW289458   3.308   8.864   9.093  1.3019 -1.1713  0.7762
28835SOL     OW89459   6.659   2.004   5.219  0.3321 -0.5003  0.4333
28835SOL    HW189460   6.702   2.015   5.134  0.3200 -0.3529  0.4455
28835SOL    HW289461   6.576   2.051   5.209  1.5980  2.1701  1.5072
28836SOL     OW89462   3.098   1.537   3.720 -0.1173  0.2006 -0.1195
28836SOL    HW189463   3.074   1.467   3.781  2.0664  0.7328  1.4628
28836SOL    HW289464   3.193   1.531   3.712 -0.1597  1.2250 -2.2127
28837SOL     OW89465   7.832   7.906   0.807  0.1361 -0.2589 -0.0665
28837SOL    HW189466   7.859   7.820   0.775 -0.1831 -0.6538  0.7012
28837SOL    HW289467   7.789   7.888   0.891  2.3229  0.8690  1.3909
28838SOL     OW89468   5.928   4.186   0.718 -0.4635  0.3614 -0.5327
28838SOL    HW189469   5.864   4.169   0.787  0.6206  0.5822  0.5528
28838SOL    HW289470   5.918   4.279   0.698 -1.1431  0.1799 -1.0577
28839SOL     OW89471   9.944   7.522   8.461  0.3216 -0.1878 -0.1351
28839SOL    HW189472   9.886   7.519   8.537  2.1415  0.6348  1.3579
28839SOL    HW289473   9.923   7.605   8.418  1.1821  0.6808  1.0822
28840SOL     OW89474   0.006   9.351   4.935 -0.3320  0.1102  0.1724
28840SOL    HW189475   0.100   9.366   4.927 -0.5868  1.0574 -1.4163
28840SOL    HW289476  -0.003   9.255   4.934  0.4818  0.0031 -2.1420
28841SOL     OW89477   0.660   9.717   6.893 -0.4330  0.4450  0.2589
28841SOL    HW189478   0.699   9.804   6.894 -0.2362  0.3871 -0.9853
28841SOL    HW289479   0.731   9.659   6.866 -0.7804  0.0088  0.2660
28842SOL     OW89480   4.010  10.474   9.494 -0.0196 -0.3987  0.1349
28842SOL    HW189481   4.101  10.470   9.463 -0.8462 -0.4129 -2.5912
28842SOL    HW289482   3.979  10.561   9.467 -0.3923  0.2659  2.5088
28843SOL     OW89483   1.944  10.470   1.601  0.3209  0.8104  0.3114
28843SOL    HW189484   1.973  10.560   1.583  0.1144  0.4115 -2.5818
28843SOL    HW289485   2.024  10.424   1.629  1.5588  0.8978 -2.7098
28844SOL     OW89486   1.826   3.129   6.346 -0.2382  0.0180 -0.2564
28844SOL    HW189487   1.841   3.034   6.339 -0.5875  0.0850 -3.5956
28844SOL    HW289488   1.892   3.168   6.289 -1.6357  1.5705 -0.8912
28845SOL     OW89489   8.072   0.663   3.999 -0.0238  0.4751 -0.5265
28845SOL    HW189490   7.977   0.663   4.013 -0.0289 -0.3254 -0.5677
28845SOL    HW289491   8.090   0.579   3.958  0.6353  0.8543 -1.0342
28846SOL     OW89492   5.334   8.265   9.181  0.5524 -0.1152  0.0584
28846SOL    HW189493   5.346   8.234   9.270  0.6102  0.7159  0.3539
28846SOL    HW289494   5.348   8.188   9.126 -0.4568 -0.8685  0.8065
28847SOL     OW89495   6.374   5.251   5.886 -0.4022 -0.3236 -0.3031
28847SOL    HW189496   6.396   5.240   5.793  1.4206  1.6416 -0.1813
28847SOL    HW289497   6.315   5.327   5.888  1.6608  1.3499  0.2939
28848SOL     OW89498   3.534  10.330   0.709 -0.1555  0.7540 -0.3418
28848SOL    HW189499   3.595  10.403   0.719 -0.2367  0.8635 -0.6346
28848SOL    HW289500   3.556  10.271   0.781  2.1696 -0.5738 -2.0137
28849SOL     OW89501   9.747   6.576   7.678  0.0478 -0.6316 -0.0490
28849SOL    HW189502   9.671   6.551   7.626  0.1103 -0.2604 -0.3250
28849SOL    HW289503   9.821   6.568   7.618  0.1483 -0.4109  0.0421
28850SOL     OW89504   9.148   2.429   6.551 -0.6643  0.1002  0.4631
28850SOL    HW189505   9.226   2.456   6.599  0.4014 -0.0429 -1.0938
28850SOL    HW289506   9.181   2.366   6.486 -1.5732  1.9907 -1.9981
28851SOL     OW89507   1.967   9.949   5.513 -0.4831 -0.0106 -0.2813
28851SOL    HW189508   2.037   9.978   5.454 -0.0238 -0.9449 -0.2170
28851SOL    HW289509   1.892  10.004   5.490  0.1702  0.7911 -0.5702
28852SOL     OW89510   6.566   3.531   9.703 -0.6286  0.0889 -0.3268
28852SOL    HW189511   6.644   3.579   9.675 -0.8109 -0.2515 -1.4507
28852SOL    HW289512   6.594   3.440   9.711 -0.1685  0.3786  2.2516
28853SOL     OW89513   1.511   0.916   2.010  0.0126 -0.1476 -0.3638
28853SOL    HW189514   1.556   0.832   2.002  0.4602  0.2521 -2.5062
28853SOL    HW289515   1.523   0.940   2.102  1.0632 -1.7523 -0.0289
28854SOL     OW89516   7.666   1.396   3.857  0.0130  0.2618 -0.1655
28854SOL    HW189517   7.630   1.323   3.908 -0.0660  0.1838 -0.3316
28854SOL    HW289518   7.594   1.423   3.800 -0.1306  0.8281  0.2824
28855SOL     OW89519   1.380   0.847   7.505 -0.2871 -0.5608  0.0544
28855SOL    HW189520   1.322   0.911   7.546  1.6162  0.4082  1.3427
28855SOL    HW289521   1.393   0.880   7.416  0.2447  0.5638  0.5367
28856SOL     OW89522  10.004   7.682   4.977 -0.0017 -0.0278 -0.1004
28856SOL    HW189523  10.003   7.587   4.961 -0.8422  0.0842 -0.8535
28856SOL    HW289524   9.960   7.718   4.900 -0.7397  0.8873  0.7381
28857SOL     OW89525   4.016   1.623   8.820 -0.1424 -0.0989 -0.2968
28857SOL    HW189526   4.015   1.628   8.724 -0.1050 -1.2017 -0.3683
28857SOL    HW289527   3.926   1.641   8.845 -0.0367  0.7390 -0.5031
28858SOL     OW89528   7.972   2.404   8.580  0.5363 -0.1952 -0.4829
28858SOL    HW189529   8.039   2.377   8.642  0.7871  1.0859 -0.1680
28858SOL    HW289530   7.995   2.358   8.499  0.5879 -1.3618  0.1612
28859SOL     OW89531   4.138   0.252   5.958 -0.5046  0.7567 -0.0582
28859SOL    HW189532   4.221   0.270   5.914 -0.7422  1.1572 -0.3473
28859SOL    HW289533   4.161   0.242   6.051 -0.1251  0.8054 -0.1477
28860SOL     OW89534   7.573   9.296   7.481  0.2281 -0.3719 -0.0686
28860SOL    HW189535   7.549   9.387   7.461 -1.4263 -0.7668 -0.0195
28860SOL    HW289536   7.530   9.244   7.413  0.4638 -1.1838  0.3896
28861SOL     OW89537   7.355   7.931   4.622 -0.0059 -0.1877 -0.1331
28861SOL    HW189538   7.442   7.916   4.585  0.0561 -1.1039  0.3709
28861SOL    HW289539   7.303   7.963   4.548  0.3915 -1.0038 -0.7729
28862SOL     OW89540   4.295   8.735   2.045  0.0976  0.3046  0.5743
28862SOL    HW189541   4.329   8.686   2.120  1.9351 -0.0033 -0.4052
28862SOL    HW289542   4.218   8.686   2.017 -1.1438  0.8777  2.7100
28863SOL     OW89543  10.179   3.757   8.587  0.0308  0.4266 -0.2813
28863SOL    HW189544  10.148   3.753   8.497 -1.2208  0.3717  0.1312
28863SOL    HW289545  10.181   3.666   8.616  1.9350  0.2959 -0.7164
28864SOL     OW89546   5.695   6.323   4.625 -0.3571  0.0454  0.6408
28864SOL    HW189547   5.661   6.317   4.714 -1.8909 -0.5772  0.0539
28864SOL    HW289548   5.653   6.400   4.588 -0.3444 -0.1449  0.2207
28865SOL     OW89549   0.730   7.657   6.804  0.0716 -0.0531  0.3100
28865SOL    HW189550   0.639   7.684   6.820 -0.1321 -0.6919  0.2451
28865SOL    HW289551   0.724   7.563   6.787  0.4635  0.2623 -1.8717
28866SOL     OW89552   9.629   8.972   6.437 -0.0139 -0.4847  0.0103
28866SOL    HW189553   9.712   9.009   6.466 -0.5023 -0.1601  1.0355
28866SOL    HW289554   9.620   9.001   6.347  1.3305 -1.1356 -0.3520
28867SOL     OW89555   7.191   6.366   2.362 -0.3191  0.0136 -0.0003
28867SOL    HW189556   7.258   6.298   2.351  1.3482  1.4431  0.7655
28867SOL    HW289557   7.149   6.372   2.276  1.6560  0.1560 -1.0305
28868SOL     OW89558   8.051   7.780   4.795  0.2116 -0.2247 -0.1935
28868SOL    HW189559   8.133   7.732   4.782  0.1032 -0.7057  0.7949
28868SOL    HW289560   8.009   7.779   4.710  1.3642  0.2779 -0.7910
28869SOL     OW89561   9.764   0.253   6.770  0.8643 -0.1269 -0.3891
28869SOL    HW189562   9.754   0.168   6.813  0.6826  0.0515 -0.0752
28869SOL    HW289563   9.760   0.233   6.676 -0.2554 -0.3466 -0.3132
28870SOL     OW89564   8.302   2.819   8.626 -0.2271  0.4550  0.1797
28870SOL    HW189565   8.233   2.850   8.568  2.0735  0.5039 -2.8217
28870SOL    HW289566   8.322   2.730   8.595  1.5128  0.7117  0.4343
28871SOL     OW89567   3.907   8.611   5.318 -0.2194  0.0271 -0.1453
28871SOL    HW189568   3.941   8.587   5.232 -1.9997  1.0820 -1.2273
28871SOL    HW289569   3.842   8.544   5.338 -1.2792  0.8738 -0.6277
28872SOL     OW89570   3.102   5.200   2.061  0.2868 -0.4904  0.2745
28872SOL    HW189571   3.159   5.277   2.059  0.0327 -0.2199  1.7389
28872SOL    HW289572   3.093   5.180   2.155 -1.3642 -1.0141  0.0323
28873SOL     OW89573   4.495   8.825   9.889 -0.1440  0.0437 -0.7185
28873SOL    HW189574   4.437   8.794   9.959 -0.9448  0.4871 -1.1735
28873SOL    HW289575   4.577   8.777   9.903  0.1220  0.9292  1.2120
28874SOL     OW89576   3.090   6.795   4.149 -0.3195 -0.4996  0.2141
28874SOL    HW189577   3.180   6.785   4.180  0.3263 -0.5992 -1.5779
28874SOL    HW289578   3.051   6.708   4.160 -0.6374 -0.1690  2.1496
28875SOL     OW89579   7.468   3.715   8.848 -0.1078  0.0402 -0.2655
28875SOL    HW189580   7.422   3.774   8.907  0.2449  0.7605 -0.6973
28875SOL    HW289581   7.400   3.679   8.792 -0.3250  0.0388 -0.0043
28876SOL     OW89582   5.122   9.645   3.810 -0.8039 -0.2460 -0.3386
28876SOL    HW189583   5.168   9.688   3.882  2.3499 -1.3446 -1.5297
28876SOL    HW289584   5.122   9.710   3.740  0.2694 -0.7346 -0.8042
28877SOL     OW89585   3.672   2.872   6.584 -0.8340  0.3437  0.5122
28877SOL    HW189586   3.639   2.789   6.618 -2.4930  0.4414 -0.7600
28877SOL    HW289587   3.616   2.892   6.509  0.2327  2.0679  0.1127
28878SOL     OW89588   9.755   9.416   9.602  0.1503 -0.7738 -0.5584
28878SOL    HW189589   9.664   9.438   9.617  0.9338  2.3678  0.3807
28878SOL    HW289590   9.769   9.434   9.509  0.2463  0.7140 -0.2721
28879SOL     OW89591   6.011   0.485   1.795 -0.2587  0.2694 -0.2006
28879SOL    HW189592   5.942   0.512   1.855  0.2746  0.6583  0.2426
28879SOL    HW289593   5.967   0.427   1.733 -0.7075 -0.5692  0.8742
28880SOL     OW89594   8.013   4.068   4.601 -0.3588 -0.3108  0.2210
28880SOL    HW189595   7.977   4.152   4.571 -1.5412 -0.8716 -0.0027
28880SOL    HW289596   8.053   4.087   4.685  1.0406  0.8508 -0.6575
28881SOL     OW89597   6.365   8.817   2.866  0.0332 -0.3076 -0.0546
28881SOL    HW189598   6.456   8.833   2.839  0.5263  0.4652  1.8861
28881SOL    HW289599   6.345   8.730   2.832  1.7031 -0.7338 -0.0735
28882SOL     OW89600   7.614   8.446   3.366  0.4549  0.2350  0.3957
28882SOL    HW189601   7.519   8.441   3.368 -0.2733  6.2539 -0.6124
28882SOL    HW289602   7.640   8.459   3.457  0.2735 -0.8063  0.6034
28883SOL     OW89603   2.269   4.654  10.635  0.5737 -0.9146  0.1001
28883SOL    HW189604   2.291   4.698  10.718  1.7235 -0.5739 -0.3723
28883SOL    HW289605   2.331   4.690  10.572  0.1474 -1.6765 -0.7676
28884SOL     OW89606   5.678   2.538   5.297  0.0184  0.2895 -0.0048
28884SOL    HW189607   5.746   2.597   5.328 -0.1170  0.5640 -0.2325
28884SOL    HW289608   5.606   2.549   5.360  0.9442 -1.5239  1.4583
28885SOL     OW89609   7.815   9.332   1.269 -0.3782 -0.2376 -0.0457
28885SOL    HW189610   7.898   9.329   1.220 -2.0140  0.8870 -3.2156
28885SOL    HW289611   7.750   9.297   1.207 -2.7787  2.0748  0.9779
28886SOL     OW89612   2.084   5.722   5.537 -0.4205  0.2300  0.4011
28886SOL    HW189613   2.069   5.628   5.546 -0.1296  0.2126  0.7451
28886SOL    HW289614   2.145   5.743   5.608  0.2584  0.5024 -0.2398
28887SOL     OW89615   9.009   5.754   7.506 -0.0811  0.3864  0.1493
28887SOL    HW189616   9.016   5.795   7.592 -1.7480 -0.7391  0.8475
28887SOL    HW289617   8.961   5.818   7.453 -0.3813  0.4453  0.4893
28888SOL     OW89618   4.505  10.201   2.017  0.0719 -0.4970 -0.0316
28888SOL    HW189619   4.428  10.167   1.972 -0.0183  0.8559 -0.9394
28888SOL    HW289620   4.555  10.246   1.949  0.9547 -0.1478  0.8281
28889SOL     OW89621   9.696   5.701   5.568 -0.2567 -0.0332  0.1444
28889SOL    HW189622   9.665   5.629   5.623  0.6039 -0.2350  0.3817
28889SOL    HW289623   9.676   5.780   5.620 -1.6157 -0.0439 -0.3163
28890SOL     OW89624   8.928   2.828   9.620 -0.1282  0.2361 -0.0269
28890SOL    HW189625   8.834   2.845   9.616 -0.2207  0.7368  2.3463
28890SOL    HW289626   8.935   2.736   9.647  0.1221 -0.1759 -1.4213
28891SOL     OW89627   8.986   8.089   5.452 -0.2515  0.2533  0.0435
28891SOL    HW189628   8.953   8.106   5.540 -0.1466  1.6665 -0.1609
28891SOL    HW289629   9.054   8.024   5.463 -2.1178 -1.7263  0.6511
28892SOL     OW89630   7.097   1.013   6.729 -0.5784 -0.2068 -0.5544
28892SOL    HW189631   7.124   0.990   6.640  0.5705 -0.3728 -0.1769
28892SOL    HW289632   7.004   1.033   6.721 -0.5026 -0.2576 -1.7854
28893SOL     OW89633   4.244   9.365   8.842  0.3511 -0.0939 -0.4155
28893SOL    HW189634   4.291   9.368   8.759  0.8127 -0.7048 -0.1771
28893SOL    HW289635   4.179   9.296   8.830 -0.8837  1.0972 -0.9350
28894SOL     OW89636   5.761   0.362   1.505 -0.2133  0.3420 -0.2834
28894SOL    HW189637   5.696   0.292   1.516  0.5999 -0.5809 -1.1390
28894SOL    HW289638   5.842   0.316   1.483  0.5250  1.5226 -0.1095
28895SOL     OW89639   6.802   4.144   4.962  0.9198 -0.4569  0.0085
28895SOL    HW189640   6.754   4.183   4.890  0.4889  1.3302  1.2034
28895SOL    HW289641   6.864   4.212   4.990  1.3040 -1.2149  1.0949
28896SOL     OW89642   8.994   3.548   3.579  0.7187 -0.0521 -0.4313
28896SOL    HW189643   9.042   3.472   3.613  0.2162  0.2598  1.0494
28896SOL    HW289644   9.042   3.624   3.614  0.7469  0.3185 -1.2407
28897SOL     OW89645   5.703   8.378   9.811 -0.3925  0.3093  0.0625
28897SOL    HW189646   5.774   8.341   9.863  0.8455  1.1181 -1.0007
28897SOL    HW289647   5.701   8.324   9.732 -0.7683  0.4627 -0.0334
28898SOL     OW89648   0.017   5.096   2.312 -0.0736 -0.4872  0.1328
28898SOL    HW189649   0.063   5.170   2.271  1.2149 -0.2456  1.8550
28898SOL    HW289650  -0.070   5.097   2.274  0.8805 -0.0120 -2.1763
28899SOL     OW89651   3.862   6.492   9.521  0.2669 -0.7108  0.5766
28899SOL    HW189652   3.766   6.491   9.521  0.2572 -1.0793  1.8383
28899SOL    HW289653   3.886   6.434   9.449 -0.4239  0.7648 -0.9244
28900SOL     OW89654  10.546   1.633   8.388 -0.2040  0.0033  0.0382
28900SOL    HW189655  10.632   1.659   8.419  0.1329 -1.1093  0.0894
28900SOL    HW289656  10.532   1.684   8.308 -0.4160  1.7364  1.1352
28901SOL     OW89657  10.616   6.064   9.148 -0.2924 -0.3208 -0.2056
28901SOL    HW189658  10.692   6.084   9.093 -0.0240 -0.3120  0.1708
28901SOL    HW289659  10.601   6.145   9.198 -1.5708  0.2822 -1.4708
28902SOL     OW89660   6.337   6.731   4.006 -0.3494 -0.1108  0.2644
28902SOL    HW189661   6.315   6.790   3.934  0.9626  1.5739  1.1776
28902SOL    HW289662   6.270   6.748   4.073 -1.7812 -1.9306 -0.6170
28903SOL     OW89663   0.841   4.899   4.060  0.4156  0.1268 -0.0459
28903SOL    HW189664   0.859   4.976   4.007 -1.2196  0.2959 -0.3928
28903SOL    HW289665   0.763   4.921   4.110  0.1205 -1.1675  0.1130
28904SOL     OW89666   6.008  10.100   5.523  0.0582  0.4347 -0.1600
28904SOL    HW189667   6.023  10.062   5.437  0.0363 -1.2606  0.5552
28904SOL    HW289668   5.978  10.027   5.577 -1.7881  1.8211  0.8152
28905SOL     OW89669   7.212   8.450   5.019 -0.3899 -0.4274 -0.2067
28905SOL    HW189670   7.175   8.377   4.969  0.6179 -0.2799 -1.2162
28905SOL    HW289671   7.201   8.526   4.962  1.7345 -0.4415 -0.7085
28906SOL     OW89672   8.096   4.642   0.671 -0.4814 -0.3326 -0.3843
28906SOL    HW189673   8.096   4.615   0.762 -2.3167  0.4784 -0.0875
28906SOL    HW289674   8.108   4.737   0.674  0.6898 -0.4421 -1.0746
28907SOL     OW89675   9.782   8.102   7.657 -0.2585 -0.6555 -0.2710
28907SOL    HW189676   9.805   8.180   7.708 -1.8975 -1.7504  2.3894
28907SOL    HW289677   9.864   8.054   7.648 -0.0207 -0.9406  2.4695
28908SOL     OW89678   8.964  10.547   6.588  0.7449  0.2902  0.2891
28908SOL    HW189679   8.892  10.601   6.554  0.8775  0.0280 -0.4443
28908SOL    HW289680   9.008  10.602   6.652 -0.5155  0.2226  1.2643
28909SOL     OW89681   3.642   7.316   3.772  0.1686  0.3621  0.1868
28909SOL    HW189682   3.707   7.286   3.707 -1.4542 -0.8061 -0.9673
28909SOL    HW289683   3.630   7.409   3.751  1.5887  0.6668  0.5634
28910SOL     OW89684   8.359   4.808   5.853 -0.0949 -0.0338 -0.2112
28910SOL    HW189685   8.336   4.771   5.938  0.2171  1.1753  0.4197
28910SOL    HW289686   8.316   4.750   5.789 -1.1527 -0.3900  0.7894
28911SOL     OW89687   9.745   1.308   3.700  0.1312 -0.3999 -0.4044
28911SOL    HW189688   9.829   1.346   3.674 -0.4446  2.4763  1.5315
28911SOL    HW289689   9.681   1.350   3.642 -0.2483 -0.5513 -0.0992
28912SOL     OW89690   6.697   0.562   5.276  0.5211  0.1312 -0.1034
28912SOL    HW189691   6.731   0.480   5.312 -0.0180 -0.8211 -1.6426
28912SOL    HW289692   6.613   0.574   5.321  0.1037 -0.7508 -0.6163
28913SOL     OW89693   9.891   4.949   9.686 -0.4554 -0.0051 -0.0403
28913SOL    HW189694   9.923   4.870   9.641  1.0115 -1.6174  3.4719
28913SOL    HW289695   9.812   4.921   9.731  0.1536  0.4282  1.3603
28914SOL     OW89696   2.813   0.636   4.674 -0.2069  0.0037  0.1163
28914SOL    HW189697   2.894   0.659   4.629 -0.3645  0.1521 -0.0941
28914SOL    HW289698   2.773   0.568   4.620 -2.3875  2.8737 -2.2556
28915SOL     OW89699   6.769   9.358   6.243 -0.0718 -0.0261  0.0729
28915SOL    HW189700   6.778   9.372   6.149 -0.9941 -0.4100 -0.0884
28915SOL    HW289701   6.771   9.263   6.254 -2.0303 -0.1020  0.1726
28916SOL     OW89702   3.839   6.303   8.696  0.1940 -0.0680 -0.2350
28916SOL    HW189703   3.918   6.290   8.748 -0.3545  0.8336  0.8455
28916SOL    HW289704   3.860   6.377   8.640 -0.3045  0.9783  0.9356
28917SOL     OW89705   4.177   4.874   9.940  0.4304  0.2000  0.0130
28917SOL    HW189706   4.149   4.903  10.027  0.6302  1.0003 -0.1777
28917SOL    HW289707   4.269   4.851   9.951  0.2691 -0.4035  0.1664
28918SOL     OW89708   6.548   6.099   4.908 -0.3002 -0.2772  0.0052
28918SOL    HW189709   6.507   6.096   4.821 -0.3762 -1.0389  0.0662
28918SOL    HW289710   6.606   6.023   4.910 -0.7147 -0.5701  0.8335
28919SOL     OW89711   4.499   9.752   4.914 -0.1253  0.0206  0.1013
28919SOL    HW189712   4.459   9.726   4.832  0.5307 -2.2030  0.4194
28919SOL    HW289713   4.428   9.750   4.978 -0.3995  0.6194 -0.1752
28920SOL     OW89714   3.409   6.204   0.404  0.1567 -0.0862 -0.7343
28920SOL    HW189715   3.499   6.216   0.436  1.1202 -1.3502 -2.8138
28920SOL    HW289716   3.373   6.293   0.402 -0.1283  0.1844  3.8545
28921SOL     OW89717   2.517   9.462   8.594 -0.3997 -0.1013  0.0077
28921SOL    HW189718   2.557   9.520   8.659 -0.9902  0.0278  0.2656
28921SOL    HW289719   2.465   9.401   8.647  0.7788 -1.3499 -0.1913
28922SOL     OW89720   0.306   6.554   2.427  0.0922  0.9420 -0.2519
28922SOL    HW189721   0.275   6.534   2.515  2.1989 -1.3762  0.0834
28922SOL    HW289722   0.400   6.568   2.437  0.4786  0.0616 -2.1615
28923SOL     OW89723   9.914   5.576   1.879  0.3905 -0.5388  0.6952
28923SOL    HW189724   9.824   5.546   1.894  0.7852 -1.1761  1.9309
28923SOL    HW289725   9.919   5.659   1.926  0.2794 -0.2035  0.1199
28924SOL     OW89726   7.088   4.557   2.953  0.1710 -0.2270 -0.4228
28924SOL    HW189727   7.160   4.552   2.890  0.6795  1.3684  0.0031
28924SOL    HW289728   7.026   4.618   2.913 -1.0329 -1.6140 -0.8118
28925SOL     OW89729  10.422   3.976   4.847  0.0058 -0.0836 -0.3961
28925SOL    HW189730  10.474   4.009   4.774  1.0475  2.2069  1.2265
28925SOL    HW289731  10.486   3.932   4.904  0.2456  2.2887  1.3530
28926SOL     OW89732   3.022  10.114   6.381  0.3768 -0.1431  0.2345
28926SOL    HW189733   3.082  10.171   6.332 -0.6058  1.0912  0.4114
28926SOL    HW289734   3.063  10.104   6.467  0.5516  0.3263  0.2101
28927SOL     OW89735   9.515   1.813   8.901  0.0013 -0.5823 -0.2504
28927SOL    HW189736   9.591   1.836   8.953 -0.1614  0.2837 -0.3798
28927SOL    HW289737   9.537   1.728   8.863 -0.6065 -2.1220  2.6149
28928SOL     OW89738   8.005   4.884   6.029  0.1871 -0.2493 -0.0623
28928SOL    HW189739   7.919   4.847   6.053  0.7924 -0.7849  1.4377
28928SOL    HW289740   8.066   4.811   6.040  1.0614  0.5403  0.5418
28929SOL     OW89741   3.452   8.962   9.526  0.3675 -0.2766  0.3200
28929SOL    HW189742   3.361   8.969   9.496  0.2426 -0.6675  0.5966
28929SOL    HW289743   3.445   8.960   9.622  0.5216 -2.1808  0.3161
28930SOL     OW89744   1.559   8.824   4.823 -0.0529 -0.3829 -0.2167
28930SOL    HW189745   1.518   8.742   4.794 -0.1911 -0.8444  1.2193
28930SOL    HW289746   1.486   8.878   4.851 -0.1741  1.0729 -2.9775
28931SOL     OW89747   5.957   5.871   1.547 -0.5318 -0.2860  0.0811
28931SOL    HW189748   6.005   5.919   1.615 -2.9183  1.6032  0.5472
28931SOL    HW289749   5.964   5.780   1.574  1.5960  0.0376  0.8524
28932SOL     OW89750   6.708   1.451  10.214 -0.1842  0.0896  0.6030
28932SOL    HW189751   6.676   1.390  10.280  1.7623  1.2215  2.7597
28932SOL    HW289752   6.741   1.525  10.265  1.1644  1.1641 -1.6912
28933SOL     OW89753   4.078   3.353   8.825  0.0794  1.1023  0.0946
28933SOL    HW189754   4.135   3.384   8.754 -1.1869 -0.1277 -1.5483
28933SOL    HW289755   4.097   3.412   8.898  0.9760  2.8617 -1.4532
28934SOL     OW89756   5.653   9.195  10.386 -0.3850 -0.3484  0.0863
28934SOL    HW189757   5.648   9.284  10.352  2.5091 -0.5312 -1.1354
28934SOL    HW289758   5.644   9.139  10.309 -1.6344 -1.1574  0.7706
28935SOL     OW89759   1.827   8.492   0.789  0.5281  0.0039 -0.0465
28935SOL    HW189760   1.856   8.409   0.752  2.4368  0.8689 -0.6546
28935SOL    HW289761   1.874   8.558   0.738 -1.3090  1.4962  0.0828
28936SOL     OW89762   6.174   3.471   4.495  0.6019  0.4502 -0.3582
28936SOL    HW189763   6.189   3.427   4.579  0.7856 -1.4327 -1.3117
28936SOL    HW289764   6.095   3.523   4.509  0.8745  0.5056  1.1050
28937SOL     OW89765   3.733   0.009   3.767  0.3750  0.6515  0.2256
28937SOL    HW189766   3.659   0.016   3.827  0.6936 -1.0745  0.8793
28937SOL    HW289767   3.789   0.084   3.788 -0.3903  1.0579  0.8543
28938SOL     OW89768  10.402   5.446   5.410 -0.5831 -0.2209 -0.4002
28938SOL    HW189769  10.452   5.501   5.349  1.9884 -0.4179  1.3970
28938SOL    HW289770  10.443   5.461   5.495 -2.8926 -1.3380  1.0058
28939SOL     OW89771   7.498   0.499   5.299  0.3055 -0.3486  0.3466
28939SOL    HW189772   7.444   0.575   5.321  0.3950 -0.3127  0.4413
28939SOL    HW289773   7.455   0.461   5.222 -0.2542 -0.7340  0.8400
28940SOL     OW89774   6.870   6.342   7.687  0.0308 -0.2147  0.3755
28940SOL    HW189775   6.898   6.410   7.625  1.3104 -0.6962  0.3991
28940SOL    HW289776   6.932   6.349   7.760 -0.3447 -0.8496  0.7646
28941SOL     OW89777   9.615   9.384  10.005 -0.4841  0.5852  0.0743
28941SOL    HW189778   9.565   9.365  10.085 -0.4710  0.7272  0.1170
28941SOL    HW289779   9.583   9.321   9.941 -0.7283  0.6834  0.0982
28942SOL     OW89780   8.312   8.554   1.822 -0.5220 -0.2669  0.3851
28942SOL    HW189781   8.368   8.488   1.864 -1.1489 -2.6842 -2.2159
28942SOL    HW289782   8.361   8.582   1.745 -0.8167  1.4634  0.7818
28943SOL     OW89783   7.943   0.800   5.238  0.1116  0.2553 -0.1864
28943SOL    HW189784   7.909   0.888   5.254  0.8756  0.6222 -0.5646
28943SOL    HW289785   7.866   0.750   5.210 -0.3876  0.7162  0.3183
28944SOL     OW89786   3.528   0.893   0.770 -0.5108  0.2936 -0.0151
28944SOL    HW189787   3.608   0.841   0.772 -0.7782 -0.1957 -1.2232
28944SOL    HW289788   3.506   0.907   0.862  0.1745 -0.8050  0.3320
28945SOL     OW89789   5.608   7.892   1.318  0.0733  0.1712  0.1724
28945SOL    HW189790   5.642   7.807   1.292 -0.9642 -0.6421  1.3752
28945SOL    HW289791   5.657   7.914   1.398 -0.2003  0.3453  0.2915
28946SOL     OW89792   7.166   0.117   4.480 -0.3338 -0.2927  0.3984
28946SOL    HW189793   7.129   0.121   4.392 -0.0800  0.2898  0.3151
28946SOL    HW289794   7.174   0.024   4.499 -0.9826 -0.4215  0.0564
28947SOL     OW89795   2.732   1.839   0.235  0.0047 -0.1139  0.4730
28947SOL    HW189796   2.722   1.931   0.259  2.0826  0.3481 -0.2478
28947SOL    HW289797   2.678   1.792   0.299 -1.2518  1.5871  0.7277
28948SOL     OW89798   2.011   0.628  10.603  0.2116 -0.1643 -0.2389
28948SOL    HW189799   1.919   0.655  10.597 -0.2621 -1.7213 -0.5582
28948SOL    HW289800   2.042   0.626  10.512  0.7331  0.8468 -0.0967
28949SOL     OW89801   9.809   0.941   6.978  0.2593  0.4927 -0.1436
28949SOL    HW189802   9.727   0.972   6.940  0.1923  1.8695  1.0121
28949SOL    HW289803   9.836   1.012   7.037  0.7965 -1.1336  1.6608
28950SOL     OW89804   7.668   4.411   8.777  0.0139 -0.1846  0.1643
28950SOL    HW189805   7.611   4.486   8.762 -0.8309 -0.6319  1.0201
28950SOL    HW289806   7.608   4.336   8.782  0.7304 -0.7464  0.5048
28951SOL     OW89807  10.070   8.619   2.037  0.3673  0.1068  0.4169
28951SOL    HW189808  10.070   8.631   2.132  2.8231  0.7061  0.3925
28951SOL    HW289809  10.050   8.526   2.026  0.7295 -0.1298  1.5575
28952SOL     OW89810   5.659   8.146   4.163  0.3203  0.3188  0.0842
28952SOL    HW189811   5.739   8.132   4.213  0.7899  2.0011 -0.1406
28952SOL    HW289812   5.680   8.116   4.074  0.5093  0.2219  0.1622
28953SOL     OW89813   8.640   8.122   8.180  0.1074  0.4174 -0.7471
28953SOL    HW189814   8.551   8.123   8.217  1.2830  0.6969  2.3697
28953SOL    HW289815   8.634   8.060   8.107 -2.3299 -0.6997  0.2667
28954SOL     OW89816   7.794   0.608   1.493 -0.4608  0.2365  0.2890
28954SOL    HW189817   7.876   0.657   1.482  0.3148 -1.0379  0.1720
28954SOL    HW289818   7.798   0.576   1.583 -0.8568  0.2211  0.2998
28955SOL     OW89819   5.924   1.019   3.899 -0.1460  0.0735  0.8905
28955SOL    HW189820   5.967   0.933   3.894 -0.2766 -0.0357  1.5183
28955SOL    HW289821   5.992   1.082   3.877 -0.4988 -0.2783 -1.4615
28956SOL     OW89822   8.649   4.507   1.174  0.0499  0.2625 -0.1166
28956SOL    HW189823   8.713   4.554   1.121  0.4469  0.0880  0.2052
28956SOL    HW289824   8.672   4.415   1.163 -0.0443  0.2090  0.1295
28957SOL     OW89825   2.409   9.640   3.289  0.1420 -0.0234  0.1584
28957SOL    HW189826   2.412   9.566   3.351  0.2845 -1.2792 -1.2978
28957SOL    HW289827   2.344   9.699   3.327  0.2053 -0.7539  1.4981
28958SOL     OW89828   0.468   7.878   8.388  0.0277 -0.1795 -0.1469
28958SOL    HW189829   0.490   7.923   8.305  1.8846 -0.1834  0.2849
28958SOL    HW289830   0.468   7.785   8.365  0.1371 -0.1582 -0.2397
28959SOL     OW89831   9.669   5.145   8.281 -0.7099  0.3593 -0.1258
28959SOL    HW189832   9.614   5.132   8.204 -1.4022  0.3910  0.3562
28959SOL    HW289833   9.747   5.190   8.248 -1.0967  0.5681 -0.7676
28960SOL     OW89834   5.902   0.556   8.338 -0.3173 -0.0444  0.0161
28960SOL    HW189835   5.912   0.462   8.322 -1.5525 -0.0192 -1.0210
28960SOL    HW289836   5.977   0.579   8.393  0.2677 -1.5357 -0.1210
28961SOL     OW89837   1.581   7.079   9.443  0.2820  0.3905  0.4249
28961SOL    HW189838   1.590   6.991   9.408  0.5232  1.4539 -2.4340
28961SOL    HW289839   1.505   7.074   9.501 -2.4623 -0.8659 -2.9108
28962SOL     OW89840   5.204   8.263   4.036 -0.5482 -0.1910  0.1909
28962SOL    HW189841   5.250   8.294   4.114  0.7657 -1.5651  0.0287
28962SOL    HW289842   5.254   8.186   4.008 -0.7482  0.4604 -2.2355
28963SOL     OW89843   3.582   4.715   2.520 -0.2569 -0.5215  0.1358
28963SOL    HW189844   3.515   4.702   2.454  1.5869  0.5174 -2.0832
28963SOL    HW289845   3.554   4.794   2.567 -1.7355 -1.4353  0.8490
28964SOL     OW89846   6.748   8.700   6.392 -0.7055  0.2872 -0.3635
28964SOL    HW189847   6.778   8.640   6.324 -0.7887  0.0588 -0.1990
28964SOL    HW289848   6.656   8.677   6.406 -0.4095 -0.3882  0.5747
28965SOL     OW89849   6.204   6.407   6.213 -0.4110  0.4867  0.4787
28965SOL    HW189850   6.231   6.366   6.131  0.8093  1.9990  0.0738
28965SOL    HW289851   6.133   6.352   6.245  1.2923 -2.0731  0.1221
28966SOL     OW89852   5.916   5.985   6.728  0.2748 -0.4622  0.3004
28966SOL    HW189853   5.903   6.064   6.676  1.4141 -1.6352 -1.8696
28966SOL    HW289854   5.832   5.939   6.724 -0.6343  0.8797  2.1794
28967SOL     OW89855   5.393  10.080   7.341  0.1642 -0.4749 -0.4907
28967SOL    HW189856   5.335  10.154   7.326  0.6517 -0.0779 -0.4369
28967SOL    HW289857   5.441  10.070   7.258  0.9726  0.0501 -0.1000
28968SOL     OW89858   0.107   9.522   2.637  0.3063 -0.2362  0.1423
28968SOL    HW189859   0.090   9.558   2.550 -0.5382 -0.3855  0.2448
28968SOL    HW289860   0.169   9.584   2.676 -0.5384  0.7068  0.0312
28969SOL     OW89861   2.801   8.036   0.911 -0.0766 -0.4546 -0.3513
28969SOL    HW189862   2.868   7.969   0.921 -0.1213 -0.4758 -0.1989
28969SOL    HW289863   2.847   8.112   0.875  0.0953 -0.3462  0.0929
28970SOL     OW89864   8.441   3.162   3.436  0.3452 -0.3853 -0.1722
28970SOL    HW189865   8.446   3.137   3.344  1.8800 -1.6435  0.2040
28970SOL    HW289866   8.448   3.257   3.436 -0.9478 -0.2580 -1.4081
28971SOL     OW89867   2.806   3.756   2.866  0.1727 -0.5658  0.0197
28971SOL    HW189868   2.723   3.726   2.829  0.3062  0.9617 -1.6645
28971SOL    HW289869   2.856   3.789   2.790  0.8176  1.9428  1.4136
28972SOL     OW89870   6.611   2.477   7.294  1.0078 -0.1872  0.0935
28972SOL    HW189871   6.622   2.513   7.382  1.2993 -0.5050  0.1879
28972SOL    HW289872   6.519   2.452   7.290  1.2608 -1.2921  0.7424
28973SOL     OW89873   9.168   3.653   0.575  0.0527 -0.1921 -0.0142
28973SOL    HW189874   9.134   3.716   0.639 -2.2247 -1.6384  0.3064
28973SOL    HW289875   9.255   3.630   0.608 -0.7333 -0.2896  2.1325
28974SOL     OW89876   0.611   7.040   3.350 -0.2170 -0.2484  0.3150
28974SOL    HW189877   0.549   6.970   3.331 -0.9134  0.2766  0.6256
28974SOL    HW289878   0.616   7.041   3.446  0.2215 -0.2389  0.2924
28975SOL     OW89879   1.453   7.287   4.753  0.1667  0.0366  0.9984
28975SOL    HW189880   1.492   7.330   4.677 -0.0529 -0.3597  0.6589
28975SOL    HW289881   1.508   7.210   4.768 -0.4793 -0.5307  0.5100
28976SOL     OW89882   4.715   0.615   6.569 -0.0245 -0.0275  0.0405
28976SOL    HW189883   4.789   0.582   6.620 -1.0392 -1.0523  0.9185
28976SOL    HW289884   4.750   0.628   6.481  1.0514 -1.0989  0.2785
28977SOL     OW89885   5.455   1.554   9.339  0.0218 -0.4187  0.5964
28977SOL    HW189886   5.393   1.483   9.358 -0.6739  0.5763  2.2608
28977SOL    HW289887   5.497   1.528   9.257 -0.6304 -2.4616  0.8571
28978SOL     OW89888   0.593   2.932   4.612  0.4126  0.4706 -0.1175
28978SOL    HW189889   0.636   2.995   4.555  1.3800 -1.2223 -1.3330
28978SOL    HW289890   0.519   2.899   4.560  1.1024 -0.8395 -0.3089
28979SOL     OW89891   7.414   9.198   5.907  0.5992  0.3073  0.1169
28979SOL    HW189892   7.337   9.174   5.958  0.1909 -0.1959 -0.7069
28979SOL    HW289893   7.459   9.263   5.960 -1.4445  2.1212 -0.2103
28980SOL     OW89894   6.502  10.539   7.646  0.9409 -0.4414  0.1089
28980SOL    HW189895   6.456  10.456   7.631  0.8354 -0.8165  2.1587
28980SOL    HW289896   6.487  10.557   7.739  0.8253  1.9790 -0.3374
28981SOL     OW89897   7.915   3.222   8.171 -0.2005  0.4970 -0.2304
28981SOL    HW189898   7.837   3.248   8.220 -0.9132  0.5512 -1.3521
28981SOL    HW289899   7.897   3.133   8.142  0.4328  0.2777  0.0177
28982SOL     OW89900   6.380   7.446  10.674 -0.0273  0.3418 -0.1023
28982SOL    HW189901   6.432   7.461  10.596 -0.9037  0.3771 -0.6966
28982SOL    HW289902   6.290   7.435  10.642 -0.1959 -1.0534  0.7719
28983SOL     OW89903   6.573   6.721   0.683  0.4842 -0.0482 -0.5344
28983SOL    HW189904   6.666   6.742   0.690  0.1043  1.1472  1.4684
28983SOL    HW289905   6.561   6.645   0.740  0.3173 -0.5951 -1.2746
28984SOL     OW89906   9.774  10.487   4.733  0.2972 -0.0636  0.3733
28984SOL    HW189907   9.740  10.405   4.697  0.4676  0.2695 -0.5816
28984SOL    HW289908   9.712  10.510   4.802  0.0385 -0.7947  0.3974
28985SOL     OW89909   3.959   4.225   0.231 -0.1150  0.3545 -0.0308
28985SOL    HW189910   3.985   4.316   0.247  1.0058 -0.3156  2.4292
28985SOL    HW289911   4.007   4.199   0.152  0.5201  1.5172 -0.0483
28986SOL     OW89912   1.742   1.189   3.561  0.0692 -0.0872 -0.4988
28986SOL    HW189913   1.709   1.183   3.471  0.8981 -0.8390 -0.7779
28986SOL    HW289914   1.713   1.108   3.602 -2.4612  1.3410  0.7164
28987SOL     OW89915   2.959   3.679   7.145 -0.0393  0.0640  0.0232
28987SOL    HW189916   2.865   3.670   7.159 -0.4793 -1.1850 -2.9777
28987SOL    HW289917   2.993   3.589   7.148  1.0571  0.4731  0.8591
28988SOL     OW89918   3.011   7.856  10.074  0.0033 -0.0763  0.2504
28988SOL    HW189919   2.970   7.791  10.017  2.4717  0.4297 -2.3211
28988SOL    HW289920   3.044   7.805  10.148 -0.3431 -1.3443 -0.4369
28989SOL     OW89921   5.898   8.733   0.691  0.2299  0.0362 -0.0141
28989SOL    HW189922   5.879   8.707   0.601  0.4898 -1.6828  0.3876
28989SOL    HW289923   5.973   8.680   0.716  1.0526  1.5050  0.7863
28990SOL     OW89924  10.621   0.993   5.785 -0.3459  0.3747  0.2577
28990SOL    HW189925  10.572   0.958   5.711  0.3958  0.4108 -0.2610
28990SOL    HW289926  10.708   0.952   5.778  0.7312  2.6477 -0.6525
28991SOL     OW89927   4.994   3.243   5.720 -0.5489 -0.2913  0.8081
28991SOL    HW189928   4.953   3.263   5.804 -0.7588  2.7016  0.1117
28991SOL    HW289929   4.925   3.257   5.655  0.4063  0.4881 -0.0700
28992SOL     OW89930   3.530   9.797   2.148 -0.1901 -0.6365 -0.2088
28992SOL    HW189931   3.549   9.800   2.054 -1.7140  1.5720 -0.5145
28992SOL    HW289932   3.608   9.836   2.189  0.9696 -2.6282 -0.3952
28993SOL     OW89933   5.819   9.670   1.796  0.1917 -0.0902 -0.3973
28993SOL    HW189934   5.834   9.762   1.772  0.2833 -0.1612 -0.6109
28993SOL    HW289935   5.724   9.663   1.804  0.1225 -0.1941 -1.2497
28994SOL     OW89936   8.146   1.985   7.285 -0.5643 -0.0077 -0.3604
28994SOL    HW189937   8.178   2.024   7.366 -0.2537 -0.9024 -0.0528
28994SOL    HW289938   8.070   1.934   7.310 -1.6746  1.2711 -0.9387
28995SOL     OW89939   6.435   0.886   1.218  0.5597  0.2977 -0.5258
28995SOL    HW189940   6.372   0.904   1.148  1.6806  0.7412 -1.4326
28995SOL    HW289941   6.484   0.810   1.187  1.1457  0.5708 -0.2801
28996SOL     OW89942   6.392   5.329   0.894  0.3034  0.0476  0.2245
28996SOL    HW189943   6.440   5.383   0.831  0.8232 -1.0918 -0.3862
28996SOL    HW289944   6.351   5.261   0.841  0.1173 -0.4775  1.0305
28997SOL     OW89945   8.648   1.437   1.448  0.0796  0.4683  0.7074
28997SOL    HW189946   8.735   1.403   1.426  0.5793  0.9699  1.8013
28997SOL    HW289947   8.594   1.359   1.461  0.5709  0.1358  0.7805
28998SOL     OW89948   5.128   2.960   3.143 -0.6534  0.2834 -0.0859
28998SOL    HW189949   5.100   2.954   3.052 -0.5216 -0.6458 -0.0827
28998SOL    HW289950   5.143   2.869   3.169  1.1524  0.6332  0.2742
28999SOL     OW89951   3.959   6.041   7.210  0.2538  0.3904  0.0573
28999SOL    HW189952   4.018   5.970   7.187  0.8080  0.5784  0.8451
28999SOL    HW289953   3.893   6.000   7.266 -0.1619  0.2498 -0.5330
29000SOL     OW89954   2.677   5.415   1.215 -0.4504 -0.3624  0.1439
29000SOL    HW189955   2.666   5.505   1.245  1.3139 -0.4845  1.3206
29000SOL    HW289956   2.619   5.363   1.271 -1.1845 -0.0134 -0.2825
29001SOL     OW89957   9.520   9.992   5.006  0.2855  0.1344  0.2495
29001SOL    HW189958   9.595  10.001   4.948 -0.9263  0.7032 -1.3214
29001SOL    HW289959   9.445   9.980   4.946 -0.8845 -0.3185  1.7403
29002SOL     OW89960   7.712   2.673   8.445 -0.2891  0.2709  0.2537
29002SOL    HW189961   7.657   2.749   8.429 -2.0735 -0.6524  1.6270
29002SOL    HW289962   7.659   2.598   8.418  0.2759 -0.6538  1.5761
29003SOL     OW89963   1.523  10.024   3.063  0.3299 -0.0031 -0.0625
29003SOL    HW189964   1.548   9.982   2.980  0.2737 -1.2952  0.5538
29003SOL    HW289965   1.585   9.989   3.127 -0.7871 -0.4604  0.7960
29004SOL     OW89966   3.842   2.912   3.679 -0.3625  0.2874 -0.0307
29004SOL    HW189967   3.750   2.897   3.656  0.0586 -1.2641 -0.8372
29004SOL    HW289968   3.872   2.978   3.616 -0.6295 -0.0388 -0.5053
29005SOL     OW89969   1.613   4.683   5.071  0.1710 -0.2443 -0.5700
29005SOL    HW189970   1.692   4.628   5.077 -0.2877 -1.0073 -1.3411
29005SOL    HW289971   1.552   4.643   5.133  1.0487  1.5460  1.5688
29006SOL     OW89972   5.158   0.380   6.535 -0.5215  0.0576  0.1155
29006SOL    HW189973   5.198   0.378   6.622 -2.4773 -0.5623  1.0691
29006SOL    HW289974   5.130   0.289   6.521 -0.0554  0.1144 -1.2649
29007SOL     OW89975   2.761   3.538   5.672  0.8737  0.3177 -0.0503
29007SOL    HW189976   2.805   3.454   5.686  0.9528  0.5805  1.4380
29007SOL    HW289977   2.827   3.603   5.696  1.0526  0.8414 -1.8773
29008SOL     OW89978   2.907  10.667   1.816 -0.0775 -0.3048 -0.7282
29008SOL    HW189979   2.896  10.613   1.894 -0.5706 -0.3202 -0.8052
29008SOL    HW289980   2.870  10.614   1.745  0.2306 -0.2284 -0.9477
29009SOL     OW89981   4.526   2.855   4.912 -0.7541  0.2121  0.8033
29009SOL    HW189982   4.598   2.859   4.848 -0.5624  0.8230  1.0523
29009SOL    HW289983   4.530   2.765   4.946 -2.1989 -0.8554 -1.5630
29010SOL     OW89984   2.947   9.623   7.161  0.0184  0.3627 -0.0456
29010SOL    HW189985   3.029   9.662   7.192  0.7067 -0.7807 -0.3550
29010SOL    HW289986   2.935   9.660   7.073  0.7357 -0.1881 -0.3927
29011SOL     OW89987   7.304   2.526   2.201  0.1497  0.2587  0.0338
29011SOL    HW189988   7.349   2.453   2.159 -1.6600 -0.8051 -0.1499
29011SOL    HW289989   7.357   2.603   2.178 -0.3995 -0.2838 -3.8097
29012SOL     OW89990   3.245   8.452   7.663  0.1419  0.7535  0.1946
29012SOL    HW189991   3.152   8.455   7.643  0.4465 -0.7567 -1.7970
29012SOL    HW289992   3.253   8.494   7.748 -1.9589  3.5108 -0.8308
29013SOL     OW89993   5.260   0.063   6.854 -0.1647  0.4806 -0.5556
29013SOL    HW189994   5.332   0.061   6.791 -0.7087  1.0358 -1.2139
29013SOL    HW289995   5.192   0.009   6.814 -0.0796 -0.1432  0.1201
29014SOL     OW89996   1.703   6.014   8.327  0.1866  0.4883  0.2816
29014SOL    HW189997   1.675   5.957   8.255  2.0790  0.7086 -0.7080
29014SOL    HW289998   1.687   5.963   8.406 -2.6948  0.5511 -0.1783
29015SOL     OW89999   2.647   5.210   6.461  0.0536  0.2802 -0.4504
29015SOL    HW190000   2.608   5.123   6.448  1.3911 -0.6301  1.2938
29015SOL    HW290001   2.576   5.271   6.439 -1.1440 -1.2383 -1.0240
29016SOL     OW90002   8.889   1.225   1.812 -0.4390 -0.0916  0.3187
29016SOL    HW190003   8.831   1.158   1.775  0.6556 -0.7326 -0.2944
29016SOL    HW290004   8.832   1.300   1.827 -1.2315 -0.3013 -1.3331
29017SOL     OW90005   1.385   2.205   7.113 -0.4155  0.3789  0.3699
29017SOL    HW190006   1.403   2.120   7.073  1.7846  0.8167  0.3239
29017SOL    HW290007   1.470   2.236   7.143 -1.6703  0.8950  3.8247
29018SOL     OW90008   4.443   8.231   1.488 -0.4113  0.2448 -0.1391
29018SOL    HW190009   4.482   8.312   1.455  1.2682 -1.0018 -1.3434
29018SOL    HW290010   4.494   8.161   1.448 -2.4124 -1.4583  0.1100
29019SOL     OW90011   1.904   3.646   2.003  0.0056 -0.4949 -0.0356
29019SOL    HW190012   1.891   3.564   1.956  1.3181 -0.7859  0.0642
29019SOL    HW290013   1.819   3.665   2.043 -0.4251 -1.5855 -0.4048
29020SOL     OW90014   3.152   3.234   1.179 -0.3406  0.5094  0.2422
29020SOL    HW190015   3.140   3.322   1.215 -0.3820  0.4830  0.2939
29020SOL    HW290016   3.192   3.184   1.250 -0.3630  0.4735  0.2299
29021SOL     OW90017   1.519   2.150   5.062 -0.0878  0.2041  0.3690
29021SOL    HW190018   1.509   2.245   5.061 -1.4421  0.0834 -0.1621
29021SOL    HW290019   1.605   2.135   5.102  1.5992  1.7383 -2.3763
29022SOL     OW90020   2.792   0.916   2.251  0.4283 -0.5546 -0.2783
29022SOL    HW190021   2.838   0.923   2.167  0.1264 -0.2047 -0.4130
29022SOL    HW290022   2.848   0.964   2.312  0.5322 -0.6163 -0.3236
29023SOL     OW90023   6.760   4.485   8.473 -0.1120 -0.3585  0.1865
29023SOL    HW190024   6.759   4.498   8.379  1.1622 -0.5634  0.1304
29023SOL    HW290025   6.715   4.401   8.487  2.0879 -1.7121 -0.5026
29024SOL     OW90026   4.727   7.966   4.451 -0.4777 -0.1053  0.5325
29024SOL    HW190027   4.640   7.927   4.455 -0.2778 -0.6323 -0.1282
29024SOL    HW290028   4.753   7.976   4.542 -1.6077  0.9296  0.7772
29025SOL     OW90029   9.945   1.984   9.312  0.1357  0.0242  0.4574
29025SOL    HW190030   9.865   1.988   9.365 -0.8094  2.0968 -0.9909
29025SOL    HW290031   9.950   1.892   9.284 -0.7131 -0.5395  2.0276
29026SOL     OW90032   2.765   5.620   6.204 -0.0223 -0.2029 -0.4893
29026SOL    HW190033   2.774   5.584   6.116  0.8113  0.5476 -0.7369
29026SOL    HW290034   2.673   5.644   6.211 -0.1572 -0.5359 -1.0569
29027SOL     OW90035   0.065   2.637   6.186 -0.4329 -0.1634 -0.5656
29027SOL    HW190036   0.080   2.589   6.104 -2.9049  2.3968 -2.7724
29027SOL    HW290037  -0.016   2.599   6.221 -1.2453  0.9116 -1.2061
29028SOL     OW90038   3.582   8.234   3.556  0.0663  0.7188 -0.2447
29028SOL    HW190039   3.533   8.313   3.577  0.2481  0.5541  0.8219
29028SOL    HW290040   3.601   8.194   3.640  0.7932  0.0272 -0.7240
29029SOL     OW90041   0.740   9.436   2.674  0.1610  0.5170 -0.4097
29029SOL    HW190042   0.754   9.396   2.588  0.0813  0.8031 -0.5584
29029SOL    HW290043   0.702   9.367   2.727  1.7086 -0.1535 -0.1225
29030SOL     OW90044   9.203   4.587  10.258  0.7342 -0.0610 -0.8899
29030SOL    HW190045   9.255   4.651  10.210  1.2074  0.3083  0.1083
29030SOL    HW290046   9.132   4.564  10.197  1.2350  0.5099 -1.7054
29031SOL     OW90047   1.194   4.074   1.300 -0.3576 -0.5735 -0.2785
29031SOL    HW190048   1.171   3.986   1.331 -0.9544 -0.7140 -1.0848
29031SOL    HW290049   1.110   4.121   1.298 -0.1872 -0.2898 -0.8070
29032SOL     OW90050   4.196   7.972   4.406  0.5236  0.3935  0.0088
29032SOL    HW190051   4.279   8.020   4.405  2.5490 -2.8537  0.1023
29032SOL    HW290052   4.199   7.921   4.487 -0.9648 -0.7599 -0.6218
29033SOL     OW90053   6.141  10.244   7.045 -0.7524  0.3547 -0.3002
29033SOL    HW190054   6.191  10.229   6.965 -0.8407 -1.6249 -0.0453
29033SOL    HW290055   6.057  10.279   7.015 -0.9811 -0.8551 -1.1402
29034SOL     OW90056   8.600   0.747   0.956  0.4188 -0.0230 -0.5025
29034SOL    HW190057   8.601   0.759   1.051 -2.1533 -1.2983 -0.2177
29034SOL    HW290058   8.584   0.835   0.920 -0.5382  0.1940  0.4023
29035SOL     OW90059   6.204   2.890   0.261  0.1624 -0.1064  0.1103
29035SOL    HW190060   6.112   2.916   0.254  0.7860  2.0728 -0.9761
29035SOL    HW290061   6.220   2.878   0.355 -1.2176 -0.6048  0.2982
29036SOL     OW90062   1.600   1.889   0.728 -0.0437  0.3564  0.2186
29036SOL    HW190063   1.555   1.973   0.733 -1.3442 -0.2673 -0.5339
29036SOL    HW290064   1.690   1.911   0.705  0.3272  1.6990  2.5911
29037SOL     OW90065   4.121   8.829   8.202  0.0998  0.0494 -0.1959
29037SOL    HW190066   4.106   8.806   8.294  0.3828  0.3008 -0.0871
29037SOL    HW290067   4.179   8.760   8.170  1.9733  1.2257  0.4623
29038SOL     OW90068   7.015   4.464  10.688  0.4414  0.2804 -0.3852
29038SOL    HW190069   6.920   4.477  10.681  0.4859  1.7547  1.1904
29038SOL    HW290070   7.025   4.401  10.759  0.6656  1.0620  0.2889
29039SOL     OW90071   3.259   7.073   8.093  0.2027  0.4769 -0.2485
29039SOL    HW190072   3.319   7.146   8.085 -0.2627  0.6852 -2.2519
29039SOL    HW290073   3.267   7.025   8.011 -2.9620  1.0226 -1.0415
29040SOL     OW90074   7.034   3.380   2.951 -0.6497  0.2178 -0.0452
29040SOL    HW190075   6.951   3.360   2.994  0.1157  0.8555  1.8144
29040SOL    HW290076   7.067   3.456   2.998  0.0544  1.2247 -2.0811
29041SOL     OW90077   5.074  10.145   6.466 -0.1979  0.0862  0.3524
29041SOL    HW190078   5.076  10.153   6.562  1.5301 -1.0169  0.4607
29041SOL    HW290079   5.116  10.226   6.435 -1.1381  0.6402  0.4836
29042SOL     OW90080   4.557   0.058   1.615  0.2611 -0.1028  0.4966
29042SOL    HW190081   4.605   0.057   1.532 -0.5227 -1.5480  0.0145
29042SOL    HW290082   4.474   0.101   1.593 -0.1129 -0.8503  0.4054
29043SOL     OW90083   3.860   8.048   8.961 -0.1434 -0.3094 -0.0082
29043SOL    HW190084   3.797   7.998   9.012 -0.5116  0.2461  0.0883
29043SOL    HW290085   3.824   8.051   8.873 -0.6732  0.6998  0.2277
29044SOL     OW90086  10.610   2.348   4.046 -0.1860 -0.1835  0.1144
29044SOL    HW190087  10.577   2.348   3.956  0.3899 -0.3976 -0.1016
29044SOL    HW290088  10.532   2.334   4.100 -0.4170 -0.9778 -0.4023
29045SOL     OW90089   6.993   7.132  10.338 -0.3833 -0.2042  0.6628
29045SOL    HW190090   6.982   7.176  10.423  0.5546  0.6309  0.3654
29045SOL    HW290091   6.906   7.096  10.319 -0.6149 -0.3831  1.9627
29046SOL     OW90092   3.623   9.790   2.782 -0.4754  0.0993  0.4754
29046SOL    HW190093   3.603   9.822   2.870 -2.2744 -0.6785  0.3971
29046SOL    HW290094   3.680   9.715   2.796 -0.0264  0.5102  0.9081
29047SOL     OW90095  10.035   8.261   3.646 -0.1458 -0.5338  0.2024
29047SOL    HW190096  10.063   8.201   3.714 -1.8682 -0.0711  1.3715
29047SOL    HW290097   9.941   8.272   3.659 -0.0864  1.5915 -0.6060
29048SOL     OW90098  10.175   7.745   1.943 -0.5856  0.8991 -0.6249
29048SOL    HW190099  10.239   7.674   1.938  0.3388  1.6769 -0.0496
29048SOL    HW290100  10.221   7.822   1.909 -1.1246  1.5144  0.0057
29049SOL     OW90101   0.502   0.009   6.858 -0.0016  0.0081 -0.8515
29049SOL    HW190102   0.592   0.037   6.868  0.2788 -1.0884 -0.0067
29049SOL    HW290103   0.508  -0.079   6.820 -0.6044 -0.6767  0.5284
29050SOL     OW90104   5.291   6.235   4.700 -0.9735 -0.2754 -0.0009
29050SOL    HW190105   5.356   6.202   4.638 -0.5320  0.5179  0.0209
29050SOL    HW290106   5.325   6.321   4.726 -1.8368 -0.0246  0.3135
29051SOL     OW90107   5.455   7.297   7.423 -0.2956 -0.0881  0.7740
29051SOL    HW190108   5.382   7.242   7.452  0.8146 -1.3414  1.2577
29051SOL    HW290109   5.447   7.297   7.327  0.0214 -1.6056  0.7218
29052SOL     OW90110   8.997   3.600  10.566 -0.6447 -0.5310  0.6296
29052SOL    HW190111   9.081   3.636  10.540 -0.5266 -0.1575  1.5039
29052SOL    HW290112   9.013   3.507  10.577 -1.0188 -0.9890 -1.9300
29053SOL     OW90113   8.319   6.483   4.125  0.4804  0.1977  0.0894
29053SOL    HW190114   8.271   6.406   4.095 -0.2868 -0.0604  1.8749
29053SOL    HW290115   8.407   6.472   4.089  0.2480 -1.2737 -0.0661
29054SOL     OW90116   8.105   7.745   9.566  0.5834 -0.0509  0.0360
29054SOL    HW190117   8.042   7.797   9.616  1.9123  0.3698  1.3483
29054SOL    HW290118   8.069   7.656   9.566 -0.8270  0.4785 -0.7078
29055SOL     OW90119   9.367   7.264   5.817  0.2373 -0.1051  0.2234
29055SOL    HW190120   9.410   7.243   5.900 -0.0355  0.2074  0.4476
29055SOL    HW290121   9.412   7.210   5.752  1.2558  0.5453  0.3748
29056SOL     OW90122   3.594   2.838   3.414  0.0041  0.1767 -0.3154
29056SOL    HW190123   3.610   2.762   3.471  0.8122  0.1146 -0.6108
29056SOL    HW290124   3.646   2.820   3.336  0.3904  1.1364 -0.2937
29057SOL     OW90125   1.471   8.030   1.093 -0.6186  0.0509 -0.3956
29057SOL    HW190126   1.493   7.974   1.167 -2.8124 -0.7715 -0.2965
29057SOL    HW290127   1.486   8.119   1.125  0.7012 -0.3607  0.2130
29058SOL     OW90128   8.741   8.442   2.463  0.5766 -0.0745 -0.0394
29058SOL    HW190129   8.722   8.353   2.493  0.7484 -0.0602  0.1111
29058SOL    HW290130   8.681   8.456   2.389  0.7045 -0.3933 -0.2032
29059SOL     OW90131   0.452   1.729   5.693  0.1157  0.0232 -0.5616
29059SOL    HW190132   0.445   1.675   5.772 -0.4518  0.2994 -0.4241
29059SOL    HW290133   0.511   1.679   5.636 -0.6711 -0.9185 -0.5755
29060SOL     OW90134   2.235   8.183   9.183  0.0571 -0.0004  0.3037
29060SOL    HW190135   2.194   8.262   9.219 -0.0589  0.3418 -0.5694
29060SOL    HW290136   2.279   8.143   9.258  0.9202  1.4029  0.5800
29061SOL     OW90137   5.104  10.440   5.884 -0.2005  0.0967  0.1777
29061SOL    HW190138   5.192  10.463   5.855 -0.5356  1.7845  0.3810
29061SOL    HW290139   5.054  10.430   5.803  0.3081 -1.5995  0.0341
29062SOL     OW90140   4.869   0.324  10.352 -0.1971 -0.2499  0.1395
29062SOL    HW190141   4.776   0.300  10.348  0.0299 -1.0328 -1.0213
29062SOL    HW290142   4.915   0.240  10.357  0.4967  0.0817 -0.5232
29063SOL     OW90143   5.361   0.155   8.548  0.3350 -0.2779 -0.0056
29063SOL    HW190144   5.385   0.125   8.635  0.9001 -0.5939 -0.2690
29063SOL    HW290145   5.380   0.249   8.548 -1.5168  0.1493  0.8484
29064SOL     OW90146   7.075   3.828   6.390  0.4332 -0.2965  0.0358
29064SOL    HW190147   7.031   3.744   6.378 -1.2418  0.5617 -0.1878
29064SOL    HW290148   7.014   3.879   6.444  2.0987  0.2678  1.4626
29065SOL     OW90149   1.742   5.170   8.793 -0.3456 -0.3868  0.2199
29065SOL    HW190150   1.706   5.253   8.822  1.0686  0.4656 -0.3717
29065SOL    HW290151   1.807   5.193   8.726  0.1925 -1.9486  0.1445
29066SOL     OW90152   3.884   3.137   9.050  0.3158 -0.3586  0.1171
29066SOL    HW190153   3.903   3.078   8.977  1.3403  0.5936 -0.4055
29066SOL    HW290154   3.966   3.184   9.066 -0.4434  0.8570  0.5774
29067SOL     OW90155   5.689  10.140   3.723  0.2884  0.3517 -0.1403
29067SOL    HW190156   5.773  10.185   3.717  1.1972 -1.2085  0.2985
29067SOL    HW290157   5.646  10.157   3.639 -0.3006  3.5960  0.6775
29068SOL     OW90158   9.739   7.461  10.242  0.2701  0.1204 -0.1036
29068SOL    HW190159   9.787   7.539  10.212 -0.6546  0.6423 -0.2537
29068SOL    HW290160   9.653   7.494  10.267 -0.4873 -1.0037 -1.1308
29069SOL     OW90161   9.026   0.379   0.798  0.4746  0.1276 -0.8115
29069SOL    HW190162   8.965   0.331   0.742 -0.6296  0.1502  0.3111
29069SOL    HW290163   9.089   0.418   0.738 -0.4089 -0.1959 -1.9911
29070SOL     OW90164   4.179   5.207   7.641 -0.5578  0.3992  0.5325
29070SOL    HW190165   4.101   5.263   7.634 -1.3208 -0.6272  0.6598
29070SOL    HW290166   4.144   5.118   7.643  0.6300 -0.0728  0.5919
29071SOL     OW90167   9.772   7.220   8.030 -0.4835  0.1015  0.3974
29071SOL    HW190168   9.729   7.246   7.949 -0.1897 -0.6942 -0.0180
29071SOL    HW290169   9.767   7.298   8.085 -1.0639  0.5130 -0.2204
29072SOL     OW90170  10.121   5.845   8.827  0.3733  0.5144 -0.3839
29072SOL    HW190171  10.209   5.881   8.834  1.0289 -0.8748 -1.1210
29072SOL    HW290172  10.064   5.922   8.817  1.3082  1.5136  1.4657
29073SOL     OW90173   9.340  10.074   7.096  0.0437 -0.5389  0.3850
29073SOL    HW190174   9.305   9.991   7.064  0.2132 -0.7726  0.8014
29073SOL    HW290175   9.305  10.140   7.036 -1.5313 -0.6993  1.0779
29074SOL     OW90176   8.749   2.912   0.214 -0.2256  0.5931 -0.2002
29074SOL    HW190177   8.825   2.928   0.270  0.1958 -1.3883 -0.0988
29074SOL    HW290178   8.786   2.874   0.134 -1.0095  1.1006 -0.8212
29075SOL     OW90179   8.766   8.134   7.318 -0.5614  0.2025  0.0912
29075SOL    HW190180   8.792   8.055   7.271  2.5588  0.0572  1.7675
29075SOL    HW290181   8.687   8.109   7.366 -0.3160 -1.5465 -0.3493
29076SOL     OW90182   4.042   3.709   2.836  0.2085  0.1602  0.3452
29076SOL    HW190183   3.980   3.781   2.847 -0.3158 -0.5745  3.0362
29076SOL    HW290184   4.004   3.637   2.887  1.0962 -1.8194 -1.5946
29077SOL     OW90185  10.268   2.989   8.167 -0.2001  0.4151  0.1305
29077SOL    HW190186  10.192   3.030   8.125  0.8198  2.6042  0.3241
29077SOL    HW290187  10.330   3.060   8.181  2.5675 -1.5085 -1.3436
29078SOL     OW90188   0.893   7.116   2.208 -0.9291  0.0461 -0.4973
29078SOL    HW190189   0.889   7.208   2.235  0.2891  0.0642 -0.3431
29078SOL    HW290190   0.978   7.107   2.165 -1.1421 -0.9558 -0.7315
29079SOL     OW90191   4.956   6.787   8.372 -0.5296 -0.6027  0.0764
29079SOL    HW190192   4.971   6.842   8.449 -3.4016 -0.6607  0.7851
29079SOL    HW290193   4.934   6.848   8.302 -1.0359 -0.6764  0.1622
29080SOL     OW90194   7.385   3.956  10.390 -0.2271  0.8375  0.1418
29080SOL    HW190195   7.441   3.878  10.390 -0.9724  0.2764  1.3556
29080SOL    HW290196   7.409   4.002  10.310 -0.9141 -1.4653 -1.4884
29081SOL     OW90197   1.715   5.878   2.782  0.5898 -0.3379 -0.1797
29081SOL    HW190198   1.710   5.792   2.825 -1.2308  0.4793  1.3830
29081SOL    HW290199   1.809   5.897   2.778  0.9792 -2.0113  0.2537
29082SOL     OW90200   6.614   7.260   4.653 -0.2725  0.4052  0.3272
29082SOL    HW190201   6.637   7.209   4.730  0.4985  1.8271  1.0706
29082SOL    HW290202   6.551   7.205   4.606  0.3959 -1.1428  1.1675
29083SOL     OW90203   6.365   7.771   1.845  0.4872 -0.1792  0.2097
29083SOL    HW190204   6.285   7.741   1.802  0.3929 -2.7583  2.0019
29083SOL    HW290205   6.335   7.832   1.912  0.5189  2.6133 -2.1065
29084SOL     OW90206   3.780   3.582   7.495 -0.0298 -0.0264 -0.7399
29084SOL    HW190207   3.686   3.563   7.506 -0.1525 -0.0661 -1.7858
29084SOL    HW290208   3.788   3.675   7.517 -0.5326  0.2902 -1.8329
29085SOL     OW90209   3.743   7.282   1.498 -0.1760  0.5799 -0.1116
29085SOL    HW190210   3.790   7.286   1.581  2.5853 -0.3083 -1.5135
29085SOL    HW290211   3.747   7.190   1.472  1.0419  1.1705 -2.2481
29086SOL     OW90212   5.313   9.323   6.421  0.4346  0.0466 -0.3176
29086SOL    HW190213   5.331   9.342   6.514 -0.0638  0.4924 -0.3078
29086SOL    HW290214   5.247   9.387   6.396  1.0937  0.4157 -1.1829
29087SOL     OW90215  10.260   8.280   1.584 -0.0545  0.8825  0.2470
29087SOL    HW190216  10.337   8.277   1.640  0.5769 -0.6783 -0.6303
29087SOL    HW290217  10.291   8.313   1.501  0.2049 -1.6604 -0.7679
29088SOL     OW90218   5.839   2.202   1.270  0.1317 -0.3863  0.9954
29088SOL    HW190219   5.823   2.219   1.177  0.9412  3.1992  1.3628
29088SOL    HW290220   5.857   2.108   1.275 -1.6657 -1.0281 -2.1575
29089SOL     OW90221   8.028   1.815   9.906  0.0746  0.4655  0.1172
29089SOL    HW190222   8.011   1.733   9.953 -1.2085  1.3178  1.2104
29089SOL    HW290223   8.029   1.882   9.975  1.2363  1.3724 -0.7401
29090SOL     OW90224   5.373   4.175   6.374 -0.1837 -0.8077 -0.0562
29090SOL    HW190225   5.299   4.194   6.431 -0.3203 -1.1702 -0.1145
29090SOL    HW290226   5.354   4.089   6.337 -0.0516 -0.6162 -0.5770
29091SOL     OW90227   1.499   6.983   2.244 -0.5598  0.4394 -0.2751
29091SOL    HW190228   1.569   7.046   2.231 -1.6673  1.5245 -1.2196
29091SOL    HW290229   1.544   6.901   2.265  0.9488  1.2226 -0.2992
29092SOL     OW90230   6.063   6.232   7.586  0.5459  0.2599 -0.0352
29092SOL    HW190231   6.048   6.248   7.493 -1.9882 -1.7940 -0.1302
29092SOL    HW290232   6.152   6.198   7.591  0.8819  0.8252 -1.6319
29093SOL     OW90233   8.656   1.020   8.402 -0.0150 -0.0908  0.2437
29093SOL    HW190234   8.712   1.035   8.478  0.5666  0.0292 -0.2037
29093SOL    HW290235   8.660   0.926   8.387 -2.1337 -0.5134  1.8766
29094SOL     OW90236   8.253   7.407  10.685 -0.3217  0.1032 -1.0130
29094SOL    HW190237   8.307   7.413  10.764  0.8468 -0.1525 -1.7655
29094SOL    HW290238   8.166   7.432  10.714 -0.0344 -0.5135  0.4777
29095SOL     OW90239   6.089   6.910   0.549  0.4656  0.4503  0.1957
29095SOL    HW190240   6.080   6.904   0.645  0.5864 -0.8116  0.1450
29095SOL    HW290241   6.087   7.003   0.531  1.2999  0.7549  1.5225
29096SOL     OW90242   9.458   4.338   6.545  0.0257  0.1365 -0.1259
29096SOL    HW190243   9.481   4.300   6.630 -2.7699  0.5083  0.9021
29096SOL    HW290244   9.366   4.365   6.555 -0.4172  0.1470 -3.2972
29097SOL     OW90245   7.991   4.131   2.867 -0.6517 -0.0414  0.2618
29097SOL    HW190246   8.010   4.082   2.787 -0.5005  0.3598  0.0519
29097SOL    HW290247   7.976   4.221   2.838  2.4528  0.8164  0.9510
29098SOL     OW90248   8.577   4.120   2.026 -0.0837 -0.1341 -0.5237
29098SOL    HW190249   8.522   4.047   2.054  0.5890 -1.0837 -1.6262
29098SOL    HW290250   8.636   4.136   2.100 -0.0071 -0.9247 -0.4128
29099SOL     OW90251   1.967   9.599   6.756 -0.3969  0.7322  0.2626
29099SOL    HW190252   2.028   9.559   6.694 -0.8151 -0.1780  0.4146
29099SOL    HW290253   2.017   9.605   6.837 -0.0749  1.2714  0.0319
29100SOL     OW90254   7.166   9.300   0.201  0.6052 -0.0341 -0.2461
29100SOL    HW190255   7.119   9.296   0.284  2.3300  0.1415  0.7810
29100SOL    HW290256   7.119   9.366   0.150  0.3868  0.9211  1.1482
29101SOL     OW90257   8.538   6.680   6.248  0.1158  0.1104 -0.0387
29101SOL    HW190258   8.542   6.764   6.202  1.7103  0.1570  0.1100
29101SOL    HW290259   8.464   6.634   6.208 -0.5738  1.4514 -0.3522
29102SOL     OW90260   9.417  10.344   9.785  0.3236  1.0706  0.2411
29102SOL    HW190261   9.495  10.342   9.840  0.5660 -1.8935 -0.0473
29102SOL    HW290262   9.441  10.293   9.708 -1.5356  1.1040 -0.4084
29103SOL     OW90263   3.162  10.617   5.874  0.1270 -0.4145  0.0536
29103SOL    HW190264   3.124  10.534   5.902 -1.1682 -0.3491 -1.3735
29103SOL    HW290265   3.205  10.597   5.791 -0.5028  0.3811 -0.4833
29104SOL     OW90266   2.549   5.524   3.399  0.0100 -0.4155  0.1494
29104SOL    HW190267   2.613   5.551   3.333 -0.3151 -1.2218 -0.5113
29104SOL    HW290268   2.483   5.594   3.398  1.1829  0.7805  1.3296
29105SOL     OW90269   6.969   8.660   6.810  1.1828  0.0945  0.2260
29105SOL    HW190270   6.989   8.582   6.758 -1.4232 -0.5439  0.0506
29105SOL    HW290271   6.938   8.724   6.746  2.4286  1.0113  0.4899
29106SOL     OW90272   0.384   1.092   2.620 -0.5813  0.3078  0.0792
29106SOL    HW190273   0.376   1.092   2.716  0.0902  0.3450  0.1397
29106SOL    HW290274   0.302   1.130   2.590 -1.4764 -1.1287  0.5697
29107SOL     OW90275   5.317   5.417  10.337 -0.4185 -0.3741  0.4628
29107SOL    HW190276   5.336   5.498  10.291  1.5738  0.2787  2.2413
29107SOL    HW290277   5.394   5.362  10.321 -0.9290 -1.2026  0.7652
29108SOL     OW90278   7.302   4.884   9.266  0.2318  0.3696  0.2044
29108SOL    HW190279   7.357   4.962   9.263  0.1608  0.4513  0.9300
29108SOL    HW290280   7.221   4.910   9.223  0.0465  0.8262  0.8213
29109SOL     OW90281   6.315   3.632  10.444 -0.0827 -0.2898  0.7578
29109SOL    HW190282   6.323   3.726  10.425 -1.6421 -0.1100  0.8715
29109SOL    HW290283   6.404   3.604  10.463  0.9031  0.5307 -2.0864
29110SOL     OW90284   2.852   4.043   4.295 -0.2146  0.1760 -0.1245
29110SOL    HW190285   2.775   4.025   4.348  0.4898 -1.8904  0.2999
29110SOL    HW290286   2.826   4.018   4.206 -0.9834  2.4362 -0.5946
29111SOL     OW90287   7.691   6.263   0.869  0.2097 -0.3401 -0.2599
29111SOL    HW190288   7.640   6.321   0.925 -1.2014 -1.8425  0.0687
29111SOL    HW290289   7.781   6.271   0.902 -0.1751  0.6295  0.6199
29112SOL     OW90290   8.258   4.091   1.421 -0.2175  0.3923 -0.0707
29112SOL    HW190291   8.195   4.075   1.350 -0.2499 -1.0495  0.2408
29112SOL    HW290292   8.342   4.064   1.385 -0.3849 -1.3453  0.7255
29113SOL     OW90293   3.651   6.288  10.166  0.1991  0.0691  0.3047
29113SOL    HW190294   3.572   6.304  10.116 -1.5006 -2.9051  1.7200
29113SOL    HW290295   3.717   6.263  10.101 -0.6660  0.4689 -0.7436
29114SOL     OW90296   0.889   7.925   6.011 -0.0905 -0.3994  0.0454
29114SOL    HW190297   0.884   7.918   5.915 -1.2437 -0.5258  0.1016
29114SOL    HW290298   0.975   7.888   6.033  0.3606  0.0157 -0.9703
29115SOL     OW90299   1.014   0.607   3.542 -0.7956  0.4340  0.0831
29115SOL    HW190300   0.970   0.583   3.461 -1.6951  0.6189  0.5117
29115SOL    HW290301   1.066   0.684   3.519 -0.5991  0.1433 -0.4540
29116SOL     OW90302   3.850   4.926   4.871 -0.2180 -0.1572 -1.4046
29116SOL    HW190303   3.773   4.961   4.827 -0.0405 -0.3532 -1.8839
29116SOL    HW290304   3.831   4.833   4.883 -0.8514  0.1533  0.2143
29117SOL     OW90305   5.975   9.363   4.164 -0.0619 -0.3766  0.4944
29117SOL    HW190306   5.884   9.381   4.144 -0.3374 -0.4233  1.6414
29117SOL    HW290307   5.995   9.417   4.241  0.8402 -0.4600  0.3396
29118SOL     OW90308  10.315   0.947   9.817  0.1934 -0.3325 -0.4636
29118SOL    HW190309  10.276   1.017   9.869  1.3219  0.2493 -0.3699
29118SOL    HW290310  10.296   0.867   9.865 -1.9061 -0.2256 -1.0352
29119SOL     OW90311   0.839   2.894   7.850  0.0052  0.2325  0.0091
29119SOL    HW190312   0.778   2.967   7.840  0.1499  0.7234  2.1578
29119SOL    HW290313   0.811   2.851   7.931  1.4980 -0.5225  0.1579
29120SOL     OW90314   6.700   6.668   7.855 -0.1182  0.0536  0.0941
29120SOL    HW190315   6.751   6.641   7.931  0.1564 -0.6315 -0.3297
29120SOL    HW290316   6.759   6.727   7.808 -0.7109  1.4338  1.0083
29121SOL     OW90317   0.949   2.922   7.025 -0.2490 -0.0837 -0.4998
29121SOL    HW190318   0.948   2.855   7.093 -0.9705 -0.5297 -0.9376
29121SOL    HW290319   0.983   2.878   6.947 -0.5596  0.1004 -0.7441
29122SOL     OW90320   5.222   9.071   7.371 -0.0514 -0.1605  0.1307
29122SOL    HW190321   5.276   9.135   7.324  0.5875  0.4674  1.6691
29122SOL    HW290322   5.152   9.050   7.310 -0.0620  1.7259 -0.5563
29123SOL     OW90323   8.792   6.821  10.419  0.1741 -0.3291  0.0156
29123SOL    HW190324   8.714   6.785  10.377 -0.2329  1.4535 -0.8480
29123SOL    HW290325   8.768   6.829  10.511 -0.9007  0.7278 -0.3285
29124SOL     OW90326   5.170   3.539   8.474 -0.3789 -0.0057  0.2992
29124SOL    HW190327   5.213   3.544   8.559 -0.5339 -0.4160  0.4053
29124SOL    HW290328   5.200   3.617   8.427 -0.1308  0.1141  0.6531
29125SOL     OW90329  10.018   5.969   1.097  0.3693  0.5812  0.1101
29125SOL    HW190330   9.963   6.010   1.163 -1.1176 -0.1964 -0.5796
29125SOL    HW290331  10.076   5.911   1.146  0.5774  1.4017  0.8547
29126SOL     OW90332   7.616   6.229   1.607 -0.4294 -0.6326 -0.4789
29126SOL    HW190333   7.705   6.197   1.621 -0.4391 -1.3263 -1.8098
29126SOL    HW290334   7.568   6.203   1.685  0.9402  1.5187  1.2208
29127SOL     OW90335   5.401   3.252   6.063  0.3651 -0.0332  0.1787
29127SOL    HW190336   5.481   3.251   6.115  0.7208  0.0772 -0.3611
29127SOL    HW290337   5.421   3.198   5.986 -1.0452 -2.5028  1.4244
29128SOL     OW90338   8.720   6.108   4.565  0.1606 -0.4191  0.0137
29128SOL    HW190339   8.723   6.019   4.599 -2.2781 -1.0095 -1.1269
29128SOL    HW290340   8.779   6.108   4.489  0.4962 -0.9102  0.2689
29129SOL     OW90341   7.842   6.893   4.664 -0.4009 -0.0431  0.3288
29129SOL    HW190342   7.895   6.891   4.744 -1.7312 -1.5211  1.2315
29129SOL    HW290343   7.751   6.888   4.695 -0.9237 -2.0465 -1.2724
29130SOL     OW90344   5.774   2.467   1.910 -0.1042 -0.6831 -0.4851
29130SOL    HW190345   5.757   2.390   1.964  0.4205  0.1235  0.8768
29130SOL    HW290346   5.691   2.483   1.865 -1.7130  0.5240  2.5858
29131SOL     OW90347   1.427   6.071   6.542  0.0420 -0.7194  0.1917
29131SOL    HW190348   1.419   6.055   6.448  1.1288 -0.2820  0.0035
29131SOL    HW290349   1.352   6.128   6.563  0.6158  0.4240 -0.7298
29132SOL     OW90350   6.144   8.002   8.047 -0.1710  0.0232 -0.2058
29132SOL    HW190351   6.147   7.923   7.992  0.1591 -0.9207  1.1215
29132SOL    HW290352   6.060   8.042   8.026 -0.4432 -0.7984 -0.7443
29133SOL     OW90353   5.734   2.769   2.690 -0.0886 -0.2604  0.3143
29133SOL    HW190354   5.777   2.753   2.606  0.6454  2.2593  0.1367
29133SOL    HW290355   5.642   2.751   2.674 -0.0286  0.6173 -1.1952
29134SOL     OW90356   3.376   3.717   1.378 -0.0026 -0.3613 -0.2353
29134SOL    HW190357   3.437   3.654   1.417  0.5510  0.8240  0.8844
29134SOL    HW290358   3.429   3.768   1.318  0.7561  2.1036  2.2964
29135SOL     OW90359   5.400   0.014   1.841 -0.9242 -0.0344 -0.1041
29135SOL    HW190360   5.375  -0.077   1.828  2.0259 -0.9331 -0.2685
29135SOL    HW290361   5.406   0.024   1.936  2.0423 -1.1475 -0.0715
29136SOL     OW90362   0.414   0.374   8.922  0.0148  0.0906 -0.3253
29136SOL    HW190363   0.451   0.419   8.998 -0.6175 -1.0745  0.7194
29136SOL    HW290364   0.320   0.374   8.938 -0.2712  1.0713 -1.8401
29137SOL     OW90365   7.516   6.097   0.750  0.2124  0.0868  0.2661
29137SOL    HW190366   7.504   6.111   0.656  3.6636  0.4774 -0.2242
29137SOL    HW290367   7.565   6.173   0.780  0.4054 -0.7162  2.1095
29138SOL     OW90368   2.510   0.065   4.212  0.0547 -0.4356  0.4263
29138SOL    HW190369   2.493  -0.024   4.243 -1.8663 -0.3074 -0.0961
29138SOL    HW290370   2.536   0.053   4.120  0.3565 -0.5035  0.5228
29139SOL     OW90371   0.610   8.811   1.922  0.0654 -0.1362  0.5770
29139SOL    HW190372   0.524   8.846   1.898 -0.1283  2.2702  4.0770
29139SOL    HW290373   0.594   8.752   1.995  1.3728  0.7884  1.6680
29140SOL     OW90374   7.729   2.248   0.228 -0.1059 -0.8027  0.1061
29140SOL    HW190375   7.650   2.290   0.262  1.1085  2.1333 -0.4608
29140SOL    HW290376   7.793   2.256   0.299  0.3837 -1.0038 -0.3067
29141SOL     OW90377  10.146   2.618   5.241 -0.4220 -0.0899 -0.2188
29141SOL    HW190378  10.155   2.680   5.314 -0.2168  0.4340 -0.6768
29141SOL    HW290379  10.228   2.569   5.240  0.2120  0.9164 -0.9909
29142SOL     OW90380   7.645   2.519   5.983  0.2978 -0.0982  0.3944
29142SOL    HW190381   7.686   2.444   6.026  0.2708  1.1589  2.7741
29142SOL    HW290382   7.557   2.522   6.020 -0.0940  0.4417 -0.5559
29143SOL     OW90383   0.520   3.945   1.236  0.0050 -0.0826  0.4604
29143SOL    HW190384   0.490   3.865   1.194  0.7778 -0.4820  0.6400
29143SOL    HW290385   0.569   3.991   1.168  0.3807 -0.2373  0.6186
29144SOL     OW90386   7.146   4.100   1.101  0.1080  0.3335  0.2559
29144SOL    HW190387   7.233   4.109   1.064 -0.3910 -1.1941 -1.4391
29144SOL    HW290388   7.157   4.120   1.194  2.2942 -0.0531  0.1298
29145SOL     OW90389   6.787   0.749   2.347 -0.4042  0.0521 -0.2763
29145SOL    HW190390   6.851   0.819   2.335  0.4350 -0.5372  0.5903
29145SOL    HW290391   6.778   0.709   2.260  0.2555  0.2661 -0.4464
29146SOL     OW90392   8.158   7.512   1.752 -0.1042 -0.4417 -0.0131
29146SOL    HW190393   8.088   7.499   1.816 -1.1261  0.2702 -0.9412
29146SOL    HW290394   8.231   7.459   1.784 -0.4478  0.2162  1.9267
29147SOL     OW90395   5.237   4.733   0.800  0.2173 -0.0836  0.1018
29147SOL    HW190396   5.243   4.811   0.745 -0.4765  0.1722  0.3669
29147SOL    HW290397   5.326   4.697   0.802 -0.1292 -1.5074 -3.1682
29148SOL     OW90398   9.689   5.368   3.576 -0.2883 -0.9130 -0.1599
29148SOL    HW190399   9.686   5.459   3.546 -2.5922 -0.0574  2.2674
29148SOL    HW290400   9.653   5.318   3.503 -1.3102  0.4541 -0.6548
29149SOL     OW90401   4.866   0.937   2.686  0.3342 -0.3142  0.1457
29149SOL    HW190402   4.843   0.868   2.624  1.5454  0.6976 -1.4960
29149SOL    HW290403   4.836   0.904   2.771 -0.6378 -2.0916 -0.8357
29150SOL     OW90404   4.424   8.259   1.766  0.3052  0.6343 -0.4600
29150SOL    HW190405   4.394   8.277   1.676 -1.0278 -0.4513 -0.2577
29150SOL    HW290406   4.464   8.172   1.761  0.1172  0.5190  0.0280
29151SOL     OW90407   3.957   6.991   9.653  0.2638 -0.1229 -0.0191
29151SOL    HW190408   3.966   6.995   9.558  0.8806 -1.7487 -0.0636
29151SOL    HW290409   3.979   6.900   9.676  0.5531  0.3373  1.7205
29152SOL     OW90410   0.530   2.731   3.159 -0.2622 -0.3065  0.0553
29152SOL    HW190411   0.550   2.824   3.174  3.0041 -0.8145 -0.2778
29152SOL    HW290412   0.549   2.718   3.066 -0.5595 -1.3461  0.1328
29153SOL     OW90413   9.124  10.218  10.239  0.2639  0.0023  0.5429
29153SOL    HW190414   9.184  10.285  10.205 -0.8880 -0.2072 -2.2026
29153SOL    HW290415   9.088  10.255  10.319  0.7504  2.0500 -0.1393
29154SOL     OW90416   3.661   4.091   8.670  0.5604 -0.0794 -0.2550
29154SOL    HW190417   3.684   4.003   8.641  0.3790 -0.5851  1.0867
29154SOL    HW290418   3.600   4.078   8.742  0.3214  1.1581 -0.2047
29155SOL     OW90419   7.076   9.742   6.956  0.2372 -0.1382 -0.2938
29155SOL    HW190420   7.034   9.823   6.986 -0.1702  0.1145 -1.4827
29155SOL    HW290421   7.057   9.678   7.024 -1.8451  0.0564 -0.6325
29156SOL     OW90422   1.764   9.460   0.333  0.2339 -0.4677  0.3673
29156SOL    HW190423   1.703   9.399   0.291 -0.0758  0.3729 -0.4465
29156SOL    HW290424   1.764   9.436   0.425 -1.5433 -0.3114  0.4268
29157SOL     OW90425   2.341   9.765   1.746 -0.2598  0.1741 -0.5460
29157SOL    HW190426   2.330   9.724   1.832  0.0795 -0.9340 -1.0157
29157SOL    HW290427   2.256   9.754   1.703  0.4049 -1.9815 -1.4613
29158SOL     OW90428   8.165   3.529   6.541 -0.2481 -0.1004 -0.8322
29158SOL    HW190429   8.259   3.547   6.545 -0.0663 -1.0301 -0.7676
29158SOL    HW290430   8.132   3.587   6.473  0.2569  0.7024 -0.4095
29159SOL     OW90431   4.340   5.189   7.379 -0.3097  0.1259  0.2224
29159SOL    HW190432   4.377   5.102   7.392 -1.3646 -0.2951  0.4504
29159SOL    HW290433   4.259   5.189   7.429 -0.8985  0.8548 -0.6989
29160SOL     OW90434   5.698   8.952   1.313 -0.0837 -0.3332  0.2793
29160SOL    HW190435   5.689   8.977   1.221 -1.9133 -0.8330  0.2760
29160SOL    HW290436   5.773   8.893   1.315  1.2466  1.2395 -0.5150
29161SOL     OW90437   0.341   5.033   9.828  0.5779 -0.2043 -0.4333
29161SOL    HW190438   0.431   5.034   9.860  0.6550  1.1801 -0.6183
29161SOL    HW290439   0.295   5.093   9.887  0.3818  1.1988 -1.9294
29162SOL     OW90440   7.374   4.864   0.853 -0.0759 -0.4368 -0.1745
29162SOL    HW190441   7.298   4.869   0.795 -0.3060  1.3083  0.2087
29162SOL    HW290442   7.339   4.826   0.934 -0.2115 -0.9608 -0.4731
29163SOL     OW90443   4.148   7.312   7.497  0.1250 -0.3223  0.3680
29163SOL    HW190444   4.068   7.352   7.463 -0.0591 -1.6957 -0.9263
29163SOL    HW290445   4.175   7.369   7.569 -0.5533  1.6647 -0.8558
29164SOL     OW90446   1.881   8.939   1.710  0.1756  0.5000  0.0839
29164SOL    HW190447   1.830   9.015   1.681 -0.8950  0.3204  1.4096
29164SOL    HW290448   1.844   8.865   1.661  0.1896  0.6081 -0.0885
29165SOL     OW90449   0.848   8.101   3.095  0.2530 -0.5906  0.3018
29165SOL    HW190450   0.878   8.101   3.186  1.1524  1.7269  0.0765
29165SOL    HW290451   0.901   8.169   3.052 -2.8040  1.1980 -0.9768
29166SOL     OW90452   2.673   3.693   1.317 -0.2134  0.1177  0.1385
29166SOL    HW190453   2.751   3.661   1.270 -1.7400 -2.8868 -0.5870
29166SOL    HW290454   2.640   3.617   1.364 -3.0825  1.0861 -0.1041
29167SOL     OW90455   7.604   0.300   9.806  0.1550  0.0136  0.6964
29167SOL    HW190456   7.572   0.286   9.895  1.0463  0.5055  1.1117
29167SOL    HW290457   7.555   0.375   9.774 -0.6236 -0.5504  0.5206
29168SOL     OW90458   7.807   3.361   6.445  0.2252 -0.5874 -0.4532
29168SOL    HW190459   7.775   3.379   6.533 -0.0600 -0.3107 -0.6107
29168SOL    HW290460   7.735   3.315   6.402  0.5570 -1.1842 -0.3861
29169SOL     OW90461   6.113   5.938   5.279  0.1904 -0.1453 -0.5763
29169SOL    HW190462   6.033   5.887   5.288 -0.5056  0.7848 -1.2096
29169SOL    HW290463   6.084   6.019   5.236  1.3115  0.6075  0.0495
29170SOL     OW90464   5.428   1.221   0.186 -0.0721 -0.3304  0.0488
29170SOL    HW190465   5.434   1.186   0.275  1.7533 -1.0421 -0.2936
29170SOL    HW290466   5.335   1.233   0.170 -0.4354 -0.0725  2.0917
29171SOL     OW90467   0.605   5.285   8.873 -0.4693 -0.0764 -0.2321
29171SOL    HW190468   0.688   5.333   8.882 -0.2884 -0.4903  0.4196
29171SOL    HW290469   0.604   5.257   8.782 -0.1440  0.3791 -0.3851
29172SOL     OW90470   9.561   6.216   6.996  0.0452 -0.5955  0.4623
29172SOL    HW190471   9.621   6.175   7.058 -0.4537 -0.3253  1.1300
29172SOL    HW290472   9.498   6.263   7.050 -0.2647 -0.1653 -0.2556
29173SOL     OW90473   0.958  10.285   3.236  0.0868  0.1678  0.6375
29173SOL    HW190474   0.864  10.297   3.240 -0.2214 -1.3038 -1.0165
29173SOL    HW290475   0.988  10.298   3.326 -1.7179  0.2901  1.2567
29174SOL     OW90476   2.073   6.111  10.374  0.1325 -0.2681  0.0563
29174SOL    HW190477   2.024   6.072  10.446  1.0558  0.6512  1.2260
29174SOL    HW290478   2.006   6.148  10.317 -0.6489 -1.6829  0.0153
29175SOL     OW90479   8.324   2.048   7.101 -0.4906  0.2036  0.0325
29175SOL    HW190480   8.372   1.966   7.091 -1.4808 -0.2443 -1.4680
29175SOL    HW290481   8.256   2.029   7.165  0.0470  0.2503  0.6341
29176SOL     OW90482   9.650   8.948   7.344  0.4065  0.2869  0.2051
29176SOL    HW190483   9.701   8.900   7.409 -2.0954 -0.6323  1.5942
29176SOL    HW290484   9.603   9.015   7.393 -0.2781  0.6589 -0.9060
29177SOL     OW90485   1.845   4.427   1.521  0.1774 -0.0637 -0.0049
29177SOL    HW190486   1.768   4.479   1.541  0.0124 -0.6491  0.9083
29177SOL    HW290487   1.811   4.346   1.483  0.3131 -0.4742  0.7311
29178SOL     OW90488   3.189   9.277   4.534 -0.0654  0.2087  0.1298
29178SOL    HW190489   3.131   9.340   4.491 -0.1303 -0.5309 -0.9064
29178SOL    HW290490   3.275   9.320   4.534  0.0382  0.0425 -1.1982
29179SOL     OW90491   4.989   6.052   2.048 -0.5539  0.0632  0.6358
29179SOL    HW190492   5.028   6.043   2.135  1.1595  0.0744 -0.0984
29179SOL    HW290493   5.061   6.035   1.987 -1.5676  0.6637 -0.7897
29180SOL     OW90494   9.264   7.454   2.743  0.2297  0.1281  0.1209
29180SOL    HW190495   9.205   7.527   2.764  1.4700  0.8463  1.3040
29180SOL    HW290496   9.307   7.434   2.826 -0.4533 -2.3539 -0.0360
29181SOL     OW90497   9.520   0.985   7.920 -0.0481 -0.6115 -0.5512
29181SOL    HW190498   9.609   0.978   7.955  0.1023  0.0085 -0.7939
29181SOL    HW290499   9.476   1.047   7.978 -0.6617 -1.7485  0.2223
29182SOL     OW90500   6.750   3.993   1.719  0.6131  0.6776  0.0545
29182SOL    HW190501   6.836   3.952   1.726  0.6916  0.4538 -1.6619
29182SOL    HW290502   6.740   4.009   1.625 -1.3686  0.4012  0.1927
29183SOL     OW90503   5.269   8.995   5.463 -0.0933  0.4618  0.6206
29183SOL    HW190504   5.281   8.914   5.514 -0.1970  1.7758  2.8916
29183SOL    HW290505   5.358   9.025   5.444 -0.0565 -0.4481 -0.7192
29184SOL     OW90506   8.450   6.110   3.344  0.1326 -0.6455  0.1260
29184SOL    HW190507   8.390   6.067   3.405 -0.0006 -0.5849  0.0355
29184SOL    HW290508   8.535   6.068   3.361  0.9628  1.8870  2.9803
29185SOL     OW90509   9.392   9.375   8.656  0.8009 -0.1940  0.3962
29185SOL    HW190510   9.332   9.335   8.719  0.4907  1.0965  0.9321
29185SOL    HW290511   9.401   9.465   8.685 -0.8994  1.0396 -2.5369
29186SOL     OW90512   0.115   6.026   9.383  0.1119  0.3751 -0.5282
29186SOL    HW190513   0.146   5.937   9.369 -2.2764 -0.9520  1.6906
29186SOL    HW290514   0.031   6.030   9.339 -0.6010  0.9203  0.8124
29187SOL     OW90515   6.312   3.497   7.272 -0.0224  0.3710  0.6543
29187SOL    HW190516   6.374   3.547   7.219  1.3521 -1.2548  0.6528
29187SOL    HW290517   6.300   3.549   7.351 -0.4224  1.7809 -0.2985
29188SOL     OW90518   2.090   7.928   2.961  0.3665  0.4207 -0.1235
29188SOL    HW190519   2.152   7.970   2.901  0.2102  0.2909 -0.3820
29188SOL    HW290520   2.144   7.867   3.012  0.4039  0.0538 -0.5881
29189SOL     OW90521   7.761   3.106   4.441 -0.5541  0.2244  0.1975
29189SOL    HW190522   7.744   3.156   4.361  0.6088 -1.8833 -1.4781
29189SOL    HW290523   7.850   3.129   4.465 -1.3762  1.9455  1.8033
29190SOL     OW90524   8.047   5.781   7.998  1.1245 -0.3011 -0.0108
29190SOL    HW190525   8.002   5.705   7.962 -0.9587  0.6642  0.4122
29190SOL    HW290526   8.061   5.758   8.090  1.1964 -0.4746 -0.0638
29191SOL     OW90527   7.552   3.736   4.822 -1.2004 -0.2714  0.4383
29191SOL    HW190528   7.636   3.782   4.831 -0.0292 -2.0906 -0.5766
29191SOL    HW290529   7.575   3.644   4.824 -3.2768 -0.8313  0.7043
29192SOL     OW90530   9.682   6.704   8.131 -0.4171 -0.3581  0.1912
29192SOL    HW190531   9.645   6.631   8.081 -1.0189 -0.3395  0.6051
29192SOL    HW290532   9.677   6.779   8.071  0.6414 -0.7494 -0.4075
29193SOL     OW90533   4.253   3.913   3.341  0.6039  0.7016 -0.2226
29193SOL    HW190534   4.159   3.894   3.337  0.4055  1.7701 -1.2196
29193SOL    HW290535   4.276   3.899   3.432 -0.8172  1.6683  0.3303
29194SOL     OW90536   6.332   5.089   0.454  0.0178  0.0805 -0.2671
29194SOL    HW190537   6.333   5.008   0.403 -2.3234  0.0363 -0.3199
29194SOL    HW290538   6.311   5.061   0.543  0.6939  0.4963  0.0286
29195SOL     OW90539   3.567   4.847   7.362  0.0266  0.2490 -0.4206
29195SOL    HW190540   3.590   4.894   7.282 -0.4706 -0.2349 -0.8555
29195SOL    HW290541   3.580   4.755   7.339  0.2656  0.1315  0.1831
29196SOL     OW90542   4.740   3.630   9.147 -0.1382 -0.5131  0.4362
29196SOL    HW190543   4.694   3.657   9.226 -0.8859 -1.0249  0.1875
29196SOL    HW290544   4.822   3.680   9.148 -0.8437  0.6643  0.7110
29197SOL     OW90545   8.288   5.995   5.902  0.0044 -0.4045 -0.2358
29197SOL    HW190546   8.208   6.021   5.857  0.0762  0.8648  0.3084
29197SOL    HW290547   8.348   5.969   5.833 -0.2118  0.5888 -0.8187
29198SOL     OW90548   5.656   8.088   0.296  0.3063  0.4370 -0.1029
29198SOL    HW190549   5.683   8.006   0.255  1.5252  1.4840 -1.4763
29198SOL    HW290550   5.624   8.142   0.224 -3.0094  0.3008  1.0975
29199SOL     OW90551   2.392   4.491   5.539 -0.0819  0.0923 -0.4201
29199SOL    HW190552   2.351   4.517   5.621  0.4441  0.1363 -0.1659
29199SOL    HW290553   2.345   4.540   5.472 -1.6507 -1.1861 -0.3371
29200SOL     OW90554   7.090   9.733   4.405 -0.3786  0.0891 -0.5661
29200SOL    HW190555   7.061   9.644   4.420  0.4912 -0.1470 -0.1975
29200SOL    HW290556   7.177   9.724   4.365 -0.2815  0.7613 -0.5301
29201SOL     OW90557   1.283   9.297   6.030 -0.2614  0.1998 -0.1279
29201SOL    HW190558   1.300   9.209   6.064  3.5132  0.7839 -0.1544
29201SOL    HW290559   1.273   9.285   5.936  1.5522 -0.1487 -0.3127
29202SOL     OW90560   5.016   9.861   2.146  0.0589  0.0150  0.1819
29202SOL    HW190561   4.931   9.904   2.151  0.6046  1.0886  0.5414
29202SOL    HW290562   5.019   9.824   2.058 -0.0776  1.5233 -0.5000
29203SOL     OW90563   8.391   8.890   8.925 -0.2818 -0.3196 -0.2497
29203SOL    HW190564   8.473   8.875   8.972 -0.2960 -0.2758 -0.2108
29203SOL    HW290565   8.331   8.923   8.992 -0.1288  0.3251 -0.4235
29204SOL     OW90566   0.335   2.852   9.424 -0.3869 -0.2724 -0.5719
29204SOL    HW190567   0.301   2.940   9.411 -0.9562 -0.1250  1.5007
29204SOL    HW290568   0.378   2.856   9.510  0.5736 -1.7378 -0.9486
29205SOL     OW90569   9.320   0.249   1.832 -0.1939  0.3960 -0.1465
29205SOL    HW190570   9.348   0.312   1.766 -4.0778  1.2546 -1.2194
29205SOL    HW290571   9.371   0.272   1.910 -0.4906  4.1214 -0.8597
29206SOL     OW90572   5.093   5.264   4.292 -0.7456 -0.4662 -0.0062
29206SOL    HW190573   5.004   5.298   4.280  0.6960  2.9598 -2.8055
29206SOL    HW290574   5.128   5.255   4.203  2.4469  0.7102  0.9709
29207SOL     OW90575   0.739   3.638   5.084  0.5036 -0.0340 -0.0533
29207SOL    HW190576   0.760   3.579   5.157  2.6363 -1.0312 -1.3441
29207SOL    HW290577   0.752   3.726   5.119  2.0141 -0.5147  0.6875
29208SOL     OW90578   0.922   1.592   2.922 -0.0284 -0.4003 -0.2225
29208SOL    HW190579   0.916   1.601   3.018 -0.3759  0.4176 -0.3080
29208SOL    HW290580   0.928   1.682   2.890 -0.0305 -0.6625 -0.9813
29209SOL     OW90581   7.613   8.186   0.955 -0.5400  0.3255  0.1378
29209SOL    HW190582   7.575   8.098   0.946 -1.7033  0.9995 -2.4526
29209SOL    HW290583   7.704   8.175   0.929 -0.9943  0.0603 -1.4746
29210SOL     OW90584   5.479   5.087   9.729  0.2436 -0.3897 -0.2444
29210SOL    HW190585   5.544   5.027   9.693 -0.6749 -1.3205 -0.4110
29210SOL    HW290586   5.417   5.030   9.774 -0.5571  0.4521 -0.2535
29211SOL     OW90587   1.202   7.879  10.406  0.6532 -0.0523 -0.4206
29211SOL    HW190588   1.202   7.948  10.472  1.8075 -0.5001  0.0734
29211SOL    HW290589   1.117   7.836  10.415 -0.0115  1.1729 -0.6181
29212SOL     OW90590   0.046   3.636   6.820 -1.0604 -0.1409  0.3730
29212SOL    HW190591   0.102   3.560   6.837 -1.7805 -0.0850  3.6796
29212SOL    HW290592  -0.005   3.612   6.743 -1.8720 -3.4289  1.7846
29213SOL     OW90593   4.549   8.327   9.856  0.4042  0.3894 -0.2251
29213SOL    HW190594   4.463   8.315   9.815  0.1351  1.6255 -0.0539
29213SOL    HW290595   4.549   8.265   9.929 -0.1767  0.0832 -0.4751
29214SOL     OW90596   7.105   0.909   8.825 -0.2974  0.5258 -0.4753
29214SOL    HW190597   7.102   0.991   8.874  0.5991 -0.8025  1.9627
29214SOL    HW290598   7.071   0.931   8.738  0.5439  3.5928 -0.1239
29215SOL     OW90599   1.363   3.700   8.773  0.0946  0.0385  0.4251
29215SOL    HW190600   1.422   3.774   8.789  0.7302 -0.4689  0.4520
29215SOL    HW290601   1.408   3.625   8.810  0.0660 -0.5982 -0.7861
29216SOL     OW90602   5.149   4.350   1.631 -0.4675  0.0717  0.1730
29216SOL    HW190603   5.237   4.316   1.612 -0.5847  0.4718 -1.1944
29216SOL    HW290604   5.130   4.410   1.559 -2.2063 -0.6432 -0.0080
29217SOL     OW90605   0.310   2.863   9.705 -0.3413 -0.2825 -0.5024
29217SOL    HW190606   0.218   2.837   9.709 -0.5522  0.3249 -1.3250
29217SOL    HW290607   0.324   2.914   9.785 -1.1490  0.9708 -1.1237
29218SOL     OW90608  10.245   9.082  10.219  0.4593  0.2058 -0.2975
29218SOL    HW190609  10.150   9.078  10.228  0.5353  0.2640  0.5686
29218SOL    HW290610  10.262   9.044  10.133 -0.4591  1.6327 -1.1529
29219SOL     OW90611   1.121   5.722   4.845 -0.7681  0.2857 -0.3576
29219SOL    HW190612   1.155   5.635   4.829 -0.0059  0.3324  0.8622
29219SOL    HW290613   1.155   5.775   4.773  1.1303  0.1587  0.3884
29220SOL     OW90614   1.595   3.699   4.396 -0.0984 -0.3952 -0.1102
29220SOL    HW190615   1.627   3.742   4.317  0.3640  1.0914  0.8506
29220SOL    HW290616   1.615   3.606   4.382 -2.1116 -0.5550 -2.7189
29221SOL     OW90617   7.311   0.467   1.924  0.2862  0.4492 -0.1284
29221SOL    HW190618   7.326   0.559   1.948 -0.1889  0.8443 -1.2824
29221SOL    HW290619   7.253   0.472   1.848  1.3509 -0.7702 -1.0432
29222SOL     OW90620   4.179   7.551   4.977 -0.1589  0.5855  0.5381
29222SOL    HW190621   4.144   7.609   4.909 -1.7019 -0.2688  0.5455
29222SOL    HW290622   4.208   7.473   4.929  0.3850  0.6912  0.6913
29223SOL     OW90623   2.399   9.484   4.079 -0.1691  0.0418 -0.1723
29223SOL    HW190624   2.396   9.550   4.148 -0.4429 -1.5808  1.4248
29223SOL    HW290625   2.351   9.524   4.006  1.7111  2.5383 -0.1607
29224SOL     OW90626   3.015   1.358  10.136 -0.7548  0.0517  0.0093
29224SOL    HW190627   2.990   1.414  10.209  0.5877 -0.9744  1.3432
29224SOL    HW290628   3.090   1.402  10.096 -0.6604 -0.0180  0.1053
29225SOL     OW90629   0.458   8.639   7.320 -0.0902  0.4759  0.4038
29225SOL    HW190630   0.374   8.649   7.274  0.1491  0.7956  0.0248
29225SOL    HW290631   0.453   8.552   7.359  0.3625 -0.5424 -1.6533
29226SOL     OW90632   3.751   5.429   8.648 -0.2554  0.2408  0.5587
29226SOL    HW190633   3.745   5.453   8.741 -0.8002 -1.5076  1.0191
29226SOL    HW290634   3.769   5.335   8.649  0.5469  0.3520 -1.1196
29227SOL     OW90635   2.101   6.992   0.295  0.2373 -0.0629 -0.1645
29227SOL    HW190636   2.093   7.087   0.281  0.4059 -0.0158  0.0606
29227SOL    HW290637   2.012   6.962   0.312  0.0585 -0.0743 -1.0468
29228SOL     OW90638   7.671   4.748   7.503  0.6279  0.3435  0.4402
29228SOL    HW190639   7.596   4.778   7.452  0.3938 -0.3522  0.3637
29228SOL    HW290640   7.745   4.752   7.442  0.5184  0.3599  0.3087
29229SOL     OW90641   9.662   1.382   9.810  0.4275  0.3307 -0.3428
29229SOL    HW190642   9.734   1.422   9.761  0.3551 -0.1478 -0.8512
29229SOL    HW290643   9.642   1.445   9.879  0.8870  0.7735 -0.6069
29230SOL     OW90644   0.822   3.208   2.930  0.4929 -0.1912 -0.3561
29230SOL    HW190645   0.737   3.229   2.967  0.7860 -1.4689  1.1771
29230SOL    HW290646   0.805   3.194   2.837 -0.6927  0.9711 -0.3306
29231SOL     OW90647   8.980   3.024   4.938  0.4324  0.1515 -0.4490
29231SOL    HW190648   9.025   2.978   4.867  1.5619 -0.2073  0.4617
29231SOL    HW290649   8.924   2.957   4.978 -0.3236  0.3943 -1.0907
29232SOL     OW90650   2.765   8.886   2.155 -0.9786  0.5112 -0.5631
29232SOL    HW190651   2.789   8.839   2.235 -1.3541 -0.3000 -0.9115
29232SOL    HW290652   2.707   8.956   2.184 -0.2628  0.8957 -0.0104
29233SOL     OW90653   3.133   2.861   2.686  0.1040 -0.1964 -0.3513
29233SOL    HW190654   3.149   2.783   2.739  0.6496 -0.2485 -0.5844
29233SOL    HW290655   3.144   2.832   2.596 -0.6632 -0.0694 -0.4872
29234SOL     OW90656   5.602   9.545   1.478 -0.3998  0.1353  0.1406
29234SOL    HW190657   5.656   9.508   1.548  0.3256  2.5650  0.9617
29234SOL    HW290658   5.633   9.635   1.469 -1.3515  0.2858 -2.4593
29235SOL     OW90659   7.787   0.120   1.767  0.2542 -1.0895 -0.3296
29235SOL    HW190660   7.779   0.108   1.862 -0.9779 -1.2488 -0.4284
29235SOL    HW290661   7.711   0.073   1.731  0.8406 -1.2389 -1.4097
29236SOL     OW90662   2.815  10.067   9.717  0.0468 -0.0542 -0.3475
29236SOL    HW190663   2.864  10.092   9.795 -0.4140 -0.3296  0.0400
29236SOL    HW290664   2.788   9.977   9.734  0.6474 -0.4043 -1.1883
29237SOL     OW90665   1.347  10.181   3.332  0.3447  0.0124 -0.1817
29237SOL    HW190666   1.426  10.196   3.281  0.9167  1.5952  1.0864
29237SOL    HW290667   1.377  10.134   3.410 -0.4451 -1.9283 -0.9593
29238SOL     OW90668   3.922   8.491   7.997 -0.1282  0.3387 -0.1549
29238SOL    HW190669   3.900   8.513   8.087 -1.1152 -0.4849 -0.1800
29238SOL    HW290670   3.846   8.518   7.946 -0.1693 -0.4905 -0.5488
29239SOL     OW90671   5.463   1.392  10.397 -0.0232  0.1381  0.1046
29239SOL    HW190672   5.555   1.408  10.420  0.3942 -1.1888 -0.5521
29239SOL    HW290673   5.453   1.433  10.311  0.0602 -0.0568  0.0020
29240SOL     OW90674   7.735   4.298   1.155  0.1057 -0.1503  0.0679
29240SOL    HW190675   7.806   4.344   1.110 -0.4803  0.5583 -0.1570
29240SOL    HW290676   7.749   4.205   1.133 -0.2918  0.1850 -1.8044
29241SOL     OW90677   1.337   2.288   9.685 -0.3488 -0.0074 -0.0300
29241SOL    HW190678   1.337   2.247   9.598  0.0660 -0.1327  0.0248
29241SOL    HW290679   1.339   2.215   9.746 -0.8140  0.0778  0.0921
29242SOL     OW90680   9.986   7.817   4.724 -0.2689 -0.2801 -0.2871
29242SOL    HW190681  10.058   7.785   4.669  0.2205 -0.3280  0.3669
29242SOL    HW290682   9.916   7.754   4.711 -0.2737 -0.1308 -1.0848
29243SOL     OW90683   5.834   7.814   2.933  0.3479  0.1093 -0.6912
29243SOL    HW190684   5.802   7.762   2.860  1.7068 -0.2837 -1.0455
29243SOL    HW290685   5.882   7.752   2.988  1.5560  0.8472 -0.8606
29244SOL     OW90686   5.629   8.401   3.878 -0.1149 -0.0795 -0.1023
29244SOL    HW190687   5.614   8.351   3.798  0.1565 -0.8145  0.2940
29244SOL    HW290688   5.574   8.478   3.869 -0.2924 -0.2897 -0.8753
29245SOL     OW90689   4.651   0.185   0.316 -0.6152  0.5312  0.1127
29245SOL    HW190690   4.578   0.125   0.302 -0.1870 -0.0081  0.1382
29245SOL    HW290691   4.663   0.229   0.232 -2.2367  2.1074  0.6311
29246SOL     OW90692   7.414   9.762   1.990 -0.2227 -0.1386  0.4457
29246SOL    HW190693   7.497   9.720   2.013  0.8759  1.9809  0.6068
29246SOL    HW290694   7.347   9.699   2.016  1.3242 -2.5249 -0.9875
29247SOL     OW90695   8.869   2.377   7.452  0.3462 -0.1814  0.0374
29247SOL    HW190696   8.816   2.407   7.526 -0.8312  1.9309 -1.5433
29247SOL    HW290697   8.942   2.439   7.449  0.0846  0.1006 -0.8616
29248SOL     OW90698   9.869   3.248   4.741  0.4859  0.5039 -0.3470
29248SOL    HW190699   9.780   3.258   4.709 -0.8443  0.5028  3.0658
29248SOL    HW290700   9.875   3.156   4.768  1.0812  0.8144  0.6196
29249SOL     OW90701   2.178   8.284   4.910 -0.1783 -0.0194  0.3587
29249SOL    HW190702   2.237   8.220   4.949 -0.1379  0.1907  0.6462
29249SOL    HW290703   2.090   8.249   4.927 -0.1863  0.3753  1.1938
29250SOL     OW90704  10.624   3.739   2.176  0.0625 -0.2275 -0.1919
29250SOL    HW190705  10.589   3.687   2.104 -0.6964  0.3744 -0.2668
29250SOL    HW290706  10.705   3.776   2.141  0.1695 -0.6684 -0.4211
29251SOL     OW90707   7.426   3.090   1.070 -0.0317  0.8135  0.3590
29251SOL    HW190708   7.444   3.183   1.053 -1.6742  1.8531  3.4376
29251SOL    HW290709   7.336   3.089   1.103 -1.1544 -2.3515 -2.2415
29252SOL     OW90710   0.459   3.941   3.398 -0.3147 -0.1578  0.1832
29252SOL    HW190711   0.427   3.898   3.318 -1.8757  0.6878  0.3162
29252SOL    HW290712   0.513   4.013   3.366 -0.5353 -0.1204 -0.1181
29253SOL     OW90713   3.177   3.288   8.206 -0.2532  0.2732  0.0769
29253SOL    HW190714   3.216   3.211   8.247 -1.4450  0.2022  1.1287
29253SOL    HW290715   3.223   3.297   8.123  0.8035 -0.7938  0.5252
29254SOL     OW90716   8.300   9.870   9.281  0.0012  0.1063 -0.1273
29254SOL    HW190717   8.301   9.956   9.240  0.1519 -0.3961 -1.2154
29254SOL    HW290718   8.250   9.815   9.221  1.3522 -0.9719 -0.3183
29255SOL     OW90719   6.622   3.394   2.159 -0.3102  0.0247  0.4894
29255SOL    HW190720   6.681   3.429   2.225  0.5860 -1.2711  0.3992
29255SOL    HW290721   6.563   3.337   2.207  0.2112 -0.7583  0.2155
29256SOL     OW90722   6.299   1.320   3.944 -0.1317 -0.1011  0.0870
29256SOL    HW190723   6.248   1.350   4.019 -1.6868 -1.6126 -0.2832
29256SOL    HW290724   6.373   1.273   3.983  0.7124  1.6089  0.6360
29257SOL     OW90725   8.518   4.901   7.190 -0.3527 -0.1595 -0.1143
29257SOL    HW190726   8.534   4.811   7.219  0.2566  0.1079  0.4247
29257SOL    HW290727   8.439   4.927   7.237 -0.8323 -0.5764 -0.6700
29258SOL     OW90728   2.176   9.512   2.564  0.2428  0.3344 -0.6823
29258SOL    HW190729   2.197   9.457   2.640 -0.3119 -1.1446 -1.5732
29258SOL    HW290730   2.259   9.554   2.542  0.7032 -0.1890 -0.0146
29259SOL     OW90731   5.391   0.416   4.261  0.6917  0.2117 -0.5921
29259SOL    HW190732   5.470   0.463   4.288 -0.0101  0.5883  0.9095
29259SOL    HW290733   5.411   0.324   4.276  1.1231  0.2341 -1.0013
29260SOL     OW90734   8.631   7.328  10.457 -0.1654 -0.5335  0.6519
29260SOL    HW190735   8.584   7.399  10.500  1.1624  0.2265  0.9174
29260SOL    HW290736   8.689   7.293  10.525 -1.0372 -2.1241  0.6259
29261SOL     OW90737  10.543   8.144   8.087 -0.1481 -0.1133 -0.6202
29261SOL    HW190738  10.630   8.139   8.127 -1.4335 -1.0693  2.2889
29261SOL    HW290739  10.551   8.092   8.007  1.7747 -0.8287 -0.0272
29262SOL     OW90740   7.909   1.515   1.666 -0.4118  0.0321 -0.3782
29262SOL    HW190741   7.813   1.520   1.667 -0.5341 -1.3526 -1.4048
29262SOL    HW290742   7.928   1.423   1.684  0.7769  0.4488  0.5903
29263SOL     OW90743   1.585   5.374   4.247 -0.0320  0.1727 -0.1389
29263SOL    HW190744   1.558   5.287   4.277 -1.6820  0.6693 -0.1064
29263SOL    HW290745   1.665   5.357   4.195 -1.7764 -1.7521 -2.4442
29264SOL     OW90746   4.433   2.299   3.750 -0.0851  0.6952  0.0839
29264SOL    HW190747   4.500   2.364   3.769  0.1547  1.0914 -1.9645
29264SOL    HW290748   4.458   2.262   3.665 -2.5150  0.9735 -0.8286
29265SOL     OW90749   8.656  10.406   4.612  0.3515  0.7248  0.0340
29265SOL    HW190750   8.660  10.474   4.679 -1.7187 -0.7741  1.8360
29265SOL    HW290751   8.699  10.444   4.535 -1.1632  4.2389  0.7610
29266SOL     OW90752   6.764   1.845   5.809  0.1196  0.0578 -0.8224
29266SOL    HW190753   6.757   1.884   5.722 -1.5926  2.6124  0.3512
29266SOL    HW290754   6.829   1.898   5.855 -1.8098  1.3647  0.6098
29267SOL     OW90755   0.266   6.440   5.918 -0.0503 -0.1342 -0.3958
29267SOL    HW190756   0.214   6.397   5.850  0.3495 -0.4260 -0.5205
29267SOL    HW290757   0.353   6.401   5.910  0.0540 -0.0225  0.1476
29268SOL     OW90758   0.925   6.782   0.792 -0.6112  0.0916  0.2604
29268SOL    HW190759   0.896   6.823   0.874 -0.6896  0.5445  0.0139
29268SOL    HW290760   0.875   6.701   0.786 -0.2218 -0.2045  0.9200
29269SOL     OW90761  10.398   2.224   0.541  0.5719  0.1518 -0.0871
29269SOL    HW190762  10.420   2.219   0.634 -0.9004  2.2082  0.4463
29269SOL    HW290763  10.471   2.272   0.502 -0.6169  2.9261  0.8351
29270SOL     OW90764   0.712   9.374   4.504 -0.6782  0.5227  0.5583
29270SOL    HW190765   0.669   9.289   4.514 -0.0881 -0.0942 -1.7449
29270SOL    HW290766   0.713   9.390   4.410  2.0574  1.6036  0.6843
29271SOL     OW90767   4.475   5.781   2.886  0.0737  0.1940 -0.5209
29271SOL    HW190768   4.487   5.695   2.927  2.2994  0.1887 -1.0532
29271SOL    HW290769   4.471   5.762   2.793  1.1726  0.6905 -0.6826
29272SOL     OW90770   5.910   5.815   3.825  0.5000 -0.6989  0.0195
29272SOL    HW190771   5.957   5.839   3.745  0.0261 -0.4257 -0.1772
29272SOL    HW290772   5.930   5.722   3.838  2.8487 -0.1323  1.1123
29273SOL     OW90773  10.252   2.660   6.906 -0.4928 -0.5023 -0.0625
29273SOL    HW190774  10.173   2.605   6.911 -2.0086  1.5724  0.2762
29273SOL    HW290775  10.253   2.691   6.816  2.2360 -3.5457 -1.2569
29274SOL     OW90776   8.124   1.017   0.566 -0.9057  0.1314  0.5481
29274SOL    HW190777   8.207   1.002   0.520 -0.8100  0.4884  0.5995
29274SOL    HW290778   8.073   0.938   0.551 -0.8273  0.1947 -0.0760
29275SOL     OW90779   3.402   5.239   9.425 -0.1644 -0.2209 -0.4432
29275SOL    HW190780   3.371   5.232   9.515 -2.1901  1.1054 -0.9759
29275SOL    HW290781   3.462   5.313   9.426  1.9368 -1.8388  0.2811
29276SOL     OW90782   4.988   0.607   9.921 -0.1085  0.0829 -0.0921
29276SOL    HW190783   4.905   0.647   9.945 -1.1217 -1.7848 -0.2869
29276SOL    HW290784   5.006   0.544   9.991  1.9412  1.4874  0.7354
29277SOL     OW90785   9.407   6.400   3.147 -0.1003 -0.0266 -0.0692
29277SOL    HW190786   9.386   6.349   3.069  0.0568  0.3722 -0.3786
29277SOL    HW290787   9.375   6.488   3.126  0.4122  0.2030  0.1087
29278SOL     OW90788   5.300   8.223   6.134 -0.2915 -0.1369 -0.4987
29278SOL    HW190789   5.311   8.253   6.224 -0.1068 -0.3147 -0.4599
29278SOL    HW290790   5.283   8.129   6.141 -0.9352 -0.0297 -0.6164
29279SOL     OW90791   3.018   9.669   0.768 -0.0419 -0.4710  0.5357
29279SOL    HW190792   2.922   9.662   0.770 -0.0734 -0.3887 -0.3831
29279SOL    HW290793   3.039   9.692   0.677  0.6530  2.7783  1.3892
29280SOL     OW90794   7.878   1.572  10.518  0.0598 -0.6215 -0.3370
29280SOL    HW190795   7.814   1.502  10.508  0.3876 -0.8110 -1.2008
29280SOL    HW290796   7.872   1.622  10.436 -0.7981  0.9073  0.5964
29281SOL     OW90797   3.700   4.311   0.016  0.3767  0.0545  0.2546
29281SOL    HW190798   3.632   4.368   0.052 -2.6911 -1.9166 -1.8639
29281SOL    HW290799   3.689   4.228   0.064  1.7535 -0.1294  0.2892
29282SOL     OW90800   0.873   0.255   7.382  0.1564 -0.1564 -0.0813
29282SOL    HW190801   0.852   0.243   7.289  3.3985 -0.9376 -0.8476
29282SOL    HW290802   0.840   0.343   7.402 -1.5766 -0.3795 -1.6297
29283SOL     OW90803   3.131   2.528   5.135 -0.0382 -0.9166 -0.6453
29283SOL    HW190804   3.219   2.490   5.131  0.9058  1.0481  0.1383
29283SOL    HW290805   3.135   2.606   5.080 -0.4459  0.6616  1.4300
29284SOL     OW90806   2.668   4.321   6.466 -0.3043 -0.2874  0.4706
29284SOL    HW190807   2.741   4.375   6.495 -1.0119  0.7996  0.2719
29284SOL    HW290808   2.688   4.234   6.500  1.9603 -0.4479 -1.0067
29285SOL     OW90809   0.135   1.496   8.731 -0.2142  0.1788  0.1203
29285SOL    HW190810   0.157   1.518   8.821 -1.6019 -1.7372  0.9911
29285SOL    HW290811   0.105   1.405   8.734  0.2726 -0.1548 -2.3811
29286SOL     OW90812   0.695   9.365  10.249  0.2344 -0.1595 -0.3552
29286SOL    HW190813   0.740   9.440  10.288  0.2735 -0.2790 -0.1706
29286SOL    HW290814   0.765   9.316  10.205  0.4551 -0.8380  0.6985
29287SOL     OW90815   6.646   8.006   1.409 -0.1062  0.6557 -0.1182
29287SOL    HW190816   6.595   8.082   1.437  0.9876  1.1488  0.5946
29287SOL    HW290817   6.736   8.038   1.402  0.6305 -0.8474  1.4915
29288SOL     OW90818   5.822   4.764   8.526 -0.3486 -0.4432  0.3952
29288SOL    HW190819   5.788   4.854   8.531 -1.4280 -0.8731  1.3549
29288SOL    HW290820   5.745   4.710   8.506  0.5703 -1.0131 -1.7876
29289SOL     OW90821   8.275   1.757   3.714  0.1114 -0.3419  0.4054
29289SOL    HW190822   8.209   1.815   3.750  0.6863 -0.5530  1.8762
29289SOL    HW290823   8.281   1.685   3.777  0.4144 -1.2881 -0.6566
29290SOL     OW90824   5.902   5.663   7.509  0.4833 -0.2576  0.1917
29290SOL    HW190825   5.983   5.711   7.493 -1.3584  2.0134 -3.8703
29290SOL    HW290826   5.839   5.730   7.536 -0.8320 -1.3202 -0.1078
29291SOL     OW90827   6.919   1.104  10.311  0.2383 -0.0392  0.1759
29291SOL    HW190828   6.835   1.081  10.353  0.2278 -0.0054  0.1731
29291SOL    HW290829   6.957   1.169  10.369 -0.5265  1.2237 -0.6961
29292SOL     OW90830   4.757   0.123   2.712 -0.0119  0.5128 -0.6830
29292SOL    HW190831   4.771   0.093   2.802 -1.1501 -0.4065 -0.7825
29292SOL    HW290832   4.715   0.049   2.668  0.7554  0.8586 -2.0518
29293SOL     OW90833   2.710   8.832   7.655  0.7501 -0.6243 -0.0305
29293SOL    HW190834   2.641   8.870   7.600  2.3113 -1.3560 -2.6276
29293SOL    HW290835   2.787   8.885   7.637  1.9366 -2.4433 -0.5947
29294SOL     OW90836   7.091   6.626   6.050  0.1380  0.0813  0.3966
29294SOL    HW190837   7.078   6.718   6.026 -2.3681 -0.6935 -1.5568
29294SOL    HW290838   7.034   6.613   6.126  1.1359  0.2806  1.2134
29295SOL     OW90839   3.987   8.735   0.314 -0.5769  0.2066 -0.3747
29295SOL    HW190840   3.997   8.666   0.380 -2.1699 -0.9386 -1.2818
29295SOL    HW290841   4.065   8.789   0.325 -0.2544 -0.5853  1.6972
29296SOL     OW90842   7.151   7.393   8.745 -0.3897  0.0243  0.5659
29296SOL    HW190843   7.132   7.385   8.652  0.1621  0.6714  0.3861
29296SOL    HW290844   7.190   7.480   8.754  0.2115 -0.3031  1.2880
29297SOL     OW90845   0.000   6.966   5.946 -0.1879 -0.5311 -0.2560
29297SOL    HW190846  -0.072   7.001   5.894 -0.4639  0.4902  0.7572
29297SOL    HW290847  -0.040   6.897   5.999 -0.7160  0.7799  1.1206
29298SOL     OW90848  10.503   6.727   2.911  0.7023  0.1649 -0.2475
29298SOL    HW190849  10.510   6.788   2.838  2.1452 -0.1160 -0.3529
29298SOL    HW290850  10.422   6.679   2.894 -0.1756  1.6358 -0.4588
29299SOL     OW90851   7.558   1.113   5.409  0.3346 -0.8775 -0.7640
29299SOL    HW190852   7.588   1.182   5.350  1.7926  0.3409  1.2628
29299SOL    HW290853   7.634   1.095   5.465 -1.1865 -1.4193  1.2152
29300SOL     OW90854   6.731   8.229   6.091  0.2154  0.3539 -0.1966
29300SOL    HW190855   6.802   8.234   6.155 -0.6686  0.0206  0.8236
29300SOL    HW290856   6.776   8.227   6.006  1.5056 -1.7260  0.4802
29301SOL     OW90857   7.335   1.951   1.209 -0.0097 -0.7499  0.9147
29301SOL    HW190858   7.294   2.015   1.267 -0.1530 -1.5607  1.7361
29301SOL    HW290859   7.278   1.874   1.213  0.1419 -0.9369 -0.0754
29302SOL     OW90860   6.926   6.967   7.322  0.5627  0.3456  0.0000
29302SOL    HW190861   6.836   6.938   7.339  0.2319  0.7744 -0.9252
29302SOL    HW290862   6.953   7.010   7.403  0.9936 -2.2404  1.3648
29303SOL     OW90863   9.714   9.239   9.191 -0.5009 -0.4447  0.3456
29303SOL    HW190864   9.690   9.233   9.099 -0.8748 -1.4774  0.4950
29303SOL    HW290865   9.638   9.204   9.238 -1.5536  2.6384  1.2555
29304SOL     OW90866   2.328   0.866   9.379 -0.0111 -0.0734  0.6621
29304SOL    HW190867   2.257   0.877   9.316  0.8225  0.5488 -0.2128
29304SOL    HW290868   2.303   0.789   9.430 -1.7000  0.6248  0.9474
29305SOL     OW90869   6.863  10.195   7.231  0.4485  0.0736  0.1235
29305SOL    HW190870   6.777  10.194   7.190  0.2628 -0.3231  0.5145
29305SOL    HW290871   6.855  10.257   7.304  0.3805 -0.2387  0.3871
29306SOL     OW90872   1.826   2.157   6.845  0.7860  0.2027  0.0430
29306SOL    HW190873   1.815   2.083   6.904  1.6018  1.8563  2.4194
29306SOL    HW290874   1.737   2.189   6.829  0.5999  0.2403  1.1069
29307SOL     OW90875   0.127   0.141   0.272  0.4435  0.1846 -0.1361
29307SOL    HW190876   0.147   0.065   0.326  0.5318  0.8136  0.7394
29307SOL    HW290877   0.168   0.123   0.187  0.8371 -0.5402  0.2057
29308SOL     OW90878   7.234   0.823   4.669  0.2611  0.6484 -0.1726
29308SOL    HW190879   7.178   0.801   4.594 -0.5216  1.5530  0.1138
29308SOL    HW290880   7.294   0.749   4.677  0.7518  0.7808 -2.0529
29309SOL     OW90881   0.111   1.478   5.803 -0.2966  0.0848  0.1111
29309SOL    HW190882   0.206   1.488   5.798 -0.1023 -1.6992 -0.2643
29309SOL    HW290883   0.077   1.567   5.789  1.0928  0.1322 -6.1613
29310SOL     OW90884   9.255   5.563   9.041  0.4912  0.2475  0.4655
29310SOL    HW190885   9.264   5.600   8.953  2.1002 -0.2232  0.3935
29310SOL    HW290886   9.219   5.475   9.026  0.6180  0.2249  0.2967
29311SOL     OW90887   8.666   5.060   6.846 -0.5452  0.6334 -0.0922
29311SOL    HW190888   8.638   5.111   6.770 -0.4107  1.0537  0.1352
29311SOL    HW290889   8.646   5.115   6.921 -0.2938  0.3985  0.1519
29312SOL     OW90890   9.862   2.543   3.810  0.0297  0.6454  0.1422
29312SOL    HW190891   9.927   2.600   3.852  0.0968 -0.8046  2.1700
29312SOL    HW290892   9.910   2.501   3.739  0.1743  2.4791 -0.9223
29313SOL     OW90893   0.917   6.357   5.081 -0.1316 -0.1075 -0.2230
29313SOL    HW190894   0.903   6.302   5.003  0.0217 -0.5167  0.0351
29313SOL    HW290895   1.003   6.397   5.065 -0.9102  1.2861 -1.1347
29314SOL     OW90896   1.676   0.853   1.361  0.2334  0.5695  0.0658
29314SOL    HW190897   1.653   0.764   1.335  0.0314  1.1914 -2.0628
29314SOL    HW290898   1.594   0.891   1.394  0.1838  0.1781  0.4003
29315SOL     OW90899   3.273   5.318   0.773  0.1217  0.1709  0.0695
29315SOL    HW190900   3.280   5.351   0.684  0.4612 -0.3437 -0.0990
29315SOL    HW290901   3.363   5.322   0.807  0.2141 -0.8223 -0.0462
29316SOL     OW90902   7.136   4.044   3.340 -0.2196 -0.5097  0.2743
29316SOL    HW190903   7.096   3.962   3.313  1.4365 -1.2219 -0.1709
29316SOL    HW290904   7.152   4.033   3.434  0.4759 -0.9233  0.1131
29317SOL     OW90905   7.384   9.472   1.813  0.2049 -0.4153 -0.4552
29317SOL    HW190906   7.294   9.465   1.782  0.5130 -1.9875 -1.1014
29317SOL    HW290907   7.420   9.547   1.766 -0.8485  0.4378  0.0630
29318SOL     OW90908  10.390   4.520   6.237 -0.0786 -0.1702 -0.0296
29318SOL    HW190909  10.412   4.464   6.163 -0.8873  0.8920 -1.1076
29318SOL    HW290910  10.463   4.582   6.243  0.1517 -0.4704  0.2844
29319SOL     OW90911   4.422   0.003   7.601 -0.3858 -0.0707 -0.4456
29319SOL    HW190912   4.429  -0.035   7.514 -2.6349  1.4007 -1.3588
29319SOL    HW290913   4.378  -0.064   7.653  2.8239 -1.8275  0.2739
29320SOL     OW90914   7.315   4.483   1.360  0.1203 -0.0195 -0.2668
29320SOL    HW190915   7.378   4.490   1.288  0.0465  1.4385 -0.2162
29320SOL    HW290916   7.353   4.418   1.418  1.8896  1.2062  0.0260
29321SOL     OW90917   2.229   9.437   7.948 -0.1498  0.6293  0.7690
29321SOL    HW190918   2.313   9.452   7.991 -0.0727  1.1402  0.4437
29321SOL    HW290919   2.250   9.380   7.874 -0.3045 -0.3700  1.4714
29322SOL     OW90920   4.191   7.226   1.833 -0.0848  0.3904 -0.0380
29322SOL    HW190921   4.126   7.287   1.869  0.3223  0.8168 -0.0088
29322SOL    HW290922   4.210   7.165   1.905 -0.6013  0.1377 -0.1139
29323SOL     OW90923   3.870   5.771   1.839  0.1617  1.0465  0.5286
29323SOL    HW190924   3.940   5.836   1.844  1.3660 -0.2706  1.7726
29323SOL    HW290925   3.908   5.698   1.791 -0.6971  0.7062  0.3425
29324SOL     OW90926  10.680   0.392   6.314  0.0828  0.2429  0.5145
29324SOL    HW190927  10.751   0.454   6.334  1.0351 -1.1119  1.5335
29324SOL    HW290928  10.601   0.436   6.345  0.3211  2.1229 -1.3340
29325SOL     OW90929   8.114   3.586   3.713  0.7568 -0.0995  0.3706
29325SOL    HW190930   8.091   3.518   3.649  1.7507 -0.7228  0.6453
29325SOL    HW290931   8.210   3.593   3.706  0.7943  0.3451  1.2697
29326SOL     OW90932   2.756   2.802   3.748  0.0571 -0.0827  0.2154
29326SOL    HW190933   2.734   2.827   3.659  1.3698  0.2979 -0.0174
29326SOL    HW290934   2.698   2.729   3.768 -0.1089 -0.2956 -1.0164
29327SOL     OW90935   7.429   8.401  10.668  0.3209  0.2063 -0.4593
29327SOL    HW190936   7.409   8.494  10.678  0.1624  0.0844  0.4660
29327SOL    HW290937   7.364   8.356  10.721  0.6679 -0.4095 -0.5382
29328SOL     OW90938   0.796   1.013   7.063  0.3733 -0.1613 -0.5902
29328SOL    HW190939   0.778   0.951   7.135 -2.3287 -0.9440 -1.8037
29328SOL    HW290940   0.834   0.958   6.994  0.2264 -0.0088 -0.7933
29329SOL     OW90941   8.614   5.348   8.900 -0.0657 -0.5260 -0.3641
29329SOL    HW190942   8.688   5.376   8.846  0.1679 -0.0346  0.1942
29329SOL    HW290943   8.541   5.342   8.839  0.5607 -1.6590 -1.0502
29330SOL     OW90944   4.554   0.287   4.602  0.0958  0.0182 -0.2866
29330SOL    HW190945   4.515   0.254   4.520  1.5806 -0.5794 -0.7869
29330SOL    HW290946   4.613   0.357   4.574  1.4345 -0.9123  0.1398
29331SOL     OW90947   6.837   4.260   8.816 -0.0068  0.8939  0.6408
29331SOL    HW190948   6.770   4.207   8.860  0.4850  0.4854  0.9055
29331SOL    HW290949   6.920   4.228   8.851  0.4094  0.4469 -0.7016
29332SOL     OW90950   5.983   7.189   4.683  0.1656 -0.5415 -0.0582
29332SOL    HW190951   5.912   7.125   4.692 -0.2188 -0.0997  0.0751
29332SOL    HW290952   6.011   7.207   4.773 -0.7191  0.5747  0.0083
29333SOL     OW90953   2.310   4.470   2.488  0.1357  0.2158  0.0673
29333SOL    HW190954   2.317   4.411   2.563 -2.4782 -0.1850  0.1036
29333SOL    HW290955   2.325   4.557   2.525  3.4836 -0.2643  0.1139
29334SOL     OW90956   1.859   7.009   0.623 -0.0032  0.6913 -0.1472
29334SOL    HW190957   1.923   6.953   0.667 -1.0832  0.0537  0.6650
29334SOL    HW290958   1.774   6.982   0.659 -0.8506  0.8038 -1.9442
29335SOL     OW90959   3.568   2.512   9.634 -0.0332 -0.3146  0.2415
29335SOL    HW190960   3.511   2.458   9.578 -0.0608 -0.2782  0.2341
29335SOL    HW290961   3.555   2.601   9.600  1.3514 -0.5169 -0.8976
29336SOL     OW90962   6.306   5.296   3.166 -0.0293 -0.2518  0.2521
29336SOL    HW190963   6.239   5.228   3.154 -0.2692  0.2619 -1.6453
29336SOL    HW290964   6.265   5.376   3.132  1.3436  0.1883 -0.4397
29337SOL     OW90965  10.504   3.577   9.542  0.2742 -0.5358 -0.4445
29337SOL    HW190966  10.509   3.622   9.626 -0.5755 -0.6772 -0.3078
29337SOL    HW290967  10.430   3.517   9.552  1.5941 -2.2557 -0.4748
29338SOL     OW90968   1.120  10.513   4.674  0.6336  0.1182  0.2054
29338SOL    HW190969   1.206  10.543   4.643  0.4242  0.6148  0.0933
29338SOL    HW290970   1.057  10.567   4.626  0.2773  0.2802  0.8431
29339SOL     OW90971   4.858   1.450   2.009 -0.2904 -0.1072  0.3109
29339SOL    HW190972   4.939   1.447   2.061  0.8105  1.6714 -1.1505
29339SOL    HW290973   4.877   1.398   1.932 -0.8660 -0.3869  0.3559
29340SOL     OW90974   8.531   4.898   5.014  0.3813 -0.0705  0.0442
29340SOL    HW190975   8.480   4.866   5.088 -0.8231 -0.1873 -0.8142
29340SOL    HW290976   8.567   4.819   4.973  0.1928 -0.0760 -0.1079
29341SOL     OW90977   2.195   6.864   8.728  0.5297 -0.3471 -0.6524
29341SOL    HW190978   2.181   6.782   8.682 -2.2836  0.7095 -1.9381
29341SOL    HW290979   2.179   6.932   8.662  0.4024  1.2275  0.9079
29342SOL     OW90980   3.542   1.899   2.821 -0.2741 -0.1663  0.3941
29342SOL    HW190981   3.574   1.843   2.891  1.4797  1.5171  1.0129
29342SOL    HW290982   3.609   1.967   2.811 -2.5636  2.2451  0.1662
29343SOL     OW90983   1.551   5.205   3.738 -0.1543  0.1446 -0.3605
29343SOL    HW190984   1.520   5.128   3.787  0.4969 -0.2271 -0.5044
29343SOL    HW290985   1.534   5.184   3.647 -1.7924  1.0388 -0.2838
29344SOL     OW90986   8.254   3.787   0.682 -0.1849  0.5694 -0.0571
29344SOL    HW190987   8.207   3.708   0.657 -1.1276  1.1787 -0.2732
29344SOL    HW290988   8.339   3.779   0.639 -0.4325 -0.1272 -0.4284
29345SOL     OW90989   4.007   8.022   2.918  0.2806 -0.2846 -0.4726
29345SOL    HW190990   3.929   8.026   2.862 -0.4765 -1.7717  0.4114
29345SOL    HW290991   3.974   8.037   3.007  1.6540  3.5284 -0.3954
29346SOL     OW90992   5.795   6.520   8.228  0.1095  0.0811 -0.2951
29346SOL    HW190993   5.739   6.531   8.305 -1.1195 -0.5292 -1.0633
29346SOL    HW290994   5.804   6.426   8.218 -1.2418  0.0866 -1.9077
29347SOL     OW90995   9.855   6.458   8.277 -0.4684 -0.0627 -0.4788
29347SOL    HW190996   9.776   6.436   8.228 -0.5611 -1.6599  0.3156
29347SOL    HW290997   9.902   6.375   8.286  0.8758  0.6999 -0.1894
29348SOL     OW90998   3.784   5.305   9.301 -1.1272 -0.0523  0.2644
29348SOL    HW190999   3.720   5.337   9.238 -0.7687 -0.6163 -0.4075
29348SOL    HW291000   3.752   5.219   9.327 -1.8666  0.6367  1.7387
29349SOL     OW91001   3.437   3.789   8.625 -0.0121 -0.6051  0.2189
29349SOL    HW191002   3.493   3.749   8.691  1.1887  0.1005 -0.3384
29349SOL    HW291003   3.402   3.868   8.668 -0.4445 -0.9550  0.5113
29350SOL     OW91004   7.979   0.794   1.414 -0.1621 -0.5772  0.1433
29350SOL    HW191005   8.070   0.792   1.383 -0.3612 -1.8504 -0.4107
29350SOL    HW291006   7.960   0.887   1.427  0.7673 -0.2019 -1.0707
29351SOL     OW91007   9.203   9.231   0.715  0.1212  0.3095  0.1789
29351SOL    HW191008   9.185   9.307   0.660 -0.6388  0.8426  1.1313
29351SOL    HW291009   9.298   9.232   0.727  0.2518  0.3820 -0.8278
29352SOL     OW91010   1.234   9.865   2.877  0.2456  0.0724 -0.2556
29352SOL    HW191011   1.275   9.783   2.904 -0.2306  0.2380  1.0604
29352SOL    HW291012   1.230   9.918   2.957 -0.6064  0.8805 -0.8044
29353SOL     OW91013   6.635   6.701   5.783 -0.2025  0.2876 -0.6366
29353SOL    HW191014   6.687   6.780   5.771  0.5708  0.0687  1.0154
29353SOL    HW291015   6.663   6.666   5.867 -1.7809 -0.7997 -0.5092
29354SOL     OW91016   0.696   4.003   0.897 -0.4118 -0.2184 -0.1955
29354SOL    HW191017   0.674   4.062   0.970  0.2475 -1.6060  1.1815
29354SOL    HW291018   0.627   4.018   0.833  0.6128  3.3001 -0.7094
29355SOL     OW91019   2.066   3.354   6.738  0.0513  0.0256  0.1506
29355SOL    HW191020   2.124   3.308   6.677 -1.0880  0.6057 -1.4068
29355SOL    HW291021   1.978   3.335   6.707 -0.4907  3.4887 -0.7844
29356SOL     OW91022   7.320   8.581   8.674 -0.1906  0.8399 -0.2708
29356SOL    HW191023   7.320   8.675   8.691 -1.5628  0.8481 -0.2148
29356SOL    HW291024   7.398   8.548   8.720 -0.5200  1.7226  0.9689
29357SOL     OW91025   7.560   8.000   6.217 -0.3340  0.1079 -0.1714
29357SOL    HW191026   7.471   7.997   6.181  0.0630 -1.4400 -1.1165
29357SOL    HW291027   7.616   8.007   6.139  0.3826  1.8154  0.4400
29358SOL     OW91028   8.923   2.906   4.291 -0.3760 -0.3989  0.1752
29358SOL    HW191029   8.973   2.917   4.372  2.0851 -1.2185 -1.1589
29358SOL    HW291030   8.840   2.867   4.320  0.5100 -0.8844  2.2673
29359SOL     OW91031   1.232   6.139   7.475  1.1181  0.1289 -0.4955
29359SOL    HW191032   1.157   6.123   7.533  0.3039 -2.1605 -2.0702
29359SOL    HW291033   1.229   6.233   7.458 -1.0848  0.1843 -0.0868
29360SOL     OW91034   1.620   0.494   9.186 -0.1363  0.6945  0.4012
29360SOL    HW191035   1.586   0.405   9.196 -0.1571  0.8689  2.1269
29360SOL    HW291036   1.590   0.521   9.099 -0.5856 -0.7791  0.0666
29361SOL     OW91037  10.475   9.282   1.501  0.1883  0.1882  0.4060
29361SOL    HW191038  10.520   9.209   1.458 -0.2521 -0.1552  0.5194
29361SOL    HW291039  10.403   9.304   1.443 -0.2346 -0.0865  0.8162
29362SOL     OW91040   6.160   1.770   9.871 -0.0700 -0.3785  0.0194
29362SOL    HW191041   6.083   1.814   9.834  0.3937  0.1231 -0.3715
29362SOL    HW291042   6.153   1.680   9.840 -0.2859 -0.2338 -0.3627
29363SOL     OW91043   0.663   9.923   2.691  0.3732 -0.0056  0.4721
29363SOL    HW191044   0.743   9.909   2.742 -0.0372  0.3077  1.2158
29363SOL    HW291045   0.628   9.835   2.677  0.5399 -0.0999  0.6462
29364SOL     OW91046   9.939   5.885   1.656 -0.2472  0.1835 -0.3260
29364SOL    HW191047   9.974   5.941   1.726 -1.0282  1.9660 -1.3027
29364SOL    HW291048  10.012   5.828   1.633  1.0530  1.7212 -0.2053
29365SOL     OW91049   3.102   0.498   0.209  0.1458 -0.9135 -0.0809
29365SOL    HW191050   3.104   0.558   0.134 -0.3104 -0.3875  0.3184
29365SOL    HW291051   3.089   0.411   0.170 -1.5037 -0.4954 -0.5493
29366SOL     OW91052   2.140   7.648   4.986  0.6163  0.1867 -0.0691
29366SOL    HW191053   2.124   7.561   5.022  0.8365  0.6183  1.1258
29366SOL    HW291054   2.122   7.639   4.892 -0.1777 -0.9285  0.1671
29367SOL     OW91055   1.349  10.036   1.291  0.4676 -0.5436 -0.0021
29367SOL    HW191056   1.368  10.016   1.383  2.3186 -1.1020 -0.4765
29367SOL    HW291057   1.405   9.977   1.241  0.2218  0.4279 -1.4880
29368SOL     OW91058   8.784   4.099   0.882  0.1342  0.0932  0.5249
29368SOL    HW191059   8.700   4.055   0.891 -0.3295  0.9039  0.3214
29368SOL    HW291060   8.847   4.029   0.864 -0.5804 -0.4707  0.1816
29369SOL     OW91061   7.608   2.465   5.467  0.0703  0.4135  0.5697
29369SOL    HW191062   7.613   2.505   5.554 -1.2246  0.4099  0.6739
29369SOL    HW291063   7.647   2.378   5.479 -1.3588 -0.1394  1.5310
29370SOL     OW91064   0.976   5.688  10.494  0.1981  0.0159 -0.1203
29370SOL    HW191065   1.040   5.692  10.564  0.3359 -2.0261 -0.0706
29370SOL    HW291066   0.985   5.772  10.448  0.8842  0.9248  1.5880
29371SOL     OW91067   3.168   5.756   2.788 -0.0849  0.0012  0.0659
29371SOL    HW191068   3.082   5.772   2.748 -0.0285 -2.0841 -1.0208
29371SOL    HW291069   3.230   5.765   2.717  0.4407  0.0441  0.5234
29372SOL     OW91070   5.656   0.469   3.986 -0.1444  0.3421 -0.3409
29372SOL    HW191071   5.596   0.490   3.914 -1.2544  1.7978  0.9386
29372SOL    HW291072   5.622   0.387   4.023 -0.8058  0.6728 -0.2069
29373SOL     OW91073   0.974   1.017   0.538  0.5494 -0.3289  0.1937
29373SOL    HW191074   0.954   1.073   0.613 -1.1456 -0.4517 -0.1341
29373SOL    HW291075   1.052   1.057   0.499  0.3412  0.8359  0.9105
29374SOL     OW91076   2.056   8.274   3.586 -0.2271  0.1665  0.6420
29374SOL    HW191077   2.043   8.273   3.681 -0.7526 -1.5718  0.5896
29374SOL    HW291078   1.968   8.284   3.550 -0.2114 -0.7118  0.3388
29375SOL     OW91079   9.297   9.145   8.515  0.7766 -0.5352  0.0081
29375SOL    HW191080   9.312   9.171   8.424 -1.5889  0.3237 -0.2101
29375SOL    HW291081   9.311   9.225   8.566 -0.6930 -0.2422  0.0183
29376SOL     OW91082   8.566   2.082   0.899 -0.0584  0.0650 -0.4813
29376SOL    HW191083   8.606   1.997   0.917 -0.1421  0.1977  0.3469
29376SOL    HW291084   8.473   2.063   0.890 -0.1947  0.1849  0.5676
29377SOL     OW91085   8.747   2.520   2.891 -0.5779  0.5299  0.5671
29377SOL    HW191086   8.666   2.549   2.849 -1.2467  0.4667  1.7943
29377SOL    HW291087   8.815   2.573   2.849 -0.9967 -0.5439 -1.6638
29378SOL     OW91088   5.637   5.371   1.674 -0.3025 -0.0423 -0.1528
29378SOL    HW191089   5.604   5.282   1.660 -0.4461  0.2184 -1.6712
29378SOL    HW291090   5.730   5.366   1.650 -0.5918  0.4617 -1.4776
29379SOL     OW91091   9.194   5.462   6.100 -0.2000 -0.6796 -0.4909
29379SOL    HW191092   9.159   5.375   6.082 -2.3597 -0.3549  1.5157
29379SOL    HW291093   9.128   5.502   6.158  0.7090  2.2864 -1.3258
29380SOL     OW91094   3.759   1.972   8.904 -0.0972  0.0496  0.1682
29380SOL    HW191095   3.804   1.915   8.842 -2.1394  0.1674 -1.5392
29380SOL    HW291096   3.725   1.912   8.970  0.6176 -0.2884  0.2423
29381SOL     OW91097   5.587   8.684   3.285 -0.3033 -0.1538  0.2200
29381SOL    HW191098   5.616   8.700   3.196  1.5615  0.2935  0.8543
29381SOL    HW291099   5.633   8.603   3.310 -0.1957  0.1508  1.0228
29382SOL     OW91100   8.889   6.427   4.937  0.0709  0.0108  0.0585
29382SOL    HW191101   8.887   6.377   4.855 -0.7890  1.7822 -1.0636
29382SOL    HW291102   8.820   6.388   4.991  1.2836 -1.7992  0.3932
29383SOL     OW91103   6.310   6.382   0.180 -0.8080 -0.4615  0.4133
29383SOL    HW191104   6.395   6.371   0.137  0.0265 -1.1880  2.1275
29383SOL    HW291105   6.282   6.470   0.156  1.2196  0.4209  1.0987
29384SOL     OW91106   1.065   3.510   0.815 -0.1236  0.3795  0.0244
29384SOL    HW191107   1.154   3.476   0.818 -0.0648  0.6232  2.2839
29384SOL    HW291108   1.015   3.441   0.770  0.5782 -1.3372  1.7472
29385SOL     OW91109   8.209   8.112   4.978 -0.1932  0.0981  1.0145
29385SOL    HW191110   8.233   8.198   5.014 -0.3669 -0.0311  1.4439
29385SOL    HW291111   8.282   8.055   5.003 -0.2915  0.0193  1.1223
29386SOL     OW91112  10.173   6.833   4.702 -0.0791  0.3558  0.2439
29386SOL    HW191113  10.100   6.780   4.734  0.1206  0.0999  0.2777
29386SOL    HW291114  10.206   6.784   4.626  1.0210 -0.3174  1.1262
29387SOL     OW91115   9.601   4.726   5.360  0.8295 -0.4080 -0.2844
29387SOL    HW191116   9.549   4.659   5.405  1.0930 -0.6109 -0.2816
29387SOL    HW291117   9.559   4.735   5.275  1.8076 -1.8251 -0.9588
29388SOL     OW91118   4.807   7.713   3.693 -0.3372  0.0017  0.2516
29388SOL    HW191119   4.721   7.673   3.681 -0.1918 -0.7268  1.4394
29388SOL    HW291120   4.868   7.652   3.651 -0.3788  0.4859 -0.5335
29389SOL     OW91121   9.698   5.153   0.660 -0.7928  0.3216  0.3105
29389SOL    HW191122   9.630   5.103   0.615  0.9129 -2.3456  0.4981
29389SOL    HW291123   9.735   5.209   0.591  0.8792 -2.7238 -1.4817
29390SOL     OW91124   9.281   2.267   1.159  0.4473  0.2725 -0.4825
29390SOL    HW191125   9.264   2.253   1.252 -0.7136 -0.2235 -0.7536
29390SOL    HW291126   9.376   2.255   1.150  0.7407  1.3234  0.7903
29391SOL     OW91127   7.399   5.736   1.256  0.3615 -0.1588 -0.5098
29391SOL    HW191128   7.316   5.696   1.282 -0.1383  0.6741 -0.7922
29391SOL    HW291129   7.428   5.684   1.181  0.9554 -1.5073  0.6190
29392SOL     OW91130   8.625   3.672   4.031  0.3590 -0.0593  0.0897
29392SOL    HW191131   8.708   3.637   3.999  0.3351  1.2745 -1.5688
29392SOL    HW291132   8.631   3.665   4.126  2.7330  0.7688  0.0566
29393SOL     OW91133   7.496   8.203   2.926  0.2928 -0.2983 -0.7047
29393SOL    HW191134   7.462   8.244   2.846  0.0448  0.9627  0.0236
29393SOL    HW291135   7.533   8.276   2.976 -1.3641 -0.7055  1.2486
29394SOL     OW91136   9.132   9.986   3.735 -0.1897 -0.3242  0.2070
29394SOL    HW191137   9.118  10.074   3.702 -0.4533 -0.6689 -0.6359
29394SOL    HW291138   9.071   9.932   3.685  1.1721 -1.2438 -0.5041
29395SOL     OW91139   8.538   7.711   8.070 -0.0294 -0.2644 -0.3997
29395SOL    HW191140   8.458   7.718   8.123 -0.1564 -0.2925 -0.5880
29395SOL    HW291141   8.506   7.699   7.980  0.1577  1.3282 -0.7129
29396SOL     OW91142   4.934   7.729   6.739 -0.2934  0.2877  0.2803
29396SOL    HW191143   4.904   7.794   6.803 -0.0067  0.9170 -0.2171
29396SOL    HW291144   4.865   7.662   6.738  0.0458 -0.1195  1.7962
29397SOL     OW91145   7.555   2.332   9.204 -0.5898 -0.0632  0.4088
29397SOL    HW191146   7.493   2.403   9.189 -2.4036 -1.5517  0.4293
29397SOL    HW291147   7.530   2.296   9.289  1.6013  0.5118  1.3499
29398SOL     OW91148   9.634   2.518   1.695  0.7479  0.3811 -0.3331
29398SOL    HW191149   9.660   2.449   1.756 -1.3281 -0.7575 -0.6517
29398SOL    HW291150   9.636   2.598   1.748  3.0263  0.1312  0.0899
29399SOL     OW91151   3.331   6.395  10.479  0.1777 -0.0194  0.7586
29399SOL    HW191152   3.368   6.430  10.398 -1.5050 -0.8765 -0.4238
29399SOL    HW291153   3.349   6.463  10.545  2.1243  0.4141 -0.1586
29400SOL     OW91154   1.166   7.106   6.054 -0.0078  0.1679  0.1126
29400SOL    HW191155   1.201   7.105   5.965 -0.6257  0.0308 -0.1326
29400SOL    HW291156   1.227   7.163   6.103  1.4146 -1.2449  0.0682
29401SOL     OW91157   1.359   5.002   7.275 -1.1695  0.2465 -0.0375
29401SOL    HW191158   1.376   5.048   7.192  0.4895  0.2623  0.2717
29401SOL    HW291159   1.273   4.962   7.263  0.7389 -3.5711 -3.6024
29402SOL     OW91160   5.476   7.139   4.734  0.1413 -0.3502  0.0792
29402SOL    HW191161   5.488   7.105   4.823 -0.8657 -1.6686 -0.2441
29402SOL    HW291162   5.382   7.131   4.719 -0.3382  3.2811  0.1742
29403SOL     OW91163   1.170   3.366   3.921 -0.0625 -0.3537  0.6804
29403SOL    HW191164   1.171   3.448   3.971  0.0543  0.0248  0.0592
29403SOL    HW291165   1.224   3.307   3.973  1.3861  0.5088  0.2265
29404SOL     OW91166  10.426   4.004   3.709  0.2944  0.4174 -0.2721
29404SOL    HW191167  10.431   4.095   3.741 -1.6474  0.6044 -0.3513
29404SOL    HW291168  10.365   3.961   3.769  1.8671 -1.1271  0.3014
29405SOL     OW91169   4.597   3.646   9.792 -0.4381 -0.2743  0.8326
29405SOL    HW191170   4.588   3.624   9.885 -2.8092 -1.9960  0.2972
29405SOL    HW291171   4.610   3.562   9.748  0.4760  0.4906 -0.4409
29406SOL     OW91172   6.306   8.389   6.204 -0.2895  0.1943 -0.1576
29406SOL    HW191173   6.276   8.312   6.156 -1.8946  1.1019 -0.6933
29406SOL    HW291174   6.381   8.358   6.255 -3.0165 -2.7758  2.5931
29407SOL     OW91175   6.226   0.101   0.565  0.0133 -0.0164 -0.2131
29407SOL    HW191176   6.272   0.111   0.648  1.2407  0.6907 -0.9613
29407SOL    HW291177   6.165   0.175   0.561 -0.4189 -0.3387  0.2737
29408SOL     OW91178   9.017   1.721   1.351 -0.3882  0.5631 -0.0952
29408SOL    HW191179   8.977   1.687   1.271 -0.4346  1.7282 -0.5915
29408SOL    HW291180   9.035   1.813   1.331  2.3355  0.1578  0.1861
29409SOL     OW91181   2.584   0.265   8.036 -0.0637 -0.1098 -0.1376
29409SOL    HW191182   2.632   0.326   8.092 -0.8839 -0.0119  0.4870
29409SOL    HW291183   2.603   0.293   7.947 -1.3986  1.8543  0.1435
29410SOL     OW91184   5.888   9.181   7.823  0.2410 -0.8785 -0.0720
29410SOL    HW191185   5.867   9.088   7.819  0.6294 -0.9313 -1.0624
29410SOL    HW291186   5.880   9.212   7.733 -0.3445  0.1564  0.3221
29411SOL     OW91187   5.053  10.056   5.607 -0.6114  0.1290 -0.4997
29411SOL    HW191188   5.110  10.087   5.677 -1.5838  0.2201  0.2740
29411SOL    HW291189   5.093   9.975   5.577  0.7623  0.9768 -1.0491
29412SOL     OW91190   8.935   7.622   4.978 -0.3930 -0.2955  0.1277
29412SOL    HW191191   8.899   7.559   4.914 -1.4325 -0.0998  0.4981
29412SOL    HW291192   8.992   7.678   4.926 -1.0928 -0.2465 -0.6166
29413SOL     OW91193   4.789   2.999   2.409 -1.1162  0.0593  0.2712
29413SOL    HW191194   4.863   2.979   2.466 -0.6307 -1.1920 -0.7551
29413SOL    HW291195   4.828   3.047   2.336 -1.3508 -0.3551 -0.1327
29414SOL     OW91196   8.184   0.749   1.125 -0.2544  0.0273 -0.4510
29414SOL    HW191197   8.215   0.780   1.040  1.0621 -3.1615 -1.2762
29414SOL    HW291198   8.217   0.814   1.187  0.8307  1.1844 -2.1516
29415SOL     OW91199   3.766   9.581   2.873  0.3290  0.0752  0.6014
29415SOL    HW191200   3.763   9.602   2.966  1.1351 -0.2018  0.6916
29415SOL    HW291201   3.797   9.491   2.869  1.6686  0.5339  0.0176
29416SOL     OW91202   4.976   1.822   5.860  0.0483  0.7465  0.1838
29416SOL    HW191203   4.922   1.900   5.876 -0.5145  0.7959 -1.6913
29416SOL    HW291204   5.035   1.848   5.789 -0.1724 -0.5429 -0.4949
29417SOL     OW91205   0.919   7.914   8.106 -0.0913  0.5374 -0.0091
29417SOL    HW191206   0.919   7.834   8.053  2.2482  0.2544  0.3384
29417SOL    HW291207   0.862   7.974   8.058  0.2241 -0.4435 -1.6981
29418SOL     OW91208   2.242   1.373   1.408 -0.0591 -0.1742  0.0051
29418SOL    HW191209   2.266   1.326   1.328 -1.0542  0.1233 -0.4962
29418SOL    HW291210   2.325   1.394   1.450  0.4550 -0.8989 -0.6254
29419SOL     OW91211   0.340   1.195   9.053 -0.1841  0.4463  0.1170
29419SOL    HW191212   0.379   1.206   8.966  0.3705  1.3313  0.4563
29419SOL    HW291213   0.268   1.134   9.039  0.1858  0.2065 -0.8756
29420SOL     OW91214   8.534   3.913   6.045 -0.0102 -0.2745 -0.1359
29420SOL    HW191215   8.500   3.977   5.982  1.4819 -0.2504 -0.9584
29420SOL    HW291216   8.587   3.965   6.105 -1.1916 -0.3425  0.9931
29421SOL     OW91217  10.555   5.384   8.308  0.4582  0.0355 -0.0649
29421SOL    HW191218  10.607   5.364   8.230  1.0852 -1.9017  0.7919
29421SOL    HW291219  10.598   5.335   8.378 -1.2298  0.1964  1.1178
29422SOL     OW91220   0.091   5.182   9.801  0.2482 -0.2284  0.7587
29422SOL    HW191221   0.079   5.168   9.707  1.6404 -0.4796  0.6102
29422SOL    HW291222   0.002   5.193   9.835 -0.2185  2.4733 -0.9820
29423SOL     OW91223   7.326   4.426   4.733  0.2080 -0.5702 -0.0986
29423SOL    HW191224   7.272   4.505   4.723  0.1971 -0.2869  1.9419
29423SOL    HW291225   7.322   4.384   4.647 -2.5325 -0.0835 -0.2956
29424SOL     OW91226   8.933   8.083   9.246 -0.4661 -0.6495  0.2392
29424SOL    HW191227   8.914   8.169   9.208 -1.8724 -0.6240  0.9514
29424SOL    HW291228   9.028   8.076   9.244 -0.3452  0.8718  0.0688
29425SOL     OW91229   2.249   4.002   4.025 -0.4351  0.0888 -0.2374
29425SOL    HW191230   2.231   4.066   3.956  0.0602  0.0479 -0.4119
29425SOL    HW291231   2.319   4.041   4.077 -2.7989  1.5021  2.1275
29426SOL     OW91232   5.206   2.753   6.727 -0.6416 -0.8043 -0.1947
29426SOL    HW191233   5.220   2.793   6.813 -5.1852  2.1670 -0.4277
29426SOL    HW291234   5.265   2.800   6.668 -1.0272  0.7896  0.6368
29427SOL     OW91235   8.163   8.799   7.932 -0.0595  0.1703 -0.1329
29427SOL    HW191236   8.253   8.801   7.902 -0.1340 -0.0454 -0.3762
29427SOL    HW291237   8.147   8.707   7.956 -0.8030 -0.2045 -1.9384
29428SOL     OW91238   1.458   9.055   0.415  0.0552 -0.3614  0.1686
29428SOL    HW191239   1.428   8.967   0.439 -0.3669 -0.0922  0.6343
29428SOL    HW291240   1.408   9.076   0.336 -0.5652 -0.1480  0.6145
29429SOL     OW91241   2.076   1.094   0.426 -0.1651  0.0699 -0.6212
29429SOL    HW191242   2.144   1.096   0.493  0.3864  0.5832 -1.1826
29429SOL    HW291243   2.119   1.057   0.349 -0.5935  0.1542 -0.9057
29430SOL     OW91244   2.141   3.796   9.226 -0.1057  0.1106  0.1267
29430SOL    HW191245   2.104   3.884   9.231 -0.8339 -0.1619 -0.3587
29430SOL    HW291246   2.078   3.741   9.272  0.9735  0.0214  1.5573
29431SOL     OW91247   2.532   6.885   7.579 -0.1413 -0.2299  0.5659
29431SOL    HW191248   2.583   6.816   7.537 -1.4530  0.1546 -1.8016
29431SOL    HW291249   2.507   6.944   7.509  0.3258  2.3339  2.4096
29432SOL     OW91250   5.210   5.386   9.976  0.4911 -0.1187  0.3351
29432SOL    HW191251   5.298   5.350   9.961  0.3716 -0.0406 -0.6075
29432SOL    HW291252   5.224   5.453  10.043  1.3208  0.5337 -0.4606
29433SOL     OW91253   6.803   8.662   0.133  0.3051  0.8741  0.1623
29433SOL    HW191254   6.783   8.726   0.065 -0.7195  0.8716  0.4408
29433SOL    HW291255   6.855   8.595   0.088  0.1782  1.1918 -0.4702
29434SOL     OW91256   9.724   8.745   8.225  0.0452  0.6205  0.1780
29434SOL    HW191257   9.793   8.722   8.287 -0.0006 -2.4488 -0.7601
29434SOL    HW291258   9.646   8.699   8.257 -0.1956 -0.2958 -1.5901
29435SOL     OW91259   7.080   8.678   2.833 -0.0341 -0.8287 -0.0019
29435SOL    HW191260   7.007   8.738   2.813  1.0322 -0.7276 -4.9751
29435SOL    HW291261   7.042   8.591   2.823  0.1199 -0.7938 -1.0085
29436SOL     OW91262   0.111   4.922   9.915  0.1286 -0.1715  0.1949
29436SOL    HW191263   0.134   4.964   9.998  0.5047  0.5442 -0.2712
29436SOL    HW291264   0.179   4.948   9.854  0.0676 -1.0092 -0.2544
29437SOL     OW91265   9.426   9.354   3.743  0.5165  0.1372 -0.2735
29437SOL    HW191266   9.361   9.308   3.796  0.6478 -0.1416 -0.3574
29437SOL    HW291267   9.420   9.445   3.772  0.5977 -0.0173  0.2300
29438SOL     OW91268   6.504  10.388  10.071 -0.5527 -0.1899  0.8930
29438SOL    HW191269   6.569  10.373  10.140  1.4637  1.6974 -0.4641
29438SOL    HW291270   6.493  10.302  10.030 -0.3284 -0.9296  2.3103
29439SOL     OW91271   0.220   4.177   6.565  0.2382  0.2736  0.2414
29439SOL    HW191272   0.187   4.262   6.596  1.2202  0.5863  0.4516
29439SOL    HW291273   0.256   4.136   6.644  2.5762  0.9835 -0.3965
29440SOL     OW91274   3.063   5.885  10.009  0.2510  0.4999  1.0641
29440SOL    HW191275   2.997   5.915  10.072 -1.2248  0.5700 -0.4592
29440SOL    HW291276   3.035   5.797   9.986 -2.0730  2.0264 -2.9535
29441SOL     OW91277  10.071   7.973   3.168  0.1913  0.1073 -0.0903
29441SOL    HW191278  10.089   7.879   3.161  0.5057  0.0907  0.8168
29441SOL    HW291279  10.009   7.991   3.098  1.1306 -0.5229 -1.1300
29442SOL     OW91280   9.415   4.041   5.942  0.1882 -0.0585 -0.0580
29442SOL    HW191281   9.502   4.030   5.979 -0.5424  1.7687  2.4540
29442SOL    HW291282   9.381   4.121   5.982 -2.7231 -0.7905 -0.8060
29443SOL     OW91283   3.650   1.484   0.717  0.1325 -0.4188  0.2252
29443SOL    HW191284   3.656   1.389   0.726 -0.3718 -0.5198 -0.4333
29443SOL    HW291285   3.556   1.502   0.716  0.2014  0.2844  2.1738
29444SOL     OW91286   0.401  10.197   5.344  0.7792 -0.1093 -0.3844
29444SOL    HW191287   0.459  10.122   5.352  2.1610  0.9882  0.2015
29444SOL    HW291288   0.422  10.236   5.259  0.6227  0.0714 -0.3414
29445SOL     OW91289  10.043   6.889   2.654  0.6865 -0.6374 -0.1957
29445SOL    HW191290   9.962   6.851   2.619  0.4597 -0.0228 -0.3408
29445SOL    HW291291  10.107   6.878   2.584  0.7055 -1.0310 -0.1201
29446SOL     OW91292   2.473   7.283   6.638  0.3869 -0.2767 -0.6869
29446SOL    HW191293   2.496   7.291   6.731 -2.9670 -0.4429  0.2996
29446SOL    HW291294   2.450   7.191   6.627 -0.8054  0.0711 -1.2305
29447SOL     OW91295   5.718   8.890   5.351 -0.0503  0.5404  0.1387
29447SOL    HW191296   5.751   8.802   5.333 -1.9565 -0.4457  1.1893
29447SOL    HW291297   5.718   8.933   5.266 -0.1005 -0.8441 -0.5938
29448SOL     OW91298   2.026   0.863   4.662 -0.3205 -0.3121  0.1479
29448SOL    HW191299   1.988   0.861   4.575  0.2053 -0.7666 -0.0761
29448SOL    HW291300   1.978   0.795   4.711 -2.5988  1.8258  1.0805
29449SOL     OW91301   6.993   8.409   8.276 -0.4134 -0.1750 -0.0742
29449SOL    HW191302   6.986   8.434   8.184 -2.1612 -0.6607 -0.0987
29449SOL    HW291303   6.903   8.404   8.307  0.1315 -0.4135  1.5664
29450SOL     OW91304   7.894   1.743   8.523 -0.2524 -0.0470 -0.3928
29450SOL    HW191305   7.922   1.736   8.431  0.3296 -2.0225 -0.1148
29450SOL    HW291306   7.939   1.821   8.556 -0.7959  0.9262 -1.8752
29451SOL     OW91307   1.556   1.233   5.877 -0.2908 -0.0181  0.1251
29451SOL    HW191308   1.539   1.188   5.794 -0.0392  1.8294 -0.9628
29451SOL    HW291309   1.648   1.260   5.871 -0.8099  1.8787  0.0959
29452SOL     OW91310   9.087   0.124   0.100 -0.4878 -0.0479 -0.1953
29452SOL    HW191311   9.037   0.198   0.133  2.4303  1.0864  2.1318
29452SOL    HW291312   9.162   0.164   0.056  0.4888 -1.6213 -0.0182
29453SOL     OW91313   8.289   5.864   4.195 -0.3646 -0.0633  0.1670
29453SOL    HW191314   8.247   5.815   4.265  1.4963 -0.1585  1.2943
29453SOL    HW291315   8.342   5.930   4.241 -1.2033  1.6808 -1.2493
29454SOL     OW91316   7.993   3.075   2.337  0.0391  0.5530  0.9118
29454SOL    HW191317   8.060   3.143   2.345 -0.0588  0.4992  2.3302
29454SOL    HW291318   7.987   3.037   2.424 -1.2518 -0.0141  0.5883
29455SOL     OW91319   5.939   7.564   5.689 -0.4686 -0.5883 -0.3779
29455SOL    HW191320   6.021   7.613   5.693 -2.6213  3.3961 -0.1153
29455SOL    HW291321   5.935   7.518   5.773  0.2804  1.4077  0.8156
29456SOL     OW91322   9.910   3.867   2.809  0.5607 -0.1706 -0.2093
29456SOL    HW191323   9.831   3.842   2.858  0.3534 -1.0493 -0.9681
29456SOL    HW291324   9.884   3.859   2.717  1.1023  0.9568 -0.4745
29457SOL     OW91325   6.130   0.536  10.308 -0.5335 -0.5557 -0.1223
29457SOL    HW191326   6.140   0.471  10.377  1.1750 -0.4446 -0.2065
29457SOL    HW291327   6.205   0.519  10.250 -0.9329  0.5036 -0.9665
29458SOL     OW91328   0.210   0.308   5.100 -0.0857 -0.1839  0.0202
29458SOL    HW191329   0.303   0.331   5.103  0.2977 -1.7157  1.0671
29458SOL    HW291330   0.178   0.348   5.019  1.3646  0.7700 -0.1194
29459SOL     OW91331   0.445   2.350   3.452  0.5453 -0.9094  0.0613
29459SOL    HW191332   0.500   2.299   3.393  2.6259  0.5533  0.6301
29459SOL    HW291333   0.453   2.440   3.422  0.7000 -0.2868  1.8241
29460SOL     OW91334   4.695   8.608   0.565 -0.0801 -0.2405 -0.5758
29460SOL    HW191335   4.606   8.619   0.597  0.3724  1.8459  0.1119
29460SOL    HW291336   4.750   8.619   0.643  0.8488  0.4033 -1.3046
29461SOL     OW91337   4.065   9.890  10.121 -0.4459  0.0787 -0.3726
29461SOL    HW191338   4.128   9.952  10.158 -1.1843  1.3481 -1.1880
29461SOL    HW291339   3.996   9.883  10.188 -0.4919  0.3520 -0.3913
29462SOL     OW91340   4.068   3.760   4.200  0.7776  0.3998  0.1600
29462SOL    HW191341   4.063   3.738   4.107  0.9257  1.5443 -0.1347
29462SOL    HW291342   4.160   3.782   4.215  0.2479  3.2394 -0.1811
29463SOL     OW91343   9.618   6.403   2.874 -0.1576  0.1840 -0.3852
29463SOL    HW191344   9.577   6.403   2.960 -0.5390 -1.6684 -0.5142
29463SOL    HW291345   9.546   6.384   2.813  0.0670  1.6771 -1.1545
29464SOL     OW91346   5.252   1.551   3.739 -0.2923  0.2612 -0.4650
29464SOL    HW191347   5.190   1.527   3.808  0.3675  1.0279  0.4113
29464SOL    HW291348   5.203   1.609   3.681  0.0311  2.2049  1.1221
29465SOL     OW91349   3.575   5.706   1.415 -0.4975  0.2561  0.3424
29465SOL    HW191350   3.482   5.718   1.435 -0.6035  1.7703 -0.9082
29465SOL    HW291351   3.613   5.793   1.426  0.4493  0.0080 -0.7816
29466SOL     OW91352   5.469   9.777   0.834 -0.6669  0.1181  0.2028
29466SOL    HW191353   5.471   9.776   0.930  2.4300 -0.0836  0.2610
29466SOL    HW291354   5.542   9.720   0.809 -1.7796 -0.2974 -2.3018
29467SOL     OW91355   5.666   9.151   8.727 -0.1260 -0.0961 -0.0105
29467SOL    HW191356   5.691   9.065   8.760 -0.8106 -1.0225 -1.7755
29467SOL    HW291357   5.577   9.138   8.692 -0.1262  1.2506 -0.5542
29468SOL     OW91358   1.055   4.848   5.909 -0.3081  0.1462  0.2439
29468SOL    HW191359   1.082   4.927   5.955 -1.1058  0.3633  0.3497
29468SOL    HW291360   1.132   4.823   5.856 -0.3604  1.4990 -0.5022
29469SOL     OW91361   5.575   7.315   4.535  0.2076 -0.0662  0.5191
29469SOL    HW191362   5.524   7.395   4.532 -1.6218 -1.1358  1.2686
29469SOL    HW291363   5.552   7.275   4.619 -0.0256 -2.0221 -0.4210
29470SOL     OW91364   0.609   2.269   7.904 -0.0832  0.0454 -0.2168
29470SOL    HW191365   0.514   2.266   7.919  0.1618  0.3712  1.5865
29470SOL    HW291366   0.643   2.193   7.950  0.8270  1.6342  1.8548
29471SOL     OW91367   3.723   3.700  10.287  0.0734  0.3930 -0.4737
29471SOL    HW191368   3.648   3.729  10.339  0.5283  1.1294 -0.2144
29471SOL    HW291369   3.692   3.621  10.242 -0.4894  0.0262  0.5271
29472SOL     OW91370  10.143   1.225   0.970  0.1387  0.0273  0.2462
29472SOL    HW191371  10.215   1.165   0.953  0.1395 -0.1537  0.8515
29472SOL    HW291372  10.077   1.204   0.903  0.9156  0.6694 -0.7514
29473SOL     OW91373   5.574   9.958   4.127  0.1467 -0.4688 -0.2718
29473SOL    HW191374   5.604   9.914   4.047 -1.0828 -0.5716 -0.6992
29473SOL    HW291375   5.486   9.989   4.105  0.1554  0.3167  0.7445
29474SOL     OW91376   4.402   5.637   6.345 -0.1929  0.0001  0.5698
29474SOL    HW191377   4.453   5.600   6.416 -0.6287 -3.8611 -0.9209
29474SOL    HW291378   4.392   5.566   6.282 -1.9541  2.4639 -2.2272
29475SOL     OW91379   9.362   8.401   7.687 -0.2075  0.2124 -0.1178
29475SOL    HW191380   9.373   8.318   7.733  0.5196  0.5587  0.3489
29475SOL    HW291381   9.441   8.451   7.708 -0.2551  0.7125 -1.0497
29476SOL     OW91382   0.164   7.115  10.023 -0.0455  0.0290  0.0054
29476SOL    HW191383   0.087   7.119  10.079 -1.0425 -1.0922 -1.2376
29476SOL    HW291384   0.131   7.087   9.938  1.1529  3.2348 -1.7085
29477SOL     OW91385   9.913   8.132   5.295  0.3296  0.6891  0.0937
29477SOL    HW191386   9.861   8.054   5.276  1.7735 -0.3877  0.3926
29477SOL    HW291387   9.956   8.113   5.378  2.6074  0.7267 -1.0036
29478SOL     OW91388   4.862   1.692   3.891  0.1457  0.2883  0.4039
29478SOL    HW191389   4.941   1.647   3.863 -1.2142 -1.6308 -0.5845
29478SOL    HW291390   4.842   1.656   3.977 -0.1971  0.0046  0.2089
29479SOL     OW91391   6.138   5.082   3.661 -0.6325  0.0024  0.0277
29479SOL    HW191392   6.223   5.081   3.617 -0.1154 -0.5551  1.0149
29479SOL    HW291393   6.116   4.990   3.673 -2.2980  0.0784 -1.8951
29480SOL     OW91394   1.639   5.428   4.579 -0.6292 -0.1377 -0.6023
29480SOL    HW191395   1.559   5.426   4.526 -1.2052  0.1332  0.2410
29480SOL    HW291396   1.610   5.401   4.666 -0.0235  1.0150 -0.0191
29481SOL     OW91397   2.003   7.698   8.709  0.3448 -0.2684 -0.5367
29481SOL    HW191398   1.923   7.648   8.693  0.6478  0.0016 -3.5876
29481SOL    HW291399   1.975   7.790   8.708  0.5203 -0.2139 -0.4568
29482SOL     OW91400   3.280   6.030   0.621 -0.3161 -0.5345  0.0815
29482SOL    HW191401   3.264   6.069   0.707 -0.6219 -1.0359  0.2547
29482SOL    HW291402   3.373   6.045   0.605 -0.8270  2.3894 -0.9059
29483SOL     OW91403   1.390   7.844   4.973 -0.1825 -0.5911 -0.2462
29483SOL    HW191404   1.460   7.845   4.909 -0.9572  1.0917 -1.1516
29483SOL    HW291405   1.433   7.867   5.056  0.3291  0.5998 -0.8227
29484SOL     OW91406  10.029   7.923   3.441  0.0547 -0.3056  0.4124
29484SOL    HW191407  10.104   7.969   3.478 -0.0986 -0.2425  0.6481
29484SOL    HW291408  10.026   7.951   3.350 -0.8039  1.1723  0.8491
29485SOL     OW91409   2.840   0.745   4.916  0.4294 -0.5084  0.0684
29485SOL    HW191410   2.831   0.711   4.827 -0.0422 -1.0783  0.3280
29485SOL    HW291411   2.915   0.805   4.912 -0.5244  0.6461 -1.0512
29486SOL     OW91412   2.942   1.556  10.290  0.1048  0.1553 -0.1551
29486SOL    HW191413   2.894   1.610  10.353  0.8880  0.6288  0.0441
29486SOL    HW291414   2.912   1.586  10.205  1.3650  1.7088 -0.0799
29487SOL     OW91415   8.614   5.793   7.485  0.0382 -0.0015 -0.1590
29487SOL    HW191416   8.678   5.814   7.418  1.3267  1.2506  1.3889
29487SOL    HW291417   8.530   5.792   7.439  0.9508  0.2301 -1.8747
29488SOL     OW91418   3.469   1.231   0.542  0.3866 -0.3718  0.3524
29488SOL    HW191419   3.393   1.192   0.585  0.0380 -0.9084 -0.7020
29488SOL    HW291420   3.442   1.240   0.450  0.7668  1.5759  0.3880
29489SOL     OW91421   6.096   5.586   5.568 -0.3094  0.0116  0.3641
29489SOL    HW191422   6.096   5.496   5.599 -1.9490 -0.1775 -0.0863
29489SOL    HW291423   6.017   5.625   5.606 -0.8490  0.5828 -1.2566
29490SOL     OW91424   2.781   1.768   1.842  0.0758  0.5553 -0.6878
29490SOL    HW191425   2.741   1.681   1.835 -0.6024  0.7956  0.1535
29490SOL    HW291426   2.729   1.813   1.908  1.5033  1.0147  0.1457
29491SOL     OW91427   5.201   3.503   9.118  0.0272  0.5842 -0.2011
29491SOL    HW191428   5.165   3.585   9.152  0.2094  0.8494 -0.6388
29491SOL    HW291429   5.289   3.498   9.156 -0.8594 -0.6730  1.8621
29492SOL     OW91430   6.356   0.411   2.817 -0.0595 -0.4759  0.3397
29492SOL    HW191431   6.270   0.368   2.815 -0.7428  0.8363 -0.3895
29492SOL    HW291432   6.366   0.448   2.729  0.9498 -0.0295  0.6287
29493SOL     OW91433   1.097   8.634   7.303 -0.3711 -0.6766  0.2163
29493SOL    HW191434   1.114   8.712   7.356  1.2702 -1.3632  0.7613
29493SOL    HW291435   1.081   8.667   7.215  0.0042  0.2911  0.5003
29494SOL     OW91436   1.518   9.090   4.495  0.3071 -0.3567 -0.2042
29494SOL    HW191437   1.573   9.067   4.570 -2.2599 -0.5923  1.7421
29494SOL    HW291438   1.429   9.093   4.530 -1.4205 -2.8446 -3.6989
29495SOL     OW91439   6.235   5.484   1.163  0.4459 -0.1352  0.5661
29495SOL    HW191440   6.324   5.462   1.190  0.1697 -2.0123  0.0875
29495SOL    HW291441   6.179   5.425   1.213 -0.4439  0.1830 -0.0332
29496SOL     OW91442   4.109   4.674   2.147  0.5316  0.3736  0.5371
29496SOL    HW191443   4.123   4.581   2.166 -1.3605  0.0159  0.4377
29496SOL    HW291444   4.197   4.711   2.139  1.3242 -1.2011  1.5275
29497SOL     OW91445   6.772   9.322   9.547 -0.0433  1.1978  0.4163
29497SOL    HW191446   6.721   9.399   9.525 -2.0913 -0.5637 -1.3688
29497SOL    HW291447   6.851   9.328   9.492  0.2034  2.3654  0.8784
29498SOL     OW91448   8.772  10.318   8.677 -0.1274 -0.0896 -0.4219
29498SOL    HW191449   8.699  10.260   8.654 -0.3903 -0.2289  0.7227
29498SOL    HW291450   8.804  10.286   8.761  0.0983  1.0667 -0.0403
29499SOL     OW91451   7.149   1.357   9.535  0.0426  0.1143  1.0724
29499SOL    HW191452   7.155   1.449   9.561 -2.8671  0.2980  1.4114
29499SOL    HW291453   7.199   1.352   9.453 -1.0009  2.3910  0.2233
29500SOL     OW91454   3.326   8.039   3.077 -0.0023  0.1122 -0.8197
29500SOL    HW191455   3.363   8.075   3.158  1.9939 -0.1797 -1.5646
29500SOL    HW291456   3.295   8.115   3.028 -1.2455  0.2929  0.1822
29501SOL     OW91457   4.824   3.758   5.185 -0.0766  0.1118 -0.0699
29501SOL    HW191458   4.829   3.801   5.100  0.0393 -1.2327 -0.7678
29501SOL    HW291459   4.899   3.792   5.234 -1.0336  2.1066  0.1135
29502SOL     OW91460   7.014   4.367   6.692 -1.1498  0.4638  0.1636
29502SOL    HW191461   7.082   4.432   6.710  0.1265 -0.8822  0.4355
29502SOL    HW291462   6.951   4.378   6.763  0.1766 -0.0199  1.4726
29503SOL     OW91463   8.945   2.042   3.264 -0.3273 -0.2557  0.4373
29503SOL    HW191464   8.911   1.956   3.287 -2.5087  0.5271  0.3839
29503SOL    HW291465   9.021   2.024   3.209 -2.5178 -2.2228 -2.2286
29504SOL     OW91466   7.267   6.232   5.381 -0.4172  0.3007 -1.1755
29504SOL    HW191467   7.244   6.225   5.289  1.4086  0.4988 -1.6974
29504SOL    HW291468   7.357   6.199   5.385  0.7682  3.3427 -0.0503
29505SOL     OW91469   9.459   6.113   9.193  0.0094  0.0081  0.3268
29505SOL    HW191470   9.465   6.059   9.271 -1.1552  1.2401  1.3093
29505SOL    HW291471   9.424   6.054   9.125  0.9528 -1.0422  0.7236
29506SOL     OW91472   4.893   3.509   4.691 -0.8655 -0.1149  0.2917
29506SOL    HW191473   4.803   3.485   4.709 -1.5952  1.6793 -0.7221
29506SOL    HW291474   4.892   3.537   4.599  1.1929 -2.1746 -0.4542
29507SOL     OW91475   7.545   4.556   2.514  0.4321  0.0030 -0.3584
29507SOL    HW191476   7.451   4.540   2.502  0.3072 -0.4505  1.0252
29507SOL    HW291477   7.550   4.649   2.538  0.1770 -0.3211  0.9955
29508SOL     OW91478   2.842   3.122  10.198 -0.1781 -0.1492  0.5366
29508SOL    HW191479   2.913   3.058  10.210 -0.7959 -0.8031  0.7486
29508SOL    HW291480   2.780   3.078  10.141  0.1046  0.8514 -0.5635
29509SOL     OW91481   5.335   4.721   2.341 -0.8476  0.1951 -0.6852
29509SOL    HW191482   5.402   4.657   2.366 -0.2645  0.8845 -0.4656
29509SOL    HW291483   5.264   4.668   2.305  0.3900 -0.4646 -2.2801
29510SOL     OW91484   4.558   7.779   9.976  0.2170 -0.6744 -0.2971
29510SOL    HW191485   4.558   7.875   9.967  0.8680 -0.7051 -0.6895
29510SOL    HW291486   4.490   7.750   9.915 -1.2708 -0.3728  1.1430
29511SOL     OW91487  10.328   6.535   8.009 -0.2331  0.2280 -0.2556
29511SOL    HW191488  10.270   6.549   7.935 -0.5899  0.0794 -0.0031
29511SOL    HW291489  10.270   6.514   8.082  0.1341  0.0840 -0.0023
29512SOL     OW91490   1.036   7.735   5.465  0.1753 -0.7365 -1.0124
29512SOL    HW191491   1.073   7.670   5.525  0.4885 -1.5120 -2.0336
29512SOL    HW291492   0.944   7.741   5.491  0.6950  0.4146  0.8299
29513SOL     OW91493   6.937   1.259   1.758 -0.1458 -0.1033  0.0933
29513SOL    HW191494   7.011   1.318   1.765 -0.4415  0.1186  1.7948
29513SOL    HW291495   6.968   1.188   1.701  1.1877  0.2275  0.3752
29514SOL     OW91496  10.247   9.902   1.786  0.1383 -0.1217  0.2008
29514SOL    HW191497  10.278   9.991   1.772 -0.2850  0.0829  0.5119
29514SOL    HW291498  10.176   9.912   1.850 -0.2382 -0.6228 -0.1361
29515SOL     OW91499   2.523   6.576   7.784  0.8412  0.2247  0.0165
29515SOL    HW191500   2.472   6.516   7.730 -0.8622  0.4135  1.3516
29515SOL    HW291501   2.572   6.520   7.844  0.2340  0.1217  0.4167
29516SOL     OW91502   4.827   2.139   9.229  0.1321  0.4357  0.4748
29516SOL    HW191503   4.790   2.182   9.306 -2.1727 -0.0726 -0.2896
29516SOL    HW291504   4.756   2.138   9.165  1.7854  0.2749 -1.4538
29517SOL     OW91505  10.251   7.934  10.030  0.7190  0.3985 -0.4957
29517SOL    HW191506  10.157   7.955  10.028  0.5332 -0.0426  1.4926
29517SOL    HW291507  10.257   7.849   9.985  0.2543  0.6799 -1.1042
29518SOL     OW91508   1.215   7.038   2.120 -0.1662 -0.2088  0.2913
29518SOL    HW191509   1.197   6.967   2.058  1.7293  0.9095 -1.6796
29518SOL    HW291510   1.278   7.001   2.181 -0.2665 -0.6210  0.1511
29519SOL     OW91511   0.689   1.809  10.199  0.0335  0.1544 -0.3966
29519SOL    HW191512   0.729   1.885  10.158 -1.7764  0.9719 -0.7209
29519SOL    HW291513   0.758   1.773  10.255  1.5012  0.9357 -1.6177
29520SOL     OW91514   7.225   5.936   5.307 -0.0903 -0.2930 -0.0071
29520SOL    HW191515   7.276   5.991   5.247 -1.3698  0.8284 -0.1234
29520SOL    HW291516   7.188   5.868   5.251  1.4401 -1.2774  0.1218
29521SOL     OW91517   9.339   4.688   8.977 -0.5996 -0.4778 -0.2122
29521SOL    HW191518   9.383   4.665   8.896  0.3503  2.3594 -0.6084
29521SOL    HW291519   9.269   4.747   8.950 -1.3617 -0.8407  0.9047
29522SOL     OW91520   1.004   6.290   9.590 -0.5027 -0.2923  0.2827
29522SOL    HW191521   0.943   6.235   9.542 -0.8424 -1.0503  1.5205
29522SOL    HW291522   1.060   6.330   9.523 -1.0118 -1.2236 -0.7162
29523SOL     OW91523   7.370   7.298   9.712  0.3209 -0.3556  0.4850
29523SOL    HW191524   7.407   7.309   9.799  1.1751 -0.7609  0.1841
29523SOL    HW291525   7.423   7.229   9.672 -0.8438 -1.0541  0.0892
29524SOL     OW91526   2.887   7.863   0.315 -0.0491  0.5993  0.0380
29524SOL    HW191527   2.907   7.890   0.405 -1.1055  0.5393  0.3016
29524SOL    HW291528   2.941   7.921   0.260  2.0767 -0.6085  0.7224
29525SOL     OW91529   8.653   5.666   2.521 -0.4612 -0.5302 -0.0410
29525SOL    HW191530   8.698   5.625   2.596  0.8017 -1.1053 -1.0690
29525SOL    HW291531   8.569   5.695   2.557  0.8238  0.8874  2.0574
29526SOL     OW91532  10.276   6.778   2.257  0.0197 -0.6155 -0.3353
29526SOL    HW191533  10.327   6.859   2.263  1.3502 -1.3698 -0.9714
29526SOL    HW291534  10.336   6.710   2.288 -0.3555 -1.6391 -1.7520
29527SOL     OW91535   6.502   8.360   4.678 -0.3889 -0.4466 -0.5081
29527SOL    HW191536   6.505   8.264   4.677  0.9462 -0.4322 -0.4556
29527SOL    HW291537   6.589   8.387   4.647 -1.0331  0.7592 -1.3347
29528SOL     OW91538   6.305   1.139   8.512 -0.0863  0.4614 -0.3609
29528SOL    HW191539   6.260   1.126   8.428 -1.5783 -2.0560  0.7005
29528SOL    HW291540   6.313   1.234   8.520 -1.8879  0.8712 -2.3399
29529SOL     OW91541   5.684   3.061   5.765 -0.2252  0.2277  0.1767
29529SOL    HW191542   5.748   3.131   5.777 -0.8741  0.7368  0.6796
29529SOL    HW291543   5.722   2.986   5.811 -0.7132  0.9692  1.8229
29530SOL     OW91544   1.632   4.093   7.472  0.1549  0.0112  0.3466
29530SOL    HW191545   1.555   4.143   7.496  0.5243  1.6242 -1.5952
29530SOL    HW291546   1.599   4.023   7.416  0.0400  0.4927 -0.1979
29531SOL     OW91547   5.458   7.806   5.627  0.2416  0.3328  0.4238
29531SOL    HW191548   5.430   7.717   5.646  0.1196 -0.1672 -1.8882
29531SOL    HW291549   5.388   7.843   5.574  0.8847  1.3633  0.2575
29532SOL     OW91550   1.703   2.114   2.938  0.1268  0.1086 -0.0096
29532SOL    HW191551   1.663   2.051   2.999 -0.4004 -0.0789 -0.5451
29532SOL    HW291552   1.639   2.124   2.868  0.8568  0.0995 -0.6878
29533SOL     OW91553   7.494   7.694   4.061  0.3972  0.3067 -0.5276
29533SOL    HW191554   7.482   7.761   3.994 -0.6158  0.5111 -0.1625
29533SOL    HW291555   7.408   7.686   4.103  1.1987  0.8446  1.3482
29534SOL     OW91556   0.623   7.802   1.137  0.4815 -0.1832  0.3140
29534SOL    HW191557   0.704   7.850   1.153  0.8385 -0.7231  0.1310
29534SOL    HW291558   0.594   7.832   1.051 -0.0140  0.7050  0.7755
29535SOL     OW91559   1.873   1.279   9.179  0.6367 -0.4014 -0.0041
29535SOL    HW191560   1.821   1.200   9.195  1.2877 -1.2947 -2.0137
29535SOL    HW291561   1.845   1.340   9.248 -1.0445 -1.7992  0.6362
29536SOL     OW91562  10.260   5.461   6.278  0.1339  0.0144 -0.0739
29536SOL    HW191563  10.343   5.447   6.324 -0.3081  0.3438  0.8423
29536SOL    HW291564  10.236   5.552   6.298  0.2073  0.3582 -1.4331
29537SOL     OW91565   5.930  10.612   2.936  0.1489 -0.2154  0.3676
29537SOL    HW191566   5.966  10.549   2.873  1.2320  0.1871  0.5700
29537SOL    HW291567   5.926  10.694   2.888  3.8191  0.8497  1.5940
29538SOL     OW91568   0.907   8.576  10.253  0.5379 -0.1312 -0.0731
29538SOL    HW191569   0.973   8.513  10.283 -0.2293 -0.7384  0.3747
29538SOL    HW291570   0.849   8.525  10.197 -0.3155  0.0813  0.6071
29539SOL     OW91571   1.140   7.515   0.668  0.3063  0.2080 -0.1722
29539SOL    HW191572   1.147   7.477   0.756  0.9687  0.6212 -0.0391
29539SOL    HW291573   1.184   7.599   0.675 -0.5159  0.6947 -0.6532
29540SOL     OW91574   0.981  10.146   5.003  0.4766  0.3961 -0.0746
29540SOL    HW191575   0.987  10.085   5.076 -1.7365 -1.0111 -0.9662
29540SOL    HW291576   1.022  10.101   4.929  1.0902  1.0638 -0.1588
29541SOL     OW91577   4.752   2.268   9.971  0.1929 -0.0710  0.0935
29541SOL    HW191578   4.726   2.179   9.947 -0.5453  0.3834 -0.8537
29541SOL    HW291579   4.677   2.302  10.020  0.2779  0.1938  0.0398
29542SOL     OW91580   2.706   9.089   4.170 -0.0247  0.2516  0.6821
29542SOL    HW191581   2.655   9.157   4.126 -0.3964 -0.2739  0.2828
29542SOL    HW291582   2.698   9.109   4.263 -0.9986  0.1592  0.6249
29543SOL     OW91583   8.463   0.640   2.844 -0.0457  0.3188  0.2770
29543SOL    HW191584   8.434   0.558   2.885  1.1931  0.3260  1.2281
29543SOL    HW291585   8.388   0.698   2.851 -0.4078 -0.2201  1.0942
29544SOL     OW91586   4.637   8.512  10.288  0.2775 -0.5986 -0.4349
29544SOL    HW191587   4.631   8.423  10.322 -1.5980 -0.5980 -0.6305
29544SOL    HW291588   4.730   8.526  10.273  0.7742 -1.9524  1.0725
29545SOL     OW91589   5.379  10.390   3.165 -0.2871 -0.6566 -0.2898
29545SOL    HW191590   5.331  10.322   3.214 -0.2409 -0.4207  0.0857
29545SOL    HW291591   5.381  10.357   3.075 -0.5579 -0.9962 -0.1762
29546SOL     OW91592   6.540   7.253   9.297 -0.4329  0.0606 -0.4334
29546SOL    HW191593   6.469   7.190   9.310 -1.5994  1.5265  0.6718
29546SOL    HW291594   6.502   7.318   9.238 -0.4809  1.4970  1.1122
29547SOL     OW91595   0.762   4.170   7.777 -0.1899 -0.4046  0.1930
29547SOL    HW191596   0.677   4.214   7.780 -0.1016 -0.2623  1.0186
29547SOL    HW291597   0.804   4.195   7.860  1.5121  1.2396 -1.0887
29548SOL     OW91598   9.817   3.795   1.102 -0.0111  0.0068  0.2960
29548SOL    HW191599   9.829   3.728   1.168  0.5322 -0.2290 -0.0395
29548SOL    HW291600   9.852   3.875   1.141  0.0510 -0.0699  0.3952
29549SOL     OW91601   3.205   4.088   7.361 -0.0306  0.9459  0.1964
29549SOL    HW191602   3.128   4.090   7.418  1.4611 -2.0178  2.5736
29549SOL    HW291603   3.190   4.014   7.303  1.1768  0.0276  1.0133
29550SOL     OW91604   2.068   7.627   3.337  0.0332 -0.0583 -0.5184
29550SOL    HW191605   1.978   7.661   3.338 -0.2133 -0.5708  1.9601
29550SOL    HW291606   2.061   7.541   3.295 -0.1002  1.0000 -2.8060
29551SOL     OW91607   6.975   7.778   0.845  0.0142  0.3402  0.4848
29551SOL    HW191608   7.065   7.802   0.820  0.8736 -0.7319  2.3352
29551SOL    HW291609   6.928   7.773   0.762  2.7530 -3.3356 -1.1377
29552SOL     OW91610   9.608   1.820   8.217 -0.7428 -0.1105  0.4459
29552SOL    HW191611   9.696   1.781   8.213  0.9462  3.3660 -1.5204
29552SOL    HW291612   9.590   1.828   8.311  2.9750  2.5696  1.1846
29553SOL     OW91613  10.610   5.617   6.754 -0.0226  0.6106  0.6007
29553SOL    HW191614  10.523   5.651   6.730 -1.5547 -2.8208  0.6506
29553SOL    HW291615  10.608   5.525   6.726  2.1841 -0.6498  3.9102
29554SOL     OW91616   7.874   4.178   5.331 -0.3454 -0.1614 -0.3162
29554SOL    HW191617   7.869   4.175   5.426 -0.5270 -0.4709 -0.3365
29554SOL    HW291618   7.806   4.240   5.305  0.9682  1.4530 -0.1338
29555SOL     OW91619   9.263   8.742   3.202  0.2328 -0.0786  0.5009
29555SOL    HW191620   9.246   8.749   3.108  1.2072 -1.6078  0.1822
29555SOL    HW291621   9.236   8.653   3.224 -0.7540  0.5143  1.8689
29556SOL     OW91622   6.258   9.566   5.423  0.3903 -0.0134  0.0387
29556SOL    HW191623   6.337   9.620   5.433 -0.2332  0.9327 -0.1237
29556SOL    HW291624   6.287   9.492   5.369  0.8643  0.9985 -1.1533
29557SOL     OW91625   9.097   1.074   6.733 -0.0333  0.2039  0.1536
29557SOL    HW191626   9.008   1.046   6.755  0.0502 -0.0932  0.1127
29557SOL    HW291627   9.148   1.056   6.812  0.4759 -1.7699 -0.5731
29558SOL     OW91628   3.928   0.306   9.219 -0.2267  0.2549  0.3111
29558SOL    HW191629   4.014   0.349   9.217 -1.3820  2.7380  0.4818
29558SOL    HW291630   3.947   0.215   9.194  2.7918 -0.0149  2.8254
29559SOL     OW91631   0.537   8.785   0.786  1.0132  0.5750  0.2639
29559SOL    HW191632   0.466   8.841   0.817  1.5252  1.8134 -0.7113
29559SOL    HW291633   0.501   8.740   0.709  1.0978  0.7460  0.1244
29560SOL     OW91634   5.656   9.765   3.514  0.2878  0.0452 -0.1239
29560SOL    HW191635   5.628   9.675   3.502 -0.1312 -0.4158  3.2868
29560SOL    HW291636   5.730   9.760   3.574  1.5808  1.8957 -1.4351
29561SOL     OW91637   3.462   8.124   5.512 -0.0179  0.5096 -0.2373
29561SOL    HW191638   3.388   8.177   5.483  0.6300  0.8089 -1.3824
29561SOL    HW291639   3.471   8.056   5.444  0.5900  0.3172  0.0295
29562SOL     OW91640   4.846   2.106   8.247  0.0484 -0.8042  0.8881
29562SOL    HW191641   4.848   2.179   8.185  0.8015 -0.8347  0.8597
29562SOL    HW291642   4.844   2.028   8.192  2.3525 -0.8870  0.8250
29563SOL     OW91643   6.729   4.308   7.905 -0.8133  0.3460  0.4759
29563SOL    HW191644   6.790   4.381   7.910 -0.4829  0.0473  0.8791
29563SOL    HW291645   6.653   4.337   7.957 -0.5262  0.2573  0.9529
29564SOL     OW91646   4.007   2.258   3.837  0.2572 -0.1531 -0.3350
29564SOL    HW191647   4.061   2.309   3.776  0.7410  0.1367  0.3149
29564SOL    HW291648   3.944   2.213   3.782  1.2952 -0.6582 -1.1394
29565SOL     OW91649   9.192   7.463   5.977  0.1109  0.7008 -0.6372
29565SOL    HW191650   9.168   7.390   5.920  0.3938  0.5379 -0.5524
29565SOL    HW291651   9.192   7.426   6.065 -1.3184  1.1925 -0.3959
29566SOL     OW91652   9.209   8.566   9.119 -0.2947  0.1997  0.6538
29566SOL    HW191653   9.280   8.582   9.182 -0.8617 -1.8123  1.9331
29566SOL    HW291654   9.136   8.618   9.152 -0.0241  0.6533  0.5416
29567SOL     OW91655   6.459   9.367   0.494  0.2588  0.1745 -0.1161
29567SOL    HW191656   6.424   9.406   0.574 -1.3585 -0.0516 -0.6699
29567SOL    HW291657   6.493   9.282   0.521  1.2293  0.7683  0.6021
29568SOL     OW91658  10.061   2.706  10.561 -0.2329  0.1791  0.9045
29568SOL    HW191659  10.039   2.613  10.556  2.4715 -0.4927 -2.8292
29568SOL    HW291660  10.155   2.707  10.578 -0.5270  2.3758  2.8394
29569SOL     OW91661   1.107   9.427   5.271  0.5930 -0.7128  0.0374
29569SOL    HW191662   1.039   9.446   5.335 -1.0871  3.3106 -2.4889
29569SOL    HW291663   1.186   9.467   5.307  0.1748 -0.3308  0.5455
29570SOL     OW91664   5.888   3.783   1.427  0.2205 -0.4345  0.1092
29570SOL    HW191665   5.914   3.874   1.420 -0.4257 -0.2236  0.3259
29570SOL    HW291666   5.915   3.757   1.515 -2.2835  0.4725  1.2412
29571SOL     OW91667   4.600   5.131  10.415 -0.3237 -0.7301 -0.6786
29571SOL    HW191668   4.532   5.106  10.352 -0.0087 -0.6875 -1.0397
29571SOL    HW291669   4.625   5.220  10.388 -0.4885 -0.5446 -0.2288
29572SOL     OW91670   1.743   4.622   2.627 -0.1199 -0.1588  0.2337
29572SOL    HW191671   1.835   4.614   2.600 -0.0858  1.3090 -0.1633
29572SOL    HW291672   1.730   4.716   2.643 -1.7531 -0.2271 -0.4645
29573SOL     OW91673   6.678   9.302   1.804 -0.1564  0.4429  0.0967
29573SOL    HW191674   6.694   9.319   1.897 -0.7404  0.1227  0.2635
29573SOL    HW291675   6.613   9.232   1.804 -0.7024  0.9383 -0.5469
29574SOL     OW91676   4.464   8.482   0.980  0.4791 -0.2092 -0.8172
29574SOL    HW191677   4.396   8.534   0.938 -0.8734 -1.0701  0.1894
29574SOL    HW291678   4.488   8.416   0.915 -0.0628 -0.2248 -1.0095
29575SOL     OW91679   8.367   4.827   6.145  0.0817 -0.4602  0.1160
29575SOL    HW191680   8.334   4.917   6.151 -0.2999 -0.6415  0.8524
29575SOL    HW291681   8.462   4.837   6.147  0.1005  0.0430 -1.7141
29576SOL     OW91682   9.400   8.631   4.709 -0.2633  0.4440 -0.1344
29576SOL    HW191683   9.459   8.703   4.729 -0.1637  0.3302 -0.0155
29576SOL    HW291684   9.447   8.553   4.737 -1.0447  0.4582  1.3169
29577SOL     OW91685   9.595   0.205   8.430  0.0823  0.3181 -0.3054
29577SOL    HW191686   9.578   0.117   8.395  0.6013 -0.3199  0.9908
29577SOL    HW291687   9.514   0.253   8.414 -0.6899 -0.7879  0.1402
29578SOL     OW91688   5.848  10.054   8.561 -0.5763  0.6423  0.1447
29578SOL    HW191689   5.811  10.060   8.473 -0.3237 -0.2589 -0.0255
29578SOL    HW291690   5.793   9.991   8.606 -1.1284  1.6071  0.8631
29579SOL     OW91691   1.653   6.816   6.736 -0.3236 -0.4818 -0.0147
29579SOL    HW191692   1.725   6.853   6.788 -1.3622  1.0450  0.4213
29579SOL    HW291693   1.693   6.793   6.652  0.7099  0.2200  0.2664
29580SOL     OW91694   1.113   8.328   5.736 -0.2753 -0.1123  0.0768
29580SOL    HW191695   1.125   8.287   5.822  0.9529  0.8479  0.3877
29580SOL    HW291696   1.173   8.281   5.678  0.4408  0.6008  0.2249
29581SOL     OW91697   6.324   6.529   8.340  0.5496 -0.7997  0.2317
29581SOL    HW191698   6.297   6.465   8.275  0.2273 -0.9496  0.5069
29581SOL    HW291699   6.419   6.524   8.341  0.5966 -0.2972 -0.7254
29582SOL     OW91700   8.596   2.336   7.207 -0.1977  0.5639  0.7091
29582SOL    HW191701   8.567   2.366   7.121  1.9354 -0.2222 -0.3423
29582SOL    HW291702   8.515   2.313   7.252 -1.4808  2.3097 -0.5379
29583SOL     OW91703   3.530   5.038   3.118  0.4445  0.5693  0.1225
29583SOL    HW191704   3.601   5.063   3.059  0.9102 -0.7534  0.0789
29583SOL    HW291705   3.574   4.987   3.187 -0.4668 -0.4422 -0.0118
29584SOL     OW91706   0.807   5.970   9.743 -0.7599  0.6962 -0.3249
29584SOL    HW191707   0.811   5.924   9.827 -0.9629 -1.5799 -1.4934
29584SOL    HW291708   0.798   6.063   9.767  1.3238  0.3648  2.1501
29585SOL     OW91709  10.321   0.417   9.184  0.2256  0.7130 -0.1502
29585SOL    HW191710  10.328   0.436   9.090  0.7233 -1.8542 -0.7084
29585SOL    HW291711  10.227   0.419   9.202  0.1599  1.8538 -0.5191
29586SOL     OW91712   1.134   0.612   3.225 -0.1438 -0.0017 -0.0564
29586SOL    HW191713   1.132   0.701   3.188 -0.0922  0.5371  1.1862
29586SOL    HW291714   1.055   0.571   3.192  0.3910  0.1149 -1.5509
29587SOL     OW91715   9.173   4.322   1.957  0.4030  0.3550 -0.2050
29587SOL    HW191716   9.182   4.272   1.876 -1.2422  2.2239 -1.6273
29587SOL    HW291717   9.084   4.305   1.987  0.5296  0.7864  0.4497
29588SOL     OW91718   7.310   0.545   6.712 -0.1814  0.0973  0.0157
29588SOL    HW191719   7.316   0.618   6.651  2.2650 -1.3749 -1.6964
29588SOL    HW291720   7.359   0.573   6.789  0.3091  0.4528 -0.4196
29589SOL     OW91721  10.617   0.937   3.209  0.2360 -0.2948 -0.0401
29589SOL    HW191722  10.638   0.896   3.293 -0.7543  2.2312  1.5648
29589SOL    HW291723  10.699   0.976   3.180  0.2897 -0.0430  0.4482
29590SOL     OW91724   1.488   5.971   2.304  0.1413 -0.3987  0.0651
29590SOL    HW191725   1.466   6.061   2.281  0.2314 -0.2611  0.5091
29590SOL    HW291726   1.533   5.978   2.389  3.5333 -0.4844 -1.5811
29591SOL     OW91727   8.267   6.031   3.858  0.2853  0.3409 -0.1940
29591SOL    HW191728   8.319   5.956   3.886 -0.2388 -0.0564 -0.2644
29591SOL    HW291729   8.322   6.076   3.794  2.1513  2.1326  2.4737
29592SOL     OW91730   2.385   9.447   5.670  0.0885  0.2260 -0.4750
29592SOL    HW191731   2.290   9.435   5.679 -0.0639  0.8947 -1.1225
29592SOL    HW291732   2.412   9.482   5.755 -0.2376  0.0243 -0.2819
29593SOL     OW91733   2.836   9.254   6.551  0.5870  0.4464 -0.1840
29593SOL    HW191734   2.876   9.239   6.466  0.1503 -0.4683 -0.2401
29593SOL    HW291735   2.866   9.340   6.577 -0.2345  1.2742 -1.8112
29594SOL     OW91736   3.906   0.671   7.021 -0.1569  0.6346 -0.0323
29594SOL    HW191737   3.985   0.688   7.073  1.7187 -0.0922 -2.4360
29594SOL    HW291738   3.851   0.618   7.078  1.2040  0.9405  1.6618
29595SOL     OW91739   6.617   3.778  10.179 -0.0590  0.5322 -0.2706
29595SOL    HW191740   6.525   3.796  10.159 -0.1194 -1.1621 -1.9229
29595SOL    HW291741   6.666   3.828  10.113  0.0114 -0.9085 -1.3630
29596SOL     OW91742   1.135   0.857   0.304 -0.0377 -0.5777  0.4495
29596SOL    HW191743   1.154   0.764   0.318 -0.4516 -0.6699  0.4000
29596SOL    HW291744   1.157   0.871   0.212  1.0076 -0.3813  0.7187
29597SOL     OW91745   8.518   2.794   5.058  0.0736 -0.5750  0.2112
29597SOL    HW191746   8.496   2.796   5.151 -1.2433 -1.0459 -0.0571
29597SOL    HW291747   8.504   2.884   5.028 -0.4796 -0.6339  0.2794
29598SOL     OW91748   4.409   8.765   0.099  0.1941  0.4642 -0.3225
29598SOL    HW191749   4.442   8.790   0.012  1.5666  2.6360  0.7049
29598SOL    HW291750   4.456   8.684   0.120  1.8842  1.3227 -0.5861
29599SOL     OW91751   9.974   0.969   2.555  1.0096 -0.1301  0.0439
29599SOL    HW191752   9.966   0.884   2.512 -0.3361 -0.1562  0.3122
29599SOL    HW291753   9.884   0.998   2.569  1.3984  2.0823 -1.4709
29600SOL     OW91754   2.256   9.416   2.798 -0.1518  0.0464 -0.0173
29600SOL    HW191755   2.275   9.350   2.864  0.7141  0.3006  0.0120
29600SOL    HW291756   2.188   9.471   2.837  1.3345  1.0465  1.2820
29601SOL     OW91757   5.799   3.737   4.212  0.0406 -0.1642  0.0040
29601SOL    HW191758   5.829   3.669   4.152 -1.2920 -2.2079  1.5088
29601SOL    HW291759   5.878   3.764   4.260  0.7216 -0.0466 -1.1495
29602SOL     OW91760   6.803   5.253   7.543 -0.0387  0.1206  0.4327
29602SOL    HW191761   6.837   5.295   7.464  0.8361  0.8451  1.1662
29602SOL    HW291762   6.708   5.264   7.537  0.1596  2.5928  0.7661
29603SOL     OW91763   4.119   1.652   1.304 -0.2301  0.0683 -1.1053
29603SOL    HW191764   4.103   1.742   1.276 -0.9591  0.2187 -0.2509
29603SOL    HW291765   4.096   1.651   1.396 -0.9551 -1.1798 -1.2751
29604SOL     OW91766   0.232   5.988   5.339  0.2674  0.0058  0.0725
29604SOL    HW191767   0.150   6.015   5.298 -0.3147 -0.0906  1.1487
29604SOL    HW291768   0.260   6.064   5.390  1.7067  0.6265 -1.5138
29605SOL     OW91769   0.023   1.005   4.502  0.8292 -0.8635 -0.1351
29605SOL    HW191770  -0.049   1.028   4.560  1.1277 -1.9353  0.7091
29605SOL    HW291771  -0.001   1.041   4.417 -1.2108 -2.0642 -0.1292
29606SOL     OW91772   8.771   4.488   4.349 -0.4621  0.1689 -0.0128
29606SOL    HW191773   8.720   4.411   4.373 -0.6420 -0.4439 -2.1440
29606SOL    HW291774   8.855   4.453   4.320  0.0057  0.9208  0.3880
29607SOL     OW91775   6.355   6.606   6.338 -0.2163  0.0545 -0.2494
29607SOL    HW191776   6.445   6.626   6.312  1.1663 -1.9559  2.4532
29607SOL    HW291777   6.336   6.522   6.294  1.0040 -1.7907  2.4756
29608SOL     OW91778   5.303   3.523   9.867 -0.3976  0.1646 -0.5378
29608SOL    HW191779   5.234   3.522   9.933  0.6411  0.9117  0.6060
29608SOL    HW291780   5.275   3.460   9.801 -1.9772  0.1850  0.0855
29609SOL     OW91781   5.190   5.211   0.574 -0.2744  0.2441 -0.4175
29609SOL    HW191782   5.255   5.272   0.540  1.0591 -2.1648 -2.5059
29609SOL    HW291783   5.130   5.196   0.501 -1.6858  0.4548  0.6616
29610SOL     OW91784   9.364   9.633   7.144  0.4305  0.3823 -0.0470
29610SOL    HW191785   9.425   9.598   7.078 -0.1318 -0.4562 -0.1299
29610SOL    HW291786   9.277   9.615   7.108  0.1172  1.9155 -0.1080
29611SOL     OW91787   1.868   0.880   4.132 -0.2045 -0.4835 -0.1262
29611SOL    HW191788   1.791   0.934   4.117 -0.8631 -1.1641  0.7320
29611SOL    HW291789   1.846   0.795   4.094  0.3438 -0.5253 -0.3652
29612SOL     OW91790   6.706  10.227   7.729 -0.3531  0.0643  0.0647
29612SOL    HW191791   6.708  10.266   7.642 -0.5370  0.8043  0.3871
29612SOL    HW291792   6.797  10.200   7.746 -0.7094 -2.2601 -1.3036
29613SOL     OW91793   9.264   5.208   2.332  0.5741  0.3017 -0.0103
29613SOL    HW191794   9.171   5.185   2.330 -0.0299  2.4451  0.8778
29613SOL    HW291795   9.276   5.269   2.259  1.1018  0.6273  0.3367
29614SOL     OW91796  10.123   3.411   6.433  0.1520  0.2888 -0.2515
29614SOL    HW191797  10.139   3.319   6.453 -3.6399 -0.6045 -0.4657
29614SOL    HW291798  10.067   3.409   6.355 -0.6321  2.7231  0.1644
29615SOL     OW91799   6.794   2.211   5.832  0.0134 -0.5109  0.1617
29615SOL    HW191800   6.798   2.176   5.743 -2.1696 -1.0441  0.1953
29615SOL    HW291801   6.857   2.159   5.881  0.9181 -0.5177 -0.9642
29616SOL     OW91802   3.582   8.749   0.386  0.0889  0.2760 -0.1094
29616SOL    HW191803   3.587   8.758   0.291 -0.1525  0.1324 -0.1393
29616SOL    HW291804   3.638   8.674   0.406 -0.3772 -0.1074 -0.2155
29617SOL     OW91805   7.196   2.712   7.596  0.4687 -0.2698 -0.2168
29617SOL    HW191806   7.112   2.758   7.594  0.4279 -0.3225  0.2844
29617SOL    HW291807   7.222   2.707   7.504 -0.8427 -1.6869 -0.5556
29618SOL     OW91808   1.291   3.251  10.074  0.0846  0.0406  0.2969
29618SOL    HW191809   1.206   3.274  10.112  1.2222  1.6304  2.0001
29618SOL    HW291810   1.273   3.173  10.021 -2.4844  0.5215  0.3439
29619SOL     OW91811  10.318   0.706   0.338  0.3632  0.3605  0.0400
29619SOL    HW191812  10.249   0.759   0.378  1.8371  1.5563  1.1057
29619SOL    HW291813  10.304   0.618   0.372 -2.0181 -0.0043 -1.6042
29620SOL     OW91814   2.815   8.370   4.525 -0.0785 -0.5179 -0.2772
29620SOL    HW191815   2.780   8.293   4.479 -1.0150  0.6043 -1.5310
29620SOL    HW291816   2.898   8.389   4.482  0.2760 -0.9660  0.2015
29621SOL     OW91817   0.204   2.167   6.168  0.1508 -0.2140 -0.6337
29621SOL    HW191818   0.277   2.112   6.198  1.1100  1.2624 -0.1836
29621SOL    HW291819   0.230   2.256   6.190 -2.0394  0.3119  0.0289
29622SOL     OW91820   5.193   2.842   7.863  0.3004  0.2898 -0.2982
29622SOL    HW191821   5.147   2.768   7.902 -0.9636  1.6082  0.8095
29622SOL    HW291822   5.196   2.821   7.769  0.1881 -1.2482  0.0036
29623SOL     OW91823  10.026   6.082   4.031  0.0820 -0.3525  0.4527
29623SOL    HW191824  10.109   6.098   4.075 -0.3803  1.7183  0.6773
29623SOL    HW291825  10.043   6.106   3.940 -0.3044  0.2655  0.5388
29624SOL     OW91826   8.901   4.026   2.665  0.5967  0.4860 -0.1691
29624SOL    HW191827   8.828   3.964   2.659  0.0250  1.0595  0.6073
29624SOL    HW291828   8.973   3.973   2.699  0.0917  0.2388  0.5630
29625SOL     OW91829   3.633   2.102   3.347  0.2845 -0.1448 -0.0796
29625SOL    HW191830   3.649   2.167   3.416  2.4277 -0.5870 -0.1058
29625SOL    HW291831   3.646   2.151   3.266  0.1212 -0.1864 -0.1305
29626SOL     OW91832   2.149   1.424  10.528  0.3023  0.4518  0.3007
29626SOL    HW191833   2.123   1.516  10.532  0.3062  0.4876 -0.4215
29626SOL    HW291834   2.084   1.379  10.583  1.1039  1.0343  1.7819
29627SOL     OW91835   9.141   4.636   8.504 -0.2977 -0.4288  0.4092
29627SOL    HW191836   9.164   4.723   8.534  0.0070 -0.5145  0.4297
29627SOL    HW291837   9.075   4.650   8.436 -0.1323 -0.1775  0.3036
29628SOL     OW91838   0.528   7.548   2.088  0.1508  0.5086 -0.0006
29628SOL    HW191839   0.595   7.559   2.021 -1.0465 -1.4179 -1.6494
29628SOL    HW291840   0.576   7.517   2.165  1.2516 -0.2332 -0.9480
29629SOL     OW91841   5.518   5.570   3.146 -0.7107 -0.0520 -0.7012
29629SOL    HW191842   5.549   5.507   3.082  1.3150 -0.4749  0.6252
29629SOL    HW291843   5.541   5.655   3.109  0.8651 -0.3093 -0.3929
29630SOL     OW91844   2.420   2.847   8.224  0.6522  0.9199 -0.1918
29630SOL    HW191845   2.353   2.828   8.159  1.2150  1.4913 -0.9684
29630SOL    HW291846   2.421   2.943   8.230  0.9577  0.8932  0.2869
29631SOL     OW91847   7.195   5.413   9.306 -0.5065 -0.7904 -0.1968
29631SOL    HW191848   7.227   5.332   9.346 -1.1734 -0.8023  0.3421
29631SOL    HW291849   7.149   5.385   9.227  2.8349 -0.5998 -2.4166
29632SOL     OW91850   3.373   9.050   7.998 -0.0097 -0.1926 -0.0386
29632SOL    HW191851   3.373   9.005   7.914  0.1883  0.3451 -0.3340
29632SOL    HW291852   3.418   8.990   8.057 -1.5633 -1.2863  0.0907
29633SOL     OW91853   8.435   5.252   0.831  0.6374 -0.7294  0.2117
29633SOL    HW191854   8.497   5.318   0.861  2.8301 -2.5172 -0.1105
29633SOL    HW291855   8.378   5.235   0.907  1.6993 -0.3155  1.1144
29634SOL     OW91856   3.329   9.746   6.525 -0.0800 -0.1423  0.1256
29634SOL    HW191857   3.413   9.711   6.495  0.3947  1.6797 -0.8251
29634SOL    HW291858   3.351   9.801   6.600 -0.6152 -0.7555  0.7355
29635SOL     OW91859   6.838   6.797   0.727  0.2967 -0.1679  0.3751
29635SOL    HW191860   6.808   6.873   0.777  0.7598 -0.0403  0.4672
29635SOL    HW291861   6.891   6.834   0.657  0.2312 -0.3880  0.2069
29636SOL     OW91862   1.877   4.212   7.555  0.3578 -0.1273 -0.3957
29636SOL    HW191863   1.811   4.158   7.511  0.2799 -0.2759 -0.0968
29636SOL    HW291864   1.842   4.226   7.643  0.0843  0.9105 -0.6544
29637SOL     OW91865   1.522   8.558   5.889  0.4634 -0.1606 -0.5061
29637SOL    HW191866   1.613   8.530   5.883  0.2522 -0.9992  0.0070
29637SOL    HW291867   1.492   8.563   5.798  1.5083  1.8700 -0.7801
29638SOL     OW91868   8.364   4.777   6.671 -0.0237  0.3138  0.0022
29638SOL    HW191869   8.434   4.792   6.608  0.0164  0.6384  0.1230
29638SOL    HW291870   8.375   4.685   6.698  1.6084  0.9014  1.5201
29639SOL     OW91871  10.215   3.867   1.531 -0.3961 -0.1392  0.4530
29639SOL    HW191872  10.161   3.860   1.610 -0.2607  0.9972  0.6521
29639SOL    HW291873  10.301   3.893   1.562 -0.2544  0.0128 -0.0483
29640SOL     OW91874   5.048   7.598   6.536  0.5728  0.0797 -0.1790
29640SOL    HW191875   5.037   7.509   6.569 -0.2812  0.1319 -0.2935
29640SOL    HW291876   5.022   7.654   6.609 -2.5287  0.1962 -1.2118
29641SOL     OW91877   7.575   6.486   5.214  0.6060  0.0099 -0.2698
29641SOL    HW191878   7.560   6.541   5.291 -2.3987 -1.6731  0.5082
29641SOL    HW291879   7.670   6.478   5.208  1.0017  2.1484  1.8066
29642SOL     OW91880   8.911  10.438   0.608 -0.1973  0.4521 -0.4341
29642SOL    HW191881   8.900  10.394   0.693  1.1754  1.6491  0.4179
29642SOL    HW291882   8.822  10.446   0.574 -1.2268  2.5824  2.3164
29643SOL     OW91883   0.431   9.413   4.248  0.2293  0.4683  0.3343
29643SOL    HW191884   0.406   9.486   4.192 -0.6298 -0.3851 -0.4360
29643SOL    HW291885   0.526   9.405   4.238  0.3379  1.5014  0.4737
29644SOL     OW91886   2.510  10.129   7.265 -0.4786 -0.5485  0.1669
29644SOL    HW191887   2.532  10.097   7.352  2.0322  0.4034 -0.0443
29644SOL    HW291888   2.522  10.053   7.208 -2.5373 -1.2890  0.6187
29645SOL     OW91889   3.536   4.575   5.204  0.6220 -0.2390  0.2373
29645SOL    HW191890   3.631   4.559   5.198  0.5900  0.1765 -2.0617
29645SOL    HW291891   3.530   4.667   5.231  0.9036  0.1610 -1.0146
29646SOL     OW91892   8.946   7.735   3.414  0.0637 -0.0012  0.3925
29646SOL    HW191893   8.928   7.653   3.367 -1.0665 -0.1365  1.0256
29646SOL    HW291894   8.926   7.804   3.351 -0.4603 -0.2003  0.3344
29647SOL     OW91895   1.264   7.022   7.284  0.1321  0.5631 -0.0080
29647SOL    HW191896   1.331   6.980   7.339  0.4889 -1.0660 -1.5669
29647SOL    HW291897   1.187   6.966   7.293  0.1912  0.2805 -1.1016
29648SOL     OW91898   7.338   0.613   3.131 -0.1062 -0.0719  0.4175
29648SOL    HW191899   7.378   0.627   3.216 -0.4621  0.0085  0.5722
29648SOL    HW291900   7.373   0.528   3.101  0.1285 -0.0306  0.5771
29649SOL     OW91901   9.038   3.927  10.552  0.3498  0.7084  0.2216
29649SOL    HW191902   8.987   3.868  10.496  0.2295 -0.1075  1.1789
29649SOL    HW291903   9.128   3.918  10.520  0.2722  0.2999  0.1101
29650SOL     OW91904   5.913   5.856   9.711  0.0112 -1.1494 -0.6962
29650SOL    HW191905   5.929   5.767   9.679  1.0199 -0.7250 -1.4111
29650SOL    HW291906   5.974   5.867   9.784  0.2889 -0.8587 -0.9681
29651SOL     OW91907   1.517   5.918   9.664 -0.5124  0.7804  0.4841
29651SOL    HW191908   1.567   5.928   9.583  0.0529 -1.7108  0.4502
29651SOL    HW291909   1.582   5.929   9.733 -0.4636  0.3107  0.5155
29652SOL     OW91910   4.026   9.312   2.291 -0.0290 -0.5138  0.3129
29652SOL    HW191911   4.104   9.280   2.244  0.4766 -0.4104  1.0693
29652SOL    HW291912   3.965   9.238   2.288 -0.0817 -0.4518 -0.6512
29653SOL     OW91913   7.717   0.313   9.409 -0.2246 -0.5893 -0.7158
29653SOL    HW191914   7.660   0.288   9.336 -1.5293 -0.7065  0.2927
29653SOL    HW291915   7.744   0.230   9.449 -0.4287 -0.5140 -0.4116
29654SOL     OW91916   6.411   5.120   5.608  0.0140 -0.2115 -0.1973
29654SOL    HW191917   6.437   5.164   5.527 -2.1065  1.4885 -0.0630
29654SOL    HW291918   6.346   5.056   5.580  0.2412 -0.5410  0.0284
29655SOL     OW91919   4.197   0.791   9.229  0.0509  0.1692 -0.1320
29655SOL    HW191920   4.266   0.821   9.170 -0.1848  1.4430  0.2019
29655SOL    HW291921   4.117   0.791   9.175  0.0327  0.2609 -0.1058
29656SOL     OW91922   3.003   6.534   6.760  0.2792 -0.2031  0.5979
29656SOL    HW191923   3.047   6.616   6.738 -0.5286  0.2043  0.5035
29656SOL    HW291924   2.921   6.560   6.801 -0.0744 -0.9613  0.3892
29657SOL     OW91925   8.471   6.558  10.041 -0.2804 -0.3107  0.0456
29657SOL    HW191926   8.508   6.470  10.035 -0.6062 -0.3991 -0.7505
29657SOL    HW291927   8.540   6.616  10.009 -1.2351 -0.5912 -2.8201
29658SOL     OW91928   2.873   9.661   2.788  0.1196  0.5169 -0.0847
29658SOL    HW191929   2.869   9.577   2.742  3.0193 -1.1596  2.3910
29658SOL    HW291930   2.788   9.669   2.830 -0.0978 -1.3856 -0.0609
29659SOL     OW91931   3.005   7.133   5.376 -0.2565 -0.3411 -0.0663
29659SOL    HW191932   3.050   7.149   5.294  0.0801  0.9567  0.3548
29659SOL    HW291933   2.934   7.197   5.378  0.7504  0.7919  1.3891
29660SOL     OW91934   0.374   8.699   0.154 -0.3586 -0.6989  0.0164
29660SOL    HW191935   0.444   8.670   0.095  1.0916  0.8606  0.8856
29660SOL    HW291936   0.419   8.734   0.230 -1.9555  2.3002 -0.2532
29661SOL     OW91937   4.106   4.626   5.953  0.1348  0.1167 -0.1382
29661SOL    HW191938   4.185   4.572   5.956  1.1663  1.5636  0.0184
29661SOL    HW291939   4.121   4.684   5.878 -1.3161 -0.3424 -0.8143
29662SOL     OW91940  10.492   0.620   8.027  0.0974  0.3507  0.0428
29662SOL    HW191941  10.555   0.661   8.087  0.9676  2.0678 -1.9142
29662SOL    HW291942  10.415   0.676   8.031 -0.5305 -0.5477  0.8506
29663SOL     OW91943   8.601   4.229   4.962  0.0236 -0.3748 -0.0403
29663SOL    HW191944   8.523   4.176   4.946  0.3530 -1.4710  1.7368
29663SOL    HW291945   8.637   4.245   4.874 -0.9957 -1.6979 -0.7411
29664SOL     OW91946   6.076   4.035   9.502 -0.0957  0.1411 -0.1296
29664SOL    HW191947   6.067   4.074   9.415  1.0063  0.2429 -0.2115
29664SOL    HW291948   6.097   3.943   9.486 -0.2254  0.0846  0.0252
29665SOL     OW91949   4.762   9.451   3.235  0.1752 -0.3519 -0.0088
29665SOL    HW191950   4.812   9.410   3.305  0.5577  0.4963  0.2291
29665SOL    HW291951   4.811   9.431   3.155 -0.9393 -2.4294 -0.2533
29666SOL     OW91952   9.051   6.518   7.988  0.0428 -0.2819  0.3652
29666SOL    HW191953   9.088   6.466   8.060  1.3079 -1.9476 -1.3629
29666SOL    HW291954   9.053   6.608   8.020  0.8114 -0.9256  2.2971
29667SOL     OW91955   1.771   3.106  10.073 -0.0138 -0.0697 -0.1427
29667SOL    HW191956   1.805   3.164  10.141  0.1979 -1.5543  1.0735
29667SOL    HW291957   1.844   3.096  10.012  0.8152 -0.9405  0.9292
29668SOL     OW91958   7.730   4.521   5.565  0.2327  0.6490  0.2954
29668SOL    HW191959   7.767   4.526   5.653  0.5905  0.7173  0.1435
29668SOL    HW291960   7.635   4.512   5.578  0.2442  1.0957  0.6783
29669SOL     OW91961   5.539   5.642   1.220  0.1658 -0.4624  0.7111
29669SOL    HW191962   5.449   5.658   1.194  0.7342 -1.9137 -2.7370
29669SOL    HW291963   5.553   5.699   1.295 -3.4885  0.0236  1.1992
29670SOL     OW91964   6.990   5.686   6.858  0.1484 -0.4132  0.1382
29670SOL    HW191965   6.907   5.704   6.814  0.4368 -0.0471 -0.2640
29670SOL    HW291966   7.052   5.747   6.818  0.0912  1.1036  2.1849
29671SOL     OW91967   0.167   7.279   9.719  0.8127 -0.0195  0.0708
29671SOL    HW191968   0.224   7.321   9.784 -0.7061  1.5188  0.4807
29671SOL    HW291969   0.218   7.283   9.638  1.3419  1.2875  0.4306
29672SOL     OW91970   6.776   2.805   5.259 -0.7298 -0.1097 -0.4787
29672SOL    HW191971   6.851   2.822   5.315 -1.0897  0.4692 -0.1701
29672SOL    HW291972   6.721   2.745   5.309 -0.6298 -0.2868 -0.5780
29673SOL     OW91973   0.815   3.578   6.271  0.5115  0.1345 -0.3464
29673SOL    HW191974   0.798   3.672   6.272  2.0726  0.4921 -1.8087
29673SOL    HW291975   0.772   3.547   6.191 -1.2017 -0.6908  0.8529
29674SOL     OW91976  10.600   6.384   2.632 -0.3366  0.3041  0.4036
29674SOL    HW191977  10.625   6.302   2.675  2.7751  0.9632  0.0758
29674SOL    HW291978  10.543   6.357   2.560 -1.1690 -1.3115  1.5911
29675SOL     OW91979   6.849   8.180   8.940 -0.2335 -0.0535 -0.5529
29675SOL    HW191980   6.816   8.254   8.991 -0.9645  0.7273 -2.0634
29675SOL    HW291981   6.866   8.112   9.004 -0.5767  1.0602  0.7774
29676SOL     OW91982   7.432  10.690   9.942 -0.4754 -0.4427 -0.1770
29676SOL    HW191983   7.501  10.722  10.001 -0.5245  1.7968 -1.2333
29676SOL    HW291984   7.431  10.595   9.956  1.4907 -0.3196  1.2760
29677SOL     OW91985   7.348  10.551   1.339 -0.0378  0.0721  0.3558
29677SOL    HW191986   7.294  10.525   1.264  0.3633 -0.1916  0.1553
29677SOL    HW291987   7.350  10.647   1.334 -0.5918  0.0920  0.4429
29678SOL     OW91988   9.160   8.220   6.440  0.1672  0.1768  0.5706
29678SOL    HW191989   9.220   8.184   6.375  0.7467 -0.4518  1.4209
29678SOL    HW291990   9.162   8.314   6.425  2.3857  0.3173  1.3797
29679SOL     OW91991   4.603   9.885   4.196  0.0369 -0.3505 -0.2343
29679SOL    HW191992   4.625   9.816   4.134 -0.8278 -0.9836  0.1393
29679SOL    HW291993   4.616   9.845   4.282  1.3119  0.5393  0.0173
29680SOL     OW91994   8.010   1.514   4.395 -0.1036  0.0469 -0.2548
29680SOL    HW191995   7.946   1.572   4.353  0.6856  0.5890 -0.7171
29680SOL    HW291996   8.020   1.549   4.483  1.3681  1.4492 -0.9445
29681SOL     OW91997   9.884   6.792   2.409  0.1080 -0.0279 -0.8999
29681SOL    HW191998   9.903   6.756   2.323 -0.6061  0.7531 -1.4074
29681SOL    HW291999   9.864   6.716   2.464 -0.4065 -0.4651 -1.6800
29682SOL     OW92000   4.570   8.172   6.319 -0.2677  0.0239 -0.4858
29682SOL    HW192001   4.630   8.220   6.262  0.0452  0.4639  0.2071
29682SOL    HW292002   4.607   8.181   6.406 -1.1464 -0.0013 -0.0975
29683SOL     OW92003   8.908   3.460   7.064  0.1512 -0.3840  0.0248
29683SOL    HW192004   8.900   3.507   7.147 -0.2510  1.2454 -0.8814
29683SOL    HW292005   8.870   3.520   7.000  2.7649 -0.4432 -1.7248
29684SOL     OW92006   4.912   9.468   4.462 -0.0098 -0.4025 -0.2053
29684SOL    HW192007   4.834   9.433   4.507 -1.2270  0.8132 -1.2906
29684SOL    HW292008   4.886   9.475   4.371  1.2454  0.4356 -0.5207
29685SOL     OW92009   0.162   9.882   0.307  0.2423 -0.3703  0.1872
29685SOL    HW192010   0.250   9.860   0.337  0.0928 -2.1623 -0.6014
29685SOL    HW292011   0.113   9.800   0.313 -1.2049  0.4444 -0.0321
29686SOL     OW92012   2.088   6.346   8.438 -0.3072  0.3730  0.0817
29686SOL    HW192013   2.106   6.353   8.532 -0.4405 -0.1745  0.1510
29686SOL    HW292014   2.006   6.393   8.426  0.8425  2.4703 -0.1546
29687SOL     OW92015   0.282   7.023   4.463  0.2286  0.1770  0.0214
29687SOL    HW192016   0.378   7.024   4.467  0.2415  2.2770  0.2844
29687SOL    HW292017   0.262   6.997   4.373  1.0696  0.2056 -0.1853
29688SOL     OW92018   5.936   5.741   8.060  0.0132  0.1877  0.3700
29688SOL    HW192019   6.003   5.792   8.016  0.3933  0.0959  0.8370
29688SOL    HW292020   5.930   5.661   8.008 -2.6827  1.8356 -2.1639
29689SOL     OW92021   1.422   5.764   5.802  0.2345  0.2607  0.1738
29689SOL    HW192022   1.489   5.807   5.856  2.7859 -1.9019 -0.9986
29689SOL    HW292023   1.353   5.740   5.864  0.5503  2.4252  1.4843
29690SOL     OW92024   2.603   0.171   6.112 -0.0446  0.4180  0.2726
29690SOL    HW192025   2.656   0.250   6.102  0.8441  0.0922  1.9541
29690SOL    HW292026   2.658   0.113   6.165 -1.7223 -0.2902  1.3146
29691SOL     OW92027   6.857   9.848   9.583  0.4372  0.2360 -0.2871
29691SOL    HW192028   6.793   9.919   9.573 -0.6580 -0.6178  0.4867
29691SOL    HW292029   6.941   9.894   9.594 -0.0672  1.3795 -1.0158
29692SOL     OW92030   2.329   0.944   9.012  0.0148  0.2756 -0.2397
29692SOL    HW192031   2.296   0.923   9.099 -2.0633 -0.0355 -1.0525
29692SOL    HW292032   2.292   0.877   8.955  1.6381  0.2599 -1.3324
29693SOL     OW92033   2.977   9.074   4.560  0.5308 -0.4706 -0.2877
29693SOL    HW192034   3.051   9.118   4.519  1.9889 -1.7563  0.8248
29693SOL    HW292035   2.934   9.141   4.612  1.4748  0.1057 -0.2283
29694SOL     OW92036   8.970  10.354   0.146 -0.3256 -0.2754 -0.1976
29694SOL    HW192037   8.952  10.448   0.147  0.6130  0.0465 -3.4102
29694SOL    HW292038   8.984  10.331   0.238 -0.5787  2.7134  0.6749
29695SOL     OW92039  10.637   4.266   6.777  0.1724 -0.2277 -0.3433
29695SOL    HW192040  10.645   4.197   6.844 -0.8410  1.2609  1.4028
29695SOL    HW292041  10.724   4.305   6.773  0.0665  0.1415  0.6797
29696SOL     OW92042   1.950   8.333   6.190 -0.2250 -0.3932  0.4358
29696SOL    HW192043   1.929   8.393   6.118 -0.7675 -1.9476 -0.7522
29696SOL    HW292044   2.045   8.337   6.198 -0.0476 -0.9931 -1.0981
29697SOL     OW92045   4.113   8.776   5.764  0.0454  0.3466  0.0021
29697SOL    HW192046   4.159   8.697   5.792 -0.3263  0.3343  0.5766
29697SOL    HW292047   4.184   8.837   5.740  0.3322 -0.5198 -1.5253
29698SOL     OW92048   8.826   2.364   9.026 -0.2025  0.7286 -0.6255
29698SOL    HW192049   8.740   2.369   9.068 -0.7348  1.9640 -1.7736
29698SOL    HW292050   8.809   2.315   8.945  0.5000 -0.3198 -0.1603
29699SOL     OW92051   9.248   7.295   9.323  0.4749  0.4684 -0.1646
29699SOL    HW192052   9.298   7.215   9.334  1.5060  1.3214  2.0720
29699SOL    HW292053   9.157   7.266   9.311  1.0598 -1.0310 -1.2143
29700SOL     OW92054   4.305   2.358   7.033  0.2148 -0.2734  0.2290
29700SOL    HW192055   4.309   2.417   6.958 -1.9297  0.9652  1.0165
29700SOL    HW292056   4.324   2.271   6.996  2.8213  0.7234 -1.0627
29701SOL     OW92057  10.349   3.336   9.399 -0.1236 -0.1062  0.4713
29701SOL    HW192058  10.277   3.379   9.444  0.0690 -1.5769  2.3222
29701SOL    HW292059  10.386   3.276   9.465  1.7948 -0.5197 -0.8966
29702SOL     OW92060   8.304   7.079   2.681 -0.3743 -0.2045  0.3863
29702SOL    HW192061   8.215   7.049   2.698 -0.6556  1.1194  1.3884
29702SOL    HW292062   8.296   7.132   2.601  0.0592 -2.3692 -1.1733
29703SOL     OW92063   1.786   1.753   1.982 -0.4220  0.0636 -0.1689
29703SOL    HW192064   1.706   1.774   2.030 -0.6241 -0.9850 -0.0246
29703SOL    HW292065   1.755   1.720   1.897 -0.1000  0.7138 -0.5496
29704SOL     OW92066  10.632   8.977   6.636 -0.2273  0.0694 -0.0179
29704SOL    HW192067  10.663   8.951   6.723 -0.4476  2.7051  0.9323
29704SOL    HW292068  10.706   9.025   6.597  0.1590 -1.7238 -1.6889
29705SOL     OW92069   6.349   1.873   0.161 -0.2814 -0.2326  0.3746
29705SOL    HW192070   6.315   1.888   0.249 -0.9264 -1.1666  0.2940
29705SOL    HW292071   6.318   1.948   0.111 -1.5396 -0.6340  0.5080
29706SOL     OW92072   7.039   3.314   9.986  0.1548  0.3413 -0.1730
29706SOL    HW192073   7.119   3.313  10.038  0.1485  0.9520 -0.1359
29706SOL    HW292074   7.043   3.234   9.933  0.7931  0.3673 -0.1743
29707SOL     OW92075   9.098   6.420   4.171  0.4596 -0.4395 -0.4790
29707SOL    HW192076   9.107   6.326   4.186 -0.4005 -0.6039 -0.9637
29707SOL    HW292077   9.102   6.429   4.075  2.7794  0.2659 -0.3976
29708SOL     OW92078   8.407   0.770   3.370  0.1043  0.4469  0.2624
29708SOL    HW192079   8.387   0.684   3.409 -0.3789 -0.9185 -2.7206
29708SOL    HW292080   8.500   0.782   3.388  0.0215 -0.3340  1.3650
29709SOL     OW92081   5.923  10.418  10.517 -0.0780  0.2840  0.3874
29709SOL    HW192082   6.002  10.472  10.511 -0.3161  1.0354  2.8116
29709SOL    HW292083   5.941  10.343  10.460  1.5938  1.3317 -0.5598
29710SOL     OW92084   5.991   7.822   7.849 -0.6137  0.1939 -0.2016
29710SOL    HW192085   6.057   7.758   7.822 -0.4072 -0.8930  2.5801
29710SOL    HW292086   5.929   7.773   7.901 -1.1763  1.9983  0.9382
29711SOL     OW92087   8.190   9.157   0.870  0.1267 -0.2490  0.0663
29711SOL    HW192088   8.219   9.066   0.864  0.7714 -0.0186 -0.4028
29711SOL    HW292089   8.101   9.157   0.835  0.7994 -0.3742 -1.7213
29712SOL     OW92090   7.178   4.087   9.637 -0.0668 -0.4165 -0.4186
29712SOL    HW192091   7.247   4.038   9.591 -0.4432  0.0159 -1.4713
29712SOL    HW292092   7.206   4.178   9.632  0.4989 -0.4705  1.3109
29713SOL     OW92093   5.956   3.655   7.244  0.1933  0.3146 -0.2651
29713SOL    HW192094   6.002   3.692   7.168  0.7606 -1.0934 -0.6358
29713SOL    HW292095   5.882   3.715   7.259  0.6576  1.1734 -1.2837
29714SOL     OW92096   4.422   8.441   6.362 -0.3277  0.5940  0.7185
29714SOL    HW192097   4.439   8.348   6.371 -0.6230  0.5367  0.6811
29714SOL    HW292098   4.498   8.483   6.403  0.3570  0.3516 -0.2521
29715SOL     OW92099   8.779   6.795   3.940  0.1970 -0.2423 -0.1316
29715SOL    HW192100   8.842   6.747   3.886  0.0540 -0.2125 -0.3276
29715SOL    HW292101   8.781   6.884   3.905  1.1925  0.1499  0.8706
29716SOL     OW92102   6.857   1.784   0.239 -0.0240 -0.2770 -0.2613
29716SOL    HW192103   6.776   1.818   0.199  1.0343  0.0191 -2.2932
29716SOL    HW292104   6.882   1.710   0.183  1.9649  0.6446 -0.6650
29717SOL     OW92105  10.175   6.656   3.168  0.3646  0.0210 -0.1118
29717SOL    HW192106  10.165   6.694   3.255 -1.9549 -1.6288  0.4398
29717SOL    HW292107  10.256   6.604   3.175  0.5809  0.4503  0.8239
29718SOL     OW92108   5.471   2.163   6.337 -0.5271 -0.2265 -0.3929
29718SOL    HW192109   5.460   2.071   6.312  0.7403 -0.2820 -0.8155
29718SOL    HW292110   5.498   2.160   6.429  1.0122 -0.3756 -0.8337
29719SOL     OW92111   8.507   2.405  10.422 -0.2347 -0.1401 -0.2332
29719SOL    HW192112   8.595   2.441  10.412  0.3117 -0.5364  2.3303
29719SOL    HW292113   8.485   2.424  10.514 -1.7810 -2.2658 -0.1105
29720SOL     OW92114   3.350  10.479   7.169  0.0734  0.4514  0.5120
29720SOL    HW192115   3.426  10.441   7.212 -0.3104  1.0426  1.7732
29720SOL    HW292116   3.384  10.554   7.120  0.5707 -0.4538 -0.5729
29721SOL     OW92117   2.462   8.375   3.533 -0.5526 -0.0424  0.2801
29721SOL    HW192118   2.426   8.287   3.524 -0.0965 -0.0813 -1.4266
29721SOL    HW292119   2.386   8.429   3.557 -0.9984 -0.7386  0.4848
29722SOL     OW92120  10.480   3.430   2.387 -0.3141 -0.2610  0.1888
29722SOL    HW192121  10.497   3.356   2.445  0.0223  0.4224  0.9917
29722SOL    HW292122  10.544   3.420   2.316 -0.8793 -1.2287 -0.1981
29723SOL     OW92123   6.805   0.378   1.466 -0.1595 -0.0461 -0.1111
29723SOL    HW192124   6.751   0.299   1.462  0.4018 -0.4114 -0.4961
29723SOL    HW292125   6.744   0.449   1.444  0.1248 -0.7344 -3.7937
29724SOL     OW92126   9.817   7.737   2.798  0.1606 -0.2563  0.3876
29724SOL    HW192127   9.898   7.781   2.825  0.5612 -1.2788  0.8869
29724SOL    HW292128   9.817   7.743   2.703  1.5472 -1.4626  0.2767
29725SOL     OW92129   5.974   2.845   1.131  0.1944  0.2799 -0.0034
29725SOL    HW192130   5.914   2.774   1.110  1.2331 -1.1528  1.5594
29725SOL    HW292131   6.023   2.861   1.051  0.1524 -0.9971 -0.2945
29726SOL     OW92132   3.742   8.709   9.510 -0.2300  0.0337 -0.3441
29726SOL    HW192133   3.796   8.762   9.451 -1.5175  0.3710 -1.2670
29726SOL    HW292134   3.734   8.763   9.589  1.9171 -0.6316  0.3934
29727SOL     OW92135   5.136   4.880   5.231  0.3283 -0.0278 -0.3828
29727SOL    HW192136   5.136   4.973   5.208  1.0166  0.0671 -0.0408
29727SOL    HW292137   5.198   4.841   5.169  0.6657 -0.1085 -0.0018
29728SOL     OW92138   7.820   4.900  10.010 -0.1061 -0.0967  0.3685
29728SOL    HW192139   7.771   4.843   9.951  0.8402  0.0939 -0.6440
29728SOL    HW292140   7.803   4.988   9.978 -1.4946  0.2256  1.8775
29729SOL     OW92141   5.029   2.398   7.870  0.0628 -0.0656  0.6094
29729SOL    HW192142   5.017   2.416   7.777 -0.6677  1.3135  0.9326
29729SOL    HW292143   5.111   2.349   7.875 -0.3082 -0.8793 -0.8236
29730SOL     OW92144   4.200   3.045   6.124 -0.4101  0.1352 -0.3602
29730SOL    HW192145   4.229   2.956   6.142  0.6811  0.7630  1.2461
29730SOL    HW292146   4.152   3.071   6.203 -0.6027  1.0080 -0.7540
29731SOL     OW92147   8.818   3.835   1.199 -0.2979  0.0580  0.5650
29731SOL    HW192148   8.756   3.769   1.230  0.0078  0.0901  1.2595
29731SOL    HW292149   8.791   3.916   1.243  1.6900 -0.4141  2.8555
29732SOL     OW92150  10.463   9.025   3.186  0.5190 -0.2137  0.1498
29732SOL    HW192151  10.432   9.042   3.097  0.5651 -2.9695 -0.5034
29732SOL    HW292152  10.387   9.042   3.242 -0.7659 -2.0816 -0.8959
29733SOL     OW92153   1.168   0.646   7.405 -0.0560 -0.2711  0.1719
29733SOL    HW192154   1.256   0.663   7.438 -0.1420  0.8535 -0.1282
29733SOL    HW292155   1.110   0.692   7.465 -0.3172  0.4322 -0.6036
29734SOL     OW92156   4.363   8.107   6.150 -0.0814  0.0898 -0.1695
29734SOL    HW192157   4.448   8.125   6.191  0.4580 -0.4485 -1.0181
29734SOL    HW292158   4.315   8.056   6.216  0.8353 -0.9116 -0.2517
29735SOL     OW92159   2.689   2.258   7.251  0.3111 -0.5037  0.1540
29735SOL    HW192160   2.778   2.240   7.223  1.3560  0.0354  2.8745
29735SOL    HW292161   2.648   2.172   7.258  1.7666 -1.1058  2.2379
29736SOL     OW92162   3.285   2.578   3.285 -0.4429  0.1171  0.5492
29736SOL    HW192163   3.259   2.531   3.364 -2.5343  2.4522  1.3865
29736SOL    HW292164   3.335   2.654   3.318  0.8600 -0.2124 -0.5851
29737SOL     OW92165   1.732   1.933   6.092  0.0794  0.0671  0.2253
29737SOL    HW192166   1.677   1.973   6.025 -1.5500  1.8050  2.4594
29737SOL    HW292167   1.693   1.847   6.108 -0.7865  0.4880  0.3978
29738SOL     OW92168   2.269   7.980   7.671 -0.3255  0.4700 -0.5277
29738SOL    HW192169   2.270   8.029   7.588 -0.3645  1.9132  0.2962
29738SOL    HW292170   2.361   7.974   7.696 -0.1945 -1.0034 -1.2249
29739SOL     OW92171   3.181   9.161   6.209  0.6384 -0.4908  0.4641
29739SOL    HW192172   3.155   9.100   6.140 -0.9123  0.5422  0.0866
29739SOL    HW292173   3.141   9.244   6.184 -2.2052 -0.6154  3.8439
29740SOL     OW92174   8.091   6.682   0.869 -0.3340  0.5636  0.6490
29740SOL    HW192175   8.051   6.681   0.782  2.1896 -2.0532 -0.6430
29740SOL    HW292176   8.129   6.770   0.876 -3.8193  2.2367  0.9018
29741SOL     OW92177   7.871   7.241   3.850  0.3579  0.3362 -0.3390
29741SOL    HW192178   7.840   7.203   3.932 -0.1478  0.4862 -0.4543
29741SOL    HW292179   7.791   7.257   3.800  0.5917  1.1576 -0.4642
29742SOL     OW92180   2.872   2.456   2.578 -0.1938 -0.2365 -0.2958
29742SOL    HW192181   2.876   2.532   2.520  0.5196  1.0872  1.4086
29742SOL    HW292182   2.958   2.415   2.570  1.2768  1.9823  2.3190
29743SOL     OW92183   4.308   7.737   7.686 -0.7569 -0.0422 -0.2282
29743SOL    HW192184   4.318   7.740   7.781 -1.2126  0.4901 -0.1895
29743SOL    HW292185   4.392   7.768   7.652 -0.0669 -1.5977 -0.0395
29744SOL     OW92186   9.965   9.052   8.608  0.0012 -0.4947 -0.2831
29744SOL    HW192187   9.914   9.070   8.688  1.2555 -1.1216  0.6891
29744SOL    HW292188  10.056   9.051   8.637  0.3800 -2.9862 -1.2524
29745SOL     OW92189   3.357   3.759   4.650  0.0756  0.1649 -0.0607
29745SOL    HW192190   3.334   3.669   4.672 -0.2830  0.4953  0.9662
29745SOL    HW292191   3.288   3.788   4.590  1.4119 -0.9587 -2.3053
29746SOL     OW92192   7.165   1.302   3.268 -0.0593 -0.1079  0.3088
29746SOL    HW192193   7.102   1.304   3.196 -0.3822  0.9602  0.6020
29746SOL    HW292194   7.141   1.224   3.319  0.7492 -1.4143 -1.2037
29747SOL     OW92195   4.468   2.984   0.018  0.7518 -0.4489 -0.2119
29747SOL    HW192196   4.488   3.036   0.096  1.7723 -1.0929 -0.0215
29747SOL    HW292197   4.480   3.044  -0.055 -0.8213  0.3371  0.1384
29748SOL     OW92198   3.689   0.199   8.201 -0.2460 -0.0586  0.5734
29748SOL    HW192199   3.649   0.112   8.199  0.2863 -0.2947 -0.6820
29748SOL    HW292200   3.634   0.252   8.143 -0.0134  0.1937  0.5802
29749SOL     OW92201   5.782   0.592   2.596  0.5274 -0.7351  0.1342
29749SOL    HW192202   5.770   0.601   2.501  0.5910  2.6322  0.3308
29749SOL    HW292203   5.872   0.562   2.606  1.1263  0.6218 -0.8928
29750SOL     OW92204   3.021   8.165   1.112 -0.1120 -0.5711 -0.0200
29750SOL    HW192205   2.974   8.148   1.193 -0.0640  0.8461  0.3255
29750SOL    HW292206   3.093   8.102   1.112 -1.8073 -2.6438 -0.4621
29751SOL     OW92207  10.513   7.273   4.198 -0.0966 -0.0325 -0.0629
29751SOL    HW192208  10.600   7.309   4.180 -1.5635  2.9834 -1.9529
29751SOL    HW292209  10.478   7.250   4.112 -1.3805 -0.6883  0.6127
29752SOL     OW92210   3.248   1.976   9.335  0.4448  0.0770  0.2154
29752SOL    HW192211   3.161   1.966   9.296  0.8188 -0.9039 -0.4215
29752SOL    HW292212   3.256   1.902   9.396  0.5528  0.5799  0.8174
29753SOL     OW92213   6.286   4.472   0.233 -0.0866 -0.0422  0.3438
29753SOL    HW192214   6.194   4.489   0.213  0.1047  0.4598 -0.1586
29753SOL    HW292215   6.334   4.536   0.180  0.5166  0.2805  1.2477
29754SOL     OW92216   0.040   0.266   8.527  0.3946 -0.2612  0.5079
29754SOL    HW192217   0.029   0.360   8.538  0.4141 -0.0252 -1.1876
29754SOL    HW292218   0.135   0.254   8.518  0.5042 -0.6191  1.9838
29755SOL     OW92219   7.835   4.473   3.422  0.5295 -0.4298 -0.3713
29755SOL    HW192220   7.876   4.544   3.374  1.9986 -0.6587  0.4965
29755SOL    HW292221   7.849   4.396   3.368 -2.1695  0.0312 -1.9503
29756SOL     OW92222   7.420   2.763   2.808  0.2374 -0.0661  0.0580
29756SOL    HW192223   7.413   2.761   2.903 -0.2796  2.4352  0.1471
29756SOL    HW292224   7.338   2.726   2.777  0.1877 -0.4060  0.5843
29757SOL     OW92225   3.592   2.350  10.546 -0.0465  0.0657 -0.0851
29757SOL    HW192226   3.591   2.386  10.635 -1.6153  1.4866 -0.6192
29757SOL    HW292227   3.673   2.384  10.507  1.4417 -1.7792  1.1858
29758SOL     OW92228   5.100   2.820   8.481  0.1878  0.0495  0.0198
29758SOL    HW192229   5.134   2.835   8.393 -0.5071  0.3882 -0.2007
29758SOL    HW292230   5.047   2.740   8.474 -0.6478  0.5963 -0.1068
29759SOL     OW92231   8.587   8.657   3.316 -0.4211  0.8276  0.3135
29759SOL    HW192232   8.635   8.615   3.244  0.7323  0.2418  1.3637
29759SOL    HW292233   8.652   8.664   3.386 -1.9864 -0.4253  1.9807
29760SOL     OW92234   9.681   6.184   1.778 -0.0200 -0.3748  0.3449
29760SOL    HW192235   9.711   6.192   1.869 -1.0893  1.3686  0.5792
29760SOL    HW292236   9.671   6.089   1.765  0.6761 -0.6860  1.8511
29761SOL     OW92237  10.376   8.684   1.433 -0.3310  0.0288  0.7954
29761SOL    HW192238  10.410   8.598   1.461  1.3592  0.5856  0.5932
29761SOL    HW292239  10.451   8.743   1.444 -0.2509  0.7498 -2.6624
29762SOL     OW92240   9.239   9.543   8.022  0.0084  0.4369  0.3457
29762SOL    HW192241   9.237   9.600   7.945 -0.7929  0.0585  0.0811
29762SOL    HW292242   9.199   9.462   7.992  1.0446 -0.2360  0.7515
29763SOL     OW92243   4.000   9.290   1.858 -0.6810 -0.1199  0.1909
29763SOL    HW192244   4.078   9.333   1.895  0.8799 -4.3449  2.4138
29763SOL    HW292245   4.034   9.229   1.794 -1.9845 -2.4404  1.5759
29764SOL     OW92246   4.931   7.142   7.818 -0.5182  0.8743  0.4244
29764SOL    HW192247   4.864   7.199   7.856  0.5853  2.8346 -0.3921
29764SOL    HW292248   4.892   7.112   7.736 -0.5650  1.6820  0.1414
29765SOL     OW92249   9.004   3.355   5.162 -0.2733  0.2225  0.1998
29765SOL    HW192250   9.086   3.397   5.189 -0.6055  0.1325  1.3928
29765SOL    HW292251   8.938   3.388   5.224 -1.0308 -0.1386 -0.3932
29766SOL     OW92252  10.504   1.930  10.371 -0.3974 -0.0377 -0.3463
29766SOL    HW192253  10.472   2.019  10.354 -0.2206  0.2469  0.7001
29766SOL    HW292254  10.490   1.883  10.289 -0.2041  1.0386 -1.0147
29767SOL     OW92255   2.972   1.880   7.277 -0.4757  0.4573  0.0049
29767SOL    HW192256   3.021   1.824   7.217 -0.5983 -0.0137  0.3382
29767SOL    HW292257   3.038   1.914   7.337 -0.2434  1.4791 -0.7989
29768SOL     OW92258   5.386   0.902  10.325 -0.3102  0.1335  0.0289
29768SOL    HW192259   5.449   0.889  10.396  0.8211  0.9343 -0.7951
29768SOL    HW292260   5.332   0.976  10.354  0.2492  0.5607 -0.0021
29769SOL     OW92261   9.636   1.252   7.659 -0.0871 -0.3117 -0.5108
29769SOL    HW192262   9.586   1.326   7.692  0.7118  0.1452 -0.2984
29769SOL    HW292263   9.658   1.201   7.736  0.4249 -0.0951 -0.5073
29770SOL     OW92264   8.666   0.775   1.217 -0.3585 -0.1066  0.0941
29770SOL    HW192265   8.756   0.743   1.206 -0.4932 -0.3256 -0.3827
29770SOL    HW292266   8.654   0.779   1.312 -0.4523 -1.7805  0.1723
29771SOL     OW92267   4.333  10.166   7.971  0.1295  0.7071  0.7728
29771SOL    HW192268   4.358  10.075   7.983 -0.5739  0.3227 -0.5346
29771SOL    HW292269   4.277  10.166   7.894 -0.0368  2.2223  0.8610
29772SOL     OW92270   6.559   9.435   3.920  0.1339  0.5297 -0.2292
29772SOL    HW192271   6.476   9.472   3.891  0.0058  0.3483 -0.1050
29772SOL    HW292272   6.617   9.510   3.931  0.2502  0.5785 -1.1468
29773SOL     OW92273   6.637   1.180   9.589 -0.0642  0.2676 -0.0043
29773SOL    HW192274   6.670   1.264   9.558  0.7137 -0.0023  0.0674
29773SOL    HW292275   6.542   1.191   9.592  0.0065  1.0251 -0.3317
29774SOL     OW92276   7.569   4.841  10.251  0.2920  0.1870  0.4364
29774SOL    HW192277   7.562   4.935  10.230  0.5463  0.1124 -0.0117
29774SOL    HW292278   7.529   4.797  10.176  1.8001 -0.1088 -0.2411
29775SOL     OW92279   8.058   0.576   5.030 -0.1207  0.2266  0.7714
29775SOL    HW192280   8.002   0.573   4.952 -1.1435 -1.1627  1.5178
29775SOL    HW292281   7.997   0.587   5.103  0.4923 -1.7882  1.6588
29776SOL     OW92282   3.194   9.253   3.216 -0.4531 -0.9393 -0.3505
29776SOL    HW192283   3.242   9.179   3.178 -0.1795 -0.1554 -1.5919
29776SOL    HW292284   3.204   9.323   3.151 -3.9377 -0.9388 -1.0522
29777SOL     OW92285   5.442   4.514   6.048  0.3799  0.0444 -0.5008
29777SOL    HW192286   5.401   4.593   6.081 -0.5966 -0.1112 -1.3001
29777SOL    HW292287   5.373   4.469   6.000  0.9504 -1.2337 -0.1681
29778SOL     OW92288   1.759   0.979  10.656 -0.5964 -0.0225  0.1708
29778SOL    HW192289   1.820   0.938  10.717 -0.3747 -0.1566 -0.1435
29778SOL    HW292290   1.814   1.019  10.589 -0.8259  0.4804  0.2790
29779SOL     OW92291   2.908  10.020   7.937  0.1216 -0.6030  0.0678
29779SOL    HW192292   2.844  10.040   8.006 -0.3820  1.3502 -0.8752
29779SOL    HW292293   2.859  10.034   7.856  1.4668 -0.0501 -0.6726
29780SOL     OW92294   3.667  10.218   1.753 -0.1488 -0.2352 -0.2681
29780SOL    HW192295   3.762  10.222   1.768 -0.2025  0.4773 -0.0559
29780SOL    HW292296   3.659  10.193   1.660  0.2784  1.1537 -0.7079
29781SOL     OW92297   7.675   9.797   7.291 -0.1014  0.2489  0.3764
29781SOL    HW192298   7.701   9.805   7.199 -1.7337  2.3344  0.0240
29781SOL    HW292299   7.599   9.854   7.299 -0.0418  0.0538  3.0254
29782SOL     OW92300   3.746   3.852   0.938 -0.3574 -0.0027  0.0893
29782SOL    HW192301   3.721   3.936   0.900  0.2581 -0.6443 -1.8391
29782SOL    HW292302   3.841   3.849   0.930 -0.3219 -0.6724  0.6231
29783SOL     OW92303   6.010   4.126   3.213  0.4349 -0.2226  0.3922
29783SOL    HW192304   5.937   4.064   3.212  1.3035 -1.2619 -0.4612
29783SOL    HW292305   6.073   4.088   3.275 -0.3420  1.4467  2.3356
29784SOL     OW92306   9.062   0.137   9.442  0.0867 -0.0334 -0.3885
29784SOL    HW192307   9.038   0.046   9.427  0.5923 -0.4407  1.0888
29784SOL    HW292308   9.134   0.133   9.504  0.6796  1.3538 -0.9468
29785SOL     OW92309   8.368   3.114   9.358 -0.2987  0.0779 -0.4442
29785SOL    HW192310   8.330   3.200   9.372  0.0086 -0.2666  3.6088
29785SOL    HW292311   8.294   3.060   9.328 -1.1924  1.1163 -0.1855
29786SOL     OW92312   1.445   7.987   5.599  0.6271  0.1645  0.0979
29786SOL    HW192313   1.446   7.892   5.614 -1.9939 -0.2685 -1.6035
29786SOL    HW292314   1.356   8.013   5.622  0.5846  1.7580 -1.6114
29787SOL     OW92315   1.343   0.775   8.333 -0.2300  0.1843 -0.2718
29787SOL    HW192316   1.295   0.715   8.276  0.1453 -0.0184 -0.3792
29787SOL    HW292317   1.434   0.749   8.324 -0.1208  0.4206  0.1024
29788SOL     OW92318   9.284   3.228   9.168 -0.2767 -0.1541  0.8023
29788SOL    HW192319   9.374   3.221   9.199 -0.1975  1.4872  1.0302
29788SOL    HW292320   9.237   3.159   9.214  0.9370 -1.3218  0.3363
29789SOL     OW92321   5.890  10.358   6.946  0.0072  0.5519  0.2687
29789SOL    HW192322   5.830  10.323   6.880  0.0863  1.3629 -0.2521
29789SOL    HW292323   5.943  10.422   6.898  0.7172  0.4607  0.9105
29790SOL     OW92324   7.717   4.713   1.100 -0.2985  0.0666 -0.5713
29790SOL    HW192325   7.702   4.787   1.041 -1.8439  0.7841  0.6357
29790SOL    HW292326   7.793   4.740   1.153  0.6801 -0.3053 -1.7370
29791SOL     OW92327   9.946   3.180   4.416 -0.4030 -0.1239 -0.0942
29791SOL    HW192328   9.980   3.170   4.327 -0.1310 -2.0744  0.2003
29791SOL    HW292329  10.021   3.211   4.467  0.0949 -1.2943 -0.0893
29792SOL     OW92330   0.532  10.583   9.552  0.2052 -0.1228  0.2659
29792SOL    HW192331   0.537  10.671   9.590 -1.8938 -0.0362  0.4552
29792SOL    HW292332   0.461  10.541   9.600  0.8452 -1.7671 -0.1794
29793SOL     OW92333   6.484   8.746   3.507 -0.1300 -0.0859 -0.5302
29793SOL    HW192334   6.393   8.775   3.518  0.3462  1.0236  0.9421
29793SOL    HW292335   6.528   8.821   3.467  0.2713 -0.3686 -0.6234
29794SOL     OW92336   6.373   2.291   6.342  0.2972  0.3039 -0.2665
29794SOL    HW192337   6.370   2.354   6.414  0.5828  0.7496 -0.6362
29794SOL    HW292338   6.284   2.291   6.306  0.0723 -0.1493  0.2716
29795SOL     OW92339   6.083   2.508   1.152  0.9728 -0.2152  0.1530
29795SOL    HW192340   6.151   2.555   1.201  0.2939 -0.2808  1.2011
29795SOL    HW292341   6.129   2.436   1.110  1.5348 -0.3600  0.9928
29796SOL     OW92342  10.518   0.627  10.385 -0.1920 -0.2355  0.2559
29796SOL    HW192343  10.486   0.716  10.398 -0.2187 -0.3746  1.1950
29796SOL    HW292344  10.547   0.598  10.472  0.1450 -1.0142 -0.1023
29797SOL     OW92345   3.586   6.564   9.462 -0.3088  0.1395  0.1855
29797SOL    HW192346   3.581   6.643   9.516  1.0341  1.0657 -0.9705
29797SOL    HW292347   3.517   6.576   9.397  0.8821  1.1696 -0.9469
29798SOL     OW92348   1.729  10.305   7.734  0.0514 -0.1924 -0.6462
29798SOL    HW192349   1.675  10.226   7.733  0.0129 -0.2464 -3.2663
29798SOL    HW292350   1.817  10.275   7.757  0.1254 -1.1113 -2.0173
29799SOL     OW92351   1.801   1.424   9.402  0.1594  0.3080 -0.6796
29799SOL    HW192352   1.826   1.516   9.397 -1.5631  1.0395  2.1167
29799SOL    HW292353   1.828   1.396   9.490 -0.2143 -1.5925 -1.1181
29800SOL     OW92354   6.034   0.876   4.908 -0.7034  0.0536  0.8264
29800SOL    HW192355   6.047   0.904   4.999 -0.1167  0.4340  0.6291
29800SOL    HW292356   6.099   0.925   4.858 -0.7637 -0.4379  0.2493
29801SOL     OW92357   8.413   2.095   1.862 -0.0360 -0.2171 -0.6578
29801SOL    HW192358   8.423   2.019   1.804 -0.0625 -0.3385 -0.5011
29801SOL    HW292359   8.348   2.150   1.818 -1.2309 -1.0512  0.0415
29802SOL     OW92360   1.796   7.683   3.367  0.2293 -0.6302 -0.1721
29802SOL    HW192361   1.712   7.637   3.360 -1.3472  1.6307  1.9900
29802SOL    HW292362   1.771   7.776   3.373  2.5036 -0.0712  4.4059
29803SOL     OW92363   2.993   4.893   4.060 -0.0893  0.0424 -0.6646
29803SOL    HW192364   3.036   4.931   3.983 -0.7126 -0.4057 -1.2368
29803SOL    HW292365   3.014   4.954   4.131 -0.0046  0.7802 -1.3071
29804SOL     OW92366   1.698   7.719   5.821  0.5697  0.3463 -0.0467
29804SOL    HW192367   1.668   7.684   5.737  0.5252  0.7384 -0.1942
29804SOL    HW292368   1.728   7.642   5.870  1.4411  0.2135 -0.7682
29805SOL     OW92369   2.965   0.788   3.072  0.2730 -0.3447  0.0467
29805SOL    HW192370   2.981   0.730   2.998  3.3107 -0.4196  0.6293
29805SOL    HW292371   3.035   0.853   3.067  0.8705 -0.6014  3.0590
29806SOL     OW92372   3.536   1.800   5.656  0.3719  0.2746  0.0946
29806SOL    HW192373   3.531   1.863   5.728 -1.0643 -1.0014  1.1699
29806SOL    HW292374   3.572   1.721   5.696  3.8664  0.8102 -1.6021
29807SOL     OW92375   3.815   0.375   1.403  0.1930  0.0069  1.1528
29807SOL    HW192376   3.724   0.367   1.429 -0.0227 -0.5503  0.2745
29807SOL    HW292377   3.844   0.457   1.442 -1.1798  1.0783  0.0402
29808SOL     OW92378   4.668   9.052   6.561  0.3661 -0.4318 -0.0676
29808SOL    HW192379   4.660   9.090   6.473  1.7875  0.8675  0.3320
29808SOL    HW292380   4.670   9.128   6.620  0.8767 -1.2218  0.9638
29809SOL     OW92381   6.963   4.767   1.785 -0.0290  0.1057  0.2639
29809SOL    HW192382   6.910   4.773   1.865  0.0852 -2.4968  0.6300
29809SOL    HW292383   6.935   4.686   1.744  0.8904  0.7140 -1.6578
29810SOL     OW92384   9.476   5.133   9.969  0.3632  0.9346 -0.0942
29810SOL    HW192385   9.392   5.113   9.929  0.7254  0.0605 -0.4403
29810SOL    HW292386   9.488   5.066  10.036  0.7595  1.0821 -0.0136
29811SOL     OW92387   3.240   4.720   8.447 -0.0257 -0.3670 -0.1637
29811SOL    HW192388   3.151   4.754   8.434 -0.5483 -1.6153  0.0667
29811SOL    HW292389   3.264   4.683   8.362  0.5419  0.5223 -0.4101
29812SOL     OW92390   6.944   4.789   2.915 -0.0172 -0.3444  0.3790
29812SOL    HW192391   6.910   4.754   2.833 -0.8345 -2.1369  1.4189
29812SOL    HW292392   6.880   4.855   2.942 -0.5263 -0.7957  0.2895
29813SOL     OW92393   9.555   5.636   9.589 -0.0389 -0.7293 -0.3673
29813SOL    HW192394   9.535   5.591   9.507 -1.0456 -0.3779 -0.3243
29813SOL    HW292395   9.472   5.637   9.637  0.1732  0.3912  0.0070
29814SOL     OW92396   1.677   1.666   6.159  0.5036 -0.2745  0.3169
29814SOL    HW192397   1.732   1.608   6.106  2.4960  1.5518  0.2693
29814SOL    HW292398   1.714   1.659   6.247  1.0286  1.1860  0.2307
29815SOL     OW92399   4.604   2.676   9.921 -0.1301  0.1556  0.3012
29815SOL    HW192400   4.549   2.666   9.844  1.5975  3.8877 -1.7204
29815SOL    HW292401   4.685   2.631   9.899  0.5387  1.6176 -0.3891
29816SOL     OW92402  10.489   6.345   8.699 -0.0521 -0.5374  0.3979
29816SOL    HW192403  10.570   6.302   8.724  0.6283  1.0640  1.0599
29816SOL    HW292404  10.509   6.386   8.614 -0.0032  0.2529  0.7833
29817SOL     OW92405   7.918   4.466   9.247  0.0968  0.6991  0.6820
29817SOL    HW192406   7.841   4.428   9.290 -0.1505 -1.1219 -1.1998
29817SOL    HW292407   7.883   4.508   9.169  0.7971  1.7910  0.9380
29818SOL     OW92408   6.556   0.662   2.192 -0.3554 -0.3848  0.6654
29818SOL    HW192409   6.597   0.581   2.221  0.1785  0.0814  1.2725
29818SOL    HW292410   6.486   0.635   2.133 -1.0349 -1.3397  1.8773
29819SOL     OW92411   6.668   2.227   9.533  0.4306 -0.0982  0.8068
29819SOL    HW192412   6.600   2.265   9.589  0.1155  0.3423  0.1344
29819SOL    HW292413   6.620   2.174   9.470  0.7748 -0.4789  0.8580
29820SOL     OW92414   1.527   0.165   5.907  0.3427  0.3186 -0.1139
29820SOL    HW192415   1.579   0.234   5.865  0.0540 -0.2309 -1.4175
29820SOL    HW292416   1.556   0.084   5.865 -2.0181  0.0593 -1.3871
29821SOL     OW92417   9.478   8.867   0.109  0.1393 -0.0826 -0.9016
29821SOL    HW192418   9.443   8.781   0.132  2.9422 -1.9603 -3.0217
29821SOL    HW292419   9.405   8.911   0.065 -2.0069 -0.4153  2.0325
29822SOL     OW92420   0.910   7.563   0.515 -0.1281 -0.0936  0.2493
29822SOL    HW192421   0.846   7.564   0.586  1.2005  1.5385  1.4879
29822SOL    HW292422   0.993   7.540   0.557  0.7399  1.1901 -0.6886
29823SOL     OW92423   8.843   2.257   9.839  0.4224  0.5120  0.6071
29823SOL    HW192424   8.892   2.276   9.759  2.1399 -0.2510  1.4438
29823SOL    HW292425   8.753   2.245   9.809  0.9151  0.8276 -1.1259
29824SOL     OW92426   5.921   6.267   3.491 -0.3768 -0.5288 -0.2693
29824SOL    HW192427   6.009   6.241   3.519 -1.0300  0.7282  3.5385
29824SOL    HW292428   5.863   6.213   3.544 -1.8155  1.0801 -0.1160
29825SOL     OW92429   2.099   6.570   1.734 -0.7595 -0.2373  0.1080
29825SOL    HW192430   2.183   6.544   1.771 -0.4562 -0.6136 -0.8208
29825SOL    HW292431   2.109   6.663   1.715 -0.9825  0.0078  1.1081
29826SOL     OW92432   4.144   8.826   1.509  0.6045  0.4768 -0.2564
29826SOL    HW192433   4.215   8.877   1.549  0.4620 -0.2337  0.9583
29826SOL    HW292434   4.116   8.878   1.434  0.7224  2.0040  0.7248
29827SOL     OW92435   7.658   2.543   4.206  0.4161  0.3328  0.4934
29827SOL    HW192436   7.633   2.612   4.144  2.1220 -0.2994 -0.9864
29827SOL    HW292437   7.713   2.588   4.270  1.0213  0.4795 -0.1179
29828SOL     OW92438   0.811   3.719   1.959 -0.8276  0.4885  0.0085
29828SOL    HW192439   0.888   3.770   1.933 -0.3971  0.5770  1.4176
29828SOL    HW292440   0.813   3.718   2.054 -1.5678 -1.0522  0.0440
29829SOL     OW92441   9.585   3.324   1.078 -0.1157  0.4731 -0.1265
29829SOL    HW192442   9.650   3.376   1.032  2.1694 -0.8664  1.3330
29829SOL    HW292443   9.551   3.382   1.146  0.8870  0.7154  0.1925
29830SOL     OW92444   3.287   5.487   2.669  0.1549 -0.0534  0.5840
29830SOL    HW192445   3.241   5.423   2.723  0.5257  0.6939  1.8053
29830SOL    HW292446   3.223   5.556   2.653  0.7130  0.8340  2.0197
29831SOL     OW92447   7.137   5.144   1.524 -0.3962  0.0510 -0.2082
29831SOL    HW192448   7.146   5.079   1.594 -1.9770 -0.4126 -0.3824
29831SOL    HW292449   7.169   5.099   1.446  2.1759  0.8605  0.3063
29832SOL     OW92450   0.641   6.976   3.618 -0.3018  0.0611 -0.0407
29832SOL    HW192451   0.602   6.944   3.699  0.2595  1.9984  1.0555
29832SOL    HW292452   0.712   6.915   3.598 -0.5994 -0.5595  0.8013
29833SOL     OW92453   4.246   9.824   9.153 -0.2021 -0.1122  0.9754
29833SOL    HW192454   4.248   9.908   9.198 -2.6671  1.1298 -1.0368
29833SOL    HW292455   4.153   9.802   9.145  0.3506 -3.1444  1.5448
29834SOL     OW92456   3.412   0.045   1.685 -0.0499 -0.2252  0.1249
29834SOL    HW192457   3.367  -0.012   1.623 -0.6248  0.2295  0.1096
29834SOL    HW292458   3.362   0.127   1.683 -0.0365 -0.1761  1.1232
29835SOL     OW92459   3.166   9.761   7.257  0.4132 -0.3658 -0.1757
29835SOL    HW192460   3.215   9.772   7.339  0.1788 -0.2398 -0.0505
29835SOL    HW292461   3.180   9.842   7.209 -0.4885  0.0833  0.3023
29836SOL     OW92462   8.031   7.571   5.838 -0.4349 -0.2036 -0.0693
29836SOL    HW192463   7.981   7.651   5.818  1.1204  0.6179 -0.8347
29836SOL    HW292464   8.073   7.591   5.922  0.3700 -0.0016 -0.5165
29837SOL     OW92465   3.255   3.277   9.437  0.1670  0.5666 -0.3646
29837SOL    HW192466   3.242   3.358   9.486  0.6221  0.3996  0.0406
29837SOL    HW292467   3.171   3.231   9.445  0.4671  0.2115  0.8912
29838SOL     OW92468   4.141   3.537   6.008  0.1236 -1.0790 -0.0511
29838SOL    HW192469   4.168   3.455   5.968  1.4534 -0.4726 -0.4355
29838SOL    HW292470   4.148   3.522   6.102 -0.0957 -1.5413 -0.1056
29839SOL     OW92471   9.342   6.416   0.906 -0.1974  0.0065 -0.1096
29839SOL    HW192472   9.396   6.337   0.913 -0.0054  0.0701 -0.7993
29839SOL    HW292473   9.359   6.463   0.987  0.7088 -0.0259 -0.2619
29840SOL     OW92474   2.332   5.518   6.219  0.1703  0.0355 -0.6871
29840SOL    HW192475   2.367   5.443   6.171  0.7909 -0.2603  0.1896
29840SOL    HW292476   2.354   5.594   6.164 -1.6526 -0.4796 -2.2519
29841SOL     OW92477   6.650   4.143   2.609 -0.2109 -0.2017  0.1996
29841SOL    HW192478   6.728   4.111   2.565  0.1054 -0.9295  1.2423
29841SOL    HW292479   6.589   4.070   2.606  0.7682 -1.3095  3.2245
29842SOL     OW92480   8.510   7.811   2.156 -0.0644 -0.6089 -0.1613
29842SOL    HW192481   8.585   7.804   2.096 -0.2741 -2.9451 -0.2379
29842SOL    HW292482   8.435   7.785   2.103 -0.9954  1.6068 -0.0529
29843SOL     OW92483   1.615   2.618   7.622  0.1772 -0.0529  0.5657
29843SOL    HW192484   1.525   2.633   7.651  0.7220  3.5914  0.8428
29843SOL    HW292485   1.606   2.598   7.529 -0.9449  0.5887  0.5041
29844SOL     OW92486   9.615   5.799   8.400  0.0140 -0.6284 -0.5576
29844SOL    HW192487   9.538   5.773   8.449 -0.7076 -0.1010 -1.3708
29844SOL    HW292488   9.669   5.848   8.462 -1.1155  0.4586 -0.4108
29845SOL     OW92489   4.033   7.702   4.809 -0.4700 -0.0188  0.3566
29845SOL    HW192490   4.022   7.667   4.721 -1.3925  1.0713  0.0083
29845SOL    HW292491   3.972   7.653   4.862  0.6732 -1.2480  0.5810
29846SOL     OW92492   8.636   7.832   1.884  0.4341 -0.1322 -0.1173
29846SOL    HW192493   8.644   7.925   1.905  0.6979 -0.0063 -0.7701
29846SOL    HW292494   8.567   7.829   1.818 -0.3906 -0.5270  0.7465
29847SOL     OW92495   0.081   8.118   7.282  0.7133 -0.4836  0.5342
29847SOL    HW192496   0.139   8.052   7.243 -1.2636 -0.7765 -2.2249
29847SOL    HW292497   0.131   8.199   7.278  1.8906 -1.1802  0.6879
29848SOL     OW92498  10.230  10.368   0.164  0.3511  0.0936 -0.2890
29848SOL    HW192499  10.305  10.346   0.109  0.6864  0.5308 -0.0142
29848SOL    HW292500  10.247  10.326   0.248 -0.9020 -1.8729 -0.9603
29849SOL     OW92501   3.552   9.413   1.987  0.3223 -0.3164  0.2253
29849SOL    HW192502   3.639   9.421   2.026  0.2536 -0.4256  0.4088
29849SOL    HW292503   3.567   9.408   1.893  0.3417  2.2726  0.0265
29850SOL     OW92504   7.031   5.109  10.251 -0.4081  0.0375 -0.1680
29850SOL    HW192505   7.066   5.107  10.340  0.7383 -1.1270 -0.6205
29850SOL    HW292506   6.946   5.066  10.258 -0.6528  0.6069  0.4860
29851SOL     OW92507   3.184   2.495   1.255  0.7010 -0.1099  0.2116
29851SOL    HW192508   3.115   2.504   1.190 -1.7708 -0.7498  2.5523
29851SOL    HW292509   3.219   2.406   1.241 -0.2225 -0.4661  0.1269
29852SOL     OW92510   3.956  10.142   6.887 -0.0687 -0.6964 -0.2966
29852SOL    HW192511   3.938  10.063   6.837  0.4570 -2.3962  2.0174
29852SOL    HW292512   3.995  10.111   6.969 -0.7350  1.8900  1.1419
29853SOL     OW92513   2.978   2.030   0.688  0.3703 -0.6783 -0.2513
29853SOL    HW192514   3.008   2.101   0.632 -1.2957  1.0955  0.9765
29853SOL    HW292515   2.898   2.063   0.729 -0.0643 -2.9846  0.9754
29854SOL     OW92516   0.820   1.624   8.275 -0.0746 -0.1080 -0.5401
29854SOL    HW192517   0.764   1.548   8.291 -0.5469  0.2488 -0.4495
29854SOL    HW292518   0.908   1.589   8.271 -0.0563 -0.4014  1.5589
29855SOL     OW92519   8.919   3.081   1.000 -0.5951  0.1105  0.4398
29855SOL    HW192520   8.933   3.174   0.980 -0.8333  0.6942  2.7391
29855SOL    HW292521   9.007   3.044   1.003 -0.5236  0.1036 -1.0278
29856SOL     OW92522   2.515   7.018   8.710  0.4151  0.0698 -0.0337
29856SOL    HW192523   2.547   7.015   8.620 -0.2434  3.7265 -0.5706
29856SOL    HW292524   2.426   6.982   8.705  1.0101 -1.3928 -0.4383
29857SOL     OW92525   3.069   4.067   9.917 -0.1899 -0.2692  0.4243
29857SOL    HW192526   3.071   4.053  10.011 -1.8670 -0.1282  0.5084
29857SOL    HW292527   3.047   3.982   9.880  0.8807 -0.4245  0.1104
29858SOL     OW92528   4.688   5.515  10.174  0.4611  0.1170  0.4972
29858SOL    HW192529   4.729   5.598  10.197  0.2316  0.8801 -1.6099
29858SOL    HW292530   4.720   5.496  10.086  1.1854 -2.5129  1.2371
29859SOL     OW92531   2.968   4.540   0.483 -0.1001 -0.5165 -0.4750
29859SOL    HW192532   3.007   4.612   0.433  0.3267  0.2694  0.9477
29859SOL    HW292533   2.903   4.502   0.424 -1.2812  1.8689 -0.7855
29860SOL     OW92534  10.654  10.146   0.399  0.4931 -0.0090 -0.4503
29860SOL    HW192535  10.578  10.119   0.346 -0.1303  0.9344 -0.0520
29860SOL    HW292536  10.719  10.077   0.383 -0.8926 -1.5238  0.2046
29861SOL     OW92537   7.108   2.674   0.333 -0.0740 -0.0147  0.4463
29861SOL    HW192538   7.030   2.713   0.374 -1.0665 -2.1497  0.7356
29861SOL    HW292539   7.084   2.665   0.241 -0.0414 -0.3637  0.4726
29862SOL     OW92540   9.582   4.097  10.361  0.3677  0.5867  0.4938
29862SOL    HW192541   9.635   4.175  10.376  1.6160  0.2000 -1.4765
29862SOL    HW292542   9.571   4.094  10.266 -1.3028 -0.5943  0.6947
29863SOL     OW92543   1.779   6.885   4.459 -0.6482  0.1155 -0.1564
29863SOL    HW192544   1.776   6.793   4.433  0.2829  0.2091 -0.6677
29863SOL    HW292545   1.733   6.931   4.389  0.7580  0.2363 -1.0502
29864SOL     OW92546  10.635   2.394   4.809  0.3415  0.0772  1.0622
29864SOL    HW192547  10.652   2.300   4.810  0.4974  0.0980  3.0449
29864SOL    HW292548  10.705   2.432   4.862 -0.1586  1.2373  0.9241
29865SOL     OW92549   4.317   8.140   8.836 -0.0322  0.6906  0.0375
29865SOL    HW192550   4.322   8.145   8.931 -1.9113  0.7663  0.1758
29865SOL    HW292551   4.250   8.073   8.819 -1.7897  2.6132 -1.1245
29866SOL     OW92552   7.963  10.662   9.854  0.2384 -0.1965  0.1805
29866SOL    HW192553   7.891  10.600   9.861  0.7758 -0.8425  0.0612
29866SOL    HW292554   8.030  10.616   9.804  1.1407  0.0231  1.1585
29867SOL     OW92555   4.808   1.637   9.288  0.9311 -0.0830  0.2601
29867SOL    HW192556   4.836   1.548   9.265 -0.1863  0.0781 -1.9158
29867SOL    HW292557   4.786   1.631   9.381  2.0484 -1.7646  0.4724
29868SOL     OW92558   0.635   8.387  10.367  0.0952  0.5933 -0.3265
29868SOL    HW192559   0.688   8.417  10.441 -1.1157  0.4566  0.6297
29868SOL    HW292560   0.601   8.468  10.328 -0.6879  0.5963  0.3576
29869SOL     OW92561   1.631   9.557   7.963  0.1432 -0.2813  0.2160
29869SOL    HW192562   1.613   9.568   8.057  2.3007  1.1057  0.5514
29869SOL    HW292563   1.547   9.530   7.925 -1.3996  1.4190  2.1794
29870SOL     OW92564   0.270   9.454   1.508 -0.4506 -0.7245 -0.0505
29870SOL    HW192565   0.333   9.498   1.565  1.3442 -2.0916 -0.8813
29870SOL    HW292566   0.185   9.470   1.549  0.2637  2.0978  0.5409
29871SOL     OW92567   6.262   2.057   7.840 -0.3001  0.1428  0.1208
29871SOL    HW192568   6.291   2.004   7.766  2.6562 -0.3806  1.5093
29871SOL    HW292569   6.251   1.994   7.912 -0.4135  0.9791  0.8510
29872SOL     OW92570   7.527   6.639   0.122  0.9703  0.1422 -0.0475
29872SOL    HW192571   7.519   6.544   0.118 -0.6320  0.2800 -0.5658
29872SOL    HW292572   7.608   6.659   0.074  0.4895 -0.8439 -1.3091
29873SOL     OW92573   2.945   3.246   2.093 -0.1805 -0.6562  0.1055
29873SOL    HW192574   3.011   3.298   2.139 -1.0188  0.0967  0.4717
29873SOL    HW292575   2.934   3.291   2.009 -0.5635 -0.5238  0.2286
29874SOL     OW92576   9.909   4.626   9.823  0.4542 -0.5533 -0.4563
29874SOL    HW192577   9.983   4.585   9.867  0.5397  0.3807  0.2964
29874SOL    HW292578   9.948   4.673   9.749  0.3794 -1.6185 -1.1960
29875SOL     OW92579   7.423  10.262   4.911 -0.2841  0.2058  0.0364
29875SOL    HW192580   7.431  10.314   4.990 -1.6714  0.0695  0.2795
29875SOL    HW292581   7.486  10.190   4.923 -1.5818 -0.6932  1.7291
29876SOL     OW92582   0.392   1.933   8.799  0.3663  0.2478  0.1979
29876SOL    HW192583   0.375   1.932   8.705 -2.7920 -0.1051  0.6602
29876SOL    HW292584   0.439   1.850   8.816 -0.5301 -0.5019 -0.8538
29877SOL     OW92585   5.769   6.729   1.817 -0.2032  0.2427 -0.0549
29877SOL    HW192586   5.803   6.802   1.765  1.4608 -0.3494  0.1485
29877SOL    HW292587   5.845   6.674   1.833 -1.5467 -1.9736 -0.8756
29878SOL     OW92588   8.022   6.302   6.446  0.1673 -0.3232  0.1118
29878SOL    HW192589   8.079   6.232   6.414  3.5071  1.9306  0.6249
29878SOL    HW292590   7.958   6.315   6.375  2.4056 -0.7653 -2.1170
29879SOL     OW92591   6.493   2.378   1.316 -0.3216 -0.3515  0.1378
29879SOL    HW192592   6.534   2.368   1.402 -2.5883 -0.1263  1.3247
29879SOL    HW292593   6.408   2.334   1.324 -0.4799 -0.5987 -2.1034
29880SOL     OW92594   1.705   5.967   0.331  0.5123  0.0748 -0.6114
29880SOL    HW192595   1.690   5.923   0.415 -0.9645  0.6429 -0.5458
29880SOL    HW292596   1.726   5.897   0.270  0.0297 -0.5208 -0.1059
29881SOL     OW92597   7.279   6.074   2.161 -0.5726  0.5225  0.3489
29881SOL    HW192598   7.346   6.142   2.164 -0.0422 -0.0269  1.2329
29881SOL    HW292599   7.226   6.089   2.239 -1.8491  1.2830 -0.6001
29882SOL     OW92600   7.018   0.456   7.470 -0.3383 -0.1008 -0.2250
29882SOL    HW192601   6.983   0.398   7.538  1.2780 -1.7424 -0.7034
29882SOL    HW292602   7.031   0.540   7.514 -0.6116 -0.7432  1.1336
29883SOL     OW92603   7.795   8.165   7.637  0.1261  0.3955  0.3961
29883SOL    HW192604   7.829   8.091   7.686 -0.5306 -0.0491  0.1883
29883SOL    HW292605   7.873   8.211   7.605  0.5331 -0.2510  0.4546
29884SOL     OW92606   0.944   2.594   4.969  0.4474  0.3727  0.5238
29884SOL    HW192607   0.991   2.603   4.887 -0.4902 -0.2957 -0.1078
29884SOL    HW292608   0.912   2.682   4.989  0.5070  0.4988  0.0638
29885SOL     OW92609   5.163   8.851   3.122 -0.1362  0.2711  0.1110
29885SOL    HW192610   5.091   8.896   3.077 -0.2122 -1.0413 -1.1627
29885SOL    HW292611   5.132   8.842   3.212 -0.4965  1.9157  0.1807
29886SOL     OW92612   1.575   2.716   9.147  0.7707  0.0352 -0.8087
29886SOL    HW192613   1.483   2.744   9.149  0.6953  0.0760 -3.0076
29886SOL    HW292614   1.571   2.621   9.152  0.7609  0.0848  1.0587
29887SOL     OW92615   5.579   5.495   2.515  0.0600 -0.3068 -0.2115
29887SOL    HW192616   5.596   5.505   2.422 -1.1014  2.4640 -0.1960
29887SOL    HW292617   5.630   5.564   2.557 -1.3974  0.1089  0.9567
29888SOL     OW92618   2.458   8.413   4.960  0.1357 -0.0591  0.7185
29888SOL    HW192619   2.374   8.383   4.925  0.1604  1.2491 -0.5874
29888SOL    HW292620   2.442   8.505   4.984  1.6186  0.7749 -1.2394
29889SOL     OW92621   5.761   2.510   6.350  0.5282  0.1230 -0.3899
29889SOL    HW192622   5.718   2.565   6.416  0.5122  1.0288 -1.1223
29889SOL    HW292623   5.721   2.538   6.267  2.6544  1.1799 -1.1489
29890SOL     OW92624   1.903   0.956   1.845 -0.1653  0.4385 -0.2334
29890SOL    HW192625   1.997   0.940   1.854 -0.2805  0.5255  1.2949
29890SOL    HW292626   1.868   0.950   1.934 -1.6416  0.2606 -0.7900
29891SOL     OW92627   9.498   0.446   3.094  0.1387  0.0814  0.2823
29891SOL    HW192628   9.528   0.534   3.070 -0.2285  0.1772  0.1730
29891SOL    HW292629   9.415   0.460   3.138  0.2193 -0.1912  0.5235
29892SOL     OW92630   5.945   7.300   1.458  0.8486 -0.5990 -0.1740
29892SOL    HW192631   5.991   7.225   1.494 -0.5478 -1.1766  0.5012
29892SOL    HW292632   6.000   7.375   1.479  0.5103 -1.0134  2.4705
29893SOL     OW92633   0.729   7.742   6.554 -0.0421  0.7443  0.1748
29893SOL    HW192634   0.818   7.767   6.527 -0.0326 -0.0859 -0.6103
29893SOL    HW292635   0.736   7.723   6.647  0.7060  0.2536  0.0253
29894SOL     OW92636   6.733  10.659   6.518  0.3030  0.6306  0.4117
29894SOL    HW192637   6.764  10.687   6.431  0.0881 -1.3199 -0.3294
29894SOL    HW292638   6.807  10.614   6.557 -0.6318 -1.6516 -0.2679
29895SOL     OW92639   3.973   7.016   3.307  0.3262  0.1778 -0.7428
29895SOL    HW192640   3.900   6.993   3.249 -0.6578 -0.2704  0.6235
29895SOL    HW292641   3.983   6.939   3.364  0.1294  1.2633  0.8090
29896SOL     OW92642   2.123   1.096   2.521 -0.0450 -0.2207 -0.3071
29896SOL    HW192643   2.128   1.133   2.432  1.1827 -1.7512 -0.9312
29896SOL    HW292644   2.195   1.139   2.568  0.5477 -0.8205 -0.6466
29897SOL     OW92645   4.624  10.638   3.625 -0.1516 -0.0712 -0.2762
29897SOL    HW192646   4.590  10.710   3.572  0.8082  0.3899 -0.2950
29897SOL    HW292647   4.718  10.657   3.634  0.2342 -1.5950 -0.7313
29898SOL     OW92648   9.502   7.322   1.360 -0.2915 -0.1807  0.1301
29898SOL    HW192649   9.495   7.252   1.295  3.2645 -2.8150  2.1942
29898SOL    HW292650   9.440   7.298   1.429 -1.3364  0.5430 -0.5215
29899SOL     OW92651   7.995   9.491   8.616 -0.5409 -0.1396  0.1928
29899SOL    HW192652   8.089   9.495   8.600 -0.7367 -0.8938 -1.3184
29899SOL    HW292653   7.987   9.457   8.704  0.6026 -1.0586 -0.0375
29900SOL     OW92654   6.384   3.916   5.549 -0.6440  0.1016  0.3591
29900SOL    HW192655   6.352   3.955   5.467 -1.5205  1.4530  1.2979
29900SOL    HW292656   6.468   3.959   5.564  0.5921 -1.7537 -0.9160
29901SOL     OW92657   2.014   6.896   2.003 -0.0899 -0.0112 -0.1320
29901SOL    HW192658   2.039   6.912   2.094 -1.0703  0.2003  0.1141
29901SOL    HW292659   2.052   6.810   1.983 -0.4150 -0.3689  0.6964
29902SOL     OW92660   3.672   8.153   3.811 -0.2793  0.5316 -0.4409
29902SOL    HW192661   3.761   8.119   3.797 -0.8628 -1.5373  0.4241
29902SOL    HW292662   3.621   8.075   3.833 -1.9585  1.9142  0.7636
29903SOL     OW92663   3.173   0.351   7.495  0.1213 -0.3892  0.2363
29903SOL    HW192664   3.194   0.415   7.563 -2.0035 -0.4104  0.9817
29903SOL    HW292665   3.164   0.268   7.541 -1.6754 -0.3461  0.0419
29904SOL     OW92666   1.598   1.870   4.951 -0.2800  0.1788  0.4700
29904SOL    HW192667   1.668   1.865   4.886 -1.6072 -0.5148 -0.9821
29904SOL    HW292668   1.552   1.951   4.930 -0.6596 -0.0003  0.6082
29905SOL     OW92669   5.707   3.243   7.058  0.5672 -0.1491  0.2975
29905SOL    HW192670   5.726   3.232   6.965  1.0848 -1.3927  0.5232
29905SOL    HW292671   5.785   3.210   7.103 -0.4040 -1.3450  1.1883
29906SOL     OW92672   3.630   2.261   4.286  0.1545 -0.2423  0.7626
29906SOL    HW192673   3.723   2.277   4.269 -0.2307  1.2809 -0.0679
29906SOL    HW292674   3.585   2.338   4.250 -1.5868 -1.6791 -0.2997
29907SOL     OW92675   2.632   0.810   6.110  0.5044 -0.4041 -0.0471
29907SOL    HW192676   2.564   0.848   6.053  0.6482 -0.0824 -0.0083
29907SOL    HW292677   2.697   0.880   6.119 -0.4637  0.3191  2.1203
29908SOL     OW92678   8.041   9.931   1.477 -0.0896 -0.8237 -0.2542
29908SOL    HW192679   8.081   9.871   1.415 -0.1218 -0.6603 -0.4318
29908SOL    HW292680   7.998   9.874   1.541 -0.4939 -0.9924 -0.6686
29909SOL     OW92681   8.427   0.068   6.781  0.3079 -0.2995  0.3456
29909SOL    HW192682   8.355   0.073   6.718  0.1145  0.8697  0.6249
29909SOL    HW292683   8.447   0.160   6.800 -0.2462 -0.6164  2.6715
29910SOL     OW92684   8.055   5.970   9.024 -0.0336  0.4238  0.2410
29910SOL    HW192685   8.061   5.876   9.039  2.4443  0.7938  2.3814
29910SOL    HW292686   8.057   5.980   8.929  0.1871 -1.6707 -0.0156
29911SOL     OW92687   3.226   3.273   1.932  0.6194  1.0866 -0.1441
29911SOL    HW192688   3.275   3.321   1.999  1.6821  0.8554 -0.7306
29911SOL    HW292689   3.250   3.181   1.945 -1.5048  0.6378  1.0587
29912SOL     OW92690   2.231   5.700   6.472 -0.2441 -0.1437  0.3235
29912SOL    HW192691   2.200   5.786   6.442 -1.7776 -1.2507 -1.5210
29912SOL    HW292692   2.296   5.674   6.406 -0.5435 -0.8198  0.2873
29913SOL     OW92693   2.934   5.548   6.413  0.0073  0.0032  0.3338
29913SOL    HW192694   2.919   5.459   6.443 -0.6455 -0.1688 -0.4732
29913SOL    HW292695   2.864   5.565   6.350 -0.0878  1.2061  0.7273
29914SOL     OW92696   7.542   0.717   8.931  0.1679  0.2955 -0.7619
29914SOL    HW192697   7.609   0.760   8.876  0.4195 -1.0476 -1.5418
29914SOL    HW292698   7.463   0.717   8.876  0.3433 -0.7979 -1.0309
29915SOL     OW92699   4.795   3.170   9.667 -0.4363 -0.1382  0.3694
29915SOL    HW192700   4.784   3.113   9.743 -0.2499 -1.0800 -0.2858
29915SOL    HW292701   4.810   3.110   9.594 -0.3252  0.7538 -0.3667
29916SOL     OW92702  10.465   9.850   8.265 -0.1736 -0.2315  0.1281
29916SOL    HW192703  10.541   9.811   8.310 -0.4909 -1.1990 -0.1588
29916SOL    HW292704  10.390   9.823   8.318 -0.3441  0.5381  0.2825
29917SOL     OW92705   8.448   9.408   8.796  0.0744 -0.0914  0.0140
29917SOL    HW192706   8.373   9.354   8.821  0.5741 -0.6636  0.3264
29917SOL    HW292707   8.425   9.444   8.711 -0.9193  0.4470  0.4947
29918SOL     OW92708   3.621   1.738   9.078 -0.6600 -0.2614  0.3426
29918SOL    HW192709   3.636   1.645   9.066  0.7826  0.2076 -2.6853
29918SOL    HW292710   3.701   1.771   9.117 -0.8291 -0.1740  0.6184
29919SOL     OW92711   6.989   7.293   1.248 -0.5976 -0.3393  0.3237
29919SOL    HW192712   6.973   7.203   1.276 -1.4738  0.1923  1.6563
29919SOL    HW292713   7.077   7.313   1.280 -1.7031  0.3663  3.2083
29920SOL     OW92714   0.456   7.225   2.906 -0.3455  0.3769  0.5200
29920SOL    HW192715   0.531   7.173   2.934  0.6192  1.3107 -0.2194
29920SOL    HW292716   0.411   7.249   2.987  1.2802  1.4274  1.1725
29921SOL     OW92717  10.046   4.838   6.042 -0.2686 -0.2672  0.0095
29921SOL    HW192718   9.991   4.773   6.000 -0.4136  0.5822 -1.1544
29921SOL    HW292719  10.108   4.866   5.975 -1.3713  2.0921 -0.1309
29922SOL     OW92720   3.467   6.494   6.676  0.2632 -0.1329  0.1739
29922SOL    HW192721   3.555   6.533   6.670  0.2103 -0.1208 -0.5613
29922SOL    HW292722   3.409   6.563   6.645  0.1333 -0.6612 -0.7848
29923SOL     OW92723   0.959   5.671   3.904 -0.4835  0.1847 -0.2238
29923SOL    HW192724   0.936   5.578   3.909 -0.6830  0.3231  2.2088
29923SOL    HW292725   1.052   5.674   3.928 -0.1621  0.5334 -1.4339
29924SOL     OW92726   3.300   9.928   5.727  0.3543  0.0414 -0.2291
29924SOL    HW192727   3.371   9.884   5.680 -0.3887  0.1448 -1.4933
29924SOL    HW292728   3.225   9.922   5.669 -0.8933 -0.6738  1.3695
29925SOL     OW92729   1.733   0.176   8.090 -0.6196  0.7824  0.3056
29925SOL    HW192730   1.766   0.239   8.154  0.0796  0.0720  0.6709
29925SOL    HW292731   1.810   0.125   8.065 -0.9763  0.7625 -0.7788
29926SOL     OW92732   9.589  10.480   2.294  0.2143 -0.5784  0.1207
29926SOL    HW192733   9.636  10.516   2.218  0.7665 -0.7287  0.3815
29926SOL    HW292734   9.606  10.385   2.289  1.4148 -0.4371  1.1994
29927SOL     OW92735  10.396   8.642   0.732  0.3418 -0.0457  0.2794
29927SOL    HW192736  10.393   8.687   0.648  2.6409 -3.2607 -1.7296
29927SOL    HW292737  10.319   8.586   0.732  1.2953 -1.4106 -0.6209
29928SOL     OW92738   7.483   8.171   3.784  0.2740 -0.4214 -0.2461
29928SOL    HW192739   7.566   8.183   3.739  0.0145 -1.0814 -0.9285
29928SOL    HW292740   7.418   8.164   3.713 -0.5701  1.4489  0.2873
29929SOL     OW92741   3.570   7.539   0.033  0.3316  0.3615 -0.3767
29929SOL    HW192742   3.597   7.618   0.079  1.7843  0.1563 -0.8286
29929SOL    HW292743   3.543   7.569  -0.054  0.9359  0.3686 -0.5671
29930SOL     OW92744   6.807   3.705   0.397  0.0763  0.1484 -0.6022
29930SOL    HW192745   6.788   3.611   0.405 -0.4916  0.2327 -0.8531
29930SOL    HW292746   6.835   3.716   0.306 -0.9144  0.3810 -0.8988
29931SOL     OW92747   7.281   2.907   5.747  0.1173  0.0282  0.0783
29931SOL    HW192748   7.311   2.944   5.664  1.3006  0.2624  0.5911
29931SOL    HW292749   7.222   2.974   5.782  0.6204  0.5065  0.0253
29932SOL     OW92750   2.374  10.451  10.688 -0.4260 -0.0816  0.4843
29932SOL    HW192751   2.381  10.545  10.674 -0.5961  0.0438  1.2260
29932SOL    HW292752   2.403  10.437  10.778  0.9470 -0.9187 -0.0583
29933SOL     OW92753   1.580   4.655   6.313  0.0829 -0.1804  0.8100
29933SOL    HW192754   1.543   4.638   6.227 -1.8758  0.8187  1.3970
29933SOL    HW292755   1.608   4.746   6.310 -1.2633  0.2851  1.6247
29934SOL     OW92756   7.606   5.376   5.843  0.2657 -0.5070 -0.3030
29934SOL    HW192757   7.618   5.321   5.920 -0.0248 -0.6692 -0.3702
29934SOL    HW292758   7.512   5.368   5.822 -0.1618  1.3624  0.6998
29935SOL     OW92759   1.510   4.322   9.044 -0.1239  0.5805 -0.4832
29935SOL    HW192760   1.568   4.255   9.080 -0.8156 -0.4597 -1.2457
29935SOL    HW292761   1.543   4.404   9.080 -0.3748 -0.3115  1.9864
29936SOL     OW92762   0.407   7.607   0.428 -0.2298  0.1316  0.0261
29936SOL    HW192763   0.312   7.594   0.425 -0.5488  1.8010  1.0873
29936SOL    HW292764   0.417   7.702   0.440  1.5324 -0.1465  1.0371
29937SOL     OW92765   5.368   1.933   1.278 -0.6917  0.1929 -0.2228
29937SOL    HW192766   5.327   1.887   1.205 -0.4052 -0.4802  0.0287
29937SOL    HW292767   5.356   2.026   1.258 -1.3678  0.0099 -0.6927
29938SOL     OW92768   2.828   3.786   9.158  0.2786  0.5718  0.1859
29938SOL    HW192769   2.878   3.745   9.088  2.0826  0.5165  1.4329
29938SOL    HW292770   2.760   3.723   9.179 -0.8843  0.9763 -2.0707
29939SOL     OW92771   6.435   2.440   8.928  0.4775  0.1182 -0.8185
29939SOL    HW192772   6.421   2.424   8.834  1.1860  0.1383 -0.9311
29939SOL    HW292773   6.528   2.423   8.942  0.0894 -1.4907  0.2107
29940SOL     OW92774   7.104  10.192   1.240  0.0380  0.4118  0.5988
29940SOL    HW192775   7.199  10.184   1.250 -0.1342 -0.1050  2.0873
29940SOL    HW292776   7.070  10.109   1.271 -0.8346 -0.1645 -1.7591
29941SOL     OW92777   3.494   9.783   4.849  0.1531  0.2721 -0.0275
29941SOL    HW192778   3.549   9.722   4.899  0.2852  0.1431 -0.3273
29941SOL    HW292779   3.549   9.861   4.839 -0.2606  0.6910  0.9211
29942SOL     OW92780   6.318   2.421   3.261  0.6139 -0.0946  0.0096
29942SOL    HW192781   6.347   2.491   3.319 -0.6252 -0.3800  1.0172
29942SOL    HW292782   6.223   2.424   3.266  0.5330 -1.5423 -0.3079
29943SOL     OW92783  10.095   7.433   1.384  0.4718  0.4889 -0.0847
29943SOL    HW192784  10.049   7.394   1.310 -0.4385  0.2275  0.6005
29943SOL    HW292785  10.070   7.379   1.459  2.3328 -0.0002  0.2370
29944SOL     OW92786   5.867   9.433  10.063  0.1257 -0.7028  0.3356
29944SOL    HW192787   5.961   9.419  10.067  0.3671  0.5709 -0.3040
29944SOL    HW292788   5.843   9.407   9.974  0.2344  0.7709 -0.1641
29945SOL     OW92789   4.929   0.129   6.709  0.6511  0.5304  0.4960
29945SOL    HW192790   4.921   0.034   6.703  0.6128  0.5592  0.0539
29945SOL    HW292791   4.840   0.160   6.723  0.3400  0.6374 -1.4169
29946SOL     OW92792   8.711   4.120   0.230  0.3371 -0.0668 -0.0230
29946SOL    HW192793   8.742   4.058   0.165 -0.3379  0.6326 -1.0401
29946SOL    HW292794   8.751   4.203   0.206 -0.5655  0.3742 -0.0554
29947SOL     OW92795   3.735   9.073   4.836 -0.6925  0.0890  0.1717
29947SOL    HW192796   3.685   9.021   4.899 -0.9673  0.0270 -0.0948
29947SOL    HW292797   3.815   9.096   4.883 -1.9068  2.0943  1.4165
29948SOL     OW92798   9.537   8.697   3.718 -0.0050 -0.3586  0.0667
29948SOL    HW192799   9.471   8.666   3.656  1.1955 -1.3230 -0.7620
29948SOL    HW292800   9.620   8.671   3.680  0.8786  0.8154  1.1038
29949SOL     OW92801   2.026   9.742   0.517  0.6789 -0.4654 -0.3673
29949SOL    HW192802   1.964   9.783   0.577 -0.5056 -1.9053 -0.5561
29949SOL    HW292803   2.112   9.758   0.556  0.2362  1.5686 -0.1023
29950SOL     OW92804   8.380   6.438   5.086  0.1918 -0.4108 -0.5298
29950SOL    HW192805   8.470   6.466   5.070 -0.1640  3.5223  2.7398
29950SOL    HW292806   8.336   6.448   5.002  2.0338  1.1815 -1.3690
29951SOL     OW92807   9.795   9.543   9.849  0.7280 -0.4320  1.1042
29951SOL    HW192808   9.783   9.505   9.762  0.3451  0.7241  0.6311
29951SOL    HW292809   9.728   9.501   9.903 -1.5866  1.4751 -0.0663
29952SOL     OW92810   9.968   0.707  10.024  0.4540 -0.5511  0.3417
29952SOL    HW192811   9.966   0.646   9.951  1.9981  0.2196 -0.3883
29952SOL    HW292812   9.948   0.792   9.986 -0.7564 -0.4298  1.1889
29953SOL     OW92813  10.601   3.856   6.459 -0.5020  0.0412 -0.4471
29953SOL    HW192814  10.509   3.878   6.473 -0.5161 -0.3764  0.1630
29953SOL    HW292815  10.610   3.849   6.364 -1.2014 -0.3120 -0.4935
29954SOL     OW92816   9.652   5.156   2.729  0.6273  0.0335  0.0205
29954SOL    HW192817   9.588   5.145   2.799 -0.7521 -1.8805 -1.4286
29954SOL    HW292818   9.718   5.215   2.766  0.1762 -1.1542  3.0421
29955SOL     OW92819   4.789   5.909   7.246 -0.2262 -0.1624 -0.0752
29955SOL    HW192820   4.752   5.843   7.188 -0.0194  0.7573 -1.2910
29955SOL    HW292821   4.875   5.874   7.270 -0.2000 -0.4244 -0.5393
29956SOL     OW92822   6.558   1.410   7.995  0.1399 -0.2694  0.7211
29956SOL    HW192823   6.537   1.327   7.953 -0.1928 -0.7114  1.7334
29956SOL    HW292824   6.642   1.436   7.957  0.5579 -1.3908  0.8686
29957SOL     OW92825   5.058   8.388   9.872 -0.1056 -0.0911 -0.1942
29957SOL    HW192826   4.975   8.362   9.832  0.2160 -2.6073  0.5764
29957SOL    HW292827   5.116   8.406   9.798 -0.6315 -0.8326 -0.8073
29958SOL     OW92828   3.884   1.838   8.583 -0.6008 -0.1876 -0.1405
29958SOL    HW192829   3.813   1.774   8.574 -0.2665 -0.5577 -0.1311
29958SOL    HW292830   3.839   1.920   8.606 -0.9580 -0.6424  0.8410
29959SOL     OW92831   6.756   8.315   9.529 -0.0122  0.0108  0.3300
29959SOL    HW192832   6.672   8.348   9.498  0.0121 -0.3430 -0.1300
29959SOL    HW292833   6.783   8.253   9.462 -0.4497 -1.5713  1.5473
29960SOL     OW92834   2.378   4.827   1.060  0.3548  0.7851  0.0408
29960SOL    HW192835   2.338   4.837   0.973  1.2311  0.4796 -0.4132
29960SOL    HW292836   2.335   4.750   1.097  0.7165  0.2788 -0.5625
29961SOL     OW92837   4.633   8.801   9.580 -0.0120 -0.2564 -0.6354
29961SOL    HW192838   4.651   8.793   9.486 -2.6729 -1.6391 -1.1358
29961SOL    HW292839   4.594   8.717   9.603 -0.0602  0.3279  1.5675
29962SOL     OW92840   8.388   7.684   1.543  0.5793 -0.0630  0.2917
29962SOL    HW192841   8.452   7.697   1.472  0.8337  0.5069  0.6219
29962SOL    HW292842   8.389   7.766   1.592 -0.6760  0.0903  0.0948
29963SOL     OW92843   3.166   2.078   4.595  0.3283  0.5265  0.1783
29963SOL    HW192844   3.123   2.163   4.610  1.8467  1.0100  2.2061
29963SOL    HW292845   3.260   2.098   4.595  0.8780 -1.3941  3.1932
29964SOL     OW92846   2.396   7.513   7.206  0.0384  0.3499  0.5887
29964SOL    HW192847   2.381   7.557   7.122 -1.3063  0.7256  1.0163
29964SOL    HW292848   2.320   7.535   7.259  1.5348  1.3046  2.4478
29965SOL     OW92849  10.329   6.753   5.706  0.0599 -0.3277  0.7619
29965SOL    HW192850  10.421   6.776   5.717 -0.4138  2.1489  0.1779
29965SOL    HW292851  10.291   6.759   5.793 -0.2282  2.2767  0.5221
29966SOL     OW92852   8.257   3.704   5.798  0.1203 -0.1867  0.1071
29966SOL    HW192853   8.232   3.797   5.802 -0.0863 -0.2114 -0.4594
29966SOL    HW292854   8.189   3.664   5.743  0.9888 -0.4034 -0.8192
29967SOL     OW92855   2.067   9.521   1.600  0.2349 -0.3598 -0.2913
29967SOL    HW192856   2.058   9.603   1.648  0.4383  0.0544 -0.9480
29967SOL    HW292857   2.097   9.547   1.513  2.2162 -1.2562  0.0669
29968SOL     OW92858   8.293   5.949   9.375  0.0509 -0.4274 -0.7312
29968SOL    HW192859   8.307   6.043   9.375  0.6776 -0.5167  0.0875
29968SOL    HW292860   8.330   5.919   9.292  3.6939 -0.4873  0.7467
29969SOL     OW92861   7.096   0.370   4.582  0.3844  0.1761 -0.0633
29969SOL    HW192862   7.132   0.285   4.557  1.3739  0.4694  0.3069
29969SOL    HW292863   7.016   0.349   4.630  0.3753 -0.5210 -0.3726
29970SOL     OW92864   5.185   8.285   0.095 -0.5930  0.1600 -0.5228
29970SOL    HW192865   5.129   8.355   0.131 -1.1819 -0.1801 -0.7583
29970SOL    HW292866   5.168   8.210   0.152 -0.3374  0.0669 -0.5710
29971SOL     OW92867   7.598   7.148   9.214 -0.4064  0.1681 -0.1133
29971SOL    HW192868   7.522   7.159   9.271  0.4111 -1.8798  1.5409
29971SOL    HW292869   7.571   7.081   9.151 -0.9717  1.7131 -1.5798
29972SOL     OW92870   3.887   9.416   9.754  0.0046  0.1264 -0.3314
29972SOL    HW192871   3.854   9.409   9.665 -1.2397  1.4425 -0.0054
29972SOL    HW292872   3.830   9.480   9.796  1.4356  0.5789  1.0134
29973SOL     OW92873   6.974   3.072   1.987  0.2371  0.1306 -0.0288
29973SOL    HW192874   7.019   3.134   1.930 -0.7218  0.8610 -0.0227
29973SOL    HW292875   6.888   3.112   2.002  0.0077 -0.6699  0.8806
29974SOL     OW92876   7.633   1.319   9.221 -0.0804  0.3559 -0.0812
29974SOL    HW192877   7.642   1.230   9.255  0.0744  0.3608 -0.1099
29974SOL    HW292878   7.555   1.316   9.166  1.5220 -0.5016 -2.4583
29975SOL     OW92879   2.513   4.437   0.684 -0.2262 -0.5904 -0.7787
29975SOL    HW192880   2.472   4.400   0.762  1.9836  0.7925  1.1927
29975SOL    HW292881   2.568   4.367   0.650 -0.4577 -0.9013 -0.5147
29976SOL     OW92882   4.931   7.212   7.024 -0.0746  0.3922 -0.6435
29976SOL    HW192883   4.892   7.262   7.095  0.1835 -0.1997 -0.0775
29976SOL    HW292884   5.008   7.171   7.062 -0.9769 -1.4874 -0.7169
29977SOL     OW92885   8.073   8.251   0.256 -0.1185 -0.2642 -0.3731
29977SOL    HW192886   8.162   8.258   0.222 -0.5092  0.6095 -1.2630
29977SOL    HW292887   8.084   8.241   0.350  0.9210  0.3181 -0.4161
29978SOL     OW92888  10.460   6.982   6.350 -0.1569  0.2981 -0.1216
29978SOL    HW192889  10.413   7.000   6.269  0.1267  3.8638  0.3411
29978SOL    HW292890  10.551   7.003   6.330 -0.2984  2.7142  1.4011
29979SOL     OW92891   2.428   9.469   1.127 -0.3636 -0.0119 -0.4604
29979SOL    HW192892   2.456   9.495   1.214 -0.7480 -0.1529 -0.2936
29979SOL    HW292893   2.368   9.395   1.142  0.4172 -0.7555 -0.8972
29980SOL     OW92894   7.466   1.009   5.039 -0.4132  0.2452 -0.0102
29980SOL    HW192895   7.417   1.089   5.056 -0.1070  0.4235  0.0466
29980SOL    HW292896   7.404   0.951   4.993  0.0092  1.3425 -2.0795
29981SOL     OW92897   8.472   8.113   3.291  0.4952  0.0608  0.2176
29981SOL    HW192898   8.532   8.096   3.364 -0.0699  0.9304  0.8926
29981SOL    HW292899   8.485   8.205   3.269  0.1296 -0.0059 -0.3087
29982SOL     OW92900   6.192   5.185   1.314  0.1235 -0.6008  0.0307
29982SOL    HW192901   6.124   5.178   1.381  1.7904 -0.3138  1.8363
29982SOL    HW292902   6.250   5.111   1.330  2.7771  1.6203  1.6438
29983SOL     OW92903   9.027   6.644   7.199 -0.5581  0.2359  0.6156
29983SOL    HW192904   8.967   6.681   7.263 -0.9951  0.3869  0.1237
29983SOL    HW292905   9.019   6.549   7.209 -2.0654  0.2178 -0.5206
29984SOL     OW92906   2.812   2.009   7.604  0.2390 -0.0595 -0.3955
29984SOL    HW192907   2.865   1.934   7.578  0.1501  0.2362 -1.4765
29984SOL    HW292908   2.825   2.073   7.534 -1.0726  0.2442 -0.3945
29985SOL     OW92909   7.425   1.024   4.604 -0.1193  0.0998 -0.4086
29985SOL    HW192910   7.355   0.962   4.623  0.1698  0.0544  0.6023
29985SOL    HW292911   7.383   1.110   4.610 -0.3945  0.0369 -1.2532
29986SOL     OW92912   2.325   5.882   4.452  0.0248 -0.3758  0.0515
29986SOL    HW192913   2.306   5.805   4.506  0.0883  0.4702  1.3318
29986SOL    HW292914   2.380   5.937   4.508  1.2362 -0.0587 -1.3835
29987SOL     OW92915   4.502   0.347  10.593 -0.0542  0.1187  0.2801
29987SOL    HW192916   4.479   0.435  10.561 -0.4802 -0.1340 -0.1139
29987SOL    HW292917   4.430   0.291  10.564  1.0596 -0.7027 -0.9803
29988SOL     OW92918   0.035   8.563   6.430 -0.3081  0.2154 -0.0858
29988SOL    HW192919   0.087   8.605   6.361 -0.6831  0.4188 -0.2518
29988SOL    HW292920  -0.024   8.632   6.459  1.0116  0.6687  1.6643
29989SOL     OW92921   6.373   2.620   4.739 -0.5225 -0.0068  0.6332
29989SOL    HW192922   6.279   2.638   4.741 -0.6136 -0.2369 -0.6559
29989SOL    HW292923   6.413   2.703   4.714 -0.5441 -0.3346 -0.5451
29990SOL     OW92924   2.094   3.796   2.120  0.0721  0.3512  0.0579
29990SOL    HW192925   2.112   3.721   2.177  1.4783  0.5614 -0.0598
29990SOL    HW292926   2.031   3.763   2.057  0.7873 -0.8036 -0.0945
29991SOL     OW92927   5.465   1.033   9.057  0.1301 -0.2101 -0.6487
29991SOL    HW192928   5.424   0.961   9.105  0.3835 -1.1070 -1.7203
29991SOL    HW292929   5.392   1.087   9.028 -0.0934 -0.2539 -0.1774
29992SOL     OW92930   1.682   0.008   2.011 -0.1476  0.0302  0.0428
29992SOL    HW192931   1.663   0.019   1.917 -0.9880  1.3679  0.3389
29992SOL    HW292932   1.683  -0.086   2.024 -0.1606 -0.1761 -1.2941
29993SOL     OW92933   5.804   9.631   0.647  0.1405  0.4502  0.3008
29993SOL    HW192934   5.899   9.627   0.655  0.1273  2.7621  3.2567
29993SOL    HW292935   5.788   9.679   0.566  1.4971  0.4912  0.0344
29994SOL     OW92936   8.528   5.784   0.564  0.2198  0.0501  0.4048
29994SOL    HW192937   8.544   5.875   0.539  1.2723  0.7580  3.2565
29994SOL    HW292938   8.584   5.733   0.507 -0.6346  1.1082 -1.4812
29995SOL     OW92939   4.149   5.034   9.729  0.4630  0.5870 -0.2705
29995SOL    HW192940   4.156   4.977   9.805 -0.0860  2.5313  1.3233
29995SOL    HW292941   4.237   5.034   9.691  1.2688  1.0250  1.5033
29996SOL     OW92942   4.700   5.562   2.322  0.6708  0.5760  0.6712
29996SOL    HW192943   4.615   5.555   2.278  0.4636  1.1491  0.9688
29996SOL    HW292944   4.746   5.631   2.274  0.6154  0.8960  1.0802
29997SOL     OW92945   9.227   5.979   9.518  0.3066  0.2345  0.0917
29997SOL    HW192946   9.258   6.050   9.575  1.5859 -0.1250 -0.1083
29997SOL    HW292947   9.147   6.012   9.479  0.1413  1.0272  1.0566
29998SOL     OW92948   8.998   0.234   4.480  0.0204  0.1600 -0.7369
29998SOL    HW192949   9.081   0.235   4.431  1.9233  0.3232  2.2417
29998SOL    HW292950   9.016   0.179   4.556 -2.0232  1.6444  0.9419
29999SOL     OW92951   9.786   9.321   5.655  0.6314 -0.0620 -0.3270
29999SOL    HW192952   9.691   9.328   5.667  0.8216 -0.3028  1.6546
29999SOL    HW292953   9.813   9.253   5.716  2.4219  1.9539  1.3019
30000SOL     OW92954   0.028   7.404   1.216  0.2719  0.0369 -1.3664
30000SOL    HW192955   0.074   7.341   1.161 -0.4243 -0.1780 -1.7221
30000SOL    HW292956   0.081   7.484   1.212  1.0616 -0.4653 -1.0615
30001SOL     OW92957   4.597  10.066   5.773  0.5389  0.9104 -0.1016
30001SOL    HW192958   4.660  10.137   5.772  0.1532  1.3196  1.3648
30001SOL    HW292959   4.650   9.986   5.778  0.9577  1.2259  0.6086
30002SOL     OW92960   9.545   7.748   2.603  0.2160 -0.5424 -0.0928
30002SOL    HW192961   9.590   7.669   2.630 -0.2805 -1.3286 -1.4366
30002SOL    HW292962   9.465   7.717   2.561 -0.5755  0.7284  0.4089
30003SOL     OW92963   2.613   6.649   3.850 -0.0752 -0.1684 -0.0166
30003SOL    HW192964   2.630   6.656   3.944  2.5324  0.5656 -0.4801
30003SOL    HW292965   2.517   6.653   3.843 -0.4279 -1.4467  2.6627
30004SOL     OW92966   1.122   6.833   4.507 -0.7205 -0.3529  0.0832
30004SOL    HW192967   1.158   6.902   4.452 -2.1212  0.1573 -0.2444
30004SOL    HW292968   1.088   6.879   4.584 -1.7500 -0.6299 -0.1777
30005SOL     OW92969   8.926  10.108   0.031  0.2500 -0.4356  0.2187
30005SOL    HW192970   8.847  10.082   0.078 -0.5081  0.3743 -0.5787
30005SOL    HW292971   8.953  10.190   0.074 -1.0289  0.8647 -1.3613
30006SOL     OW92972   1.202   2.108   7.826 -0.2378  0.1050 -0.2461
30006SOL    HW192973   1.259   2.044   7.867 -1.5148 -0.0873  1.3839
30006SOL    HW292974   1.198   2.083   7.734  0.0802 -1.5491  0.1608
30007SOL     OW92975   2.918   5.623   9.925  0.1271  0.8682  0.0315
30007SOL    HW192976   3.005   5.586   9.914 -1.0192 -1.5173 -2.2100
30007SOL    HW292977   2.904   5.624  10.020  1.3495 -2.0932  0.3689
30008SOL     OW92978   2.436   9.571   2.473 -0.0367 -0.6801 -0.0173
30008SOL    HW192979   2.469   9.514   2.404 -0.3143  1.2250 -1.8294
30008SOL    HW292980   2.514   9.607   2.516  0.2127  0.0097 -1.0129
30009SOL     OW92981   4.076   4.041  10.339 -0.0761  0.0893 -0.3056
30009SOL    HW192982   4.014   3.986  10.291 -0.1244 -1.3726  1.3741
30009SOL    HW292983   4.140   4.067  10.273  0.1322 -2.2564 -1.1315
30010SOL     OW92984   4.849   1.076   9.985  0.0463 -0.0240 -0.0182
30010SOL    HW192985   4.838   1.022   9.907  0.9433  2.0215 -1.6396
30010SOL    HW292986   4.831   1.165   9.956  1.2395  0.9264  1.9050
30011SOL     OW92987   4.730   7.028   1.765 -0.1570  0.6179 -1.0653
30011SOL    HW192988   4.692   6.940   1.758  1.1668 -0.0210 -0.5981
30011SOL    HW292989   4.658   7.083   1.794 -0.4997 -0.7479  0.8800
30012SOL     OW92990   5.321   3.872  10.089 -0.0710 -0.4846 -0.6336
30012SOL    HW192991   5.415   3.876  10.109 -0.8014  1.0525  3.3642
30012SOL    HW292992   5.306   3.949  10.033  0.9654 -0.4655 -0.9201
30013SOL     OW92993   2.203   4.609   7.288 -0.0168 -0.3885  0.1322
30013SOL    HW192994   2.205   4.683   7.227 -1.2910 -1.7629 -1.6848
30013SOL    HW292995   2.137   4.634   7.353  1.9009  1.4282  1.5098
30014SOL     OW92996   8.332   8.836   5.897 -0.1604  0.8866  0.1314
30014SOL    HW192997   8.413   8.887   5.896 -0.7379  1.8235 -0.8617
30014SOL    HW292998   8.303   8.835   5.806 -0.7672 -0.2715  0.3201
30015SOL     OW92999   0.094   4.948   1.454  0.3904  0.1188 -0.4210
30015SOL    HW193000   0.163   4.886   1.432 -0.1810 -1.4953  1.9504
30015SOL    HW293001   0.138   5.033   1.457  2.4367 -0.9066  1.4673
30016SOL     OW93002   7.448   1.431   8.823  0.0595  0.1915 -0.0488
30016SOL    HW193003   7.390   1.442   8.747  0.7654 -1.0575 -0.8028
30016SOL    HW293004   7.455   1.519   8.861  1.7151  1.4343 -2.9092
30017SOL     OW93005   6.580  10.539   5.706  0.3270  0.1137 -0.2058
30017SOL    HW193006   6.631  10.485   5.645 -0.7757 -0.6896 -0.4453
30017SOL    HW293007   6.582  10.491   5.788 -1.0017 -0.5331 -0.5280
30018SOL     OW93008   8.211   5.642   1.335 -0.5577  0.1478 -0.1131
30018SOL    HW193009   8.160   5.720   1.317  1.8142  2.1149  1.0549
30018SOL    HW293010   8.240   5.611   1.249 -1.3943  0.6151 -0.5769
30019SOL     OW93011   8.536   2.400   8.819  0.2467  0.3509 -0.1260
30019SOL    HW193012   8.547   2.494   8.835  0.0572  0.3354  0.1007
30019SOL    HW293013   8.535   2.361   8.906  0.8837  0.0714 -0.2388
30020SOL     OW93014   3.334   5.158   8.649  0.3341  0.4337  0.4775
30020SOL    HW193015   3.306   5.247   8.668 -0.0719 -0.1007  2.5578
30020SOL    HW293016   3.253   5.106   8.650  0.3169  0.2113 -2.3510
30021SOL     OW93017   5.131  10.195   8.102 -0.3232  0.3849  0.0745
30021SOL    HW193018   5.144  10.284   8.069 -0.6867  0.8311  1.1058
30021SOL    HW293019   5.042  10.172   8.075 -0.9320  1.0713  1.4270
30022SOL     OW93020   2.782   4.926   5.025 -0.4178 -0.2419  0.4222
30022SOL    HW193021   2.843   4.980   4.975 -1.1475 -0.9244 -1.2866
30022SOL    HW293022   2.750   4.984   5.094  2.1075  0.1417  1.3712
30023SOL     OW93023   4.385   3.549   1.085 -0.5435 -0.2828 -0.2410
30023SOL    HW193024   4.477   3.548   1.113 -0.5402 -0.8672 -0.2636
30023SOL    HW293025   4.345   3.620   1.135 -0.4351 -1.0064  0.9107
30024SOL     OW93026   2.220   2.624   9.713  0.1298  0.3077 -0.0474
30024SOL    HW193027   2.155   2.614   9.783 -1.8728 -2.8125 -2.0954
30024SOL    HW293028   2.274   2.546   9.720  0.5860  0.4965 -1.2900
30025SOL     OW93029  10.464  10.521   7.447  0.1687  0.0603 -0.1952
30025SOL    HW193030  10.467  10.492   7.356  2.1053  0.7531 -0.3857
30025SOL    HW293031  10.470  10.441   7.498  0.5058 -0.2342 -0.6923
30026SOL     OW93032   4.134   8.200   4.674  0.6970 -0.4375 -0.0953
30026SOL    HW193033   4.186   8.277   4.697  0.3525  1.1248 -3.8090
30026SOL    HW293034   4.049   8.216   4.714  0.8725  0.7224 -0.1569
30027SOL     OW93035   2.216   2.750   0.215  0.0155 -0.5864 -0.0699
30027SOL    HW193036   2.126   2.781   0.199  0.3083 -0.2390 -1.1372
30027SOL    HW293037   2.249   2.728   0.128  1.3502  0.3914  0.1590
30028SOL     OW93038   4.677   9.887   7.020 -0.3642  0.4640 -0.6723
30028SOL    HW193039   4.646   9.970   6.985 -1.2828  0.9293  1.1410
30028SOL    HW293040   4.619   9.869   7.094  1.2842 -0.6239  0.4095
30029SOL     OW93041   9.175   5.267   9.492  0.1424 -0.1326  0.1439
30029SOL    HW193042   9.100   5.297   9.441 -0.7766 -1.3190  0.7644
30029SOL    HW293043   9.236   5.233   9.426 -1.8169 -3.4224 -0.2130
30030SOL     OW93044   7.929  10.172   3.007  0.0876  0.1442 -0.2896
30030SOL    HW193045   7.990  10.101   3.026  0.4094  0.7788  1.1936
30030SOL    HW293046   7.926  10.223   3.087 -1.5102  0.8011 -0.7266
30031SOL     OW93047   1.696   7.851   8.701  0.2493  0.0372 -0.1006
30031SOL    HW193048   1.706   7.756   8.710 -0.8975 -0.1219 -0.3126
30031SOL    HW293049   1.718   7.886   8.787  0.0179 -0.4839  0.1717
30032SOL     OW93050   6.466   2.344   5.272 -0.2219  0.2724 -0.5122
30032SOL    HW193051   6.387   2.396   5.256 -1.6234 -1.2389  1.0470
30032SOL    HW293052   6.460   2.273   5.207 -1.6442 -1.3161  1.2068
30033SOL     OW93053   8.631   8.088   0.838  0.4711  0.1037  0.3667
30033SOL    HW193054   8.703   8.071   0.778 -0.3153 -0.8971 -0.3384
30033SOL    HW293055   8.669   8.079   0.925  0.6936 -3.1351  0.0469
30034SOL     OW93056   7.403   8.291   1.414  0.2119 -0.0057 -0.1393
30034SOL    HW193057   7.475   8.258   1.469  0.8648  2.4944  0.6607
30034SOL    HW293058   7.443   8.306   1.329  0.5449  0.9831  0.1854
30035SOL     OW93059   2.642  10.163   6.150 -0.5779 -0.5184  0.4064
30035SOL    HW193060   2.663  10.245   6.195 -0.7230 -0.2761  0.0404
30035SOL    HW293061   2.650  10.184   6.057 -0.7694 -0.8789  0.3058
30036SOL     OW93062   3.661   7.987  10.335 -0.0417 -0.2904  0.5837
30036SOL    HW193063   3.664   8.082  10.332 -1.5146 -0.2431  0.0295
30036SOL    HW293064   3.719   7.964  10.408  0.9775  0.9598  0.2234
30037SOL     OW93065   7.742  10.570   1.476 -0.0406  0.0276  0.8418
30037SOL    HW193066   7.669  10.538   1.423  1.0679  1.3515 -1.6584
30037SOL    HW293067   7.704  10.585   1.563 -2.6683  0.3507 -0.2595
30038SOL     OW93068   8.762  10.568   4.407  0.0158  0.1933 -0.0302
30038SOL    HW193069   8.708  10.537   4.335  0.8267  0.6053 -0.8341
30038SOL    HW293070   8.754  10.663   4.404  0.2610  0.2246  0.2588
30039SOL     OW93071   1.307   7.148   1.004  0.0460  0.4005  0.1551
30039SOL    HW193072   1.327   7.240   0.984 -1.0951  0.1600 -2.5835
30039SOL    HW293073   1.389   7.102   0.988  0.0410  0.6909 -0.7863
30040SOL     OW93074   4.399   1.948  10.102 -0.1695  0.1548  0.2093
30040SOL    HW193075   4.345   2.007  10.155 -1.8426 -1.1271  0.0216
30040SOL    HW293076   4.405   1.868  10.154  0.9803  0.0368 -0.0911
30041SOL     OW93077   7.629   6.098   2.017  0.0691  0.4733  0.1175
30041SOL    HW193078   7.627   6.002   2.025 -0.9437  0.4400 -0.3556
30041SOL    HW293079   7.721   6.119   2.009  0.3301 -0.4414  0.5471
30042SOL     OW93080   9.557   3.522   3.111  0.2589  0.0318 -0.8579
30042SOL    HW193081   9.582   3.438   3.071  1.0885  0.1456 -0.6090
30042SOL    HW293082   9.510   3.568   3.042  0.1275 -0.4822 -1.1230
30043SOL     OW93083   1.072   4.008   5.224  0.0596 -0.1724  1.2063
30043SOL    HW193084   1.129   4.058   5.166 -0.1782  0.2172  1.3113
30043SOL    HW293085   1.117   3.924   5.234 -0.4918 -0.7362 -0.5558
30044SOL     OW93086   6.350   2.742   0.078 -0.1931 -0.4945  0.3402
30044SOL    HW193087   6.270   2.793   0.087 -0.2343 -0.6771  1.0985
30044SOL    HW293088   6.355   2.691   0.159  0.3267 -1.0050 -0.0037
30045SOL     OW93089   3.796   1.697   6.371  0.5310 -0.0339  0.3698
30045SOL    HW193090   3.740   1.622   6.390  0.3556 -0.0016 -0.0153
30045SOL    HW293091   3.740   1.773   6.383  0.6001  0.0182  0.3666
30046SOL     OW93092   7.515   4.250   2.078 -0.0424  0.1875  0.0591
30046SOL    HW193093   7.464   4.214   2.150  1.0852 -0.4814  0.5411
30046SOL    HW293094   7.537   4.339   2.105  0.3941 -0.0689  0.5567
30047SOL     OW93095   9.572   4.945   1.009  0.1783 -0.3779  0.3343
30047SOL    HW193096   9.645   4.958   0.949 -0.0726 -0.3677  0.0295
30047SOL    HW293097   9.575   4.851   1.030 -0.9109 -0.7981 -1.2357
30048SOL     OW93098   4.958   3.086   3.326  0.6012  0.5567  0.1772
30048SOL    HW193099   5.021   3.109   3.395  1.7078  2.9168 -1.4910
30048SOL    HW293100   5.013   3.049   3.257 -0.2974 -0.2924 -0.0954
30049SOL     OW93101   1.289   7.641   4.594  0.1144  0.1828 -0.5621
30049SOL    HW193102   1.273   7.547   4.594  1.4189 -0.0911  1.5140
30049SOL    HW293103   1.203   7.679   4.614  0.0899 -0.7418  1.2714
30050SOL     OW93104   5.575   4.318   6.188  0.2508 -0.1686 -0.3489
30050SOL    HW193105   5.538   4.389   6.136 -0.9136 -0.4975  0.0088
30050SOL    HW293106   5.502   4.286   6.240  1.9193  2.2913  4.0484
30051SOL     OW93107  10.165   1.968   4.176 -0.2551  0.1023 -0.2332
30051SOL    HW193108  10.225   1.901   4.144 -1.1705  0.1008 -2.0772
30051SOL    HW293109  10.216   2.018   4.240  1.0219 -1.1818 -0.2014
30052SOL     OW93110   5.766   2.580   2.897  0.0108  0.5549  0.2479
30052SOL    HW193111   5.757   2.646   2.828 -2.3987 -0.1556 -0.2268
30052SOL    HW293112   5.789   2.500   2.850  2.2859  0.8454  0.7552
30053SOL     OW93113   6.357   5.302   9.831  0.5835 -0.4109 -0.7162
30053SOL    HW193114   6.271   5.271   9.802  0.8010 -2.1858  0.3598
30053SOL    HW293115   6.417   5.232   9.804  1.3627 -0.1958  0.3990
30054SOL     OW93116   2.641   2.711   5.559  0.9185  0.0856 -0.2363
30054SOL    HW193117   2.615   2.802   5.579 -0.8936 -0.8206  2.0268
30054SOL    HW293118   2.584   2.685   5.487 -1.0146 -0.2445  1.3283
30055SOL     OW93119   0.395  10.222   3.981  0.1613  0.3040 -0.3359
30055SOL    HW193120   0.436  10.210   4.067  1.5767 -0.8849 -1.1267
30055SOL    HW293121   0.359  10.136   3.960 -1.1645  0.8718 -0.4738
30056SOL     OW93122   2.055   8.937   5.011  0.0040  0.1374  0.3995
30056SOL    HW193123   2.017   8.968   5.093 -0.7617 -0.8893  0.4558
30056SOL    HW293124   2.046   8.842   5.015  0.4220  0.0400 -0.6567
30057SOL     OW93125   6.637   2.812   5.025 -0.2935 -0.1422  0.1379
30057SOL    HW193126   6.681   2.828   5.108 -2.6470 -0.1639  1.4952
30057SOL    HW293127   6.594   2.727   5.036  1.1371 -1.2279 -1.9798
30058SOL     OW93128   7.997   6.085   0.799 -0.0674  0.3332  0.4171
30058SOL    HW193129   7.984   6.180   0.800  1.3795  0.5622  1.4672
30058SOL    HW293130   8.043   6.067   0.881  0.5550 -1.1357 -0.2285
30059SOL     OW93131   5.039   7.326   9.612 -0.0644 -0.2600 -0.5861
30059SOL    HW193132   5.043   7.421   9.598  2.3154  0.0074  1.2209
30059SOL    HW293133   4.974   7.316   9.682  0.1189  0.1031 -0.3581
30060SOL     OW93134   0.876   4.600   4.462  0.1731 -0.4639  0.3421
30060SOL    HW193135   0.832   4.532   4.411  0.7983 -0.3982 -0.3006
30060SOL    HW293136   0.963   4.564   4.481 -0.0959 -0.5541  1.5163
30061SOL     OW93137   6.972   7.019   4.902 -0.0119  0.3675  0.1421
30061SOL    HW193138   6.968   7.063   4.817  2.6854 -1.8767 -1.3670
30061SOL    HW293139   7.061   7.034   4.933 -0.4619 -0.1646  1.8114
30062SOL     OW93140   6.204   6.842   7.922 -0.2473 -0.0883 -0.1282
30062SOL    HW193141   6.296   6.819   7.907 -0.1384  0.5410 -0.4644
30062SOL    HW293142   6.185   6.809   8.010 -0.6205 -2.9772 -1.2066
30063SOL     OW93143   5.964  10.322   5.655 -0.0792 -0.0747 -0.0865
30063SOL    HW193144   5.908  10.384   5.609  0.5914  0.6425  0.0453
30063SOL    HW293145   5.982  10.253   5.591 -0.6680 -0.0356 -0.2986
30064SOL     OW93146   1.606   1.266   9.853 -0.5156 -0.0218  0.4861
30064SOL    HW193147   1.627   1.355   9.880  4.4358 -0.9546  0.5282
30064SOL    HW293148   1.582   1.274   9.760 -1.3623  1.3969  0.7928
30065SOL     OW93149   1.747   4.137   1.353 -0.2467 -0.4110  0.0391
30065SOL    HW193150   1.687   4.170   1.286 -1.9992 -1.2483  1.1168
30065SOL    HW293151   1.705   4.160   1.436  2.0647  0.9635  0.9236
30066SOL     OW93152   2.480   5.915   5.562  0.6221 -0.6450  0.3807
30066SOL    HW193153   2.569   5.939   5.587  0.5011  0.6821 -0.3387
30066SOL    HW293154   2.490   5.867   5.480  0.5592  2.7083 -1.7939
30067SOL     OW93155  10.675   5.997   3.403  0.5267  0.0924 -0.1802
30067SOL    HW193156  10.763   6.034   3.408  0.3026  0.7513 -0.8568
30067SOL    HW293157  10.625   6.061   3.352 -0.0938 -0.7321 -0.6369
30068SOL     OW93158  10.487   3.807   3.946  0.3977  0.6646  0.1705
30068SOL    HW193159  10.478   3.776   3.856 -0.0030  0.0749  0.4115
30068SOL    HW293160  10.406   3.855   3.963 -0.3779 -0.7964  0.8194
30069SOL     OW93161   9.786   8.499   1.731  0.4346  0.2718 -0.2871
30069SOL    HW193162   9.849   8.439   1.692  0.8411  0.2500  0.3945
30069SOL    HW293163   9.800   8.491   1.825  1.4667  2.4188 -0.1932
30070SOL     OW93164   0.056   7.135   5.196 -0.0665  0.4306 -0.4015
30070SOL    HW193165   0.099   7.166   5.276  0.5300 -0.1597 -0.4874
30070SOL    HW293166   0.115   7.069   5.161 -0.5029  0.4213 -1.1395
30071SOL     OW93167   0.946   6.918   8.435  0.0279 -0.3765 -0.6957
30071SOL    HW193168   0.948   6.822   8.442 -1.5915 -0.3951  0.1013
30071SOL    HW293169   0.925   6.934   8.343 -2.6280 -0.9225 -0.2654
30072SOL     OW93170  10.673   5.862   0.247 -0.3733  0.2126  0.0861
30072SOL    HW193171  10.619   5.884   0.171 -0.0927 -1.4094 -0.6293
30072SOL    HW293172  10.612   5.823   0.310 -0.5234  1.1082  0.5038
30073SOL     OW93173   9.644  10.633   0.914 -0.2121 -0.2361  0.6600
30073SOL    HW193174   9.687  10.548   0.926 -1.4972 -0.9941  0.1060
30073SOL    HW293175   9.552  10.612   0.903 -0.6020  1.2720  0.7808
30074SOL     OW93176   0.738   7.292   1.877  0.0740 -0.7113 -0.6694
30074SOL    HW193177   0.830   7.283   1.899 -0.1798 -1.0963  0.3019
30074SOL    HW293178   0.713   7.379   1.910  0.2984 -0.2249 -1.7476
30075SOL     OW93179   3.652   2.949   2.162 -0.3815  0.2164  0.1289
30075SOL    HW193180   3.711   2.987   2.097  1.7344 -0.0266  1.7920
30075SOL    HW293181   3.643   2.857   2.135  1.7919 -0.3027  0.9656
30076SOL     OW93182   0.917   3.989   8.535 -0.7214  0.2573  0.3734
30076SOL    HW193183   0.840   3.946   8.573 -0.7227  0.4528  0.5943
30076SOL    HW293184   0.891   4.010   8.445 -0.9226  0.3124  0.4445
30077SOL     OW93185   4.914   8.813   4.108 -0.6142  0.5357 -0.2201
30077SOL    HW193186   4.897   8.765   4.189  2.7755 -0.0703  0.2573
30077SOL    HW293187   4.989   8.768   4.069 -0.5447  2.3684 -2.4111
30078SOL     OW93188   4.084   6.989   8.474 -0.3175 -0.6574 -0.2277
30078SOL    HW193189   4.075   6.964   8.566 -1.0725 -0.2227 -0.1831
30078SOL    HW293190   4.166   6.947   8.446  0.6473  0.3337  1.0164
30079SOL     OW93191   8.030   1.253   4.293 -0.1320  0.2217 -0.2968
30079SOL    HW193192   8.036   1.341   4.330  0.6438 -0.4809  1.3229
30079SOL    HW293193   7.952   1.256   4.237 -0.0191  1.9684 -0.4215
30080SOL     OW93194   9.372   4.534   5.306  0.1755  0.4476  0.0484
30080SOL    HW193195   9.293   4.534   5.360 -0.3151  0.9808 -0.6402
30080SOL    HW293196   9.339   4.528   5.216  1.0305 -4.0671 -0.2160
30081SOL     OW93197   0.896   5.598   5.281  0.4799 -0.4098  0.2784
30081SOL    HW193198   0.903   5.599   5.185  2.3933 -0.7836  0.3658
30081SOL    HW293199   0.814   5.643   5.300  2.2939  4.1240 -1.3962
30082SOL     OW93200   4.906   3.033   8.676  0.0454  0.0513  0.1860
30082SOL    HW193201   4.920   2.942   8.650 -0.3571  0.7100 -2.6912
30082SOL    HW293202   4.861   3.027   8.760  2.1450 -2.3189  1.2875
30083SOL     OW93203   6.311   3.605   1.119  0.0282 -0.5708  0.3793
30083SOL    HW193204   6.222   3.640   1.123 -0.6963 -2.3389  0.7309
30083SOL    HW293205   6.324   3.564   1.204  0.8282 -1.1328 -0.0048
30084SOL     OW93206   3.546   6.404   4.974  0.2390 -0.2980 -0.2657
30084SOL    HW193207   3.533   6.473   5.039 -0.3291 -0.5658 -0.0854
30084SOL    HW293208   3.641   6.394   4.967  0.3041 -0.4200  0.6939
30085SOL     OW93209   1.624   3.614   1.770  0.2782  0.5248 -1.0426
30085SOL    HW193210   1.659   3.600   1.682  1.7724 -1.0249 -0.2512
30085SOL    HW293211   1.612   3.526   1.806 -0.3529  1.1254  0.2934
30086SOL     OW93212   8.330   9.195   3.720 -0.0784 -0.2216  0.3956
30086SOL    HW193213   8.303   9.268   3.775 -0.0078 -0.3251  0.5661
30086SOL    HW293214   8.253   9.137   3.718 -0.9758  0.9204 -1.5539
30087SOL     OW93215   7.719   5.762   0.534 -0.0404 -0.2134  0.0474
30087SOL    HW193216   7.791   5.710   0.571 -0.9352 -1.0551  0.6361
30087SOL    HW293217   7.763   5.822   0.473  1.3368  0.3068  1.4527
30088SOL     OW93218   7.623   7.057   1.945  0.3980  0.6660 -0.3631
30088SOL    HW193219   7.622   6.970   1.904 -0.3944  0.2596  0.4786
30088SOL    HW293220   7.713   7.068   1.975  0.6330  0.3608 -0.9276
30089SOL     OW93221   0.451   6.702   0.212  0.0929  0.4206  0.1008
30089SOL    HW193222   0.459   6.712   0.117  1.6450 -3.8715 -0.4073
30089SOL    HW293223   0.540   6.712   0.245 -0.0121 -0.6354  0.7412
30090SOL     OW93224   3.928   3.012   1.588 -0.0016 -0.2030 -0.0345
30090SOL    HW193225   3.918   2.928   1.542 -2.0195  0.0313 -0.0846
30090SOL    HW293226   3.872   3.073   1.540  0.5551  0.9060  0.6835
30091SOL     OW93227   6.474   6.607   4.834 -0.0651  0.0312 -0.0094
30091SOL    HW193228   6.484   6.645   4.746 -1.3017  1.8613  0.5774
30091SOL    HW293229   6.522   6.524   4.830  1.8648  1.1401 -1.7087
30092SOL     OW93230   5.925   5.342   7.590 -0.4536  0.6276 -0.0003
30092SOL    HW193231   5.914   5.423   7.640  0.7654  1.5709 -1.1528
30092SOL    HW293232   6.002   5.359   7.535  0.8171 -1.9046  0.8598
30093SOL     OW93233   5.835   0.155   1.784 -0.3261 -0.3216 -0.2320
30093SOL    HW193234   5.833   0.150   1.880  0.0566  0.7619 -0.1542
30093SOL    HW293235   5.744   0.142   1.757 -0.6445  0.6194  0.3519
30094SOL     OW93236   7.602   3.894   3.256  0.7904 -0.1076  0.3186
30094SOL    HW193237   7.523   3.840   3.267  0.4019  0.4768  0.4606
30094SOL    HW293238   7.673   3.839   3.287  0.8383 -1.6781 -2.2169
30095SOL     OW93239   5.341   2.206   7.015 -0.0588  0.2845 -0.3409
30095SOL    HW193240   5.256   2.232   6.979 -0.3578 -1.7878 -1.2556
30095SOL    HW293241   5.326   2.201   7.110 -1.4146 -1.4422 -0.5941
30096SOL     OW93242   2.664   0.892   7.910  0.6595  0.1097  0.0203
30096SOL    HW193243   2.689   0.983   7.921  2.8465 -0.5586  1.1379
30096SOL    HW293244   2.608   0.873   7.986 -0.3722  0.6613 -0.5778
30097SOL     OW93245   8.628   0.789   6.572  0.2147 -0.2681  0.1776
30097SOL    HW193246   8.573   0.711   6.559  0.1775 -0.4883  1.5591
30097SOL    HW293247   8.567   0.862   6.572  0.2301 -0.2315 -0.9381
30098SOL     OW93248  10.157   0.383   7.734 -0.3976  0.2287  0.1056
30098SOL    HW193249  10.248   0.396   7.761 -0.3965 -1.2144  0.8930
30098SOL    HW293250  10.133   0.298   7.770 -1.1186 -0.8560 -2.6793
30099SOL     OW93251   5.470   0.758  10.110  0.3354  0.2246 -0.1581
30099SOL    HW193252   5.418   0.796  10.181  0.9074 -0.9660  0.9416
30099SOL    HW293253   5.493   0.832  10.054  0.1755  1.2505  1.0996
30100SOL     OW93254   4.689   3.550   6.867  0.4975 -0.3410 -0.3481
30100SOL    HW193255   4.763   3.609   6.881 -1.4851  1.9125  1.8289
30100SOL    HW293256   4.684   3.498   6.947 -0.4329 -0.1777 -0.2801
30101SOL     OW93257   1.470   8.244   9.678  0.5689  0.1035 -0.7975
30101SOL    HW193258   1.419   8.315   9.718 -1.0606 -0.7327 -1.2711
30101SOL    HW293259   1.428   8.229   9.594  1.3922 -0.8787 -1.0488
30102SOL     OW93260  10.260   3.386   3.597 -0.2909  0.2499 -0.5443
30102SOL    HW193261  10.218   3.456   3.647 -0.9588  0.7049 -1.7220
30102SOL    HW293262  10.217   3.387   3.512  2.5893  1.2432 -2.1131
30103SOL     OW93263   8.552   8.019   6.485 -0.2975 -0.0410  0.0176
30103SOL    HW193264   8.473   8.056   6.445 -0.4075  0.7478  0.9356
30103SOL    HW293265   8.519   7.954   6.547 -0.1565 -0.6795 -0.5589
30104SOL     OW93266   9.142   2.062  10.621 -0.2798 -0.4743  0.2236
30104SOL    HW193267   9.069   2.079  10.682  0.2628 -1.3064  1.1437
30104SOL    HW293268   9.120   2.113  10.543 -1.4258 -0.0365  0.7972
30105SOL     OW93269   3.921   1.179   2.002 -0.1214 -0.4534  0.4031
30105SOL    HW193270   3.873   1.176   1.918  0.0927  2.2923  0.0972
30105SOL    HW293271   3.976   1.101   2.000 -0.4048 -0.6792 -1.8567
30106SOL     OW93272   2.481   0.911   4.774 -0.0289 -0.2882  0.2017
30106SOL    HW193273   2.540   0.919   4.699 -1.0468  0.2418 -0.5645
30106SOL    HW293274   2.398   0.882   4.736  0.1491 -2.6443  1.4448
30107SOL     OW93275   4.646   9.204   8.820  0.1286  0.2927  0.0160
30107SOL    HW193276   4.736   9.172   8.833 -0.3213 -0.8942  0.3814
30107SOL    HW293277   4.629   9.258   8.897 -0.4270 -1.8060  1.4444
30108SOL     OW93278   2.434  10.428   0.268  0.0191 -0.3487 -0.3004
30108SOL    HW193279   2.486  10.352   0.295 -1.0933 -0.6039  1.2584
30108SOL    HW293280   2.355  10.423   0.322 -1.9936 -0.3917 -3.0563
30109SOL     OW93281   6.836   7.059   2.901 -0.2469  0.1526  0.2416
30109SOL    HW193282   6.841   7.008   2.820  0.9196 -1.9325  1.5532
30109SOL    HW293283   6.763   7.119   2.886 -0.5011 -0.6123 -2.0901
30110SOL     OW93284   5.602   5.727   8.252  0.0231 -0.4767 -0.1661
30110SOL    HW193285   5.643   5.755   8.333  0.9808 -0.1117 -0.7585
30110SOL    HW293286   5.577   5.636   8.267  1.1291 -0.7360  0.1958
30111SOL     OW93287   1.097   1.523  10.182  0.1478  0.2125  0.0173
30111SOL    HW193288   1.070   1.567  10.263 -0.0914  2.7037 -1.2982
30111SOL    HW293289   1.022   1.534  10.124  0.5921 -0.9038 -0.7869
30112SOL     OW93290   9.174   0.567   4.926 -0.4101  0.1549 -0.4395
30112SOL    HW193291   9.115   0.526   4.862 -1.7978  0.5559  0.5140
30112SOL    HW293292   9.228   0.626   4.874 -1.0367 -0.0243 -1.3361
30113SOL     OW93293   4.487   4.593   1.509 -0.0746 -0.0143  0.4654
30113SOL    HW193294   4.457   4.502   1.511  0.7503 -0.2923  0.3582
30113SOL    HW293295   4.435   4.636   1.578 -2.7697  0.2002 -1.5509
30114SOL     OW93296   8.726   6.426   3.020 -0.4551  0.3610 -0.3596
30114SOL    HW193297   8.652   6.367   3.029  0.3378 -0.5180  0.5697
30114SOL    HW293298   8.758   6.411   2.931 -0.6283 -0.1663 -0.3345
30115SOL     OW93299   2.877   8.564   4.826  0.1537  0.6012  0.3747
30115SOL    HW193300   2.907   8.631   4.765 -0.0054 -0.8569 -1.3701
30115SOL    HW293301   2.807   8.607   4.875 -0.3560  1.5387 -1.1038
30116SOL     OW93302   8.310   8.938   1.786  0.5763 -0.4206  0.3948
30116SOL    HW193303   8.342   8.956   1.698  0.6746  0.0679  0.5305
30116SOL    HW293304   8.215   8.941   1.779  0.5842 -0.4123  0.3000
30117SOL     OW93305   4.057  10.361   6.092  0.0527 -0.2286  0.5525
30117SOL    HW193306   3.972  10.402   6.077  0.2759  0.1182  0.2047
30117SOL    HW293307   4.037  10.279   6.137 -0.3012  1.0347  2.8469
30118SOL     OW93308   4.564   0.540   5.996  0.4402  0.1009 -0.1317
30118SOL    HW193309   4.604   0.606   5.940  0.4306  0.7145  0.5716
30118SOL    HW293310   4.481   0.579   6.024  0.7666  0.1079  0.8798
30119SOL     OW93311   6.729   5.348  10.509  0.5329 -0.6227  0.3489
30119SOL    HW193312   6.799   5.368  10.571 -0.1333  0.7555  0.7045
30119SOL    HW293313   6.773   5.347  10.423  0.9419  0.6369  0.5190
30120SOL     OW93314   2.457   6.595   9.509 -0.5187 -0.2701 -0.0347
30120SOL    HW193315   2.446   6.509   9.467 -0.6789 -0.1169 -0.3075
30120SOL    HW293316   2.399   6.592   9.584  0.7470 -1.0436  0.9577
30121SOL     OW93317   1.912   7.253   8.011  0.1187  0.7253  0.1657
30121SOL    HW193318   1.863   7.274   7.932  0.2216 -0.5461 -0.2575
30121SOL    HW293319   1.889   7.323   8.073 -2.8729 -0.1879  0.2521
30122SOL     OW93320   7.685   4.447  10.004 -0.1768 -0.3192  0.4063
30122SOL    HW193321   7.771   4.477  10.032 -0.7676  0.1717  1.7713
30122SOL    HW293322   7.644   4.412  10.083 -0.4267 -2.6151 -0.6545
30123SOL     OW93323   7.032   6.671   2.827 -0.1652  0.7190  0.3365
30123SOL    HW193324   6.982   6.709   2.899 -1.1667  1.8142 -0.8642
30123SOL    HW293325   7.110   6.633   2.868 -1.7253 -0.6050  2.2126
30124SOL     OW93326   0.312   8.932   0.861 -0.4180 -0.2630  0.0960
30124SOL    HW193327   0.320   9.026   0.843  1.6007 -0.4938 -0.4560
30124SOL    HW293328   0.349   8.921   0.948  1.3905 -0.7820 -0.6843
30125SOL     OW93329   8.415  10.294   2.928 -0.6449  0.2180 -0.4704
30125SOL    HW193330   8.382  10.287   2.838 -1.9305  0.2908 -0.0283
30125SOL    HW293331   8.478  10.366   2.924 -0.9650  0.4717 -1.2425
30126SOL     OW93332   8.792   5.305   5.639  0.0528  0.4892  0.1361
30126SOL    HW193333   8.726   5.288   5.571  1.4732  0.0112 -1.1808
30126SOL    HW293334   8.773   5.241   5.707 -1.6707  1.2542  0.4216
30127SOL     OW93335   7.494   6.586   3.383  0.1202  0.2599  0.2231
30127SOL    HW193336   7.473   6.627   3.467  2.1733  1.1754  0.3624
30127SOL    HW293337   7.555   6.515   3.406 -0.8654 -0.7937 -0.3278
30128SOL     OW93338   0.740   7.593   2.900  0.1754  0.8703 -0.5866
30128SOL    HW193339   0.731   7.609   2.994  0.2684 -2.5300  0.1350
30128SOL    HW293340   0.810   7.529   2.893 -1.8464 -1.3060 -2.6192
30129SOL     OW93341   3.730   6.382   2.755 -0.1523  0.5204 -0.2852
30129SOL    HW193342   3.746   6.355   2.664  0.6930 -1.2549  0.3454
30129SOL    HW293343   3.636   6.367   2.767 -0.5003  1.8114 -1.1571
30130SOL     OW93344   8.421   5.463   4.766 -0.1659  0.3363  0.3415
30130SOL    HW193345   8.515   5.445   4.763  0.1056  1.5474  1.0206
30130SOL    HW293346   8.407   5.525   4.694 -0.5729 -0.3296 -0.1649
30131SOL     OW93347   5.283   8.754   7.990 -0.4100  0.6067 -0.5291
30131SOL    HW193348   5.256   8.846   7.992  0.7428  0.9535 -0.1360
30131SOL    HW293349   5.205   8.707   7.961 -2.0543  1.3586  2.2164
30132SOL     OW93350   6.981   9.039   2.585  0.4738 -0.4925 -0.1353
30132SOL    HW193351   6.956   9.114   2.639 -1.0913 -1.2011  0.1810
30132SOL    HW293352   7.062   9.007   2.624  0.1965 -0.0509  0.8400
30133SOL     OW93353   6.864   2.592   9.188 -0.2923 -0.1162  0.5650
30133SOL    HW193354   6.769   2.595   9.188 -0.2815  1.5635  1.7696
30133SOL    HW293355   6.891   2.680   9.213  1.5907 -0.4748 -0.0526
30134SOL     OW93356   0.517   5.820   3.909 -0.3656 -0.3544 -0.2999
30134SOL    HW193357   0.452   5.752   3.890 -0.9915 -0.1197  0.8823
30134SOL    HW293358   0.555   5.842   3.824 -0.7497 -1.5809 -0.8102
30135SOL     OW93359   4.106   1.088   5.494 -0.7525  0.0301 -0.2736
30135SOL    HW193360   4.047   1.013   5.486 -1.9326  0.8644  0.2574
30135SOL    HW293361   4.143   1.098   5.406 -1.7075 -0.2842 -0.7260
30136SOL     OW93362  10.122   7.743   4.301 -0.1727  0.9410 -0.0053
30136SOL    HW193363  10.184   7.738   4.228  0.9607  0.5582  0.9494
30136SOL    HW293364  10.088   7.654   4.309 -3.0238  1.6899 -2.2814
30137SOL     OW93365   3.734   1.365   6.878 -0.1254 -0.2565 -0.1656
30137SOL    HW193366   3.662   1.325   6.830  0.2341  1.1737 -1.9991
30137SOL    HW293367   3.695   1.394   6.960 -0.9822 -1.8846  0.0526
30138SOL     OW93368   2.503   6.018   6.630  1.0570 -0.4135 -0.0859
30138SOL    HW193369   2.448   5.976   6.565 -1.4279  1.5730  0.5995
30138SOL    HW293370   2.471   5.986   6.714  1.4713  0.1793  0.3113
30139SOL     OW93371   4.113   3.934   7.684 -0.1436  0.0980  0.4648
30139SOL    HW193372   4.057   3.996   7.639 -0.9378 -1.2729 -0.5028
30139SOL    HW293373   4.138   3.870   7.617  0.9420 -0.4410  1.3418
30140SOL     OW93374   8.545   6.512   1.078 -0.3111  0.1826  0.6503
30140SOL    HW193375   8.589   6.449   1.135  0.3694  1.5234  1.6615
30140SOL    HW293376   8.595   6.510   0.996 -1.9502 -2.5678 -0.4117
30141SOL     OW93377  10.297   9.953   2.689  0.5069 -0.4606 -0.8312
30141SOL    HW193378  10.268   9.870   2.727 -0.3193  0.2710  0.2022
30141SOL    HW293379  10.392   9.947   2.686  0.4364 -2.9599 -4.3264
30142SOL     OW93380   9.965   8.600   1.439 -0.2307  0.0145 -0.7730
30142SOL    HW193381   9.973   8.544   1.516  0.5995 -0.5810 -1.2790
30142SOL    HW293382  10.044   8.653   1.439 -0.2438  0.0368 -1.1969
30143SOL     OW93383   1.060   2.278   5.104  0.0811  0.2292 -0.3550
30143SOL    HW193384   0.973   2.287   5.065 -1.3268  0.1108  2.4844
30143SOL    HW293385   1.116   2.333   5.049 -1.4537 -0.7324 -3.0599
30144SOL     OW93386   8.101   6.627   1.164 -0.3864 -0.0523 -0.0753
30144SOL    HW193387   8.098   6.697   1.099 -1.5621 -1.6980 -1.8926
30144SOL    HW293388   8.010   6.609   1.186 -0.1445  2.8713  4.9895
30145SOL     OW93389  10.299  10.507   4.489  0.0007 -0.6177  0.0803
30145SOL    HW193390  10.230  10.571   4.506  0.9688  0.0533  1.7316
30145SOL    HW293391  10.315  10.514   4.395 -0.4015  1.0986  0.0987
30146SOL     OW93392   7.822  10.542   3.937  0.0854 -0.2356 -0.0169
30146SOL    HW193393   7.835  10.501   3.852  0.3419  0.0815 -0.1366
30146SOL    HW293394   7.773  10.622   3.917 -0.4920 -0.5264  0.2225
30147SOL     OW93395   5.854   3.149   3.792  0.1104  0.0622 -0.3268
30147SOL    HW193396   5.819   3.150   3.703  1.3097  1.1040 -0.8264
30147SOL    HW293397   5.842   3.238   3.824  0.5147 -0.0700  0.2100
30148SOL     OW93398   5.675   9.591   3.171 -0.0686 -0.1865 -0.0350
30148SOL    HW193399   5.686   9.547   3.087  1.3469 -1.3851  0.7179
30148SOL    HW293400   5.679   9.684   3.151 -0.3035 -0.4469 -1.3524
30149SOL     OW93401   9.843   3.894   9.874 -0.3150  0.5176  0.2941
30149SOL    HW193402   9.915   3.940   9.832 -0.4774  0.4408 -0.0749
30149SOL    HW293403   9.881   3.853   9.952 -0.1147  1.0612  0.4825
30150SOL     OW93404   6.700   7.898   6.065  0.1347  0.0849 -0.0484
30150SOL    HW193405   6.724   7.807   6.083  0.2126  0.1081 -0.0319
30150SOL    HW293406   6.754   7.949   6.125  1.7716  0.2613 -1.5804
30151SOL     OW93407   2.900   4.230   6.787 -0.0250  0.6052 -0.3733
30151SOL    HW193408   2.963   4.165   6.759  0.2788 -0.3756  2.2405
30151SOL    HW293409   2.885   4.285   6.710  0.9801 -1.5147 -2.1886
30152SOL     OW93410   6.203   5.784   6.239 -0.1793  0.3592  0.0154
30152SOL    HW193411   6.111   5.809   6.227  0.2740  1.5041 -1.3323
30152SOL    HW293412   6.249   5.823   6.165  0.9326 -2.9205 -1.1981
30153SOL     OW93413   3.445   7.548   3.343  0.7558  0.6151  0.7360
30153SOL    HW193414   3.414   7.637   3.361 -1.1586  0.0010  0.7193
30153SOL    HW293415   3.366   7.494   3.351  1.6615 -0.9266 -0.3950
30154SOL     OW93416   4.531   2.651   7.460 -0.2075 -0.0447 -0.1757
30154SOL    HW193417   4.603   2.702   7.496 -0.1044 -0.5439  0.3539
30154SOL    HW293418   4.538   2.566   7.504  0.2662 -0.8856 -1.7909
30155SOL     OW93419   3.475   7.144   7.480  0.6818  1.2410 -0.1626
30155SOL    HW193420   3.485   7.235   7.507 -0.4264  1.4475 -0.3897
30155SOL    HW293421   3.381   7.133   7.465  1.0767  0.8764 -3.0022
30156SOL     OW93422   8.321   2.061   9.149  0.6125 -0.0450  0.8993
30156SOL    HW193423   8.396   2.117   9.129  2.8459 -3.3426 -0.9401
30156SOL    HW293424   8.251   2.095   9.093  0.6910  2.9281  2.4303
30157SOL     OW93425   0.024   8.165   3.296 -0.6252  0.5521  0.2720
30157SOL    HW193426  -0.026   8.225   3.351 -3.2598  0.0043 -1.3325
30157SOL    HW293427  -0.003   8.187   3.207  1.8038 -0.0626 -0.6960
30158SOL     OW93428   0.153   0.999   1.870 -0.0790 -0.1319  0.0283
30158SOL    HW193429   0.129   0.907   1.884 -1.6609  0.0694 -1.1445
30158SOL    HW293430   0.200   0.999   1.787  2.2857 -0.1960  1.2573
30159SOL     OW93431   3.200   2.629  10.400 -0.4195 -0.5208  0.3197
30159SOL    HW193432   3.135   2.610  10.333 -1.1282  1.0561  0.5331
30159SOL    HW293433   3.151   2.673  10.469  1.1316  2.4433 -0.3190
30160SOL     OW93434   4.268   7.979   2.816 -0.0086  0.2047  0.5516
30160SOL    HW193435   4.273   7.892   2.855 -1.0375  0.2834  0.9137
30160SOL    HW293436   4.181   8.011   2.842 -0.2674  0.7132 -0.8813
30161SOL     OW93437   7.284   6.433   6.110  0.5159 -0.5850 -0.2093
30161SOL    HW193438   7.287   6.380   6.030 -0.8905 -2.3813  0.8328
30161SOL    HW293439   7.251   6.518   6.081  2.6098 -0.2757 -1.9119
30162SOL     OW93440  10.493   6.973   8.741  0.0946 -0.5436 -0.2839
30162SOL    HW193441  10.488   7.069   8.731  1.3076 -0.6194 -2.3410
30162SOL    HW293442  10.449   6.939   8.663  1.0679 -1.5981 -0.3999
30163SOL     OW93443   9.224   7.426   3.713 -0.2101  0.0798  0.2750
30163SOL    HW193444   9.194   7.483   3.642 -2.7412  1.1742  2.0306
30163SOL    HW293445   9.160   7.355   3.715 -0.0966 -0.0064  1.3217
30164SOL     OW93446  10.214  10.058   4.587  0.1143  0.5446  0.0406
30164SOL    HW193447  10.246  10.135   4.634 -1.0237  0.7490  0.5258
30164SOL    HW293448  10.195   9.995   4.656 -0.6338  0.4842 -0.2091
30165SOL     OW93449   8.694   4.779   6.801 -0.1179  0.2404  0.1697
30165SOL    HW193450   8.628   4.847   6.783  0.2342  0.5017 -0.1341
30165SOL    HW293451   8.768   4.827   6.837  0.0991  0.0069  0.0321
30166SOL     OW93452   6.811  10.601   7.544  0.9070 -0.5491  0.2320
30166SOL    HW193453   6.850  10.622   7.629  0.4691 -2.5033  0.9452
30166SOL    HW293454   6.717  10.614   7.557  0.8634 -0.5869 -0.0401
30167SOL     OW93455   1.647   1.118   4.955 -0.3335 -0.2324  0.2223
30167SOL    HW193456   1.658   1.022   4.955  1.1587 -0.0857  0.6571
30167SOL    HW293457   1.619   1.138   5.044 -2.3065 -0.3897 -0.3097
30168SOL     OW93458  10.005   0.335   4.764  0.0802 -0.5079  0.3474
30168SOL    HW193459  10.087   0.301   4.799 -0.1838 -1.4058  0.1135
30168SOL    HW293460   9.953   0.257   4.744 -1.0883  0.0523  1.1048
30169SOL     OW93461   7.079   5.246   7.984 -0.2415 -1.0208  0.1657
30169SOL    HW193462   7.022   5.233   8.060 -1.4944 -1.5541 -0.8362
30169SOL    HW293463   7.022   5.234   7.908  1.1945 -1.5247 -0.8828
30170SOL     OW93464   9.192   0.156   3.629 -0.2204  0.0473  0.1710
30170SOL    HW193465   9.273   0.184   3.672 -0.6092  1.5791 -0.0519
30170SOL    HW293466   9.124   0.211   3.668 -0.6830  1.0429 -1.9450
30171SOL     OW93467   8.332   6.458   4.399 -0.2498 -0.3961  0.2919
30171SOL    HW193468   8.348   6.545   4.436 -0.9867 -0.1585  0.0543
30171SOL    HW293469   8.308   6.475   4.308  1.3067 -0.9586 -0.2621
30172SOL     OW93470   8.329   4.042   8.231 -0.2970 -0.2171  0.3392
30172SOL    HW193471   8.363   4.106   8.168 -1.0327  0.1583  0.3139
30172SOL    HW293472   8.388   3.967   8.223  0.4217  0.3506  0.1798
30173SOL     OW93473   8.475   0.100   8.244  0.5615 -0.0254 -0.4435
30173SOL    HW193474   8.473   0.098   8.148  1.8557  0.0028 -0.4843
30173SOL    HW293475   8.567   0.112   8.266  0.4404 -1.2686  0.8382
30174SOL     OW93476   8.177   6.302   0.708  0.2967  0.1402  0.5118
30174SOL    HW193477   8.248   6.238   0.720 -1.3927 -1.6563  1.5708
30174SOL    HW293478   8.191   6.365   0.778  0.3763 -0.6963  1.2788
30175SOL     OW93479   3.700   3.868   2.719 -0.0675 -0.7391  0.2237
30175SOL    HW193480   3.733   3.799   2.661  0.3394 -1.0427  0.8040
30175SOL    HW293481   3.768   3.877   2.786 -0.3071 -0.0550  0.3824
30176SOL     OW93482   7.996   8.283   4.547  0.3063 -0.2030  0.2182
30176SOL    HW193483   8.073   8.339   4.536  0.6426 -0.7090 -0.0682
30176SOL    HW293484   7.921   8.342   4.538  0.6622  0.4438  1.3300
30177SOL     OW93485   9.651   6.862   7.660  0.0314  0.2602 -0.1703
30177SOL    HW193486   9.630   6.775   7.625 -2.3920  0.5608  0.3734
30177SOL    HW293487   9.747   6.865   7.661  0.1738 -1.7722 -1.7185
30178SOL     OW93488   9.148  10.409   6.180  0.4735 -0.0588  0.0629
30178SOL    HW193489   9.203  10.363   6.244  1.5563  1.0192 -0.0552
30178SOL    HW293490   9.129  10.343   6.113  0.0620 -0.9566  1.0298
30179SOL     OW93491   0.715   4.949   6.194 -0.2791  0.6361 -0.0283
30179SOL    HW193492   0.772   4.878   6.164 -1.3423 -0.1185 -0.3579
30179SOL    HW293493   0.648   4.956   6.125 -1.2182  0.7282  0.8683
30180SOL     OW93494   5.080   8.893   7.725 -0.3102 -0.1468 -0.1436
30180SOL    HW193495   4.998   8.940   7.717 -0.7835 -1.1081 -1.4174
30180SOL    HW293496   5.144   8.958   7.753 -0.9773  1.2047 -1.6409
30181SOL     OW93497   0.301   8.762  10.434 -0.4186 -0.2693  0.1713
30181SOL    HW193498   0.348   8.832  10.479 -0.5725 -0.8306  1.2545
30181SOL    HW293499   0.335   8.681  10.474 -3.8984 -0.6997  2.7936
30182SOL     OW93500   9.938   4.599   0.331 -0.6265 -0.7177 -0.0078
30182SOL    HW193501  10.013   4.622   0.277  0.0667  0.5954  1.4159
30182SOL    HW293502   9.906   4.683   0.364 -0.5972 -1.4669  2.0910
30183SOL     OW93503   0.729   6.424   3.628 -0.0280 -0.1210  0.0468
30183SOL    HW193504   0.752   6.486   3.559 -1.2705 -1.5414 -1.7080
30183SOL    HW293505   0.756   6.468   3.709  1.2278  1.7003 -1.2911
30184SOL     OW93506   2.713   2.727   4.262 -0.3265 -0.0370 -0.0091
30184SOL    HW193507   2.712   2.775   4.345 -1.1261  0.0126 -0.0417
30184SOL    HW293508   2.647   2.770   4.208  0.0482 -0.1922 -0.6093
30185SOL     OW93509   2.084   8.652   6.243 -0.2373 -0.0604 -0.2670
30185SOL    HW193510   2.012   8.684   6.189 -0.9246 -0.3034  0.4824
30185SOL    HW293511   2.160   8.701   6.213 -1.3284  2.7424  1.1849
30186SOL     OW93512   2.448   1.432   5.958  0.2141  0.0104  0.0239
30186SOL    HW193513   2.481   1.485   5.885  0.5818 -1.6112 -1.0267
30186SOL    HW293514   2.379   1.378   5.920 -0.3002 -0.1315  1.1271
30187SOL     OW93515   1.185   9.239   3.143 -0.1960 -0.3470 -0.1347
30187SOL    HW193516   1.117   9.250   3.077  1.3183  0.9839 -1.5714
30187SOL    HW293517   1.175   9.149   3.173  0.2040 -1.7198 -3.5881
30188SOL     OW93518   2.286   0.329   4.687  0.0782 -0.1251  0.0224
30188SOL    HW193519   2.290   0.336   4.782  0.3386 -0.2076  0.0184
30188SOL    HW293520   2.193   0.320   4.667 -0.0119  0.3183  0.2381
30189SOL     OW93521   0.751   7.978   2.350 -0.5902 -0.2877  0.2066
30189SOL    HW193522   0.692   8.019   2.287  0.5840  1.8596  0.4264
30189SOL    HW293523   0.704   7.899   2.378 -4.0637  1.9541  1.4513
30190SOL     OW93524   1.003   6.008   5.635 -0.5710 -0.2087 -0.1587
30190SOL    HW193525   0.935   5.940   5.629  1.0872 -2.0619  1.0367
30190SOL    HW293526   0.997   6.040   5.725  0.2891 -0.5784  0.0361
30191SOL     OW93527   8.281   9.943   4.492 -0.2558 -0.1558 -0.1396
30191SOL    HW193528   8.235   9.946   4.408  2.2521 -0.9812 -1.6645
30191SOL    HW293529   8.331   9.861   4.489  0.1463 -0.0542  2.0423
30192SOL     OW93530   3.872   7.558   4.987 -0.4739  0.6694  0.0574
30192SOL    HW193531   3.784   7.593   4.999 -0.4783  0.2353  1.4644
30192SOL    HW293532   3.862   7.463   4.998 -0.0287  0.4753 -1.0369
30193SOL     OW93533   7.720   1.937   8.883 -0.1937  0.3433  0.5628
30193SOL    HW193534   7.811   1.966   8.880 -0.6508  1.7302 -1.6083
30193SOL    HW293535   7.668   2.017   8.883 -1.4269 -0.4129 -0.1528
30194SOL     OW93536   2.597   3.633   6.131  0.0219  0.3896 -0.2267
30194SOL    HW193537   2.610   3.691   6.206 -0.2305  0.2521 -0.0745
30194SOL    HW293538   2.685   3.605   6.107  0.0713  0.0542  0.3217
30195SOL     OW93539   2.035   2.590   4.498 -0.2472 -0.3289 -0.2752
30195SOL    HW193540   1.955   2.538   4.493 -1.2347  1.1751 -0.8536
30195SOL    HW293541   2.076   2.563   4.580 -2.2006  0.0176  0.8712
30196SOL     OW93542   7.176   9.416   8.670 -0.4011  0.6529  0.2732
30196SOL    HW193543   7.104   9.365   8.707 -0.1782  0.3603  0.3016
30196SOL    HW293544   7.234   9.434   8.744 -0.8211  1.5312  0.3985
30197SOL     OW93545   5.901   1.536   1.219  0.4601  0.0250  0.4177
30197SOL    HW193546   5.808   1.536   1.197  0.9687 -0.7187 -1.9200
30197SOL    HW293547   5.920   1.447   1.247  0.6132 -0.0099  0.2065
30198SOL     OW93548   8.211   4.575   0.917  0.5288  0.2685 -0.0677
30198SOL    HW193549   8.299   4.560   0.883  0.3915  1.3355 -0.9591
30198SOL    HW293550   8.221   4.575   1.012  1.5590  0.6860 -0.1664
30199SOL     OW93551   7.729   2.692   6.314 -0.5907 -0.5800  0.1000
30199SOL    HW193552   7.684   2.732   6.239 -1.0205 -1.8832 -0.3648
30199SOL    HW293553   7.675   2.716   6.389 -2.7478 -2.9224 -0.5529
30200SOL     OW93554   2.027   7.678   4.713 -0.1817 -0.2136  0.1762
30200SOL    HW193555   2.008   7.706   4.623 -0.7074 -0.3852  0.2309
30200SOL    HW293556   1.998   7.587   4.717  3.4659 -1.5709 -0.6200
30201SOL     OW93557   6.929   7.189   4.680  0.4037 -0.3660  0.3607
30201SOL    HW193558   6.982   7.263   4.710 -1.2492 -0.3580  3.7565
30201SOL    HW293559   6.843   7.228   4.663  0.4801 -0.9574 -1.6403
30202SOL     OW93560   5.909   6.614   4.899  0.2679  0.4093 -0.2703
30202SOL    HW193561   5.814   6.608   4.897  0.2318  0.7956  0.0861
30202SOL    HW293562   5.931   6.676   4.829  0.3369 -0.4390 -1.0260
30203SOL     OW93563  10.372   0.852   0.636  0.1458 -0.0602 -0.0916
30203SOL    HW193564  10.416   0.767   0.636  0.1414 -0.0627 -0.2152
30203SOL    HW293565  10.281   0.832   0.614 -0.3776 -0.2900  2.0756
30204SOL     OW93566   8.367   5.514   3.022  0.1377 -0.3808  0.0826
30204SOL    HW193567   8.383   5.427   2.984 -1.8561 -1.6768  2.0118
30204SOL    HW293568   8.314   5.559   2.956  2.1805 -0.0950 -1.4682
30205SOL     OW93569   1.522   0.289   4.261  0.1364 -0.6533  0.3317
30205SOL    HW193570   1.555   0.223   4.322  0.6292  0.0050  0.7940
30205SOL    HW293571   1.601   0.323   4.218 -0.0398  0.1083  0.5927
30206SOL     OW93572   3.677   2.074   1.764 -0.2654  0.5700 -0.0113
30206SOL    HW193573   3.773   2.074   1.758 -0.3343 -1.1294 -2.5757
30206SOL    HW293574   3.658   2.020   1.841  0.8972 -1.0807 -0.8114
30207SOL     OW93575   1.528   0.359   5.415  0.0540  0.2798  0.2045
30207SOL    HW193576   1.591   0.296   5.380 -0.2678  0.2916 -0.4117
30207SOL    HW293577   1.570   0.444   5.401  0.0066  0.2725  0.0156
30208SOL     OW93578   2.521   1.783   9.610  0.6547  0.3628  0.1574
30208SOL    HW193579   2.442   1.835   9.620 -0.2347 -0.4214 -2.0131
30208SOL    HW293580   2.500   1.699   9.651  0.4088  0.2279 -0.2331
30209SOL     OW93581   8.902   2.616   3.364  0.9100  0.0021 -0.2841
30209SOL    HW193582   8.938   2.529   3.347  0.9331 -0.2397  0.8872
30209SOL    HW293583   8.837   2.601   3.433 -2.5175  0.1970 -3.2315
30210SOL     OW93584   7.197   8.961   4.745  0.0876  0.3061 -0.3429
30210SOL    HW193585   7.269   9.003   4.698 -0.2524 -0.5354 -1.6487
30210SOL    HW293586   7.203   8.997   4.834  2.6344 -0.3440 -0.1567
30211SOL     OW93587   3.154  10.063   6.605  0.0915  0.2013  0.0961
30211SOL    HW193588   3.221  10.011   6.649  0.7363  1.0000  0.0786
30211SOL    HW293589   3.143  10.141   6.659 -0.2847  0.4336 -0.2993
30212SOL     OW93590   8.865   4.410   2.505  0.0820  0.2807  0.1760
30212SOL    HW193591   8.942   4.408   2.447 -0.6090  0.6433 -0.7859
30212SOL    HW293592   8.901   4.423   2.592  1.0927  0.9435 -0.3167
30213SOL     OW93593   0.096   0.513   0.846 -0.2783 -0.7235 -0.3733
30213SOL    HW193594   0.187   0.503   0.874 -0.3279  0.5977  0.3948
30213SOL    HW293595   0.096   0.488   0.754  0.3308 -3.2218  0.2228
30214SOL     OW93596   5.267   8.224   5.386  0.0776 -0.2935  0.1850
30214SOL    HW193597   5.316   8.259   5.460  0.6218  1.9199 -1.1362
30214SOL    HW293598   5.185   8.275   5.385 -0.8391 -1.7151  0.4518
30215SOL     OW93599   3.483   0.616   0.900 -0.4789  0.0687 -0.2627
30215SOL    HW193600   3.577   0.608   0.879 -0.3949 -0.8285  0.4042
30215SOL    HW293601   3.479   0.609   0.995 -1.1797  0.6951 -0.2398
30216SOL     OW93602   0.793   1.882   8.336  0.2195 -0.2890 -0.0812
30216SOL    HW193603   0.884   1.894   8.362 -0.0562 -0.1986  0.9208
30216SOL    HW293604   0.785   1.789   8.316  0.7422 -0.1249 -1.0889
30217SOL     OW93605   3.504   9.327   8.488 -0.2570  0.2559  0.2241
30217SOL    HW193606   3.466   9.415   8.497 -0.2849  0.2351  0.3083
30217SOL    HW293607   3.523   9.319   8.394  1.0445  0.8918  0.4105
30218SOL     OW93608  10.225   7.837   7.351 -0.6446  0.4313 -0.0392
30218SOL    HW193609  10.296   7.811   7.292 -1.1482 -0.4163 -0.2909
30218SOL    HW293610  10.177   7.756   7.367  0.6215  0.1450  3.1446
30219SOL     OW93611   5.350   3.015   7.420  0.3008  0.4086 -0.6206
30219SOL    HW193612   5.286   2.982   7.357 -0.9990  0.2697  0.7258
30219SOL    HW293613   5.309   3.092   7.458  1.2830  0.7804 -0.2825
30220SOL     OW93614   7.602   1.066   9.286 -0.8603  0.5287 -0.5969
30220SOL    HW193615   7.562   1.037   9.204  2.2184 -1.7149 -1.4573
30220SOL    HW293616   7.607   0.987   9.340  2.1428  0.6550 -0.5282
30221SOL     OW93617   9.581   8.431   6.087 -0.1569  0.1399  0.0159
30221SOL    HW193618   9.487   8.442   6.076  0.0108 -0.5261 -3.2928
30221SOL    HW293619   9.596   8.338   6.071  1.0496  0.1398  0.9881
30222SOL     OW93620   8.058   3.526   0.052  0.0473 -0.0246  0.4762
30222SOL    HW193621   8.032   3.588  -0.016  0.1668 -0.2097  0.2635
30222SOL    HW293622   8.071   3.581   0.130  2.5529  0.6095 -0.2877
30223SOL     OW93623   7.806   0.477   4.598  0.5948 -0.2679  0.7026
30223SOL    HW193624   7.767   0.401   4.557  1.1471 -0.6499  0.8719
30223SOL    HW293625   7.767   0.552   4.553 -0.6295 -0.6119  1.1495
30224SOL     OW93626   5.788   3.895   7.531  0.0953 -0.1686 -0.5574
30224SOL    HW193627   5.807   3.938   7.614 -1.8592 -1.9962  0.9508
30224SOL    HW293628   5.717   3.834   7.551 -1.7656  0.6040 -3.9938
30225SOL     OW93629   1.083   4.504   0.350 -0.1126 -0.1229  0.4233
30225SOL    HW193630   1.177   4.500   0.367 -0.0747 -1.2012  0.0330
30225SOL    HW293631   1.047   4.427   0.392 -0.7448 -0.0304  0.0720
30226SOL     OW93632  10.245   7.669   0.267  0.0093 -0.2564  0.0642
30226SOL    HW193633  10.320   7.611   0.271  1.9970  2.1435  0.0031
30226SOL    HW293634  10.202   7.659   0.352  2.5531  0.9175  1.5903
30227SOL     OW93635   1.355   8.089   6.892  0.1460  0.0085  0.2639
30227SOL    HW193636   1.444   8.113   6.867  0.7349 -1.8829  0.3648
30227SOL    HW293637   1.337   8.011   6.840 -1.1278 -0.1306  0.8955
30228SOL     OW93638   3.766   3.600   9.894  0.1697 -0.0749 -0.1603
30228SOL    HW193639   3.746   3.565   9.807  0.6460  0.4834 -0.4974
30228SOL    HW293640   3.696   3.662   9.912  1.0125  1.1302 -0.9124
30229SOL     OW93641   3.156   7.244   7.854 -0.7893  0.2374  0.2446
30229SOL    HW193642   3.083   7.228   7.794 -0.6495 -0.8423  0.3375
30229SOL    HW293643   3.216   7.171   7.839  1.0971  1.9459 -1.0119
30230SOL     OW93644   1.308   6.178   8.418  0.3845 -0.7004 -0.5162
30230SOL    HW193645   1.237   6.211   8.473  0.8262  0.0060 -0.3679
30230SOL    HW293646   1.364   6.128   8.478  0.5707 -0.3883 -0.4290
30231SOL     OW93647   0.302   4.042   4.361  0.5888 -0.0186  0.1143
30231SOL    HW193648   0.207   4.034   4.350  0.6697  0.6448 -1.3652
30231SOL    HW293649   0.323   4.129   4.326  1.5504  0.5545  1.9862
30232SOL     OW93650   9.537   2.855   0.895 -0.1448 -1.0526  0.1496
30232SOL    HW193651   9.510   2.816   0.978  0.3705 -1.3389  0.1821
30232SOL    HW293652   9.603   2.919   0.919 -0.4492 -0.6807  0.0201
30233SOL     OW93653   1.733   6.275   8.219 -0.6936 -0.3558 -0.0186
30233SOL    HW193654   1.750   6.205   8.283  1.2234 -0.5337 -0.6508
30233SOL    HW293655   1.646   6.308   8.242 -1.1245 -2.1118  1.0743
30234SOL     OW93656   6.676   6.851   1.973 -0.5359 -0.2738  0.7335
30234SOL    HW193657   6.641   6.860   2.062  0.6390 -0.7201  1.2747
30234SOL    HW293658   6.604   6.816   1.922 -1.0859 -0.4940  1.6420
30235SOL     OW93659  10.072   4.806   0.812 -0.2944  0.5584 -0.1454
30235SOL    HW193660  10.102   4.877   0.868  0.7051  0.3161 -0.3490
30235SOL    HW293661  10.008   4.759   0.865  1.9329 -0.7547  1.5676
30236SOL     OW93662   7.162   9.893   3.967 -0.6126  0.1483 -0.3848
30236SOL    HW193663   7.204   9.818   3.925 -1.0415 -1.0418  1.2090
30236SOL    HW293664   7.069   9.873   3.964 -0.6849  0.2597  0.6685
30237SOL     OW93665   9.501  10.503   6.184 -0.4855  0.0570  0.4295
30237SOL    HW193666   9.583  10.478   6.228 -0.6742  0.3433  0.9556
30237SOL    HW293667   9.466  10.421   6.151 -0.6606 -0.2647  1.3764
30238SOL     OW93668   6.251   2.366   2.024 -0.3362 -0.1876 -0.5705
30238SOL    HW193669   6.323   2.384   1.963 -0.3324 -2.1389 -1.2050
30238SOL    HW293670   6.262   2.431   2.094  1.3791  0.2626 -1.2127
30239SOL     OW93671   0.115  10.295   2.973 -0.4718 -0.2359  0.4281
30239SOL    HW193672   0.099  10.278   3.066  0.5660  2.7455  1.2612
30239SOL    HW293673   0.068  10.225   2.927  0.3715 -2.8098  3.1908
30240SOL     OW93674   7.915   7.570   7.442 -0.3202  0.4794  0.2339
30240SOL    HW193675   7.868   7.613   7.514 -0.0100  0.8168  0.2358
30240SOL    HW293676   7.850   7.511   7.403 -0.2081 -0.4899  1.4334
30241SOL     OW93677   2.169   2.965   3.995 -0.4865  0.0533  1.0539
30241SOL    HW193678   2.164   2.885   3.942 -1.5065 -0.4944  1.9237
30241SOL    HW293679   2.218   3.026   3.941 -2.2010 -0.1878 -0.9471
30242SOL     OW93680   1.898   1.654   9.112  0.4425  0.1633 -0.1121
30242SOL    HW193681   1.912   1.630   9.203 -1.7695 -0.4729  0.1238
30242SOL    HW293682   1.983   1.641   9.070  1.0556 -1.3523  1.4766
30243SOL     OW93683   2.073   3.934   5.694 -0.1809  0.1713 -0.3321
30243SOL    HW193684   2.051   4.001   5.758  0.7480 -0.5196  0.7363
30243SOL    HW293685   2.168   3.940   5.684 -0.2627  0.0028 -1.3566
30244SOL     OW93686   1.571  10.270   3.185 -0.4605 -0.7202  0.3309
30244SOL    HW193687   1.665  10.271   3.200 -0.2862  0.6579 -0.6480
30244SOL    HW293688   1.557  10.197   3.125  0.0092 -0.7882  0.3008
30245SOL     OW93689  10.379   4.044   5.926 -0.0712  0.0200  0.3571
30245SOL    HW193690  10.351   4.030   6.016 -0.1936  2.4634  0.7726
30245SOL    HW293691  10.465   4.087   5.934  0.1773 -0.2450 -0.7013
30246SOL     OW93692   2.864   4.233   9.077  0.0403  0.4987 -0.0991
30246SOL    HW193693   2.825   4.309   9.035 -1.5882  0.2951  0.9572
30246SOL    HW293694   2.811   4.159   9.047  1.8890 -0.3467 -1.4885
30247SOL     OW93695   8.759   7.810   4.101  0.2465  0.0777  0.2387
30247SOL    HW193696   8.767   7.849   4.188  1.9667  1.5127 -0.4972
30247SOL    HW293697   8.824   7.740   4.100  0.9612  0.7313 -0.2006
30248SOL     OW93698   5.857   9.219   7.315  0.0702  0.1137  0.3784
30248SOL    HW193699   5.797   9.292   7.328  0.3333  0.3513  0.2774
30248SOL    HW293700   5.891   9.231   7.227  1.0505  0.5711  0.8040
30249SOL     OW93701   7.669   5.891   5.318 -0.5033 -0.0881 -0.1751
30249SOL    HW193702   7.722   5.878   5.240  1.6365  2.5037  0.6997
30249SOL    HW293703   7.712   5.838   5.386 -0.2960  0.3415  0.0332
30250SOL     OW93704   7.226  10.037   2.617 -0.0556 -0.3328  0.5102
30250SOL    HW193705   7.292  10.106   2.625 -0.5639  0.1010  1.0286
30250SOL    HW293706   7.216  10.003   2.706 -1.1399  0.1772  0.5887
30251SOL     OW93707   6.461   8.528   2.863  0.2535  0.5060  0.0021
30251SOL    HW193708   6.486   8.440   2.893 -0.6727  0.1285 -0.3104
30251SOL    HW293709   6.492   8.532   2.773 -0.0966  0.3308 -0.1280
30252SOL     OW93710   7.487   7.581   5.247  1.3799  0.3940 -0.3071
30252SOL    HW193711   7.392   7.576   5.234  1.2828 -1.9849  0.8592
30252SOL    HW293712   7.500   7.663   5.295 -0.3974 -0.3199  1.5426
30253SOL     OW93713   6.609   9.175   8.928 -0.5701 -0.1045 -0.3062
30253SOL    HW193714   6.522   9.143   8.905 -0.8139  0.4117 -0.1136
30253SOL    HW293715   6.628   9.244   8.863 -0.5427  0.1720 -0.0075
30254SOL     OW93716   8.761   2.833   6.805  0.0920 -0.3004  0.0092
30254SOL    HW193717   8.752   2.763   6.869 -0.7289 -1.1981 -1.0341
30254SOL    HW293718   8.855   2.841   6.790  0.3732  0.5350  1.9268
30255SOL     OW93719   1.176   7.794   4.200 -0.0669  0.1105  0.0263
30255SOL    HW193720   1.256   7.761   4.240  0.2797  1.0965  0.1829
30255SOL    HW293721   1.160   7.877   4.245 -1.0863  0.0026 -0.1223
30256SOL     OW93722   5.108  10.571   3.250 -0.3787 -0.1197  0.3790
30256SOL    HW193723   5.023  10.613   3.233 -0.5369 -0.8678 -0.8143
30256SOL    HW293724   5.172  10.628   3.207 -0.4361 -0.2763  0.0775
30257SOL     OW93725   3.524   7.638   4.898  0.3378  0.2439  0.3582
30257SOL    HW193726   3.565   7.722   4.877  0.2536  0.5096  1.2048
30257SOL    HW293727   3.455   7.628   4.832  0.1570  0.9887  0.4181
30258SOL     OW93728   3.823   6.137   2.924 -0.4405  0.4213  0.1360
30258SOL    HW193729   3.818   6.157   3.017  0.6226 -1.3673  0.6360
30258SOL    HW293730   3.748   6.182   2.885 -1.6168  0.2074  2.0448
30259SOL     OW93731   0.845   2.054  10.202  0.1260 -0.2882  0.1854
30259SOL    HW193732   0.801   2.132  10.168  0.0160  0.7530  2.5424
30259SOL    HW293733   0.924   2.087  10.245  0.3634 -1.5387  0.7694
30260SOL     OW93734   5.278   6.289   3.906 -0.1590  0.6669 -0.4813
30260SOL    HW193735   5.247   6.300   3.995 -0.3119  2.1061 -0.6913
30260SOL    HW293736   5.224   6.218   3.870  1.5695 -1.7069  1.2813
30261SOL     OW93737   2.279   8.313   0.817 -0.3384 -0.0973 -0.3999
30261SOL    HW193738   2.279   8.407   0.801 -1.6361 -0.1981 -1.1612
30261SOL    HW293739   2.360   8.282   0.778  0.7826  0.8584  1.0590
30262SOL     OW93740   6.506   6.530   7.721 -0.0243 -0.3061 -0.1955
30262SOL    HW193741   6.576   6.553   7.782  1.5237 -1.3244 -1.5076
30262SOL    HW293742   6.461   6.612   7.702  1.4425  0.5425 -0.0690
30263SOL     OW93743   0.882   1.205   5.586  0.6251 -0.3127 -0.5208
30263SOL    HW193744   0.939   1.282   5.592 -0.4354  0.4919 -0.5555
30263SOL    HW293745   0.937   1.133   5.617  1.5457  0.4998 -0.1971
30264SOL     OW93746   2.171   5.209   5.542 -0.6802  0.6040  0.1204
30264SOL    HW193747   2.232   5.146   5.503 -0.8291  0.4119  0.1957
30264SOL    HW293748   2.123   5.159   5.608 -1.3512  0.5921 -0.3623
30265SOL     OW93749   5.133   1.188   5.413 -0.0457 -0.7048  0.0727
30265SOL    HW193750   5.186   1.112   5.388  0.5363 -0.6846  1.2140
30265SOL    HW293751   5.192   1.244   5.462 -0.5842  0.3074 -0.4070
30266SOL     OW93752   7.371  10.366   9.399 -0.4915  0.3625  0.5337
30266SOL    HW193753   7.300  10.302   9.403  0.1094 -0.4554 -1.0978
30266SOL    HW293754   7.444  10.319   9.360 -0.3334  2.2656 -1.7111
30267SOL     OW93755   0.913   8.213   0.921 -0.4787  0.2260 -0.1455
30267SOL    HW193756   0.880   8.204   0.832 -0.8031  1.9309 -0.2400
30267SOL    HW293757   0.834   8.216   0.975 -0.2858 -0.6754  0.1978
30268SOL     OW93758   5.303   3.427   0.766  0.8185  0.6796 -0.4939
30268SOL    HW193759   5.288   3.353   0.825 -2.1447  0.8924 -0.8075
30268SOL    HW293760   5.346   3.388   0.689  0.1791 -0.5681 -0.2515
30269SOL     OW93761   4.141   1.318   1.890 -0.3920 -0.2115 -0.0988
30269SOL    HW193762   4.064   1.275   1.928 -1.6142  1.0051 -1.0351
30269SOL    HW293763   4.103   1.389   1.836  1.4589  1.5968  0.8586
30270SOL     OW93764   0.160   7.492  10.275 -0.0338  0.0328  0.3683
30270SOL    HW193765   0.091   7.478  10.340  0.9644  1.3068  1.7624
30270SOL    HW293766   0.140   7.578  10.238 -1.1539 -1.0636 -1.8149
30271SOL     OW93767   8.615   3.774   5.144 -0.0260  0.0884 -0.8915
30271SOL    HW193768   8.555   3.848   5.139 -1.2954 -0.9600 -1.8531
30271SOL    HW293769   8.561   3.698   5.121  1.2197 -1.1527  0.1138
30272SOL     OW93770   3.191   4.695   9.992 -0.0662 -0.1095  0.3273
30272SOL    HW193771   3.253   4.686  10.063 -0.6778 -0.8509  0.7805
30272SOL    HW293772   3.240   4.737   9.921  0.7081  0.0642  0.9672
30273SOL     OW93773   7.042   3.119   6.493 -0.1308  0.4745 -0.2540
30273SOL    HW193774   7.049   3.148   6.584  1.1900  0.2004 -0.2600
30273SOL    HW293775   7.119   3.154   6.449 -0.0839 -0.4736 -0.9736
30274SOL     OW93776   1.249  10.656   0.438 -0.5611  0.3448 -0.0979
30274SOL    HW193777   1.272  10.564   0.436  1.2566  0.7875 -1.4305
30274SOL    HW293778   1.153  10.656   0.436 -0.6354 -1.5147 -3.3307
30275SOL     OW93779   9.355   4.861   0.065  0.4383 -0.0029 -0.7679
30275SOL    HW193780   9.304   4.876   0.145  1.7914 -0.2486  0.1783
30275SOL    HW293781   9.312   4.915  -0.001 -1.2741 -0.4978 -0.1284
30276SOL     OW93782   0.247   8.273   6.335  0.9710  0.4310 -0.0620
30276SOL    HW193783   0.292   8.260   6.418 -1.4859  2.3759  1.7519
30276SOL    HW293784   0.154   8.264   6.357  0.2426 -2.4678 -3.3731
30277SOL     OW93785   5.356   0.945   1.098 -0.0996  0.5205 -0.1469
30277SOL    HW193786   5.343   0.898   1.180 -1.6873  0.1976 -0.5584
30277SOL    HW293787   5.274   0.991   1.082 -0.4557 -0.7424 -2.3680
30278SOL     OW93788   2.208   0.710   2.889  0.0411  0.0402  0.3183
30278SOL    HW193789   2.275   0.762   2.845  0.8244  0.1054  1.5320
30278SOL    HW293790   2.145   0.688   2.820  1.2506  0.0609 -0.8337
30279SOL     OW93791   1.705   7.754   4.063 -0.2175 -0.3947  0.0740
30279SOL    HW193792   1.628   7.807   4.043  0.0334 -0.3769 -0.8809
30279SOL    HW293793   1.689   7.671   4.019 -0.1431 -0.7589  0.7177
30280SOL     OW93794   0.172   1.487   6.362 -0.3645  0.0661 -0.0353
30280SOL    HW193795   0.077   1.479   6.372 -0.2553 -0.1862  0.9037
30280SOL    HW293796   0.198   1.409   6.312 -0.5318 -0.3959  0.5888
30281SOL     OW93797   1.398   1.723   7.635  0.3105  0.3059  0.1887
30281SOL    HW193798   1.315   1.756   7.672 -0.5207  0.3080 -1.5738
30281SOL    HW293799   1.437   1.800   7.593  0.1258 -0.1498 -0.8468
30282SOL     OW93800   9.445   5.808   3.978  0.5443  0.1975 -0.3028
30282SOL    HW193801   9.439   5.898   3.946 -0.6512  0.5911  0.9448
30282SOL    HW293802   9.462   5.817   4.071 -0.4338 -0.8298 -0.0012
30283SOL     OW93803   4.429   8.421   7.081 -0.0005 -0.4842  0.1117
30283SOL    HW193804   4.338   8.428   7.110  0.1576 -0.2793  0.5658
30283SOL    HW293805   4.481   8.441   7.159  0.4346  0.1058 -0.3199
30284SOL     OW93806   0.150  10.356   7.755  0.1811 -0.4150 -0.0859
30284SOL    HW193807   0.134  10.288   7.821  0.2003  0.4359  0.8264
30284SOL    HW293808   0.204  10.313   7.689  0.3651 -1.2320  0.5710
30285SOL     OW93809  10.064   0.829   5.512 -0.6441 -0.0654  0.6499
30285SOL    HW193810  10.004   0.902   5.529 -0.5791  0.1626 -0.0985
30285SOL    HW293811  10.089   0.839   5.421 -0.8483 -1.1857  0.4611
30286SOL     OW93812   3.117   9.413   6.148 -0.1668 -0.3774 -0.6263
30286SOL    HW193813   3.209   9.436   6.161 -0.3262 -1.4458  3.8911
30286SOL    HW293814   3.069   9.489   6.181 -0.9222 -0.3980 -1.6452
30287SOL     OW93815   4.187   9.141   6.406  0.2936 -0.1853  0.2716
30287SOL    HW193816   4.091   9.135   6.408  0.2693  0.3738  1.3836
30287SOL    HW293817   4.210   9.111   6.318 -0.9598  0.4831 -0.3214
30288SOL     OW93818   5.172   0.301   0.066 -0.0629  0.3141  0.0718
30288SOL    HW193819   5.130   0.332  -0.014 -0.1164  1.7607  0.6419
30288SOL    HW293820   5.265   0.302   0.046 -0.0525  1.0242  0.1381
30289SOL     OW93821   3.751   0.147   0.020  0.2285 -0.3863 -0.0418
30289SOL    HW193822   3.775   0.086   0.089  2.5140  0.2508 -0.1873
30289SOL    HW293823   3.724   0.227   0.066 -1.5164 -1.0332  0.1216
30290SOL     OW93824   8.284   7.619   0.742 -0.2350 -0.2066  0.7207
30290SOL    HW193825   8.207   7.562   0.738 -0.4514 -0.0329  1.9370
30290SOL    HW293826   8.356   7.560   0.766 -0.3127 -0.1109  1.2088
30291SOL     OW93827   9.237   0.400   4.144 -0.8413  0.0210  0.1304
30291SOL    HW193828   9.275   0.486   4.123 -0.9172 -0.1807 -0.8974
30291SOL    HW293829   9.158   0.395   4.089 -0.8970 -0.6605  0.2679
30292SOL     OW93830   1.681   9.572   4.126  0.1799  0.3192  0.4455
30292SOL    HW193831   1.747   9.623   4.079 -0.8931 -0.2613 -1.7724
30292SOL    HW293832   1.718   9.562   4.214  1.2861  3.2497  0.4272
30293SOL     OW93833   6.082   1.666   4.490 -0.4609 -0.3128  0.5757
30293SOL    HW193834   6.043   1.727   4.427  1.2228 -0.8702 -1.0964
30293SOL    HW293835   6.145   1.719   4.539  0.3961 -0.4824 -0.3061
30294SOL     OW93836   7.506   9.678  10.690 -0.2523 -0.3862 -0.5640
30294SOL    HW193837   7.476   9.705  10.777 -1.3916 -3.3670  0.1015
30294SOL    HW293838   7.426   9.654  10.643  0.5189 -1.1078 -1.5510
30295SOL     OW93839   7.720   8.580   3.612  0.6385  0.2112 -0.3704
30295SOL    HW193840   7.637   8.622   3.636  0.9095  1.0524 -0.8678
30295SOL    HW293841   7.783   8.611   3.677  0.6828 -0.0017 -0.3100
30296SOL     OW93842   2.583   0.914   3.409 -0.4264  0.0963 -0.8985
30296SOL    HW193843   2.644   0.859   3.458 -1.3899 -1.9727 -1.9137
30296SOL    HW293844   2.575   0.993   3.462  0.7358 -0.8808  0.8308
30297SOL     OW93845   3.555   3.102   3.463 -0.6315 -0.3476  0.1141
30297SOL    HW193846   3.476   3.090   3.516 -0.8491 -1.1009 -0.3729
30297SOL    HW293847   3.586   3.014   3.446 -0.6535 -0.1251 -1.1523
30298SOL     OW93848   9.692   9.753  10.380 -0.1457 -0.0203  0.5292
30298SOL    HW193849   9.609   9.782  10.342 -0.1281  0.8500  1.1299
30298SOL    HW293850   9.669   9.723  10.468 -0.0446 -1.1721  0.1790
30299SOL     OW93851  10.035  10.417  10.243  0.1015  0.1048  0.3272
30299SOL    HW193852  10.097  10.353  10.208  0.3703  0.9064 -0.6963
30299SOL    HW293853   9.965  10.364  10.281  0.3003 -0.8098 -0.5412
30300SOL     OW93854   4.212   5.607  10.435 -0.0319  0.9284  0.3267
30300SOL    HW193855   4.203   5.669  10.362  1.0327 -0.7442 -1.3176
30300SOL    HW293856   4.189   5.522  10.397  2.7386 -0.3618  1.2830
30301SOL     OW93857   3.529   3.327   9.963 -0.0526 -0.6893  0.5426
30301SOL    HW193858   3.452   3.270   9.972 -1.4158  1.1883  1.6797
30301SOL    HW293859   3.502   3.393   9.899  0.9828 -0.5328  0.2544
30302SOL     OW93860   4.377   0.870   5.831  0.3801  0.1966 -0.2455
30302SOL    HW193861   4.356   0.776   5.826  1.2063  0.0260 -0.7204
30302SOL    HW293862   4.291   0.913   5.833 -0.0422 -0.4893 -1.7826
30303SOL     OW93863   6.489   4.700   3.463 -0.1487 -0.0301 -0.0575
30303SOL    HW193864   6.529   4.656   3.388  1.6798  0.2716  0.6762
30303SOL    HW293865   6.547   4.774   3.480 -1.9684  1.4014  0.0808
30304SOL     OW93866   0.383   7.311   4.074  0.7040 -0.1048 -0.5974
30304SOL    HW193867   0.350   7.398   4.053  0.7561 -0.4889 -2.4566
30304SOL    HW293868   0.410   7.317   4.165  0.1778  1.6575 -0.5203
30305SOL     OW93869   4.836   0.452   5.147  0.0088  0.4529  0.1356
30305SOL    HW193870   4.894   0.423   5.217 -0.7764 -0.5328  0.3939
30305SOL    HW293871   4.795   0.372   5.115  1.9815  0.5110 -2.9692
30306SOL     OW93872   4.323   4.048   0.481  0.1646 -0.4445  0.2949
30306SOL    HW193873   4.312   3.955   0.459 -0.9494 -0.6385  1.5379
30306SOL    HW293874   4.368   4.047   0.566 -1.0451  0.0899  0.9661
30307SOL     OW93875   0.664   1.071   9.471  0.2268 -0.3605 -0.4692
30307SOL    HW193876   0.645   1.065   9.378  2.5073 -2.0924 -0.8994
30307SOL    HW293877   0.612   1.001   9.511  0.9812 -1.1043 -0.7756
30308SOL     OW93878   0.537  10.083   4.600 -0.7882 -0.1439 -0.9714
30308SOL    HW193879   0.529  10.114   4.510 -0.8299  2.4489 -0.1476
30308SOL    HW293880   0.620  10.035   4.601 -0.5114  0.2635 -2.2462
30309SOL     OW93881   1.208   4.675   5.152 -0.4207  0.8997 -0.4687
30309SOL    HW193882   1.178   4.678   5.061 -2.3148 -1.3163 -0.0256
30309SOL    HW293883   1.129   4.655   5.202  0.7231  1.2962  1.5941
30310SOL     OW93884   7.538   7.858   1.881  0.5572  0.6252 -0.0257
30310SOL    HW193885   7.538   7.772   1.925 -0.7829 -0.1956 -1.5347
30310SOL    HW293886   7.489   7.914   1.941 -0.1625 -0.1453  0.1368
30311SOL     OW93887   4.630   7.419   0.684  0.2663  0.0691  0.5835
30311SOL    HW193888   4.649   7.359   0.612 -0.1921 -0.8388  1.1903
30311SOL    HW293889   4.626   7.505   0.643  1.5637 -0.2219 -0.2096
30312SOL     OW93890   1.319   6.317   6.296 -0.5092 -0.4953  0.4978
30312SOL    HW193891   1.264   6.327   6.219 -0.0788 -1.9480 -0.0226
30312SOL    HW293892   1.273   6.366   6.365 -1.4014 -0.0155 -0.4212
30313SOL     OW93893   6.202   8.654   8.676  0.3799 -0.2532  0.3917
30313SOL    HW193894   6.140   8.710   8.722 -0.1574 -1.2057  0.8615
30313SOL    HW293895   6.266   8.630   8.743  0.6881 -0.0959  0.1567
30314SOL     OW93896   0.649   5.197   1.436 -0.3172  0.6136 -0.1105
30314SOL    HW193897   0.584   5.136   1.400 -0.5064  1.5976 -1.5004
30314SOL    HW293898   0.730   5.176   1.389  0.4867 -0.7405  1.7505
30315SOL     OW93899   9.689   0.455   9.256 -0.0143  0.1925 -0.1684
30315SOL    HW193900   9.733   0.429   9.338  0.7540  0.1808 -0.5782
30315SOL    HW293901   9.605   0.408   9.259  0.1040  0.0022  0.5024
30316SOL     OW93902   4.030   8.383  10.020  0.3386 -0.2656 -0.2001
30316SOL    HW193903   3.966   8.431   9.968 -0.8435  1.5195  2.6788
30316SOL    HW293904   3.976   8.325  10.076  1.4995 -1.5507 -0.3546
30317SOL     OW93905   5.474   0.720   2.342 -0.0001 -0.1130 -0.1566
30317SOL    HW193906   5.528   0.777   2.397  0.9010  0.1738 -1.3003
30317SOL    HW293907   5.385   0.736   2.372  0.4482  0.1420  1.1204
30318SOL     OW93908   6.969   9.792   4.905  0.2867 -0.2463 -0.9575
30318SOL    HW193909   6.911   9.868   4.913 -1.0677 -1.0826 -2.3293
30318SOL    HW293910   7.004   9.798   4.816  0.5617 -0.9652 -0.8986
30319SOL     OW93911   4.487  10.323   7.610 -0.2772  0.3494 -0.2024
30319SOL    HW193912   4.521  10.369   7.533 -1.0498  1.2194 -0.0421
30319SOL    HW293913   4.544  10.352   7.682 -0.7114  1.0165 -0.1166
30320SOL     OW93914   8.970   3.963   1.850 -0.5501  0.1850  0.1380
30320SOL    HW193915   8.903   3.903   1.882 -1.5889  1.8347  1.2544
30320SOL    HW293916   9.052   3.927   1.884 -1.2800  0.0539  1.8815
30321SOL     OW93917   5.827   8.587   8.474  0.2621  0.0339 -0.1457
30321SOL    HW193918   5.852   8.569   8.384 -0.7262 -0.0988 -0.4006
30321SOL    HW293919   5.732   8.588   8.473  0.2464  0.6677  0.7723
30322SOL     OW93920   1.406   2.072   1.898 -0.3674  0.1748  0.4178
30322SOL    HW193921   1.468   2.122   1.951  0.1289 -0.7107  0.6778
30322SOL    HW293922   1.388   1.993   1.949 -0.4108 -0.3670 -0.4193
30323SOL     OW93923   9.188   6.162   4.206  0.3952  0.4771  0.6289
30323SOL    HW193924   9.255   6.099   4.234  0.7827  0.3424 -0.5470
30323SOL    HW293925   9.154   6.126   4.124  0.6155  1.7856 -0.0639
30324SOL     OW93926   8.646   1.993   4.159 -0.5906 -0.1448 -0.0760
30324SOL    HW193927   8.666   1.900   4.168 -0.6036 -0.2511 -1.0320
30324SOL    HW293928   8.583   2.012   4.229 -2.1480 -1.3192 -1.1042
30325SOL     OW93929  10.390   9.334   3.044 -0.2376 -0.4352 -0.6434
30325SOL    HW193930  10.307   9.335   3.091 -0.7289  0.6555 -1.5069
30325SOL    HW293931  10.439   9.263   3.085 -0.7136  0.3196  1.3763
30326SOL     OW93932   9.654   4.319   7.652 -0.8606 -0.1141 -0.2959
30326SOL    HW193933   9.572   4.359   7.624 -1.7518  0.1253  2.3704
30326SOL    HW293934   9.666   4.348   7.742  1.0273 -1.8928  0.1170
30327SOL     OW93935   3.363   0.888   8.882 -0.5473 -0.3856  0.1328
30327SOL    HW193936   3.404   0.806   8.854 -1.0710 -1.2204  1.7005
30327SOL    HW293937   3.433   0.936   8.926 -1.0468 -1.6598  2.5023
30328SOL     OW93938   2.868   9.876   6.385 -0.5622 -0.1885 -0.2165
30328SOL    HW193939   2.919   9.799   6.410  0.4734  0.4710 -0.2048
30328SOL    HW293940   2.934   9.943   6.365 -1.4216  0.4491 -1.0291
30329SOL     OW93941   1.758   4.377   8.279  0.2313  0.5148 -0.2852
30329SOL    HW193942   1.786   4.409   8.193  1.1935 -1.2557 -0.6860
30329SOL    HW293943   1.750   4.456   8.333  2.2137  1.4566 -1.2573
30330SOL     OW93944   6.956   4.315   0.554  0.6971 -0.2595 -0.4182
30330SOL    HW193945   6.927   4.224   0.549  2.5354 -0.9733  0.7756
30330SOL    HW293946   7.004   4.330   0.473 -0.0509 -0.1841 -0.8481
30331SOL     OW93947   3.324   0.883   0.156 -0.0063 -0.4778 -0.4108
30331SOL    HW193948   3.419   0.881   0.163 -0.0747 -1.5326  0.5494
30331SOL    HW293949   3.293   0.852   0.242 -1.2279  0.6144 -0.4281
30332SOL     OW93950   5.507   2.332  10.582 -0.3628 -0.0247 -0.0210
30332SOL    HW193951   5.527   2.263  10.518 -0.3513 -1.4638  1.4775
30332SOL    HW293952   5.584   2.388  10.582  0.6934 -1.4154  0.4682
30333SOL     OW93953   2.465   1.820   1.399  0.2068 -0.2364  0.3247
30333SOL    HW193954   2.486   1.733   1.365  2.2098  0.6435 -0.8258
30333SOL    HW293955   2.537   1.842   1.458  0.6643  1.3242 -0.7493
30334SOL     OW93956   4.179   5.512   6.061 -0.5023 -0.5471  0.3822
30334SOL    HW193957   4.153   5.604   6.057 -0.1736 -0.4437  0.6343
30334SOL    HW293958   4.099   5.466   6.088 -1.5075 -0.7077 -2.5302
30335SOL     OW93959   2.201   4.174   6.480 -0.5404  0.1432 -0.1466
30335SOL    HW193960   2.269   4.237   6.502  1.1995 -1.1047 -1.7280
30335SOL    HW293961   2.230   4.091   6.519 -1.3852 -0.3078 -0.4350
30336SOL     OW93962   1.145   7.948   3.691  0.1347  0.0479  0.3370
30336SOL    HW193963   1.123   7.991   3.608  1.4661 -0.2689 -0.2031
30336SOL    HW293964   1.076   7.883   3.702  0.3054 -0.3856 -0.8986
30337SOL     OW93965   2.977   7.508   6.162 -0.1941  0.1841 -0.1248
30337SOL    HW193966   2.982   7.603   6.151  0.1541  0.2946  0.8877
30337SOL    HW293967   2.949   7.496   6.253  1.9837 -0.6924  0.4917
30338SOL     OW93968   3.924   7.556   3.047 -0.8167  0.2115 -0.3273
30338SOL    HW193969   3.893   7.628   3.101  0.5457  1.0710 -0.6488
30338SOL    HW293970   4.019   7.557   3.058 -0.7094 -1.0250 -0.9726
30339SOL     OW93971   5.796   8.960   7.071  0.0696  0.0285 -0.0544
30339SOL    HW193972   5.880   8.929   7.103 -0.0417 -0.6833 -0.4364
30339SOL    HW293973   5.742   8.968   7.150  0.2832 -0.1844  0.1127
30340SOL     OW93974   6.044   4.384   3.147  0.0984 -0.0691  0.0655
30340SOL    HW193975   6.137   4.397   3.127  0.9516 -0.2086  3.3183
30340SOL    HW293976   6.036   4.290   3.162 -0.9485 -0.2737 -1.5813
30341SOL     OW93977   5.157   9.290   4.346 -0.2011  0.2087 -0.6668
30341SOL    HW193978   5.161   9.328   4.433  0.4767 -0.2474 -0.4906
30341SOL    HW293979   5.087   9.224   4.352  0.4044 -0.4069 -0.2241
30342SOL     OW93980   3.549   2.960  10.094 -0.2732  0.1287 -0.0034
30342SOL    HW193981   3.614   2.896  10.065  0.1921  1.3874 -2.0338
30342SOL    HW293982   3.582   2.991  10.178  2.2429  1.2118 -1.2633
30343SOL     OW93983   9.275   8.995   4.487  0.1966 -0.1987 -0.3750
30343SOL    HW193984   9.293   8.920   4.543 -2.3203  0.5809  1.7092
30343SOL    HW293985   9.346   8.996   4.423  2.9195 -1.5892  2.3695
30344SOL     OW93986   0.376   5.436   2.059  0.1453  0.3058 -0.1429
30344SOL    HW193987   0.404   5.520   2.095 -0.3731  0.0752  0.8450
30344SOL    HW293988   0.444   5.375   2.086  0.8444  0.5014 -1.3944
30345SOL     OW93989   8.743   0.035   8.136  0.0002  0.3746  0.4484
30345SOL    HW193990   8.682  -0.039   8.140 -0.1555  0.4982  0.3791
30345SOL    HW293991   8.829  -0.006   8.125 -0.1754  0.2320 -0.4287
30346SOL     OW93992   6.543   2.759   6.970 -0.0904  0.6640  0.6591
30346SOL    HW193993   6.513   2.849   6.980 -0.2299  0.6566  0.3346
30346SOL    HW293994   6.568   2.752   6.878 -1.0447  0.0860  0.4277
30347SOL     OW93995   2.926   2.917   2.386 -0.1794  0.4343  0.0564
30347SOL    HW193996   3.014   2.909   2.350  1.4937 -0.8781  3.9818
30347SOL    HW293997   2.880   2.839   2.353  0.7331  0.1163 -0.5006
30348SOL     OW93998   5.905   7.872   0.762 -0.2534 -0.4516 -0.4058
30348SOL    HW193999   5.957   7.846   0.837  0.0602 -0.4735 -0.6302
30348SOL    HW294000   5.962   7.857   0.686 -0.1538  0.6223 -0.5621
30349SOL     OW94001   5.866   6.042   5.702 -0.0244  0.2225  0.3118
30349SOL    HW194002   5.786   6.059   5.752 -0.1097  0.8588 -0.0316
30349SOL    HW294003   5.895   6.128   5.673 -0.0318 -0.1378 -0.8169
30350SOL     OW94004   3.057   5.599   1.477  0.0404 -0.0509 -0.1764
30350SOL    HW194005   3.029   5.521   1.526  1.0900 -0.2267  0.1558
30350SOL    HW294006   3.092   5.565   1.395  2.5101 -0.1414  0.8497
30351SOL     OW94007   6.981   3.413   1.156  0.2380 -0.3984 -0.3460
30351SOL    HW194008   6.972   3.508   1.164 -1.0258 -0.5243 -0.1431
30351SOL    HW294009   6.991   3.399   1.062  1.0947 -0.0218 -0.3212
30352SOL     OW94010   3.586   1.796   1.992 -0.2753 -0.1700 -0.1515
30352SOL    HW194011   3.543   1.725   2.038 -1.1910 -0.9904 -2.1679
30352SOL    HW294012   3.668   1.758   1.960  0.0527  0.2051  0.2257
30353SOL     OW94013   9.407   3.361   7.870 -0.3933 -0.1416  0.5362
30353SOL    HW194014   9.329   3.412   7.892 -1.2743 -0.7809 -0.9605
30353SOL    HW294015   9.451   3.412   7.802  1.2554  0.8645  2.2702
30354SOL     OW94016   1.808   2.635   2.430  0.2591 -0.5384  0.2145
30354SOL    HW194017   1.788   2.586   2.510 -0.5137  1.2752  1.1850
30354SOL    HW294018   1.883   2.589   2.392 -1.1795 -3.2202  0.3633
30355SOL     OW94019   1.344   4.275   9.781 -0.3007 -0.7767 -0.6163
30355SOL    HW194020   1.387   4.283   9.696 -0.0701 -1.0540 -0.5263
30355SOL    HW294021   1.375   4.192   9.817 -1.0141 -1.0484 -0.6050
30356SOL     OW94022   3.250   6.456   5.724 -0.0334  0.3587  0.0723
30356SOL    HW194023   3.310   6.480   5.795  0.5332  1.6811 -0.8150
30356SOL    HW294024   3.246   6.534   5.669  0.6742 -1.0899 -2.1572
30357SOL     OW94025   6.349   6.829   3.727  0.4766 -0.0570 -0.6319
30357SOL    HW194026   6.259   6.795   3.727  1.5947 -3.4104  0.6263
30357SOL    HW294027   6.379   6.817   3.637  0.6148 -1.9285 -0.3661
30358SOL     OW94028   4.595   2.410   0.166 -0.9400  0.0704 -0.5554
30358SOL    HW194029   4.622   2.500   0.148  0.6330 -0.0791  0.9133
30358SOL    HW294030   4.518   2.419   0.222 -0.0513  0.5196  0.6208
30359SOL     OW94031   0.068   9.661   5.248  0.3246  0.2403 -0.3702
30359SOL    HW194032  -0.000   9.727   5.232 -0.0221  0.4813  1.7771
30359SOL    HW294033   0.030   9.579   5.218  0.2508  0.7948 -1.8725
30360SOL     OW94034   6.109   5.874   9.913  0.0686  0.3631 -0.2760
30360SOL    HW194035   6.100   5.789   9.958  0.7927  2.5442  4.6669
30360SOL    HW294036   6.203   5.889   9.911 -0.1039  1.5133 -0.0224
30361SOL     OW94037   7.091   6.869   2.648  0.1034  0.0507  0.0308
30361SOL    HW194038   7.039   6.801   2.690  0.9653 -0.3335  0.4940
30361SOL    HW294039   7.132   6.825   2.574 -1.9208  0.8695 -1.6961
30362SOL     OW94040   5.517   6.033   7.626 -0.1823  0.4594 -0.3476
30362SOL    HW194041   5.584   6.099   7.641 -0.3045  0.7911 -1.1956
30362SOL    HW294042   5.565   5.958   7.590 -0.3348  0.9511 -1.6302
30363SOL     OW94043  10.506   5.317   1.179  0.0080  0.6204 -0.5833
30363SOL    HW194044  10.546   5.231   1.168  0.9510  1.1683 -1.7855
30363SOL    HW294045  10.534   5.346   1.265 -0.1189 -0.1640 -0.2655
30364SOL     OW94046   9.839   0.951   2.307  0.4543  0.0973 -0.2233
30364SOL    HW194047   9.914   1.010   2.304  0.5011  0.0554  0.1240
30364SOL    HW294048   9.778   0.993   2.367  0.6328 -0.3814  0.2973
30365SOL     OW94049   1.084   5.921  10.339  0.2196  0.3786  0.1342
30365SOL    HW194050   1.088   6.017  10.334  1.5515  0.2911 -1.3850
30365SOL    HW294051   1.075   5.893  10.248 -2.2165 -0.9172  0.7041
30366SOL     OW94052   8.731   9.584   0.722  0.3886  0.1055 -0.3061
30366SOL    HW194053   8.743   9.635   0.802  0.2732 -0.5154  0.1167
30366SOL    HW294054   8.773   9.500   0.741 -0.7635 -0.5161 -0.4141
30367SOL     OW94055   9.116   2.310   4.529 -0.1521  0.4073 -0.0608
30367SOL    HW194056   9.045   2.260   4.569 -0.1091 -0.2860 -0.8279
30367SOL    HW294057   9.169   2.340   4.603 -0.9948  0.5580  0.4865
30368SOL     OW94058   5.921   5.424   3.279  0.0280  0.0710  0.3443
30368SOL    HW194059   5.859   5.469   3.337  0.8303 -0.9741  2.0539
30368SOL    HW294060   5.965   5.360   3.334  2.2778  0.3970 -0.9456
30369SOL     OW94061   3.067   1.092   1.688  0.2290  0.6114 -0.3227
30369SOL    HW194062   3.088   0.999   1.689 -0.9856  0.2933 -1.3668
30369SOL    HW294063   3.101   1.123   1.604 -0.0003  0.9446 -0.2951
30370SOL     OW94064   9.496   3.850   0.690 -0.3437 -0.0297 -0.1370
30370SOL    HW194065   9.556   3.832   0.617 -0.3698 -0.3431 -0.0799
30370SOL    HW294066   9.554   3.862   0.766 -0.3698 -0.5781 -0.0328
30371SOL     OW94067   8.744   0.735   4.341 -0.4602  0.2947  1.0173
30371SOL    HW194068   8.756   0.651   4.297 -0.6486 -0.2140  1.8985
30371SOL    HW294069   8.762   0.801   4.274  0.4835 -0.4489  0.5251
30372SOL     OW94070   3.906  10.048   1.515  0.0524 -0.6743  1.0654
30372SOL    HW194071   3.912  10.138   1.548  2.8357 -0.3686  0.0359
30372SOL    HW294072   3.954   9.996   1.579  1.0828 -0.8885  0.1525
30373SOL     OW94073   8.777   9.118  10.230 -0.0814 -0.4934 -0.0894
30373SOL    HW194074   8.808   9.202  10.266  0.2893 -0.1827 -1.0892
30373SOL    HW294075   8.682   9.127  10.228 -0.0284  0.0775 -0.5583
30374SOL     OW94076   1.096   6.704   0.301  0.0979 -0.3205  0.0785
30374SOL    HW194077   1.058   6.734   0.218  3.3387  1.6526 -0.9085
30374SOL    HW294078   1.095   6.781   0.358  1.5238 -0.4558  0.3454
30375SOL     OW94079   2.430   2.487   5.582 -0.2546 -0.3807 -0.0850
30375SOL    HW194080   2.479   2.568   5.593 -0.5325 -0.3115  0.6995
30375SOL    HW294081   2.475   2.424   5.639  1.2024 -1.3637 -2.1999
30376SOL     OW94082   8.076   7.382   5.108  0.6745  0.4430  0.0502
30376SOL    HW194083   8.080   7.477   5.105  1.0923  0.5025  1.7940
30376SOL    HW294084   8.062   7.356   5.016 -0.7141  2.2120 -0.2969
30377SOL     OW94085   1.886  10.594  10.251  0.5322 -0.6887 -0.3883
30377SOL    HW194086   1.856  10.527  10.312 -1.5471  0.2224 -0.3060
30377SOL    HW294087   1.845  10.571  10.168 -1.5694  1.2797  0.0103
30378SOL     OW94088   7.373   2.013   8.954 -0.3872 -0.3780 -0.0960
30378SOL    HW194089   7.394   1.995   8.863 -2.8872  0.1039 -0.8508
30378SOL    HW294090   7.351   1.928   8.992 -3.5165 -0.1656 -1.1989
30379SOL     OW94091   6.069   5.613   1.006 -0.2742  0.3632 -0.3593
30379SOL    HW194092   6.144   5.568   1.045 -1.0695 -1.4080 -0.7672
30379SOL    HW294093   6.034   5.668   1.077  1.3989  1.2739 -0.1864
30380SOL     OW94094   9.203   1.637   8.566 -0.4724 -0.2009  0.1637
30380SOL    HW194095   9.200   1.715   8.511 -2.0224 -1.4731 -1.6397
30380SOL    HW294096   9.269   1.581   8.525  0.9712  0.2531  1.7127
30381SOL     OW94097   7.417   4.835   8.918  0.1628 -0.8353 -0.1244
30381SOL    HW194098   7.348   4.771   8.937  1.8782 -2.8488 -0.2816
30381SOL    HW294099   7.498   4.787   8.933  1.5518  1.2882 -0.4666
30382SOL     OW94100   7.615   3.434   0.824  0.0436 -0.2382 -0.4721
30382SOL    HW194101   7.704   3.401   0.811  0.0775 -0.5346  0.4159
30382SOL    HW294102   7.622   3.528   0.808  0.2257 -0.4564 -1.7357
30383SOL     OW94103   3.083   7.910   7.830 -0.9246 -0.2746  0.2216
30383SOL    HW194104   3.113   7.907   7.921 -2.4775  0.0782  0.7777
30383SOL    HW294105   3.163   7.904   7.778  0.1895  1.4610  1.6276
30384SOL     OW94106   9.733   6.070   4.596  0.1063  0.3112 -0.4494
30384SOL    HW194107   9.811   6.099   4.644  0.0820 -1.5378  0.8162
30384SOL    HW294108   9.661   6.120   4.635  0.2331 -0.3899  0.7130
30385SOL     OW94109   7.183   9.975   5.698  0.3824 -0.5644  0.0615
30385SOL    HW194110   7.222   9.889   5.716 -0.9809 -0.9271  1.5600
30385SOL    HW294111   7.166   9.974   5.604  0.2456 -2.0172  0.0676
30386SOL     OW94112   9.675   6.291   6.527 -0.6199 -0.0233 -0.0041
30386SOL    HW194113   9.659   6.386   6.533  0.1137  0.1793 -0.9594
30386SOL    HW294114   9.594   6.256   6.490 -0.9004  0.2203  0.3647
30387SOL     OW94115   5.625   8.028   9.072  0.4372 -0.6579  0.3841
30387SOL    HW194116   5.684   7.961   9.106  2.2687  1.2067  1.0135
30387SOL    HW294117   5.665   8.058   8.990 -2.1685 -2.6663 -1.8484
30388SOL     OW94118   4.889   7.923   1.874  0.4869 -0.2593 -0.5344
30388SOL    HW194119   4.934   7.848   1.835  1.9044  1.1546 -1.7286
30388SOL    HW294120   4.883   7.902   1.967 -0.3435 -2.4150 -1.0254
30389SOL     OW94121   8.995   5.206   0.001 -0.4523  0.5541  0.2915
30389SOL    HW194122   8.965   5.121   0.033  0.5173  0.6061  1.3637
30389SOL    HW294123   9.066   5.231   0.059  1.3303  0.7120 -1.8351
30390SOL     OW94124   9.132   7.321   6.533  0.8402  0.0637 -0.1299
30390SOL    HW194125   9.172   7.238   6.507  0.7770 -0.6076  1.7739
30390SOL    HW294126   9.192   7.388   6.501  1.5872 -0.7673 -0.5254
30391SOL     OW94127   8.738   2.365   4.194  0.2370  0.2582  0.1327
30391SOL    HW194128   8.733   2.338   4.103 -1.1308  1.4197 -0.1739
30391SOL    HW294129   8.725   2.460   4.192  1.9562  0.5707  1.4021
30392SOL     OW94130   2.996   5.615   8.998  0.3521  0.2856  0.6707
30392SOL    HW194131   2.942   5.538   8.983  0.9642  0.1282 -0.8892
30392SOL    HW294132   2.954   5.659   9.073 -1.6635 -0.0669 -0.1701
30393SOL     OW94133   6.503   1.122   3.207  0.4214 -0.1523  0.0314
30393SOL    HW194134   6.486   1.207   3.167 -1.6909  0.6679  2.4361
30393SOL    HW294135   6.573   1.138   3.270 -1.4179  0.4213  2.0416
30394SOL     OW94136   9.671   4.853   8.853 -0.0597  0.1064 -0.5593
30394SOL    HW194137   9.621   4.778   8.820 -0.0010  0.2988 -1.0897
30394SOL    HW294138   9.733   4.874   8.783 -1.8814  2.3703 -1.6259
30395SOL     OW94139   8.742  10.414   3.822 -0.4069 -0.2983 -0.0657
30395SOL    HW194140   8.653  10.441   3.799 -0.4284 -0.3718 -0.0684
30395SOL    HW294141   8.750  10.432   3.915 -0.6107 -0.8030  0.0530
30396SOL     OW94142   4.887   8.145  10.595 -0.1322  0.0035  0.1135
30396SOL    HW194143   4.891   8.111  10.684 -0.2955  1.3779  0.6626
30396SOL    HW294144   4.972   8.123  10.557  0.7284  1.1834  1.2802
30397SOL     OW94145   1.810   3.877   7.170  0.7471 -0.2311 -0.0485
30397SOL    HW194146   1.741   3.899   7.107  0.3721 -0.3019  0.3340
30397SOL    HW294147   1.784   3.792   7.206  1.3959 -0.5857 -0.4023
30398SOL     OW94148   7.937   2.579   2.354  0.2276 -0.5326 -0.4769
30398SOL    HW194149   7.875   2.530   2.408  0.2038  2.8872  3.0256
30398SOL    HW294150   7.885   2.651   2.318  1.4279  0.4400 -0.3181
30399SOL     OW94151   8.355   3.117   7.687  0.4162 -0.1312 -0.0497
30399SOL    HW194152   8.431   3.079   7.641  1.4600  0.2660  1.2751
30399SOL    HW294153   8.369   3.093   7.778 -1.0443  0.0320  0.2287
30400SOL     OW94154   0.151   0.537   3.810 -0.1326 -0.2161 -0.0676
30400SOL    HW194155   0.126   0.454   3.850  0.6038  0.3808  1.7680
30400SOL    HW294156   0.245   0.544   3.827 -0.6427  2.2707  2.5154
30401SOL     OW94157   9.064   0.280   1.750  0.3616  0.0578  0.1735
30401SOL    HW194158   9.147   0.288   1.797 -0.3359  0.9205  1.3378
30401SOL    HW294159   9.013   0.356   1.780 -0.7762 -0.3599 -0.6479
30402SOL     OW94160   3.259   0.109   8.786 -0.1910 -0.0712  0.5199
30402SOL    HW194161   3.292   0.198   8.789  1.0981 -0.4769 -0.6660
30402SOL    HW294162   3.332   0.054   8.814  0.2144 -0.9807 -2.0687
30403SOL     OW94163   8.336   3.730   3.042  0.2184 -0.0785  0.1565
30403SOL    HW194164   8.359   3.686   2.960 -1.6510  0.5888 -0.7714
30403SOL    HW294165   8.291   3.810   3.015  0.2855  0.5629  1.8419
30404SOL     OW94166   5.944   4.310   5.918 -0.1941  0.0132  0.1013
30404SOL    HW194167   5.921   4.218   5.932 -1.1504 -0.0076 -1.4713
30404SOL    HW294168   5.861   4.357   5.921  0.0584  0.5611 -1.0037
30405SOL     OW94169   9.708   3.374   8.770  0.1120 -0.6084 -0.0981
30405SOL    HW194170   9.678   3.311   8.703  0.6476 -1.5372  0.5098
30405SOL    HW294171   9.702   3.459   8.727  1.2078 -1.2602 -1.6275
30406SOL     OW94172   3.078  10.291   8.264  0.1415 -0.8308  0.3318
30406SOL    HW194173   3.096  10.330   8.349  0.3930 -1.3463  0.5168
30406SOL    HW294174   3.048  10.202   8.283  0.9690 -1.2220 -0.1445
30407SOL     OW94175  10.213   4.927   3.167  0.4401  0.5773  0.2167
30407SOL    HW194176  10.220   4.913   3.261 -1.1604  1.7844  0.5673
30407SOL    HW294177  10.224   4.840   3.129  0.1917 -0.0891  1.5904
30408SOL     OW94178   4.098   3.213   0.375 -0.3614 -0.2702  0.7057
30408SOL    HW194179   4.097   3.148   0.445  1.6974  1.8488  2.8925
30408SOL    HW294180   4.066   3.293   0.416 -0.8219  0.6430 -1.3028
30409SOL     OW94181   8.160   5.320   7.973  0.7314 -0.1878  0.2130
30409SOL    HW194182   8.132   5.345   8.061 -0.6112  0.0393 -0.2553
30409SOL    HW294183   8.129   5.230   7.963 -0.2933  0.2154 -0.4747
30410SOL     OW94184   0.363   6.790   7.804  0.1178  0.1461 -0.5956
30410SOL    HW194185   0.308   6.738   7.862  1.1939 -0.3990 -0.0362
30410SOL    HW294186   0.379   6.871   7.853 -0.9601  0.7165 -1.1627
30411SOL     OW94187   2.303   1.002   3.269 -0.2189 -0.2595 -0.2852
30411SOL    HW194188   2.256   0.953   3.337 -0.6245  1.7345  0.9535
30411SOL    HW294189   2.236   1.059   3.230  0.7990  1.4882  0.4263
30412SOL     OW94190   4.917   4.946   7.014  0.1405 -0.0729 -0.0015
30412SOL    HW194191   4.949   4.903   7.093 -1.1272  0.0652  0.6138
30412SOL    HW294192   4.853   4.884   6.977 -1.6575  1.1696  0.8600
30413SOL     OW94193   1.361   6.531   7.716  0.3063  0.1935 -0.2269
30413SOL    HW194194   1.413   6.611   7.701  0.9070 -0.0635  0.4333
30413SOL    HW294195   1.419   6.475   7.768 -0.3287 -0.4438 -0.2026
30414SOL     OW94196   8.821   0.064   2.333 -0.6530  0.6186 -0.0896
30414SOL    HW194197   8.728   0.038   2.339 -0.2969 -0.5741  0.7257
30414SOL    HW294198   8.820   0.146   2.284 -2.0802  0.2595 -0.7118
30415SOL     OW94199   2.662  10.473   2.387 -0.6348 -0.2161 -1.1878
30415SOL    HW194200   2.726  10.541   2.367  0.0637 -0.7480 -0.7839
30415SOL    HW294201   2.595  10.483   2.319 -0.1322  0.3510 -1.6105
30416SOL     OW94202   2.566   7.588   1.186 -0.1944  0.7212  0.1832
30416SOL    HW194203   2.501   7.562   1.251  0.6282  3.3450  2.2146
30416SOL    HW294204   2.649   7.552   1.219 -0.1561 -0.3013 -0.9572
30417SOL     OW94205   7.273   5.234   6.008 -0.0174  0.0821 -0.7456
30417SOL    HW194206   7.276   5.311   6.065 -0.3886  0.2312 -0.9287
30417SOL    HW294207   7.198   5.183   6.039 -0.2708  0.2056 -1.1526
30418SOL     OW94208   6.614  10.548   6.934  0.1717  0.1463 -0.4318
30418SOL    HW194209   6.660  10.488   6.875  0.3330  1.1332 -1.3278
30418SOL    HW294210   6.678  10.617   6.952 -0.3212  0.5378 -0.1573
30419SOL     OW94211   6.892   0.968   0.691 -0.0801  0.1848  0.1338
30419SOL    HW194212   6.912   1.055   0.656  1.3854 -0.4944 -0.8176
30419SOL    HW294213   6.811   0.980   0.741  1.5772  2.6971  2.4379
30420SOL     OW94214   0.208   6.465   5.337 -0.0167  0.3254  0.0609
30420SOL    HW194215   0.261   6.479   5.416  0.1126 -0.6893  0.1724
30420SOL    HW294216   0.241   6.383   5.300  1.7170  2.0415 -2.5261
30421SOL     OW94217   9.840   6.701   3.964  0.3327 -0.0251  0.1249
30421SOL    HW194218   9.881   6.726   4.046 -0.3775  1.2259  0.1311
30421SOL    HW294219   9.818   6.609   3.975  1.4821 -0.2410  0.7956
30422SOL     OW94220   1.403   9.603   5.727  0.3277 -0.3090 -0.1916
30422SOL    HW194221   1.402   9.672   5.661 -0.7792 -0.3046 -0.1881
30422SOL    HW294222   1.438   9.526   5.681 -0.3554 -0.2850 -0.7758
30423SOL     OW94223   9.952   3.796   3.786  0.3580  0.1609 -0.0056
30423SOL    HW194224   9.978   3.888   3.786  1.5037 -0.1247  1.2809
30423SOL    HW294225   9.924   3.779   3.876  2.0598 -1.2222  0.3130
30424SOL     OW94226   7.821   1.645   4.192  0.9449  0.1563  0.2016
30424SOL    HW194227   7.760   1.644   4.119  0.6755 -1.1208  0.4215
30424SOL    HW294228   7.841   1.738   4.206  0.3621  0.4638 -0.9450
30425SOL     OW94229   7.766   1.126   3.649 -0.1998 -0.3814 -0.0656
30425SOL    HW194230   7.785   1.042   3.607  2.0726  0.6819 -1.3761
30425SOL    HW294231   7.702   1.168   3.592  0.4533 -0.2766 -0.7346
30426SOL     OW94232   9.658   7.923   9.117 -0.3596 -0.3059 -0.6496
30426SOL    HW194233   9.742   7.885   9.090  0.1832  1.4985 -1.6196
30426SOL    HW294234   9.681   7.999   9.170 -1.4223 -0.7169  0.4594
30427SOL     OW94235   0.299   0.048   3.307  0.3599 -0.2991  0.8910
30427SOL    HW194236   0.322   0.083   3.393  0.9909  0.9624  0.2209
30427SOL    HW294237   0.222   0.098   3.280 -1.1115 -2.0603  1.5506
30428SOL     OW94238   8.476   7.548   1.788  0.0289 -0.1321  0.7898
30428SOL    HW194239   8.557   7.508   1.758 -1.4858 -2.6290 -0.2720
30428SOL    HW294240   8.437   7.586   1.709  0.2405  1.3183  1.3442
30429SOL     OW94241   9.345   4.346  10.416 -0.5789  0.0655 -0.0484
30429SOL    HW194242   9.418   4.402  10.440  0.3133 -0.1165 -2.0971
30429SOL    HW294243   9.279   4.406  10.382 -0.4335  0.0460 -0.3688
30430SOL     OW94244   6.654   1.975   4.313 -0.6793  0.0251 -0.4632
30430SOL    HW194245   6.655   2.053   4.257  0.1592 -0.3106 -0.9500
30430SOL    HW294246   6.653   1.902   4.251 -0.9132 -0.3527 -0.0174
30431SOL     OW94247   1.028   7.776   9.387 -0.1055 -0.0616  0.4691
30431SOL    HW194248   1.071   7.856   9.418  0.8323 -0.1549 -0.5261
30431SOL    HW294249   1.087   7.706   9.415  0.4854 -0.1876 -0.9955
30432SOL     OW94250   6.542   3.867   6.705  0.7474  0.1513  0.7786
30432SOL    HW194251   6.507   3.929   6.769  1.7173  2.6183 -0.9124
30432SOL    HW294252   6.623   3.835   6.744  0.0761 -0.3343  1.8150
30433SOL     OW94253   8.859   4.728   3.432  1.1219  0.4413  0.0102
30433SOL    HW194254   8.847   4.657   3.495 -1.3651 -1.3617 -2.2623
30433SOL    HW294255   8.836   4.807   3.481 -2.6903 -1.0665  0.9944
30434SOL     OW94256   0.508   0.651   8.391  0.3515 -0.0263 -0.0098
30434SOL    HW194257   0.600   0.674   8.378  0.4341  0.7211  1.6803
30434SOL    HW294258   0.507   0.556   8.399  0.8197 -0.1323 -1.0543
30435SOL     OW94259   8.561  10.377   7.802  0.2206  1.0136  0.1394
30435SOL    HW194260   8.644  10.400   7.762  0.6963  0.6526  0.8849
30435SOL    HW294261   8.546  10.286   7.776 -0.1470  1.1987 -0.3164
30436SOL     OW94262   7.739   8.684   8.121  0.1076 -0.0122 -0.0848
30436SOL    HW194263   7.816   8.634   8.096 -0.3755 -0.9679  0.2898
30436SOL    HW294264   7.681   8.620   8.163 -0.2248  0.9893  1.0572
30437SOL     OW94265   9.887   7.236   2.182  0.0747  0.2904 -0.7889
30437SOL    HW194266   9.798   7.207   2.162 -0.3648  0.2351  1.1140
30437SOL    HW294267   9.921   7.171   2.243 -0.3217  2.6854  2.2126
30438SOL     OW94268   3.460   2.701  10.505  0.0971  0.0480 -0.0581
30438SOL    HW194269   3.446   2.795  10.514 -0.3313 -0.1326  1.4248
30438SOL    HW294270   3.389   2.671  10.448 -0.0454  0.5361 -0.1381
30439SOL     OW94271   1.726   9.565   7.665  0.5393 -0.2595 -0.2084
30439SOL    HW194272   1.720   9.528   7.754  0.2540  0.1246 -0.0658
30439SOL    HW294273   1.721   9.489   7.608  0.2060 -0.4710  0.0912
30440SOL     OW94274   7.876   9.669   0.717  0.4745 -0.9272 -0.0083
30440SOL    HW194275   7.935   9.609   0.672  0.7673  0.1762 -1.1321
30440SOL    HW294276   7.901   9.663   0.809  1.5415 -1.3487 -0.3160
30441SOL     OW94277   5.525   6.437   8.818  0.4768  0.1014  0.0098
30441SOL    HW194278   5.591   6.368   8.812 -0.4531 -0.8766  0.5945
30441SOL    HW294279   5.444   6.391   8.842 -0.3940  1.2774 -0.5618
30442SOL     OW94280   1.504   8.540   2.251  0.0040  0.2174  0.1898
30442SOL    HW194281   1.599   8.554   2.242 -0.3922  1.9912 -2.6716
30442SOL    HW294282   1.489   8.535   2.345  2.8540  0.4515  0.7512
30443SOL     OW94283   5.673   3.849   8.109  0.2466  0.0679 -0.4439
30443SOL    HW194284   5.726   3.917   8.067  1.0936 -0.6653 -0.5888
30443SOL    HW294285   5.698   3.768   8.065 -0.3901 -0.4203  0.0645
30444SOL     OW94286  10.270   8.811   3.100  0.2482 -0.3836  0.1612
30444SOL    HW194287  10.280   8.883   3.038 -0.2992 -0.9986 -0.6601
30444SOL    HW294288  10.343   8.752   3.080  0.8764  0.0689  1.0363
30445SOL     OW94289   5.111   7.283   6.814  0.1029 -0.4579  0.0953
30445SOL    HW194290   5.073   7.298   6.728 -0.3930 -0.1179  0.3747
30445SOL    HW294291   5.036   7.275   6.873  0.4492 -0.0968  0.5945
30446SOL     OW94292   8.257   7.418   4.370 -0.1689 -0.2488 -0.0497
30446SOL    HW194293   8.256   7.330   4.333 -1.2817 -0.6962  0.9708
30446SOL    HW294294   8.284   7.474   4.297 -1.3590 -1.2046 -1.2981
30447SOL     OW94295   4.299   8.887   9.699  0.5539 -0.1725 -0.3953
30447SOL    HW194296   4.284   8.979   9.721  0.8665  0.1049 -1.2796
30447SOL    HW294297   4.372   8.861   9.754  2.9948  1.2287 -2.7012
30448SOL     OW94298   0.706   5.238   7.798 -0.1705  0.0883  0.3441
30448SOL    HW194299   0.704   5.274   7.710 -0.4316  0.1094  0.3569
30448SOL    HW294300   0.673   5.149   7.789 -0.2882  0.1219  0.4333
30449SOL     OW94301   4.946   6.433   3.390 -0.2005 -0.2261  0.4365
30449SOL    HW194302   5.024   6.378   3.403  0.2762  0.4707  0.5551
30449SOL    HW294303   4.878   6.390   3.443 -0.1307 -1.2866 -0.2871
30450SOL     OW94304   5.564   4.784   0.593 -0.5178  0.1990  0.5580
30450SOL    HW194305   5.597   4.869   0.564 -2.1706  0.5843 -0.3553
30450SOL    HW294306   5.545   4.736   0.513  0.5973 -1.1469  1.0680
30451SOL     OW94307   0.259   8.766   4.417  0.0187 -0.2836  0.4778
30451SOL    HW194308   0.320   8.749   4.344 -0.7838 -0.7350 -0.1068
30451SOL    HW294309   0.281   8.700   4.482 -0.8139 -1.4395 -0.3642
30452SOL     OW94310   4.118   6.465   8.318  0.2466  0.2617 -0.2434
30452SOL    HW194311   4.143   6.379   8.283 -2.0371 -0.9120  0.7899
30452SOL    HW294312   4.061   6.445   8.392  0.8465  2.7061  0.9853
30453SOL     OW94313   5.387  10.280   2.544  0.2146 -0.1419 -0.3395
30453SOL    HW194314   5.458  10.288   2.480 -0.5192  0.2773 -1.1292
30453SOL    HW294315   5.389  10.188   2.571 -0.0486 -0.5716 -1.6893
30454SOL     OW94316   2.489   6.972   0.336  0.5075 -0.2371  0.0232
30454SOL    HW194317   2.475   6.912   0.409 -2.0720  0.0129 -0.1935
30454SOL    HW294318   2.584   6.969   0.321  0.8782 -1.6903  2.1533
30455SOL     OW94319  10.310   1.108   7.501 -0.3352 -0.5899 -0.4218
30455SOL    HW194320  10.369   1.121   7.428  0.2346 -0.3062  0.0856
30455SOL    HW294321  10.224   1.134   7.467 -0.0402 -0.2443 -0.9187
30456SOL     OW94322   8.801   8.996   3.114  0.7271 -0.2753  0.1896
30456SOL    HW194323   8.756   9.005   3.030 -0.3723  0.0983  0.7964
30456SOL    HW294324   8.890   8.969   3.091  0.8102  0.9980 -1.1525
30457SOL     OW94325   1.648   9.141   3.641 -0.6542  0.2901 -0.3467
30457SOL    HW194326   1.740   9.117   3.647 -0.8844 -0.4427  0.3508
30457SOL    HW294327   1.601   9.071   3.687 -1.4324  1.4373  0.6710
30458SOL     OW94328   8.679   9.627   4.714  0.2315 -0.4341  0.3232
30458SOL    HW194329   8.695   9.566   4.786 -2.0739 -1.0598  0.3922
30458SOL    HW294330   8.647   9.706   4.757 -0.2885 -0.4961  0.0630
30459SOL     OW94331   1.309   3.082   2.297 -0.3596  0.4197 -0.6620
30459SOL    HW194332   1.308   2.990   2.324  0.1390  0.7758  0.6631
30459SOL    HW294333   1.396   3.113   2.323 -1.3894  1.9056  1.2678
30460SOL     OW94334   3.606   0.676   3.931  0.5241  0.5054  0.3342
30460SOL    HW194335   3.555   0.741   3.980 -3.0423 -1.9527  0.2817
30460SOL    HW294336   3.622   0.606   3.993 -0.1540 -0.7001 -0.7885
30461SOL     OW94337   9.115   1.289  10.224  0.2083 -1.0081  0.6778
30461SOL    HW194338   9.074   1.375  10.224 -1.3234 -1.6913  1.3512
30461SOL    HW294339   9.185   1.295  10.160  0.1649  0.7456  0.7494
30462SOL     OW94340  10.029   7.029   4.227 -0.6812  0.2212 -0.4090
30462SOL    HW194341  10.057   6.992   4.311 -1.0592 -1.2481 -0.9009
30462SOL    HW294342   9.973   7.103   4.251 -3.0899 -1.8596  0.7141
30463SOL     OW94343  10.389   4.825   5.393  0.2748 -0.1998 -0.8453
30463SOL    HW194344  10.299   4.796   5.382  0.0427  0.1335  0.0557
30463SOL    HW294345  10.441   4.745   5.394 -0.4316 -0.7745  2.3774
30464SOL     OW94346   2.558   3.550   8.215 -0.4212 -0.0873 -0.2420
30464SOL    HW194347   2.538   3.490   8.143 -0.4814 -0.3421 -0.0148
30464SOL    HW294348   2.654   3.555   8.216 -0.4307  0.2045 -0.5715
30465SOL     OW94349   4.664   7.401   3.894 -0.9523  0.4143 -0.0874
30465SOL    HW194350   4.640   7.390   3.802 -1.0728  1.2842 -0.1748
30465SOL    HW294351   4.756   7.426   3.892 -0.8548  0.0714  0.0559
30466SOL     OW94352   2.461   4.585   1.980  0.1202 -0.0124 -0.0427
30466SOL    HW194353   2.543   4.538   1.963  0.4681  0.7658 -0.5934
30466SOL    HW294354   2.406   4.521   2.024  0.9950 -0.5768  0.2717
30467SOL     OW94355   1.239   5.994   9.483  0.6595 -0.2186 -0.0964
30467SOL    HW194356   1.146   5.982   9.504  0.9361 -0.1654  1.2416
30467SOL    HW294357   1.277   5.906   9.491  1.0688  0.0577  1.2668
30468SOL     OW94358   7.798   5.679   8.614  0.1445 -0.6812 -0.1562
30468SOL    HW194359   7.778   5.751   8.674  0.1995  0.5912 -1.6088
30468SOL    HW294360   7.712   5.645   8.587 -0.0665  1.3179 -2.3053
30469SOL     OW94361   1.060   7.043  10.116  0.0829 -0.2007 -0.2182
30469SOL    HW194362   1.031   7.109  10.180  1.2792 -2.0219  2.3875
30469SOL    HW294363   1.063   7.090  10.033  0.2939  2.8751  1.3795
30470SOL     OW94364   5.541   6.862   4.501 -0.1220  0.2589 -0.2856
30470SOL    HW194365   5.519   6.942   4.453  0.7501  0.5924 -0.1463
30470SOL    HW294366   5.475   6.857   4.571  1.0573  2.0521  1.0507
30471SOL     OW94367   9.529   2.017   0.705 -0.5943 -0.0467  0.1269
30471SOL    HW194368   9.555   2.091   0.651  0.4487  0.1298  0.8336
30471SOL    HW294369   9.576   2.030   0.788 -0.1453 -1.6553  0.1570
30472SOL     OW94370   3.559   6.188   7.618 -0.1709  0.3074  0.0798
30472SOL    HW194371   3.492   6.171   7.551 -0.8477 -0.3958  0.8984
30472SOL    HW294372   3.573   6.102   7.659  1.0920  0.4933  0.0607
30473SOL     OW94373   9.306   5.267   7.091 -0.4850  0.5768 -0.4257
30473SOL    HW194374   9.285   5.321   7.168 -2.6050  0.6073 -0.9706
30473SOL    HW294375   9.228   5.273   7.036  0.5369 -0.4027 -2.0461
30474SOL     OW94376   9.089   9.755   4.213 -0.0972 -0.5450 -0.0880
30474SOL    HW194377   9.173   9.762   4.260  0.0352  1.1909 -0.5203
30474SOL    HW294378   9.026   9.797   4.271 -0.4453 -0.7836 -0.2928
30475SOL     OW94379   2.791   4.855   8.018 -0.9574  0.2279 -0.0498
30475SOL    HW194380   2.764   4.890   8.103 -1.0122  0.0017  0.0270
30475SOL    HW294381   2.859   4.792   8.038 -0.0762  1.0778 -0.2731
30476SOL     OW94382   8.177   9.153   1.487 -0.7202  0.0917 -0.0447
30476SOL    HW194383   8.083   9.173   1.487 -0.4218  2.0971  2.6594
30476SOL    HW294384   8.214   9.214   1.423 -1.0359  1.0404  0.6407
30477SOL     OW94385   1.837   0.490   7.944 -0.5414 -0.5551  0.3318
30477SOL    HW194386   1.859   0.455   8.030  1.7964  1.2644  0.5794
30477SOL    HW294387   1.897   0.444   7.884 -0.4281 -0.0645  0.0591
30478SOL     OW94388   0.013   2.461   8.422  0.0881 -0.3832  0.7883
30478SOL    HW194389   0.018   2.373   8.458  0.1326  0.1999  2.2695
30478SOL    HW294390  -0.078   2.470   8.393  0.3222 -1.2330 -0.2854
30479SOL     OW94391   8.005   0.101   3.863  0.2785 -0.2272  0.0996
30479SOL    HW194392   8.016   0.146   3.947  0.8126 -1.2048  0.5796
30479SOL    HW294393   7.931   0.043   3.876 -0.5966  0.6936 -0.6136
30480SOL     OW94394   8.235   1.429   3.234 -0.0487  0.1995 -0.0629
30480SOL    HW194395   8.171   1.423   3.163  0.6395 -2.9647 -0.5677
30480SOL    HW294396   8.301   1.490   3.200 -1.4105  1.4542 -0.6156
30481SOL     OW94397   9.424   3.515   0.016  0.4005 -0.2989  0.3097
30481SOL    HW194398   9.383   3.457   0.080 -0.1686 -0.0989  0.1301
30481SOL    HW294399   9.458   3.456  -0.051 -0.3987 -0.4263 -0.0029
30482SOL     OW94400   6.319   9.340   7.229  0.3322  0.3278 -0.3593
30482SOL    HW194401   6.412   9.318   7.220  0.3694 -0.0082  0.6781
30482SOL    HW294402   6.276   9.287   7.162  0.9202  0.8052 -1.1373
30483SOL     OW94403   6.024   1.984   3.951 -0.0049  0.6055 -0.1113
30483SOL    HW194404   5.932   2.010   3.943 -0.6341 -1.3796  0.3009
30483SOL    HW294405   6.062   2.008   3.867 -0.7555  1.8800 -0.1272
30484SOL     OW94406   2.548   3.837   6.624  0.5770  0.0803  0.3766
30484SOL    HW194407   2.532   3.752   6.584 -1.0289  0.9667 -0.9999
30484SOL    HW294408   2.582   3.817   6.711  0.8669 -1.9420 -0.1573
30485SOL     OW94409   9.471   9.607   8.481 -0.9456  0.3870 -0.1044
30485SOL    HW194410   9.524   9.638   8.408 -1.6280  0.0565 -0.7477
30485SOL    HW294411   9.424   9.531   8.447 -1.2227  0.1875  0.6931
30486SOL     OW94412   7.465   9.423   2.712  0.0533 -0.2940  0.2497
30486SOL    HW194413   7.409   9.501   2.716  1.0907  0.5114 -0.5667
30486SOL    HW294414   7.471   9.393   2.803 -1.6108 -0.3572  0.3760
30487SOL     OW94415   7.238   1.814   4.370 -0.2494  0.0526 -0.4448
30487SOL    HW194416   7.180   1.877   4.415 -0.3389 -0.3355 -0.0041
30487SOL    HW294417   7.325   1.836   4.402 -0.5719 -2.1890  2.4614
30488SOL     OW94418   6.111   4.949   4.839 -0.3444 -0.2230  0.1248
30488SOL    HW194419   6.061   5.009   4.895 -1.3751  0.3831 -1.3810
30488SOL    HW294420   6.054   4.873   4.828 -0.3723 -0.1271 -0.4616
30489SOL     OW94421   1.778   6.637   2.097 -0.8292 -0.2923  0.4641
30489SOL    HW194422   1.813   6.576   2.032  1.0707 -1.1616  2.1839
30489SOL    HW294423   1.855   6.683   2.130 -1.9104  1.0334  1.1988
30490SOL     OW94424   5.382   7.821   2.196 -0.2677  0.0913 -0.4473
30490SOL    HW194425   5.356   7.883   2.128  0.8916  1.3913  0.2335
30490SOL    HW294426   5.318   7.833   2.266 -0.4073  0.0578 -0.5680
30491SOL     OW94427   0.358   2.781   2.847  0.5024 -0.0522  0.2916
30491SOL    HW194428   0.325   2.767   2.758  2.6829  0.1111 -0.6027
30491SOL    HW294429   0.297   2.843   2.886  0.0362  0.6242 -1.4244
30492SOL     OW94430   7.409   8.480   9.537  0.3223 -0.2637  0.3178
30492SOL    HW194431   7.367   8.541   9.477 -1.3072 -0.3704  1.3120
30492SOL    HW294432   7.490   8.524   9.563  1.3134 -0.3953 -2.2236
30493SOL     OW94433   5.717   8.432   3.327 -0.2795 -0.8812 -0.1803
30493SOL    HW194434   5.723   8.379   3.247  1.0414 -2.2629  0.7810
30493SOL    HW294435   5.805   8.468   3.339 -0.3331 -1.0863  0.9129
30494SOL     OW94436   9.428   9.578   1.221  0.6785  0.5165  0.5303
30494SOL    HW194437   9.374   9.589   1.300  1.7215 -0.9048  1.4800
30494SOL    HW294438   9.429   9.665   1.181 -1.4939  0.8135  1.0007
30495SOL     OW94439  10.570  10.147   8.055 -0.0388  0.0291 -0.1577
30495SOL    HW194440  10.509  10.219   8.038  1.2901  0.9486 -1.2654
30495SOL    HW294441  10.524  10.068   8.025 -0.4649  0.7767 -1.5535
30496SOL     OW94442   2.456   0.302   2.408 -0.5661 -0.3942  0.0500
30496SOL    HW194443   2.450   0.335   2.319  1.9568  1.1241  0.3535
30496SOL    HW294444   2.458   0.207   2.399  1.1270 -0.2508 -1.6765
30497SOL     OW94445   0.221   4.527   3.013 -0.2039 -0.0647 -0.0736
30497SOL    HW194446   0.191   4.566   3.095 -0.0620 -2.8024  1.3999
30497SOL    HW294447   0.197   4.435   3.020 -1.2482 -0.2250 -3.6734
30498SOL     OW94448  10.622   3.748   4.776 -0.1365 -0.2222 -0.6578
30498SOL    HW194449  10.562   3.702   4.834 -0.7516  0.9701 -0.3213
30498SOL    HW294450  10.685   3.682   4.749 -0.6988 -1.1294  0.2130
30499SOL     OW94451   9.279   3.866   7.588  0.3084  0.1975 -0.4046
30499SOL    HW194452   9.248   3.822   7.667 -0.3298  2.1648  0.4944
30499SOL    HW294453   9.331   3.940   7.620 -0.0505  1.1024 -1.8065
30500SOL     OW94454   8.358   6.761   8.365  0.2350 -0.2093  0.0438
30500SOL    HW194455   8.451   6.740   8.357  0.5707  0.9395  0.6841
30500SOL    HW294456   8.356   6.856   8.373 -1.2510  0.1443 -3.2239
30501SOL     OW94457   7.752   9.491   3.607  0.2095 -0.0413  0.0434
30501SOL    HW194458   7.659   9.478   3.626  0.3551 -0.1306  0.7140
30501SOL    HW294459   7.765   9.451   3.521 -0.0324 -1.4787  0.6492
30502SOL     OW94460   8.299   1.389   2.395 -0.0704  0.2998  0.4938
30502SOL    HW194461   8.245   1.395   2.316  2.7199 -1.2509 -1.7394
30502SOL    HW294462   8.367   1.456   2.383  0.3428  0.1207  1.6463
30503SOL     OW94463   3.358   1.206   9.792  0.4395 -0.2174 -0.1512
30503SOL    HW194464   3.383   1.158   9.712  2.0218  0.4847 -0.1115
30503SOL    HW294465   3.441   1.222   9.836 -0.3648 -0.0114  1.3224
30504SOL     OW94466   2.047   3.485   6.013  0.9127  0.1455  0.4305
30504SOL    HW194467   2.031   3.478   6.107  0.8578  2.4486  0.6431
30504SOL    HW294468   1.967   3.523   5.977  1.2321  0.0233 -0.4498
30505SOL     OW94469   6.921  10.165   3.710  0.0701 -0.5323  0.4490
30505SOL    HW194470   6.864  10.238   3.686  0.9160  0.3073  0.9100
30505SOL    HW294471   6.957  10.190   3.795  0.4726 -1.4366  0.5595
30506SOL     OW94472   1.829   6.359   3.056 -0.4145 -0.7368  0.3833
30506SOL    HW194473   1.764   6.317   3.112 -3.1852  1.6607 -0.7287
30506SOL    HW294474   1.819   6.316   2.971  0.7787 -1.5372  0.6245
30507SOL     OW94475   7.332   3.780   8.129  0.3522  0.1100  0.7268
30507SOL    HW194476   7.244   3.745   8.141  0.2579  0.2092  0.3223
30507SOL    HW294477   7.389   3.702   8.131  0.3525  0.1238  1.8639
30508SOL     OW94478   9.482   2.000   8.017  1.0317  0.9200  0.2900
30508SOL    HW194479   9.533   1.923   8.045 -0.1934 -0.3379 -0.7782
30508SOL    HW294480   9.546   2.057   7.975  1.8378  0.1096  0.3697
30509SOL     OW94481  10.061   5.221   5.235 -0.2138 -0.0710  0.2318
30509SOL    HW194482  10.040   5.180   5.152 -1.2366 -0.4526  0.6544
30509SOL    HW294483   9.980   5.213   5.287  0.0231  1.1896  0.8405
30510SOL     OW94484  10.166   1.318   4.973  0.3817  0.2313  0.0389
30510SOL    HW194485  10.091   1.371   4.999 -1.6883 -2.0212 -0.9501
30510SOL    HW294486  10.211   1.299   5.055 -0.5286  1.0550  0.7501
30511SOL     OW94487  10.103   5.266   0.309  0.2789 -0.2475  0.1723
30511SOL    HW194488  10.096   5.348   0.260 -0.2026  0.0798  0.7645
30511SOL    HW294489  10.036   5.209   0.272 -0.0738 -0.0062  0.4337
30512SOL     OW94490   9.667   4.720   2.909  0.5278 -0.0406 -0.5442
30512SOL    HW194491   9.594   4.699   2.850 -1.6282  0.1737  1.8975
30512SOL    HW294492   9.657   4.659   2.982  2.7235  0.1353 -0.0219
30513SOL     OW94493   9.305   4.309   5.949  0.1092 -0.4229  0.3212
30513SOL    HW194494   9.248   4.252   5.897  0.9931 -1.5693  0.5664
30513SOL    HW294495   9.247   4.379   5.979 -0.8705 -0.8349 -0.5100
30514SOL     OW94496   2.212  10.426   1.742 -0.0525  0.7821 -0.4671
30514SOL    HW194497   2.251  10.488   1.680  0.4427 -0.2891 -1.2564
30514SOL    HW294498   2.249  10.341   1.717 -1.3225  0.0439  0.0826
30515SOL     OW94499   5.797   1.546   9.094  0.1892 -0.2698 -0.3250
30515SOL    HW194500   5.743   1.623   9.079 -0.4440 -0.3926  1.1165
30515SOL    HW294501   5.814   1.510   9.007 -0.8535  0.5821 -0.8971
30516SOL     OW94502   1.670   1.086   7.657  0.0219  0.3393  0.2303
30516SOL    HW194503   1.683   1.044   7.742  2.3561  2.3371  0.9931
30516SOL    HW294504   1.608   1.157   7.674  0.2031  0.5078  0.1926
30517SOL     OW94505   5.541   2.750   3.766  0.3597  0.7508 -0.4372
30517SOL    HW194506   5.455   2.788   3.751 -0.0094  0.6285  1.1842
30517SOL    HW294507   5.528   2.656   3.755 -0.0891  0.5862  1.2409
30518SOL     OW94508   4.258   8.328   4.093  0.0526  0.1856  0.8679
30518SOL    HW194509   4.296   8.246   4.122 -0.9921  0.1920  2.3497
30518SOL    HW294510   4.164   8.317   4.105 -0.1726  1.2892  0.2776
30519SOL     OW94511   7.135   4.141   1.897  0.9577  0.1358  0.1343
30519SOL    HW194512   7.100   4.202   1.832  0.4465  0.2588  0.5197
30519SOL    HW294513   7.147   4.060   1.849 -2.1646 -0.6723  0.4669
30520SOL     OW94514   6.996   0.745   0.780  0.4994 -0.5430 -0.0865
30520SOL    HW194515   7.041   0.725   0.697 -1.1793 -0.3423 -1.0844
30520SOL    HW294516   6.959   0.832   0.766 -0.8320 -1.0174  0.4120
30521SOL     OW94517   3.035   5.946   5.812 -0.3385  0.1776  0.0062
30521SOL    HW194518   3.130   5.942   5.819 -0.4506 -1.4221  1.1236
30521SOL    HW294519   3.007   5.985   5.895 -0.6427  1.3605 -0.6308
30522SOL     OW94520   3.272   4.695   6.980 -0.4987 -0.4153  0.3017
30522SOL    HW194521   3.261   4.604   6.951 -1.0510  0.4200 -2.3840
30522SOL    HW294522   3.364   4.701   7.007 -0.6929 -1.9592  1.4327
30523SOL     OW94523   0.502   4.189   4.711  0.1040 -0.5905  0.2524
30523SOL    HW194524   0.591   4.223   4.711 -0.3849  0.7615 -0.2633
30523SOL    HW294525   0.511   4.098   4.740  2.0283 -1.5199 -2.8604
30524SOL     OW94526   1.731   6.389   4.063  0.2835  0.1392  0.1660
30524SOL    HW194527   1.718   6.482   4.042 -0.8599 -0.3500 -1.4576
30524SOL    HW294528   1.683   6.342   3.995  0.0212 -1.6536  1.5250
30525SOL     OW94529   0.022   5.586   1.537 -1.0241  1.1590 -0.3983
30525SOL    HW194530  -0.008   5.670   1.572 -0.0171  0.6441  1.9663
30525SOL    HW294531   0.007   5.524   1.609 -0.7487 -0.4604 -1.6873
30526SOL     OW94532   9.722   8.187   1.919 -0.1284 -0.1838 -0.5244
30526SOL    HW194533   9.728   8.144   2.004  3.6888  1.3572  0.1874
30526SOL    HW294534   9.761   8.124   1.858 -0.8478 -0.4086 -0.7633
30527SOL     OW94535   1.889   3.782   3.032  0.6130 -0.1736  0.2486
30527SOL    HW194536   1.925   3.870   3.026  0.4053 -0.1054 -0.0355
30527SOL    HW294537   1.964   3.724   3.020  0.4499 -0.0380 -1.6572
30528SOL     OW94538   4.151   8.134   3.555  0.4688  0.3099 -0.6347
30528SOL    HW194539   4.171   8.126   3.462  2.8011 -0.2248 -0.1468
30528SOL    HW294540   4.183   8.220   3.580 -1.0732  0.8773 -0.4890
30529SOL     OW94541   1.334   6.441   0.982 -0.4987  0.2417  0.1059
30529SOL    HW194542   1.275   6.511   0.954 -1.7908 -0.6174  0.6246
30529SOL    HW294543   1.419   6.466   0.945 -0.8362  2.2513  0.5502
30530SOL     OW94544   5.137   3.891   7.535 -0.1960 -0.0913 -0.0276
30530SOL    HW194545   5.047   3.891   7.568 -0.4692  1.8875 -0.6313
30530SOL    HW294546   5.155   3.799   7.514 -2.4203 -0.4082 -0.7897
30531SOL     OW94547   6.921   1.410   0.420 -0.1083 -0.4663 -0.1071
30531SOL    HW194548   7.015   1.420   0.436 -0.2551  0.0354  0.4758
30531SOL    HW294549   6.880   1.463   0.487 -0.8200 -0.9443 -0.1555
30532SOL     OW94550   8.562   0.632   2.383  0.1120  0.0334 -0.0833
30532SOL    HW194551   8.615   0.702   2.344 -1.1520  0.9685 -0.1699
30532SOL    HW294552   8.618   0.554   2.378  1.0634  0.7542 -1.1381
30533SOL     OW94553   1.389   2.499   5.723 -0.0623  0.1059 -0.5576
30533SOL    HW194554   1.399   2.470   5.633 -0.2934 -0.5748 -0.3720
30533SOL    HW294555   1.430   2.586   5.725 -0.8242  0.5050 -1.5044
30534SOL     OW94556   6.120   1.362   9.955 -0.1210 -0.3996 -0.2695
30534SOL    HW194557   6.034   1.404   9.964  0.1580  0.0510  0.3860
30534SOL    HW294558   6.118   1.289  10.016 -0.0134 -0.3429 -0.1976
30535SOL     OW94559  10.632   4.216  10.372  0.2880 -0.0146  0.9048
30535SOL    HW194560  10.698   4.255  10.316  3.2531  0.7063  4.4732
30535SOL    HW294561  10.610   4.133  10.329  1.5676  0.8847 -1.6905
30536SOL     OW94562   8.598   8.326   6.847  0.6362  0.1021 -0.5074
30536SOL    HW194563   8.643   8.317   6.763  0.3208  1.2830 -0.8303
30536SOL    HW294564   8.511   8.289   6.832  1.2456 -1.6051 -0.0654
30537SOL     OW94565   9.313   1.522   1.952  0.0932  0.7161  0.0894
30537SOL    HW194566   9.231   1.513   1.903 -0.2018 -1.1171  0.8698
30537SOL    HW294567   9.362   1.588   1.903 -1.3466  0.9875 -1.0669
30538SOL     OW94568   4.981   0.896   7.002 -0.3663 -0.1224  0.4998
30538SOL    HW194569   5.063   0.911   6.954  0.5743 -0.8198  1.8163
30538SOL    HW294570   4.912   0.921   6.940  0.8237  0.2913 -0.7185
30539SOL     OW94571   5.361   2.503   8.014  0.3682  0.8244 -0.3064
30539SOL    HW194572   5.382   2.533   7.926  0.8730  2.1947  0.2494
30539SOL    HW294573   5.402   2.568   8.072 -1.3961  0.9263  0.9113
30540SOL     OW94574   5.978   2.111   5.829 -0.2656 -0.6492 -0.2055
30540SOL    HW194575   6.044   2.133   5.895  1.1750 -0.3249 -1.6763
30540SOL    HW294576   6.004   2.162   5.753 -2.2676 -0.5135 -0.8285
30541SOL     OW94577  10.045   2.079  10.493 -0.0477 -0.2621 -0.1425
30541SOL    HW194578  10.126   2.030  10.508  0.4715  0.6524  0.1654
30541SOL    HW294579   9.987   2.053  10.564 -0.0123 -0.8957 -0.3414
30542SOL     OW94580   6.007   0.046   3.214  0.0145  0.2529 -0.2760
30542SOL    HW194581   5.942   0.115   3.201 -0.4817  0.0334  0.8651
30542SOL    HW294582   6.011   0.001   3.130 -0.9364  0.6092 -0.5311
30543SOL     OW94583   8.548   7.025   3.559 -0.1305 -0.8809 -0.4427
30543SOL    HW194584   8.564   6.943   3.512 -1.6720 -1.0402 -0.7352
30543SOL    HW294585   8.601   7.018   3.638 -0.1146 -2.0884 -0.5461
30544SOL     OW94586   5.309   0.841   0.810 -0.0839 -0.0181 -0.7458
30544SOL    HW194587   5.394   0.837   0.767 -0.9565  1.0516 -2.7675
30544SOL    HW294588   5.326   0.881   0.895  1.3690  0.7644 -1.3609
30545SOL     OW94589   7.482  10.287   6.544 -0.0420  0.5796  0.2838
30545SOL    HW194590   7.571  10.267   6.572 -0.0405 -0.5107 -0.4484
30545SOL    HW294591   7.485  10.282   6.449 -1.2909 -1.4185  0.2957
30546SOL     OW94592   3.244   8.228   1.509 -1.1177 -0.0652  0.4263
30546SOL    HW194593   3.185   8.153   1.521 -0.0565 -0.9277  0.4710
30546SOL    HW294594   3.201   8.300   1.555 -1.4581 -1.0429  1.7071
30547SOL     OW94595   3.421   7.188   0.623 -0.1171  0.4260  0.3660
30547SOL    HW194596   3.490   7.212   0.686  0.4073 -2.2082  0.9413
30547SOL    HW294597   3.458   7.211   0.538  0.9396  0.3028  0.7636
30548SOL     OW94598   9.189   3.716   7.388  0.1214 -0.1891  0.1553
30548SOL    HW194599   9.218   3.778   7.456  0.5000 -0.4775  0.2606
30548SOL    HW294600   9.225   3.751   7.307  0.8917 -0.6194  0.3043
30549SOL     OW94601   1.042   6.797   8.057  0.0828  0.7119 -0.6509
30549SOL    HW194602   0.995   6.875   8.027 -1.3449  0.1748  0.0806
30549SOL    HW294603   1.053   6.744   7.978 -0.1668  1.0534 -0.9176
30550SOL     OW94604   4.712   1.885   0.944  0.1230  0.1900  0.3097
30550SOL    HW194605   4.637   1.878   0.884  0.1491  0.7302  0.2145
30550SOL    HW294606   4.676   1.863   1.030 -0.7144  2.7653  0.6934
30551SOL     OW94607   1.938   6.169   9.447  0.1921  0.6726  0.6230
30551SOL    HW194608   1.898   6.194   9.364  0.3574  1.1720  0.6878
30551SOL    HW294609   1.961   6.077   9.436 -0.9310  0.3838  0.5761
30552SOL     OW94610   0.052   9.145   7.263 -0.1738 -0.2084 -0.4309
30552SOL    HW194611  -0.037   9.162   7.232 -0.9069  0.2405  1.7280
30552SOL    HW294612   0.071   9.218   7.322  1.1176 -0.9941  0.1724
30553SOL     OW94613   2.884   4.459   6.953 -0.0931  0.0208 -0.0724
30553SOL    HW194614   2.789   4.447   6.956 -0.1447  0.5317  0.4869
30553SOL    HW294615   2.915   4.393   6.890 -0.8777  0.2406 -0.7009
30554SOL     OW94616   7.871   1.513   1.069  0.3419  0.4058 -0.8748
30554SOL    HW194617   7.954   1.531   1.114  0.2072 -1.8804  0.4563
30554SOL    HW294618   7.878   1.559   0.985  2.5640  1.0118 -0.4149
30555SOL     OW94619   9.988   3.571   5.056 -0.2036  0.2720 -0.3816
30555SOL    HW194620   9.964   3.479   5.045  0.6742  0.0566 -0.5288
30555SOL    HW294621  10.081   3.576   5.033  0.2965  0.8308  1.4832
30556SOL     OW94622   4.455   8.985   9.376  0.9811 -0.3704  0.2596
30556SOL    HW194623   4.411   9.052   9.428  0.4673 -0.9064  0.5251
30556SOL    HW294624   4.468   8.912   9.436 -1.1730 -1.6870 -0.7453
30557SOL     OW94625   8.488   7.067   9.935  0.0073  0.6303 -0.3739
30557SOL    HW194626   8.394   7.051   9.926 -0.1379  1.4572 -0.4139
30557SOL    HW294627   8.517   7.003  10.000 -0.0333 -1.4959 -2.3017
30558SOL     OW94628   1.077   8.799   9.347 -0.1362 -0.3314 -0.7498
30558SOL    HW194629   1.042   8.807   9.258 -1.0677 -0.8035 -0.4425
30558SOL    HW294630   1.020   8.854   9.400 -0.0576 -0.6554 -0.3226
30559SOL     OW94631   4.594   2.097   1.784 -0.9230  0.2847 -0.0516
30559SOL    HW194632   4.622   2.042   1.857 -0.0116 -0.3940 -0.8784
30559SOL    HW294633   4.650   2.175   1.790 -0.7713  0.1790 -0.0764
30560SOL     OW94634   4.461   8.993   4.131 -0.5101 -0.1401  0.1495
30560SOL    HW194635   4.530   8.952   4.079 -1.2742  2.1164 -2.9044
30560SOL    HW294636   4.506   9.024   4.210  1.3310 -1.3015 -0.3834
30561SOL     OW94637   2.261   3.961   6.639 -0.5025 -0.2149 -0.5177
30561SOL    HW194638   2.193   3.960   6.707 -0.5276 -2.1012 -0.5174
30561SOL    HW294639   2.322   3.892   6.665  0.9074  0.7860 -1.0533
30562SOL     OW94640  10.430   4.093   9.812  0.2711  0.7781 -0.4619
30562SOL    HW194641  10.495   4.123   9.748  0.6138  1.8102  0.3404
30562SOL    HW294642  10.369   4.165   9.819  0.6416  0.9882  0.9000
30563SOL     OW94643   3.123   8.532   3.002  0.1599 -0.1310 -0.1977
30563SOL    HW194644   3.117   8.578   3.086 -0.5546  0.8989 -0.7942
30563SOL    HW294645   3.033   8.509   2.980  0.4029 -0.9231 -0.4153
30564SOL     OW94646   0.180   4.115   8.437 -0.3018  0.7049  0.5812
30564SOL    HW194647   0.126   4.058   8.492 -0.0181  0.0807  0.2212
30564SOL    HW294648   0.264   4.119   8.482  0.6771 -1.6034 -0.8726
30565SOL     OW94649   0.073   2.783   9.956 -0.0816  0.6024 -0.1595
30565SOL    HW194650   0.099   2.787   9.864 -0.8226  2.8444 -0.3252
30565SOL    HW294651   0.148   2.745  10.001  0.3192 -0.4670 -1.6454
30566SOL     OW94652   2.847   7.347   7.019 -0.6443  0.6994 -0.1152
30566SOL    HW194653   2.837   7.280   7.087 -0.6733  0.9604  0.1403
30566SOL    HW294654   2.925   7.396   7.045  0.1537 -0.0610 -1.0189
30567SOL     OW94655   5.344   1.462   2.844  0.5730 -0.1752  0.3077
30567SOL    HW194656   5.344   1.526   2.915 -2.2730  0.7050 -0.3621
30567SOL    HW294657   5.351   1.515   2.764 -0.0214 -0.8305 -0.1903
30568SOL     OW94658   3.649   7.512   9.497  0.1866 -0.1891  0.0855
30568SOL    HW194659   3.630   7.483   9.586 -0.0054  0.6743  0.3332
30568SOL    HW294660   3.743   7.501   9.487 -0.0371 -2.2186 -0.3252
30569SOL     OW94661   6.465   2.274   5.601 -0.4903  0.1425  0.6007
30569SOL    HW194662   6.415   2.226   5.666 -1.1927  0.5727  0.3866
30569SOL    HW294663   6.413   2.266   5.521  0.2818 -0.2446  0.1249
30570SOL     OW94664   3.837   6.898   4.221  0.3744 -0.5592 -0.1308
30570SOL    HW194665   3.902   6.965   4.201  0.1394 -0.5988 -1.0769
30570SOL    HW294666   3.763   6.946   4.258  0.2637 -0.3004 -0.6744
30571SOL     OW94667   5.650   0.260   1.041 -0.0870 -0.5238 -0.4608
30571SOL    HW194668   5.619   0.255   1.131  3.2383  2.1734  1.0323
30571SOL    HW294669   5.664   0.168   1.016 -0.2657 -1.3198  2.0746
30572SOL     OW94670   4.811   2.418   8.631 -0.0256 -0.8950 -0.1095
30572SOL    HW194671   4.900   2.391   8.654 -0.7061 -2.0691  1.2629
30572SOL    HW294672   4.822   2.506   8.594  1.4841 -0.0006  2.2363
30573SOL     OW94673   1.203   2.140   8.400 -0.3211  0.0813  0.2755
30573SOL    HW194674   1.215   2.134   8.306 -0.6949  0.3067  0.2084
30573SOL    HW294675   1.152   2.220   8.412 -1.1400 -0.4751  0.5885
30574SOL     OW94676   3.133   1.454   4.003 -0.0108 -0.1725 -0.3353
30574SOL    HW194677   3.137   1.542   3.965  0.4639  0.7252  1.6888
30574SOL    HW294678   3.225   1.432   4.020  0.1483 -2.1408 -2.9906
30575SOL     OW94679   8.982   6.986   9.010 -0.1409 -0.1626 -0.1572
30575SOL    HW194680   8.927   6.981   8.932  1.7047 -0.0876 -1.5393
30575SOL    HW294681   9.055   7.042   8.984  0.9767 -0.8516  1.3296
30576SOL     OW94682   9.741   5.051   6.590  0.3417  0.6884 -0.1129
30576SOL    HW194683   9.757   5.037   6.683  0.3175  3.1926  0.3205
30576SOL    HW294684   9.711   5.142   6.584  0.0238  0.4854 -2.5375
30577SOL     OW94685   4.270   0.086   8.137 -0.2959  0.3465 -0.0315
30577SOL    HW194686   4.302   0.114   8.052 -1.6687  1.8337 -0.1009
30577SOL    HW294687   4.342   0.106   8.197 -0.2760  1.6458 -0.4771
30578SOL     OW94688   5.094   2.147   1.892  0.6944  0.0701 -0.3756
30578SOL    HW194689   5.112   2.168   1.801 -0.0946  0.2927 -0.4862
30578SOL    HW294690   5.077   2.053   1.893  0.9844  0.0156 -0.4063
30579SOL     OW94691   5.854  10.586   7.704 -0.0236  0.7848 -0.3136
30579SOL    HW194692   5.774  10.535   7.714  0.2447  0.4514  0.1745
30579SOL    HW294693   5.869  10.626   7.790  1.6861 -1.1896  0.4003
30580SOL     OW94694   3.474  10.471   6.106  0.7778  0.4677 -0.5515
30580SOL    HW194695   3.504  10.486   6.016  2.4631 -1.4596 -0.3838
30580SOL    HW294696   3.449  10.378   6.107  3.0403 -0.2106  1.4890
30581SOL     OW94697   1.811   2.355   8.082 -0.0051  0.8199 -0.2588
30581SOL    HW194698   1.774   2.398   8.005 -1.1837  1.8776  0.8624
30581SOL    HW294699   1.800   2.261   8.063  1.1356  0.9824 -2.0203
30582SOL     OW94700   0.480   7.050   1.416 -0.5658  0.4412  0.0888
30582SOL    HW194701   0.467   7.103   1.495  2.7566 -1.1309  1.8925
30582SOL    HW294702   0.394   7.010   1.400 -1.0441 -0.4903  3.9759
30583SOL     OW94703   7.499   6.832   6.951  0.0238  0.1833  0.1570
30583SOL    HW194704   7.469   6.784   7.027  3.0279  0.4533  1.6788
30583SOL    HW294705   7.556   6.770   6.905 -2.1028 -0.1393 -2.2469
30584SOL     OW94706   3.606   0.562   3.413  0.3785 -0.2513  0.3548
30584SOL    HW194707   3.643   0.586   3.498  1.2824  1.8671 -0.5690
30584SOL    HW294708   3.517   0.597   3.414 -0.0407 -1.2771  0.8334
30585SOL     OW94709   9.698   0.117   9.815  0.1145 -0.5505  0.1860
30585SOL    HW194710   9.636   0.095   9.745  0.7009 -0.4090 -0.3925
30585SOL    HW294711   9.750   0.037   9.826  1.5256  0.1365 -1.1528
30586SOL     OW94712   0.082   7.019   6.624 -0.1714  0.3633  0.2912
30586SOL    HW194713   0.038   6.934   6.620 -0.1285  0.3071  0.8801
30586SOL    HW294714   0.014   7.083   6.606 -0.7666  0.3505  2.2056
30587SOL     OW94715   9.278   2.093   5.303 -0.2047  0.5106  0.1378
30587SOL    HW194716   9.225   2.081   5.224  0.7020  1.1887 -0.5965
30587SOL    HW294717   9.222   2.141   5.363 -1.4664 -1.3660  0.5380
30588SOL     OW94718   2.422   0.395   1.046  0.0671 -0.2181 -0.9311
30588SOL    HW194719   2.457   0.463   1.104  0.1178  1.2909 -2.6263
30588SOL    HW294720   2.472   0.316   1.069 -0.2605  0.1615  1.3598
30589SOL     OW94721   9.057   8.170   8.548 -0.5485  0.0075  0.2786
30589SOL    HW194722   8.995   8.158   8.477 -0.9986  0.9497  0.4996
30589SOL    HW294723   9.022   8.117   8.619  0.1340 -1.2830 -0.3258
30590SOL     OW94724   4.852   5.209   7.055 -0.3896  0.5144 -0.1664
30590SOL    HW194725   4.871   5.118   7.031  2.5095  1.3014 -1.3211
30590SOL    HW294726   4.905   5.225   7.133  1.5139  1.9393 -1.6409
30591SOL     OW94727   9.676   4.972   6.211 -0.2649 -0.1254 -0.4957
30591SOL    HW194728   9.703   5.016   6.292 -1.5763 -2.1098  1.1348
30591SOL    HW294729   9.726   4.891   6.209 -1.8265 -1.1488 -0.4317
30592SOL     OW94730   5.194   7.397   3.041  0.2128  0.3283 -0.1954
30592SOL    HW194731   5.241   7.383   2.959 -0.9550 -1.7864 -0.5928
30592SOL    HW294732   5.250   7.455   3.092  1.5127  0.7534 -2.0252
30593SOL     OW94733   2.743   5.285  10.403  0.0944 -0.1875  0.0226
30593SOL    HW194734   2.832   5.314  10.383  0.4061 -0.8018  0.5068
30593SOL    HW294735   2.736   5.293  10.498  0.4313 -2.3604  0.2642
30594SOL     OW94736  10.050   9.440   6.674 -0.3097 -0.4935 -0.0707
30594SOL    HW194737   9.985   9.372   6.689 -0.4215 -0.1515  1.0482
30594SOL    HW294738  10.117   9.397   6.621 -1.0808 -1.0550 -0.6090
30595SOL     OW94739   0.252   9.792   3.505 -0.2642  0.0135  0.1894
30595SOL    HW194740   0.343   9.821   3.505  0.5394 -2.3207  0.9462
30595SOL    HW294741   0.245   9.731   3.432 -0.5159 -1.6651  1.5391
30596SOL     OW94742   2.646   4.432   5.637 -0.0535 -0.5243  0.1638
30596SOL    HW194743   2.555   4.436   5.608  0.6317  3.0644 -2.1712
30596SOL    HW294744   2.651   4.492   5.711  0.6864  0.6650 -0.8233
30597SOL     OW94745   4.189   5.794   7.440  0.0455 -0.1950  0.0275
30597SOL    HW194746   4.232   5.811   7.523  0.6620 -0.2721 -0.2712
30597SOL    HW294747   4.216   5.867   7.384 -1.7502  0.8237  0.3929
30598SOL     OW94748   7.588  10.412   7.773 -0.4502  0.1987  0.4498
30598SOL    HW194749   7.511  10.445   7.818 -0.3598  0.9180  0.0891
30598SOL    HW294750   7.567  10.320   7.754 -2.0709  0.8859 -1.4174
30599SOL     OW94751   6.132   5.014   8.932 -0.1173 -0.5905 -0.2232
30599SOL    HW194752   6.196   5.040   8.866 -0.7275  1.1203 -0.1881
30599SOL    HW294753   6.079   4.947   8.889  0.4617 -0.6131 -0.9276
30600SOL     OW94754   0.901   6.654   6.221 -0.2361  0.0994  0.2851
30600SOL    HW194755   0.826   6.629   6.275 -0.0863 -0.4532  0.2407
30600SOL    HW294756   0.893   6.600   6.142 -0.1402  0.4922  0.0010
30601SOL     OW94757   4.082   3.214   8.492 -0.1996  0.2177  0.6601
30601SOL    HW194758   4.149   3.188   8.555  0.4781 -0.6763 -0.4059
30601SOL    HW294759   4.127   3.273   8.432 -0.6623  0.5168  0.6002
30602SOL     OW94760   5.612   1.458   2.725 -0.1987 -0.3230  0.3964
30602SOL    HW194761   5.705   1.455   2.748 -0.0938 -0.0482  0.0063
30602SOL    HW294762   5.573   1.514   2.791 -0.1419 -0.6987  0.7509
30603SOL     OW94763   2.885   4.434   6.562  0.1857  0.2954 -0.4707
30603SOL    HW194764   2.954   4.397   6.507 -0.4626  0.7310 -1.6203
30603SOL    HW294765   2.919   4.520   6.588  0.8447 -0.2512  0.5266
30604SOL     OW94766   2.366   2.327   5.372 -0.4613 -0.4885  0.0405
30604SOL    HW194767   2.349   2.242   5.412  1.1907 -0.4459  0.9110
30604SOL    HW294768   2.368   2.388   5.446 -0.0484  0.0446 -0.4050
30605SOL     OW94769   3.611   1.674   4.110  0.5192  0.1324  0.0136
30605SOL    HW194770   3.590   1.749   4.165 -0.8384  0.0729 -0.3957
30605SOL    HW294771   3.707   1.671   4.110  0.5852  1.4016  0.6430
30606SOL     OW94772   5.942   4.454   1.247  0.4972 -0.2666 -0.4142
30606SOL    HW194773   6.002   4.489   1.313 -0.1070  1.1198 -0.5826
30606SOL    HW294774   5.933   4.524   1.183  0.7082 -1.4103 -1.7647
30607SOL     OW94775   2.503   5.237   0.082  0.5955 -0.7606  0.2597
30607SOL    HW194776   2.547   5.160   0.119  0.5783  0.1145  2.2491
30607SOL    HW294777   2.484   5.213  -0.008  0.6112 -3.0765  0.8119
30608SOL     OW94778   6.584   7.983   5.638 -0.7867  0.2463 -0.1095
30608SOL    HW194779   6.664   7.938   5.613 -0.7013 -0.6714  1.6699
30608SOL    HW294780   6.609   8.036   5.714 -1.7285  0.4068  0.1004
30609SOL     OW94781   5.383   2.801   3.008  0.5471  0.0116  0.4869
30609SOL    HW194782   5.312   2.864   3.020 -0.4679 -0.6745 -1.4923
30609SOL    HW294783   5.430   2.833   2.931 -0.0535 -1.6287 -0.6225
30610SOL     OW94784   8.248   9.769   9.910 -0.0625 -0.3986 -0.2044
30610SOL    HW194785   8.189   9.724   9.851 -0.4246  1.2823 -1.1881
30610SOL    HW294786   8.211   9.857   9.919  1.4919  0.2442  0.3062
30611SOL     OW94787  10.519   6.094   1.997 -0.2730  0.2755  0.1785
30611SOL    HW194788  10.526   5.999   1.992 -0.3123  0.3046 -0.4955
30611SOL    HW294789  10.595   6.126   1.948 -1.1381  0.5818 -1.0156
30612SOL     OW94790   0.383   5.444  10.379 -0.6820  0.2772  0.1255
30612SOL    HW194791   0.416   5.450  10.289  0.2590  0.7903  0.4892
30612SOL    HW294792   0.291   5.422  10.369 -0.8515  1.3593 -1.0041
30613SOL     OW94793   9.473   7.741   1.490 -0.5952 -0.5681 -1.0981
30613SOL    HW194794   9.493   7.833   1.506 -0.0435 -1.0147  1.2826
30613SOL    HW294795   9.387   7.742   1.447 -0.3842  1.0493 -1.5550
30614SOL     OW94796   5.358   9.522   3.450  0.2040  0.0461  0.4319
30614SOL    HW194797   5.415   9.474   3.390  0.7313  0.4658  0.5910
30614SOL    HW294798   5.362   9.612   3.420 -0.2973  0.1028  0.5156
30615SOL     OW94799   1.881   2.595  10.007  0.0319 -0.4816  0.1240
30615SOL    HW194800   1.855   2.557  10.091  2.5982 -2.5716  0.0944
30615SOL    HW294801   1.863   2.689  10.017 -1.0096 -0.8607  2.4930
30616SOL     OW94802   3.223   4.840   6.757 -0.4095  0.4894 -0.4478
30616SOL    HW194803   3.251   4.930   6.767  0.0031  0.3819 -0.6116
30616SOL    HW294804   3.250   4.796   6.837 -0.4644  0.4742 -0.4371
30617SOL     OW94805   4.736   0.938   5.424  0.3010  0.4780  0.1040
30617SOL    HW194806   4.720   0.948   5.331  0.5642 -2.4820 -0.3642
30617SOL    HW294807   4.817   0.887   5.429  0.5009  0.9037  1.9608
30618SOL     OW94808   4.971   7.557   0.267  0.0747  0.0596  0.0056
30618SOL    HW194809   4.955   7.652   0.265 -0.1661  0.1056  1.7969
30618SOL    HW294810   4.890   7.518   0.234  0.5274  0.4749 -1.6495
30619SOL     OW94811   5.104  10.586   2.436  0.3663  0.9017 -0.4594
30619SOL    HW194812   5.076  10.594   2.527  1.6092  1.1690 -0.0786
30619SOL    HW294813   5.101  10.492   2.418 -1.6217  0.9888 -0.7407
30620SOL     OW94814   3.555   8.685   1.065  0.5086 -0.3859  0.2609
30620SOL    HW194815   3.627   8.739   1.096 -0.3047  1.1061 -0.3521
30620SOL    HW294816   3.484   8.747   1.047 -1.4241 -1.8882  2.0947
30621SOL     OW94817   9.584   1.366   8.471 -0.2966 -0.1195  0.0169
30621SOL    HW194818   9.629   1.437   8.518 -0.0118  0.0857 -0.5525
30621SOL    HW294819   9.644   1.292   8.475 -0.0894  0.0256 -0.3800
30622SOL     OW94820   4.676   3.661   8.699 -0.2670 -0.3536 -0.7617
30622SOL    HW194821   4.746   3.723   8.718 -0.7305  0.9637 -2.9766
30622SOL    HW294822   4.715   3.575   8.710  0.8759  0.3107  0.7317
30623SOL     OW94823   6.780   9.100   2.087  0.1087  0.5615  0.2526
30623SOL    HW194824   6.871   9.124   2.066  0.2674 -0.0471  0.2233
30623SOL    HW294825   6.757   9.156   2.162  0.5234  0.6907  0.2867
30624SOL     OW94826   1.850  10.213   1.284  0.2385  0.3128  0.5848
30624SOL    HW194827   1.863  10.301   1.321  1.5919 -0.0848  1.1284
30624SOL    HW294828   1.826  10.228   1.193 -1.6339  1.2842  1.1879
30625SOL     OW94829   6.019   4.631   0.974 -0.1527  1.0485  0.0290
30625SOL    HW194830   6.097   4.676   0.942  0.5985  0.8963  1.5132
30625SOL    HW294831   5.953   4.645   0.907  1.5983 -0.2046 -2.1033
30626SOL     OW94832   4.801   3.841   6.307 -0.5169 -0.5895 -0.4394
30626SOL    HW194833   4.870   3.810   6.248  1.8674 -0.8848  2.2728
30626SOL    HW294834   4.756   3.761   6.336 -0.2174 -0.6871 -0.2269
30627SOL     OW94835   0.919   3.907   1.059  0.2475  0.1938 -0.5551
30627SOL    HW194836   0.886   3.825   1.097  1.1282  0.3233  0.5268
30627SOL    HW294837   0.856   3.927   0.990 -0.1279 -1.2610 -0.6845
30628SOL     OW94838   9.634   4.595   2.508  0.3608  0.0449 -0.6207
30628SOL    HW194839   9.567   4.568   2.446  1.0481  1.2911 -1.9485
30628SOL    HW294840   9.586   4.610   2.590 -0.8864  0.3139 -1.3759
30629SOL     OW94841   7.497   7.936  10.209  0.0389 -0.0020  0.7606
30629SOL    HW194842   7.409   7.954  10.242 -0.3679 -1.8587  0.8067
30629SOL    HW294843   7.550   7.921  10.287 -0.2183 -1.3917  0.6912
30630SOL     OW94844   2.594   8.504   7.902 -0.5514 -0.0853  0.1309
30630SOL    HW194845   2.626   8.592   7.922  1.6911 -0.2815 -2.0785
30630SOL    HW294846   2.612   8.493   7.809  0.1704 -3.2282  0.5456
30631SOL     OW94847   8.184   0.167   9.974  0.1229 -0.3076  0.2547
30631SOL    HW194848   8.096   0.190   9.944  0.8525 -0.0321 -1.8946
30631SOL    HW294849   8.184   0.071   9.980 -0.1935 -0.3393 -0.2316
30632SOL     OW94850   2.747   4.578   8.800 -0.4193  0.1207 -0.4557
30632SOL    HW194851   2.827   4.526   8.803 -0.0724  0.7118  1.5293
30632SOL    HW294852   2.774   4.667   8.823 -1.3203  0.8124 -1.9013
30633SOL     OW94853   5.038   6.941   2.586  0.3222 -0.0603  0.1997
30633SOL    HW194854   5.029   6.951   2.491  0.1093 -1.1958  0.0850
30633SOL    HW294855   5.074   7.025   2.616  1.1311  0.0434 -0.9894
30634SOL     OW94856   6.011   5.122   9.164 -0.0157 -0.2078 -0.8841
30634SOL    HW194857   6.057   5.067   9.101 -0.7246 -0.0509 -1.5532
30634SOL    HW294858   5.989   5.063   9.236  0.4849 -0.4699 -0.9438
30635SOL     OW94859   4.153   0.318   4.531 -1.1064  0.2603 -0.2858
30635SOL    HW194860   4.217   0.257   4.493 -1.2580  0.2236 -0.4855
30635SOL    HW294861   4.205   0.393   4.559 -0.8422 -0.2067  0.4915
30636SOL     OW94862   2.361   0.859   5.609  0.1576  0.0067 -0.6955
30636SOL    HW194863   2.269   0.857   5.581  0.1692 -1.2313 -0.6978
30636SOL    HW294864   2.410   0.857   5.526  0.1840 -1.9167 -0.6594
30637SOL     OW94865   8.324   1.736   2.796 -0.1589  0.5217 -0.1199
30637SOL    HW194866   8.412   1.725   2.760 -0.6268  0.6030 -1.3348
30637SOL    HW294867   8.304   1.828   2.783  0.1374  0.8632  1.5461
30638SOL     OW94868   2.605   1.653   0.005 -0.2303 -0.0983 -0.1554
30638SOL    HW194869   2.666   1.591  -0.034 -0.4850 -0.5639  0.1832
30638SOL    HW294870   2.644   1.677   0.089  0.3395  0.9398 -0.6920
30639SOL     OW94871   5.827   7.498   5.949  0.2762  0.3026  0.4335
30639SOL    HW194872   5.836   7.526   6.040  0.3867 -0.3654  0.6304
30639SOL    HW294873   5.745   7.538   5.919  1.5577  2.8070 -0.0338
30640SOL     OW94874   5.715   0.633   5.868 -0.3931  0.3470 -0.6604
30640SOL    HW194875   5.691   0.557   5.920 -0.3990  0.1880 -0.8964
30640SOL    HW294876   5.700   0.607   5.777  0.8749  0.1519 -0.8383
30641SOL     OW94877   3.116  10.467   3.730  0.2062 -0.8060 -0.2099
30641SOL    HW194878   3.050  10.464   3.660 -0.0149 -1.9485  0.0316
30641SOL    HW294879   3.182  10.528   3.697 -0.2603 -0.7551 -1.0910
30642SOL     OW94880   6.116   2.494   6.503 -0.4066 -0.0329 -0.4467
30642SOL    HW194881   6.211   2.504   6.500 -0.4844  1.2839  0.4772
30642SOL    HW294882   6.083   2.565   6.448 -0.8630 -0.0354 -0.1792
30643SOL     OW94883   6.832   6.049   0.344  0.3045 -0.0438 -0.7812
30643SOL    HW194884   6.911   6.055   0.397  1.0543 -0.3470 -1.8359
30643SOL    HW294885   6.862   6.015   0.259 -0.9070  0.1063 -1.2926
30644SOL     OW94886   1.546   0.536   0.924  0.2144 -0.1966 -0.0595
30644SOL    HW194887   1.544   0.593   1.001  0.8677  0.9592 -0.8653
30644SOL    HW294888   1.615   0.471   0.944 -0.6474 -0.8467  0.9305
30645SOL     OW94889   6.195   3.995   7.252 -0.0520 -0.5728  0.7073
30645SOL    HW194890   6.145   3.963   7.177  0.2455 -0.0090  0.2607
30645SOL    HW294891   6.134   3.992   7.325 -1.6477  2.5879 -0.3125
30646SOL     OW94892   5.173   3.636   7.442  0.2291 -0.3677 -0.2041
30646SOL    HW194893   5.155   3.560   7.387 -1.0541 -0.3350  0.1398
30646SOL    HW294894   5.147   3.609   7.530 -1.3124  0.8063 -0.2536
30647SOL     OW94895   4.878   9.521   8.403 -0.4322  0.1447  0.1241
30647SOL    HW194896   4.839   9.477   8.479 -1.3824 -0.1567 -0.5203
30647SOL    HW294897   4.923   9.451   8.356 -2.6208 -0.3954 -1.3390
30648SOL     OW94898   0.655   1.767   3.419 -0.0423  0.1806 -0.5954
30648SOL    HW194899   0.670   1.802   3.507  0.2671  0.3866 -0.7317
30648SOL    HW294900   0.581   1.818   3.386  0.5528  0.8779 -0.8836
30649SOL     OW94901   8.003   1.326   6.688  0.4895  0.3735 -0.1996
30649SOL    HW194902   8.042   1.390   6.748 -0.6621 -0.9073  2.0364
30649SOL    HW294903   7.909   1.339   6.697  0.2603 -1.1194 -0.2668
30650SOL     OW94904   8.778   0.350   7.542  0.0219 -0.1652  0.5004
30650SOL    HW194905   8.844   0.411   7.509  1.2744 -2.3422 -1.3486
30650SOL    HW294906   8.695   0.385   7.509  0.8359 -0.0406 -1.6141
30651SOL     OW94907   4.907   9.804   6.376 -0.8116  0.0477 -0.2514
30651SOL    HW194908   4.943   9.872   6.319  0.6997 -0.5642 -0.0948
30651SOL    HW294909   4.848   9.850   6.436  0.7090  1.3561  0.3133
30652SOL     OW94910   4.333   4.498   8.790  0.0800  0.1311 -1.0376
30652SOL    HW194911   4.279   4.523   8.865  1.1490 -1.3713  0.2975
30652SOL    HW294912   4.320   4.403   8.782 -1.5605  0.4878 -4.0513
30653SOL     OW94913   2.752   7.855   2.306 -0.5874 -0.4123  0.1849
30653SOL    HW194914   2.695   7.835   2.380 -0.7039  2.4823  0.9647
30653SOL    HW294915   2.820   7.912   2.342  0.3301 -0.2916 -1.6204
30654SOL     OW94916   3.392   9.095   6.362  0.4282 -0.2991 -0.3193
30654SOL    HW194917   3.360   9.115   6.274  1.3571  1.2068 -0.3460
30654SOL    HW294918   3.348   9.158   6.419 -0.7189 -1.7232  0.4438
30655SOL     OW94919   3.231   8.008   6.189  0.5766 -0.1320 -0.2243
30655SOL    HW194920   3.315   7.992   6.146  0.2662  0.3016 -1.0116
30655SOL    HW294921   3.173   7.940   6.155  1.0965 -1.7541  1.8782
30656SOL     OW94922   1.184   6.581   4.562 -0.0368 -0.0667  0.1177
30656SOL    HW194923   1.250   6.602   4.629  0.2450 -2.0421  0.5087
30656SOL    HW294924   1.131   6.661   4.556 -0.6605 -0.0624  3.4079
30657SOL     OW94925   3.901   2.807   7.127  0.3845  0.5568 -0.0388
30657SOL    HW194926   3.984   2.777   7.089  0.3212 -0.2734  0.4482
30657SOL    HW294927   3.863   2.864   7.060 -0.4373 -2.0368 -1.9296
30658SOL     OW94928   2.113  10.327   4.177  0.3013 -0.2336 -0.1305
30658SOL    HW194929   2.188  10.386   4.165  1.1541 -1.2888 -0.1197
30658SOL    HW294930   2.039  10.375   4.140  1.2520  0.2075 -1.5327
30659SOL     OW94931   9.012   1.778  10.410 -0.3416  0.1877 -0.0145
30659SOL    HW194932   8.969   1.850  10.364 -0.2769 -0.4156 -1.0241
30659SOL    HW294933   8.959   1.766  10.489 -0.8179  0.8168 -0.2304
30660SOL     OW94934   8.534   1.337  10.431  0.4385 -0.1932  0.8741
30660SOL    HW194935   8.456   1.391  10.420  1.6160  1.9776  2.2970
30660SOL    HW294936   8.562   1.354  10.521  1.5315 -2.3649  1.0040
30661SOL     OW94937   7.535   8.250   4.151  0.4192 -0.2873  0.4347
30661SOL    HW194938   7.571   8.256   4.063 -0.0544 -0.9522  0.1870
30661SOL    HW294939   7.464   8.315   4.153  0.2137 -0.5045  0.2169
30662SOL     OW94940   3.251   1.997   2.881  0.7692 -0.3064  0.1666
30662SOL    HW194941   3.335   1.985   2.836  0.1119  0.5276 -1.3392
30662SOL    HW294942   3.208   1.912   2.874  0.0175  0.2025 -2.2541
30663SOL     OW94943   5.382   5.572   5.485  0.2697  0.4597  0.2720
30663SOL    HW194944   5.460   5.539   5.530 -0.3426 -0.4580  0.6762
30663SOL    HW294945   5.382   5.525   5.401 -0.6511 -0.6581  0.8829
30664SOL     OW94946   0.499   5.562   2.387  0.4066  0.3449 -0.6486
30664SOL    HW194947   0.498   5.602   2.474  1.3099 -0.5162 -0.2260
30664SOL    HW294948   0.585   5.520   2.381  1.0716  1.8529 -2.6339
30665SOL     OW94949   8.664   4.489   8.127 -0.1058  0.5721  0.3879
30665SOL    HW194950   8.748   4.511   8.087 -0.3921 -0.3117 -0.7364
30665SOL    HW294951   8.683   4.482   8.221  1.4302 -1.0568  0.0131
30666SOL     OW94952   0.085   6.800   1.158 -0.7993 -0.5173 -0.5433
30666SOL    HW194953   0.060   6.832   1.244  0.3415 -0.5898 -0.1723
30666SOL    HW294954   0.005   6.762   1.122 -1.4448  0.1179  0.2044
30667SOL     OW94955   2.144   9.615   5.933 -0.2036 -0.5277  0.0695
30667SOL    HW194956   2.113   9.651   6.017 -1.6378  0.3962 -0.8152
30667SOL    HW294957   2.240   9.615   5.941 -0.3025 -1.6449  2.1702
30668SOL     OW94958   3.143   7.137   7.073 -0.2509  0.1279 -0.0167
30668SOL    HW194959   3.174   7.220   7.038  2.6068 -1.3068 -1.2347
30668SOL    HW294960   3.221   7.096   7.111 -1.1079 -2.6840 -1.0104
30669SOL     OW94961   6.926   5.413   7.330  0.2764  0.4058  0.1838
30669SOL    HW194962   7.014   5.423   7.367  0.6409  0.4282 -0.6816
30669SOL    HW294963   6.900   5.502   7.306 -0.6973  0.6681  1.9835
30670SOL     OW94964   3.875   5.028  10.588 -0.4052 -0.5662 -0.0021
30670SOL    HW194965   3.956   4.978  10.578 -1.2968 -2.0032 -0.1673
30670SOL    HW294966   3.810   4.964  10.615 -1.6263  0.4836 -0.3814
30671SOL     OW94967   7.589   3.215   4.656  0.2016  0.4913  0.0577
30671SOL    HW194968   7.621   3.297   4.619 -0.6982  0.2362 -1.3377
30671SOL    HW294969   7.629   3.147   4.602 -0.8417  0.0928 -0.2275
30672SOL     OW94970   4.581   2.429   1.135  0.2641  0.5679  0.1386
30672SOL    HW194971   4.561   2.515   1.171  0.4552 -0.0477  1.8120
30672SOL    HW294972   4.498   2.381   1.139  0.2800  0.5063 -0.2791
30673SOL     OW94973   0.917  10.275   5.919  0.7735 -0.6245 -0.2721
30673SOL    HW194974   0.841  10.330   5.939  1.7745  0.7885 -0.2242
30673SOL    HW294975   0.885  10.185   5.928 -1.1761 -0.0862 -1.3008
30674SOL     OW94976   2.914   3.582   1.209  0.3041 -0.1085 -0.2786
30674SOL    HW194977   2.930   3.618   1.122  0.3802 -1.1100 -0.6931
30674SOL    HW294978   2.991   3.605   1.260  0.6030 -0.1755 -0.7011
30675SOL     OW94979   8.688   5.730   3.905  0.1862  0.2337  0.4451
30675SOL    HW194980   8.711   5.821   3.888 -1.5763  0.2429 -2.5856
30675SOL    HW294981   8.619   5.734   3.972  0.8537  1.0129  1.1003
30676SOL     OW94982   1.697   5.347   9.128  0.2593 -0.4177 -0.6223
30676SOL    HW194983   1.784   5.313   9.150 -0.0163 -0.7288  0.0219
30676SOL    HW294984   1.638   5.273   9.143 -0.3396  0.2817  0.7114
30677SOL     OW94985   4.528   5.516   9.449 -0.1244  0.1591 -0.1526
30677SOL    HW194986   4.575   5.459   9.389  1.4349  0.8533  0.3631
30677SOL    HW294987   4.545   5.479   9.536  1.6379  1.8047  0.2864
30678SOL     OW94988   9.641   8.706   1.615 -0.3864 -0.0534  0.2917
30678SOL    HW194989   9.709   8.649   1.650  2.3059  1.9113 -1.3473
30678SOL    HW294990   9.648   8.786   1.666  0.1530  0.9936 -1.3383
30679SOL     OW94991   4.882   2.816   4.491  0.1786  0.7671 -0.9200
30679SOL    HW194992   4.836   2.871   4.428  0.3612  0.4527 -1.3323
30679SOL    HW294993   4.972   2.850   4.491 -0.1615  1.7504  0.3025
30680SOL     OW94994   9.566   6.389   5.021  0.7794  0.0401 -0.0913
30680SOL    HW194995   9.620   6.316   4.990 -0.9352 -1.8887  1.2444
30680SOL    HW294996   9.601   6.409   5.108 -2.0948 -3.0647  2.0157
30681SOL     OW94997   5.347   5.638   3.922 -0.6176  0.3013  0.4636
30681SOL    HW194998   5.365   5.623   4.015 -0.1945 -0.3358  0.2811
30681SOL    HW294999   5.363   5.732   3.910  1.1203  0.0451  0.6397
30682SOL     OW95000   2.410   0.337   8.630 -0.0588 -0.6960  0.2953
30682SOL    HW195001   2.392   0.299   8.716  1.4647 -2.2549 -0.0128
30682SOL    HW295002   2.497   0.376   8.638 -0.8568  1.1940  0.0804
30683SOL     OW95003   5.614   6.210   0.837 -0.1981 -0.1019  0.5430
30683SOL    HW195004   5.576   6.287   0.794  1.1743  0.3907  0.1753
30683SOL    HW295005   5.562   6.137   0.804 -0.9041  0.5581  0.1455
30684SOL     OW95006   2.803   8.975   5.938 -0.0875  0.5636 -0.0438
30684SOL    HW195007   2.816   8.976   6.033  1.3772  0.8947 -0.2241
30684SOL    HW295008   2.765   8.889   5.920  1.6246 -0.3796  0.6315
30685SOL     OW95009   9.398   0.398   6.194  0.0704  0.5023 -0.5173
30685SOL    HW195010   9.417   0.334   6.126  1.0844  0.2905 -0.0484
30685SOL    HW295011   9.437   0.479   6.163 -1.2790  0.9317 -1.1461
30686SOL     OW95012   8.872   4.346   9.592  0.6862  0.5771 -0.2142
30686SOL    HW195013   8.816   4.269   9.584 -0.0427  1.1183 -0.3126
30686SOL    HW295014   8.904   4.361   9.503  0.6943  0.4923 -0.2260
30687SOL     OW95015   5.127   6.827   5.237 -0.2175  0.2474 -0.4912
30687SOL    HW195016   5.109   6.797   5.148 -2.5526  0.5761 -0.1925
30687SOL    HW295017   5.121   6.922   5.232 -1.3624  0.2294  0.1711
30688SOL     OW95018   9.030   7.409   4.676 -0.4567  0.1148 -0.0779
30688SOL    HW195019   9.063   7.496   4.652 -1.2693 -0.4104 -3.5869
30688SOL    HW295020   9.098   7.348   4.646 -1.6549 -0.6298 -1.3927
30689SOL     OW95021   3.342   1.805   5.460  0.9736  0.3413 -0.3659
30689SOL    HW195022   3.347   1.897   5.433  0.1521  0.2169 -0.9829
30689SOL    HW295023   3.406   1.797   5.531  0.2662  1.6505  0.4438
30690SOL     OW95024   0.272   4.454   5.471 -0.0352  0.6429 -0.1922
30690SOL    HW195025   0.177   4.462   5.471 -0.1249 -0.1428 -1.7604
30690SOL    HW295026   0.298   4.477   5.382  1.2665  0.9232  0.2359
30691SOL     OW95027   2.209   1.505   4.623 -0.3639 -0.1962  0.0176
30691SOL    HW195028   2.123   1.547   4.620 -0.0538  0.4308 -1.2105
30691SOL    HW295029   2.196   1.421   4.579 -0.2577  0.1160 -0.6278
30692SOL     OW95030   1.439   4.554  10.513 -0.6502 -0.0053  0.1680
30692SOL    HW195031   1.407   4.604  10.437 -0.7931 -0.8819 -0.3574
30692SOL    HW295032   1.363   4.547  10.571 -0.2986  1.4826  0.8572
30693SOL     OW95033   4.467   3.884   6.274 -0.4472  0.3299  0.4348
30693SOL    HW195034   4.453   3.810   6.333 -0.4661 -0.7497 -0.8814
30693SOL    HW295035   4.435   3.854   6.190  1.5554  1.0225 -0.6432
30694SOL     OW95036   0.746   8.059   9.558 -0.0979 -0.0075  0.1772
30694SOL    HW195037   0.746   7.970   9.594  0.6335 -0.1745 -0.2170
30694SOL    HW295038   0.773   8.114   9.632  3.0367 -0.5239 -0.4394
30695SOL     OW95039   2.687   8.382   3.163 -0.2290  0.4729  0.0660
30695SOL    HW195040   2.605   8.337   3.146  0.6392 -1.0723 -0.2236
30695SOL    HW295041   2.662   8.461   3.211 -1.7701 -0.6779  1.2683
30696SOL     OW95042   9.459   9.873   0.135 -0.4554  0.3328 -0.0263
30696SOL    HW195043   9.546   9.856   0.173 -1.2111  0.2952  1.7780
30696SOL    HW295044   9.476   9.880   0.041  1.6201  1.0727  0.3309
30697SOL     OW95045   5.082   6.548   3.170  1.0138 -0.0391 -0.1445
30697SOL    HW195046   5.019   6.483   3.199  0.3471  0.3614 -0.6551
30697SOL    HW295047   5.152   6.497   3.130  1.2189 -0.5091  0.7926
30698SOL     OW95048  10.329   2.596  10.564 -0.0306  0.3485 -0.4657
30698SOL    HW195049  10.309   2.503  10.558 -0.4124  0.4187 -0.2926
30698SOL    HW295050  10.425   2.600  10.561 -0.0145 -0.0443 -0.5176
30699SOL     OW95051   7.008   2.315   9.291 -0.0637 -0.0710  0.3103
30699SOL    HW195052   7.094   2.322   9.249  0.4924  2.8620  1.6833
30699SOL    HW295053   7.023   2.258   9.367  1.0443  1.3089  1.1898
30700SOL     OW95054   3.160   2.571   9.532  0.2681  0.1493 -0.0613
30700SOL    HW195055   3.211   2.577   9.451  0.0265  0.3109 -0.2024
30700SOL    HW295056   3.078   2.530   9.505  0.0055  0.6200  0.0159
30701SOL     OW95057   6.062  10.611   8.522  0.0872 -0.2481  0.1184
30701SOL    HW195058   6.046  10.688   8.467 -1.6745 -0.4209  0.3215
30701SOL    HW295059   6.157  10.605   8.528  0.5166 -1.2298 -4.3474
30702SOL     OW95060   2.489   1.782   1.074 -0.5646  0.4923  0.8984
30702SOL    HW195061   2.474   1.738   1.158 -1.1400  0.9073  1.0194
30702SOL    HW295062   2.402   1.787   1.034 -0.2025 -0.3033 -0.0325
30703SOL     OW95063   4.396   7.987  10.501  0.1658  0.2472  0.6664
30703SOL    HW195064   4.414   7.917  10.563  1.1351 -0.8889 -0.8257
30703SOL    HW295065   4.457   8.057  10.524  0.0047  0.1328  1.4456
30704SOL     OW95066   1.739  10.107   1.511  0.2083  0.1106 -0.3564
30704SOL    HW195067   1.646  10.094   1.489  0.1515 -1.6215  0.6994
30704SOL    HW295068   1.780  10.130   1.428 -1.5617  3.7445 -0.4025
30705SOL     OW95069   0.302   1.729   6.415 -0.5324  0.2637  0.1677
30705SOL    HW195070   0.259   1.645   6.398  1.5137 -1.0078  0.9175
30705SOL    HW295071   0.321   1.728   6.508 -1.3104  2.0383  0.3953
30706SOL     OW95072  10.570   6.498   5.536  0.1047  0.5838  0.0212
30706SOL    HW195073  10.603   6.423   5.486  0.4506  1.0524 -0.4630
30706SOL    HW295074  10.544   6.461   5.621 -3.0232 -0.7037 -1.3575
30707SOL     OW95075   4.162   6.892   3.574 -0.4539 -0.1392  0.1231
30707SOL    HW195076   4.206   6.966   3.615 -2.3232  1.0777  0.0781
30707SOL    HW295077   4.225   6.859   3.510  0.9709  0.4743  1.1556
30708SOL     OW95078   8.138   7.265   5.690  0.1120 -0.0005  0.1007
30708SOL    HW195079   8.066   7.300   5.743  0.2270  1.8808 -0.8836
30708SOL    HW295080   8.095   7.223   5.615  0.0004  0.2165  0.0407
30709SOL     OW95081  10.017  10.525   7.972 -1.1939 -0.0541 -0.5561
30709SOL    HW195082  10.056  10.438   7.970 -1.0646 -0.0173  0.1296
30709SOL    HW295083   9.942  10.519   7.912 -1.0078 -0.5445 -0.7474
30710SOL     OW95084   5.596   3.024   5.080 -0.7152  0.4591  0.0347
30710SOL    HW195085   5.527   2.963   5.107 -0.4503  1.1116  2.5061
30710SOL    HW295086   5.671   3.000   5.135  0.7665  0.3788 -1.9208
30711SOL     OW95087   4.283   9.413   3.226 -0.1647  0.3271 -0.2525
30711SOL    HW195088   4.273   9.467   3.147 -1.3314 -1.7690 -1.6629
30711SOL    HW295089   4.205   9.433   3.278 -1.5160 -1.1055 -1.5817
30712SOL     OW95090   8.311   4.359   9.314 -0.4116  0.9175 -0.4546
30712SOL    HW195091   8.322   4.427   9.381  0.8692  0.8157 -0.5316
30712SOL    HW295092   8.351   4.396   9.235 -1.6127  0.9066 -1.1036
30713SOL     OW95093   3.667   2.364   7.001 -0.0020  0.2847  0.2517
30713SOL    HW195094   3.647   2.427   7.070 -0.4769  0.0327  0.3487
30713SOL    HW295095   3.651   2.278   7.041  0.0666  0.1247 -0.0572
30714SOL     OW95096   8.765  10.457   1.284  0.4915 -0.6381  0.0278
30714SOL    HW195097   8.722  10.523   1.339  1.0179  1.1312 -1.5493
30714SOL    HW295098   8.856  10.487   1.277  0.3497 -0.5451 -2.0621
30715SOL     OW95099   6.318   0.402   1.939 -0.2911 -0.4318 -0.2088
30715SOL    HW195100   6.265   0.369   1.867 -1.1376 -0.3257  0.3393
30715SOL    HW295101   6.407   0.372   1.921 -0.5729 -0.7656 -1.0630
30716SOL     OW95102   7.072   1.486   3.627 -0.8667  0.4543  0.0990
30716SOL    HW195103   7.004   1.427   3.593 -1.1307  0.1113  1.1698
30716SOL    HW295104   7.101   1.535   3.550 -1.1875 -0.5203 -0.6820
30717SOL     OW95105   6.091   4.717   2.533  0.6373 -0.3972 -0.2222
30717SOL    HW195106   6.107   4.654   2.602  0.2229 -1.1626 -0.8057
30717SOL    HW295107   6.002   4.748   2.550  0.8967  0.1582  0.1541
30718SOL     OW95108   1.375   6.268   0.758 -0.5025  0.2191 -0.0177
30718SOL    HW195109   1.317   6.272   0.682 -1.2946  2.2891  0.6264
30718SOL    HW295110   1.358   6.349   0.806  0.8960 -0.4344  1.7103
30719SOL     OW95111   5.865   9.464   4.544 -0.6756 -0.4441 -0.4299
30719SOL    HW195112   5.899   9.553   4.546 -1.6944 -0.0508 -0.2470
30719SOL    HW295113   5.940   9.409   4.566  0.3358  0.2403 -1.9789
30720SOL     OW95114   1.454   2.769   2.953  0.1799  0.3569 -0.1285
30720SOL    HW195115   1.419   2.770   3.042 -1.1620 -0.8451 -0.6011
30720SOL    HW295116   1.523   2.703   2.955 -0.0862  0.0792 -0.0542
30721SOL     OW95117   6.523   8.703  10.285 -0.1877 -0.2743 -0.2694
30721SOL    HW195118   6.619   8.707  10.285 -0.1997  0.7021  1.0602
30721SOL    HW295119   6.496   8.779  10.234 -0.2572 -0.1154  0.0041
30722SOL     OW95120  10.565   9.419   3.964 -0.8164  0.0714 -0.0791
30722SOL    HW195121  10.502   9.462   3.907  0.3135  0.2862 -1.2033
30722SOL    HW295122  10.546   9.326   3.955 -0.6906  0.1087 -0.7545
30723SOL     OW95123   9.025   6.232   2.889  0.2194 -0.0305 -0.6584
30723SOL    HW195124   8.963   6.254   2.820 -0.7604 -1.5020 -0.2863
30723SOL    HW295125   9.061   6.148   2.862  1.6935  0.5439 -0.5906
30724SOL     OW95126   6.541   5.443   0.660 -0.1112  0.1456 -0.0121
30724SOL    HW195127   6.449   5.468   0.650 -0.8207 -2.3091 -0.3962
30724SOL    HW295128   6.558   5.385   0.585  2.3263  1.9026 -0.9439
30725SOL     OW95129   3.730   8.051   1.173  0.3104 -0.0634  0.1573
30725SOL    HW195130   3.811   8.063   1.222  0.6679 -1.5050 -0.0417
30725SOL    HW295131   3.666   8.023   1.239 -0.0133  0.9521  0.2931
30726SOL     OW95132   6.410  10.639   3.280 -0.0396  0.0002 -0.2804
30726SOL    HW195133   6.455  10.611   3.200  0.9658  0.8175 -0.0202
30726SOL    HW295134   6.397  10.733   3.269  2.2588  0.6255  1.4715
30727SOL     OW95135   0.845   1.563   9.730 -0.3733 -0.6114 -0.2870
30727SOL    HW195136   0.842   1.467   9.732 -2.3545 -0.5775  1.2968
30727SOL    HW295137   0.855   1.589   9.822 -2.7305  0.6803 -0.3088
30728SOL     OW95138   3.662   7.412   8.219 -0.0956  0.4119  0.4400
30728SOL    HW195139   3.650   7.504   8.197 -1.5895  0.0362 -0.4569
30728SOL    HW295140   3.742   7.386   8.174 -1.0997  0.6122 -1.5440
30729SOL     OW95141   3.921   4.045   2.147 -0.3390  0.3750  0.0551
30729SOL    HW195142   3.938   4.041   2.241 -0.9816  0.4616  0.1807
30729SOL    HW295143   3.874   4.128   2.134 -1.7649 -0.4151 -0.0772
30730SOL     OW95144   2.424   3.700   2.088  0.5025 -0.1781  0.0711
30730SOL    HW195145   2.504   3.717   2.038  0.2390 -0.8090 -0.5813
30730SOL    HW295146   2.362   3.766   2.056  0.6174  0.0123  0.2385
30731SOL     OW95147   0.623   9.138  10.525  0.0905  0.7540 -0.0018
30731SOL    HW195148   0.710   9.172  10.545  0.1498  0.8028 -0.3400
30731SOL    HW295149   0.627   9.117  10.432  0.3829 -1.1126  0.3935
30732SOL     OW95150   5.364   4.909   6.199  0.0400  0.4831  0.3460
30732SOL    HW195151   5.345   5.002   6.215 -1.8872  0.1346  0.3134
30732SOL    HW295152   5.345   4.867   6.282 -1.0098 -0.1245 -0.1847
30733SOL     OW95153   0.347  10.293   7.049 -0.5147  0.3189  0.9886
30733SOL    HW195154   0.406  10.230   7.092 -1.9782 -0.3838  2.0724
30733SOL    HW295155   0.396  10.375   7.048  1.5118 -0.7985 -0.5711
30734SOL     OW95156   3.182   3.289   5.613  0.0514 -0.2487  0.2814
30734SOL    HW195157   3.261   3.278   5.665 -0.4996  0.6617  1.3686
30734SOL    HW295158   3.185   3.381   5.585 -1.1248  0.1110  1.2483
30735SOL     OW95159   2.593   5.235   6.881 -0.2038  0.0790  0.2621
30735SOL    HW195160   2.583   5.305   6.817  1.6901 -1.2479 -1.6472
30735SOL    HW295161   2.684   5.205   6.870 -0.5381 -1.7819  1.9189
30736SOL     OW95162   0.021   2.554   3.076 -0.0491 -0.6350 -0.5394
30736SOL    HW195163   0.018   2.636   3.125 -0.5884 -1.3163  0.5970
30736SOL    HW295164  -0.006   2.578   2.987  2.1568  0.8438 -0.8877
30737SOL     OW95165   4.798   6.191   2.522  0.4064  0.2358  0.0980
30737SOL    HW195166   4.777   6.283   2.507  1.0355  0.6286  1.5240
30737SOL    HW295167   4.726   6.157   2.575  0.3914  0.0070 -0.0636
30738SOL     OW95168   4.734   6.578   5.881  0.4010 -0.6135 -0.1516
30738SOL    HW195169   4.751   6.484   5.874  0.4162 -0.7311  1.2294
30738SOL    HW295170   4.726   6.608   5.790 -0.5898 -2.1235 -0.6004
30739SOL     OW95171   6.859   1.818   8.619 -0.0040 -0.4583  0.0790
30739SOL    HW195172   6.897   1.905   8.628 -0.5072 -0.0835 -1.2068
30739SOL    HW295173   6.850   1.786   8.709  0.6019  0.6295  0.5424
30740SOL     OW95174   4.490   9.046   8.676  0.0100  0.0246 -0.7362
30740SOL    HW195175   4.549   8.997   8.618  2.3600  0.6405  0.9927
30740SOL    HW295176   4.548   9.098   8.731 -2.2025  0.8566  0.9487
30741SOL     OW95177  10.127   4.990   0.975 -0.2532 -0.4184 -0.2510
30741SOL    HW195178  10.203   4.979   1.032 -0.6536 -0.8430  0.2136
30741SOL    HW295179  10.147   5.068   0.923  0.5979 -0.6585 -0.2988
30742SOL     OW95180   0.232   1.872   9.760  0.2912 -0.7694  0.5446
30742SOL    HW195181   0.263   1.790   9.798 -1.9915 -0.6223  3.0809
30742SOL    HW295182   0.278   1.940   9.808  0.6368 -0.5429 -0.0930
30743SOL     OW95183   7.186   6.618   8.192 -0.0610  0.3973 -0.0211
30743SOL    HW195184   7.160   6.620   8.099 -0.2635  1.0762  0.0443
30743SOL    HW295185   7.123   6.559   8.233  0.6262 -0.6861 -0.4859
30744SOL     OW95186   1.346   1.393   5.936  0.5494 -0.1422 -0.3930
30744SOL    HW195187   1.322   1.395   6.028  0.9706  0.0289 -0.2842
30744SOL    HW295188   1.428   1.344   5.933  0.1026 -0.8736 -0.7809
30745SOL     OW95189   2.291   8.767   7.683  0.1025  0.0600  0.2495
30745SOL    HW195190   2.203   8.802   7.675 -0.2143 -0.7834 -0.1324
30745SOL    HW295191   2.349   8.839   7.657 -0.2526  1.6954  3.5498
30746SOL     OW95192   3.840  10.565   4.954 -0.0617  0.5884 -0.1441
30746SOL    HW195193   3.791  10.628   4.902 -2.0156  0.0711  0.9690
30746SOL    HW295194   3.912  10.615   4.992  0.5031  1.3087 -2.0363
30747SOL     OW95195   2.024  10.519   1.910 -0.1317 -0.4146  0.3760
30747SOL    HW195196   2.044  10.611   1.923 -0.6447  0.0610 -1.7723
30747SOL    HW295197   2.091  10.487   1.850 -1.1917 -0.8143 -0.6608
30748SOL     OW95198   0.072   8.491   5.114  0.0227 -0.3309 -0.2266
30748SOL    HW195199   0.016   8.498   5.036 -1.0464 -2.1626  0.3249
30748SOL    HW295200   0.133   8.421   5.093 -0.0630 -0.6119  0.4526
30749SOL     OW95201   4.617   1.556   5.304 -0.3832  0.3544  0.1202
30749SOL    HW195202   4.631   1.557   5.209  0.0635  2.1029  0.1751
30749SOL    HW295203   4.535   1.602   5.317 -1.4890 -1.6190  0.4829
30750SOL     OW95204  10.006   7.253   5.567 -0.3448  0.4272 -0.2125
30750SOL    HW195205  10.101   7.257   5.578 -0.4429 -1.2988  2.1125
30750SOL    HW295206   9.975   7.339   5.596  0.3976  0.2254  1.2800
30751SOL     OW95207   3.774   8.274  10.078  0.3650 -0.4350 -0.0134
30751SOL    HW195208   3.680   8.278  10.060  0.6956 -2.0488 -2.4516
30751SOL    HW295209   3.779   8.253  10.172 -1.6096  1.5092  0.6294
30752SOL     OW95210   3.505   1.948   8.527  0.1456 -0.0370  0.2174
30752SOL    HW195211   3.501   1.902   8.444 -0.3312  0.9727 -0.3354
30752SOL    HW295212   3.434   2.013   8.522  0.3212  0.2542  1.2695
30753SOL     OW95213   4.618   9.444   7.798  0.0587 -0.0065  0.3386
30753SOL    HW195214   4.704   9.405   7.779 -0.3992 -1.3211  0.8388
30753SOL    HW295215   4.577   9.455   7.713  0.0094 -1.1126  0.2087
30754SOL     OW95216   9.819   5.885   8.245 -0.0103  0.2536  0.2501
30754SOL    HW195217   9.734   5.851   8.274 -2.0304  2.1247 -2.8439
30754SOL    HW295218   9.833   5.964   8.298  0.0197 -0.2894  1.0560
30755SOL     OW95219   3.626   6.209   0.603  0.3887 -0.9707  0.4326
30755SOL    HW195220   3.710   6.253   0.617 -1.7958  3.1238  2.5415
30755SOL    HW295221   3.606   6.169   0.687 -1.4195  1.6554  1.3908
30756SOL     OW95222   2.620   7.823   2.064 -0.0890  0.0260 -0.5075
30756SOL    HW195223   2.553   7.892   2.061  1.5645  1.6965 -0.6128
30756SOL    HW295224   2.670   7.842   2.143  0.1207 -1.3734 -0.2803
30757SOL     OW95225   4.207   7.665   9.328 -0.1884 -0.2721  0.0622
30757SOL    HW195226   4.128   7.610   9.320  0.3264 -0.8226 -1.8635
30757SOL    HW295227   4.260   7.641   9.252  0.5479  2.1554 -0.2703
30758SOL     OW95228   9.522   3.417   0.410  0.1439  0.3089 -0.3830
30758SOL    HW195229   9.564   3.477   0.348  1.4073  1.0224  1.0949
30758SOL    HW295230   9.461   3.472   0.458  0.1738  0.0699 -0.0678
30759SOL     OW95231   3.063   2.739   3.120  0.0733  0.8694 -0.0129
30759SOL    HW195232   3.036   2.817   3.168  2.2247  0.5944  1.8116
30759SOL    HW295233   3.147   2.714   3.159 -0.8255 -2.7783 -0.0008
30760SOL     OW95234   6.052   8.226   7.665 -0.3232 -0.1370  0.1342
30760SOL    HW195235   6.141   8.197   7.647  0.4021  1.1962  1.3411
30760SOL    HW295236   5.997   8.154   7.636  1.2319 -1.6972  0.8551
30761SOL     OW95237   5.747   6.244   4.239  0.3694  1.0255 -0.3027
30761SOL    HW195238   5.783   6.329   4.264 -1.8451  1.7894  0.5911
30761SOL    HW295239   5.741   6.195   4.321 -0.4275  0.8738 -0.4375
30762SOL     OW95240  10.170   2.005  10.208  0.3904  0.1660  0.7071
30762SOL    HW195241  10.257   2.031  10.239  0.5826 -0.8786  1.0813
30762SOL    HW295242  10.114   2.013  10.285  0.8959 -2.5683  1.4474
30763SOL     OW95243   3.239   3.645   7.312  0.8287  0.4235 -0.2835
30763SOL    HW195244   3.206   3.622   7.225  0.9282 -2.0875  0.2575
30763SOL    HW295245   3.299   3.574   7.334 -0.4776  0.0716  2.4962
30764SOL     OW95246   1.252   0.178   5.901  0.5128  0.7891  0.0752
30764SOL    HW195247   1.240   0.083   5.911 -1.2435  1.1026  1.3411
30764SOL    HW295248   1.347   0.189   5.894  0.8190 -0.9985  0.8441
30765SOL     OW95249   7.628   1.503   1.730  0.2294 -0.1808  0.5540
30765SOL    HW195250   7.632   1.551   1.813 -1.5570  1.3933 -0.1855
30765SOL    HW295251   7.570   1.429   1.749  0.0094  0.0441  0.7683
30766SOL     OW95252   2.304   9.060   9.726  0.2583 -0.6637  0.3316
30766SOL    HW195253   2.294   8.966   9.709  1.1013 -0.5897 -0.7067
30766SOL    HW295254   2.348   9.094   9.648 -0.1543  0.6273  0.6333
30767SOL     OW95255   0.957   1.802   2.396 -0.4014 -0.3395 -0.3610
30767SOL    HW195256   1.018   1.728   2.395  0.6151  0.5003 -1.0271
30767SOL    HW295257   0.928   1.811   2.306 -0.3386  0.2286 -0.3267
30768SOL     OW95258   1.068   8.192   7.458 -0.3366  0.1601  0.1448
30768SOL    HW195259   0.998   8.158   7.515 -0.1879  1.6237  1.2776
30768SOL    HW295260   1.024   8.257   7.403 -0.4204 -1.0537 -1.2624
30769SOL     OW95261   7.407   5.249   8.203  0.1577  0.2344 -0.0906
30769SOL    HW195262   7.335   5.310   8.216  0.4348  0.4975  0.2276
30769SOL    HW295263   7.375   5.187   8.137  0.0166  0.9579 -0.7161
30770SOL     OW95264   4.904   7.977   8.105  0.3804 -0.0013 -0.3486
30770SOL    HW195265   4.992   7.961   8.139 -0.1668 -0.6099  0.8126
30770SOL    HW295266   4.846   7.937   8.169 -0.8465  2.2196 -0.0139
30771SOL     OW95267   6.011   5.557   8.303 -0.6282 -0.3923 -0.1258
30771SOL    HW195268   5.978   5.640   8.269  0.5606 -0.9214 -2.8557
30771SOL    HW295269   6.047   5.513   8.227  0.7787 -2.4785  1.6252
30772SOL     OW95270   1.153  10.409   9.470  0.2256  0.2781  0.2536
30772SOL    HW195271   1.196  10.331   9.435  1.1631  1.0744 -0.4187
30772SOL    HW295272   1.081  10.374   9.523  1.0070 -1.0499  0.4890
30773SOL     OW95273  10.094   4.056   8.428 -0.3363  0.7465 -0.4328
30773SOL    HW195274  10.019   4.051   8.370 -0.1407  0.8413 -0.6972
30773SOL    HW295275  10.063   4.108   8.503 -0.4050  1.1587 -0.7459
30774SOL     OW95276   5.587   0.450   0.514 -0.1642 -0.1939  0.1233
30774SOL    HW195277   5.540   0.528   0.484 -0.2537  0.3959  1.7446
30774SOL    HW295278   5.528   0.377   0.493 -1.3021  0.4305  1.0420
30775SOL     OW95279   5.085   2.016  10.228 -0.5834 -0.3592 -0.1676
30775SOL    HW195280   5.089   1.920  10.232  1.7176 -0.2680  1.5445
30775SOL    HW295281   5.059   2.043  10.316  0.3264  0.6192 -0.1819
30776SOL     OW95282  10.114   6.816   9.805 -0.4534 -0.6853 -0.7436
30776SOL    HW195283  10.206   6.834   9.824 -0.6964 -0.6208  0.4288
30776SOL    HW295284  10.067   6.848   9.882 -1.5545  0.1680 -1.7440
30777SOL     OW95285   7.694   8.620   5.844  0.0914  0.4110 -0.2738
30777SOL    HW195286   7.617   8.677   5.847 -0.4687 -0.2796  3.5296
30777SOL    HW295287   7.686   8.574   5.760 -1.5174  3.0235 -1.7233
30778SOL     OW95288   8.077   1.187   4.849  0.2347  0.0197  0.3586
30778SOL    HW195289   8.003   1.219   4.902 -1.1116 -1.8202 -0.3262
30778SOL    HW295290   8.045   1.191   4.759  1.8700  1.4154 -0.2326
30779SOL     OW95291   5.006   0.550   0.814 -0.2764 -0.0951  0.2297
30779SOL    HW195292   4.939   0.538   0.882 -2.9745  3.7724 -1.3736
30779SOL    HW295293   4.963   0.520   0.733  1.0765 -0.2656 -0.4481
30780SOL     OW95294  10.277   1.439   7.987 -0.1451  0.0363 -0.5834
30780SOL    HW195295  10.315   1.378   7.924  2.8321  1.1080 -0.0011
30780SOL    HW295296  10.263   1.386   8.066  0.0463 -0.4394 -0.8621
30781SOL     OW95297  10.654   5.474   9.304  0.2820 -0.3973  0.5731
30781SOL    HW195298  10.713   5.529   9.354  0.7472 -1.5252  1.2829
30781SOL    HW295299  10.698   5.389   9.297 -0.6255 -0.8430 -0.0811
30782SOL     OW95300   1.629   7.418   6.877 -0.3921 -0.7928 -0.1685
30782SOL    HW195301   1.614   7.410   6.783 -0.2448  1.4859 -0.4326
30782SOL    HW295302   1.681   7.341   6.899 -1.8817 -2.2866 -1.5781
30783SOL     OW95303   6.637   2.196   4.177  0.0928 -0.7021 -0.3858
30783SOL    HW195304   6.702   2.191   4.106 -1.4234 -1.8962 -1.7623
30783SOL    HW295305   6.626   2.290   4.192  1.2296 -0.4501 -0.9530
30784SOL     OW95306   4.982   9.875   5.225  0.4969 -0.1844 -0.5395
30784SOL    HW195307   4.947   9.787   5.240  0.9429 -0.2485  0.1600
30784SOL    HW295308   5.076   9.865   5.234  0.5504  0.3570 -0.4977
30785SOL     OW95309   7.665   4.848   9.744  0.7912 -0.5245  0.0177
30785SOL    HW195310   7.667   4.833   9.650  0.4122  1.6152 -0.3844
30785SOL    HW295311   7.601   4.785   9.777  0.4208 -0.8378 -1.2590
30786SOL     OW95312   3.295   0.555   1.671  0.1169  0.0178 -0.6359
30786SOL    HW195313   3.233   0.524   1.737  0.4853 -1.6037 -1.0179
30786SOL    HW295314   3.361   0.603   1.722  0.3276 -1.0956  0.1744
30787SOL     OW95315   3.100   4.472   7.468  0.3845 -0.1004  0.4362
30787SOL    HW195316   3.130   4.559   7.495 -0.8074 -0.1127  1.9244
30787SOL    HW295317   3.163   4.412   7.508  1.4570  0.0613 -0.9456
30788SOL     OW95318   4.412   3.516   5.313 -0.4515  0.1915 -0.0245
30788SOL    HW195319   4.338   3.541   5.258 -1.4259  1.3078  1.7057
30788SOL    HW295320   4.470   3.592   5.311 -1.1741  0.8495  1.5183
30789SOL     OW95321   8.626   0.974   5.466 -0.3539  0.5597  0.0644
30789SOL    HW195322   8.716   1.007   5.471  0.1895 -0.8552  0.3895
30789SOL    HW295323   8.595   0.975   5.557 -0.0197 -0.5414  0.2143
30790SOL     OW95324   6.050   4.611   8.298 -0.1185 -0.1966 -0.0205
30790SOL    HW195325   6.094   4.616   8.382  1.5853  0.8435 -0.9144
30790SOL    HW295326   6.059   4.520   8.270  1.3041 -0.0518 -0.0785
30791SOL     OW95327   7.632   4.313   1.431 -0.1978 -0.0028  0.3388
30791SOL    HW195328   7.708   4.332   1.486  0.0567 -0.4678  0.1478
30791SOL    HW295329   7.668   4.288   1.346 -0.5293 -0.8467  0.4288
30792SOL     OW95330   3.505   8.125  10.586 -0.0765  0.6239  0.7035
30792SOL    HW195331   3.542   8.144  10.672  0.5177  0.9562  0.3852
30792SOL    HW295332   3.532   8.199  10.531 -2.1118  1.4296  0.6978
30793SOL     OW95333   1.685   2.630   4.762  0.1754  0.0168  0.8646
30793SOL    HW195334   1.683   2.631   4.666  1.9951 -1.2834  0.7483
30793SOL    HW295335   1.765   2.677   4.785 -0.8179  1.3004  1.8330
30794SOL     OW95336   2.887  10.665   8.100 -0.4261  0.0201  0.2039
30794SOL    HW195337   2.978  10.670   8.073 -0.8949 -0.6278 -1.5925
30794SOL    HW295338   2.869  10.750   8.140  1.1165 -0.0703  1.1741
30795SOL     OW95339   3.069   4.922   2.794 -0.0568 -0.1099 -0.1973
30795SOL    HW195340   3.161   4.917   2.770 -0.5267 -0.2800 -2.1465
30795SOL    HW295341   3.067   4.971   2.876  1.7428  0.0250 -0.2127
30796SOL     OW95342   4.033   7.142   5.291 -0.1470 -0.7071  0.1415
30796SOL    HW195343   4.073   7.164   5.207  0.9087 -0.4418  0.6979
30796SOL    HW295344   4.052   7.217   5.348 -3.6867  0.6832 -0.2491
30797SOL     OW95345   0.587   5.950   4.570 -0.6848 -0.1423  0.2288
30797SOL    HW195346   0.617   5.924   4.483 -4.2313  1.2719 -1.6230
30797SOL    HW295347   0.605   6.044   4.574 -0.7517 -0.1593  0.9522
30798SOL     OW95348   4.999   0.469   7.242  0.4942  0.0988  0.3201
30798SOL    HW195349   5.063   0.399   7.253 -0.8182 -0.9251  1.7375
30798SOL    HW295350   4.965   0.484   7.330 -1.9628 -0.1098 -0.5338
30799SOL     OW95351   3.146   5.703  10.433 -0.4180 -0.0336  0.1173
30799SOL    HW195352   3.188   5.744  10.509  0.4071  0.0531 -0.3742
30799SOL    HW295353   3.072   5.655  10.470  1.4961 -2.2637  1.3652
30800SOL     OW95354   9.944   7.405  10.484 -0.0338  0.4398  0.0431
30800SOL    HW195355   9.865   7.425  10.433  1.1051  0.2620 -1.8952
30800SOL    HW295356   9.996   7.486  10.480  0.4822  0.1136  0.1083
30801SOL     OW95357   9.331   8.455   6.037 -0.2729 -0.1377  0.6156
30801SOL    HW195358   9.271   8.383   6.055 -0.1606 -0.5072 -0.3885
30801SOL    HW295359   9.282   8.534   6.057 -1.1382 -0.4305 -0.3109
30802SOL     OW95360   2.283   0.343   4.946 -0.2803 -0.3260 -0.0373
30802SOL    HW195361   2.349   0.412   4.958 -1.0481  0.2976  0.7265
30802SOL    HW295362   2.329   0.262   4.967  0.3675  0.0542  0.0477
30803SOL     OW95363   4.450   6.118   1.625 -0.5835  0.3544 -0.0356
30803SOL    HW195364   4.463   6.064   1.703 -0.1711  0.4824 -0.0114
30803SOL    HW295365   4.359   6.105   1.601 -0.6802  0.2218  0.4020
30804SOL     OW95366   3.268   3.993   6.072  0.0958 -0.3873 -0.3629
30804SOL    HW195367   3.180   3.989   6.036  0.7448 -0.3888 -2.0229
30804SOL    HW295368   3.323   3.952   6.005  1.6372  1.4105 -0.2655
30805SOL     OW95369   3.484   2.638   2.371 -0.4981 -0.1157 -1.2015
30805SOL    HW195370   3.574   2.625   2.341 -0.6664 -0.8435 -1.4017
30805SOL    HW295371   3.478   2.732   2.387 -0.1287  0.1757 -2.5995
30806SOL     OW95372   8.900   7.247   8.744 -0.0191  0.0854 -0.4952
30806SOL    HW195373   8.859   7.193   8.812  0.0935 -0.0689 -0.5522
30806SOL    HW295374   8.937   7.321   8.792 -2.6451  1.6312 -0.6812
30807SOL     OW95375   9.278   2.052   2.736 -0.3294  0.1882 -0.0686
30807SOL    HW195376   9.206   2.052   2.799  1.3191  2.6465  2.0148
30807SOL    HW295377   9.284   2.142   2.706  1.5992 -0.0333 -0.5043
30808SOL     OW95378   6.442  10.027   4.239 -0.7054 -0.6095 -0.3322
30808SOL    HW195379   6.438  10.122   4.244  0.7253 -0.5433  3.6732
30808SOL    HW295380   6.535  10.007   4.236 -0.7851 -1.7573  1.9394
30809SOL     OW95381   2.736   4.882   0.451 -0.5157 -0.0222 -0.3521
30809SOL    HW195382   2.668   4.821   0.421  0.8448 -1.1056 -1.3298
30809SOL    HW295383   2.818   4.838   0.431  0.5020  0.9864  1.3925
30810SOL     OW95384   7.025   5.949   6.219  0.0109  0.1864  0.9445
30810SOL    HW195385   7.054   5.873   6.168  1.5838 -1.6156  4.1622
30810SOL    HW295386   7.104   5.978   6.265 -0.3226  4.4134 -0.6747
30811SOL     OW95387   6.827   0.792   8.551  0.4132  0.0955 -0.0779
30811SOL    HW195388   6.758   0.851   8.581 -0.0510 -0.3564 -0.2336
30811SOL    HW295389   6.804   0.773   8.460 -0.6061 -1.9150  0.5330
30812SOL     OW95390   5.850   7.595   8.026 -0.4276 -0.0549  0.0304
30812SOL    HW195391   5.899   7.513   8.027 -2.0492 -1.0557  1.5278
30812SOL    HW295392   5.873   7.638   8.108  0.0495  0.7987 -0.5324
30813SOL     OW95393   1.819   5.952   8.751 -0.3491  0.4085  0.2644
30813SOL    HW195394   1.812   5.857   8.750 -0.6299  0.4036 -1.9608
30813SOL    HW295395   1.776   5.978   8.832  0.1251 -1.3559  1.1395
30814SOL     OW95396   4.107   9.097   8.240 -0.3604  0.0430 -0.4492
30814SOL    HW195397   4.082   9.008   8.218 -0.9588  0.1964 -0.4142
30814SOL    HW295398   4.192   9.089   8.284 -1.4712 -0.7356  1.6744
30815SOL     OW95399   3.049   6.636   3.650  0.7031  0.8887  0.4421
30815SOL    HW195400   2.992   6.598   3.716  1.3500 -0.2045  0.3939
30815SOL    HW295401   3.077   6.562   3.596 -0.5947  1.8405 -1.7044
30816SOL     OW95402   0.223   0.037   6.940  0.0525  0.3219 -0.3910
30816SOL    HW195403   0.226   0.116   6.993 -0.7326  0.6450 -0.8131
30816SOL    HW295404   0.315   0.012   6.929  0.2097 -1.1402  3.1112
30817SOL     OW95405   9.027   4.752   2.336 -0.1132 -0.0502 -0.5152
30817SOL    HW195406   8.940   4.713   2.344  0.3392 -0.7178  1.7150
30817SOL    HW295407   9.034   4.776   2.243 -3.5832  2.2525 -0.3753
30818SOL     OW95408   0.892   8.920   4.442 -0.3610 -0.1594 -0.5698
30818SOL    HW195409   0.902   8.850   4.377 -1.9478 -0.6990 -0.2549
30818SOL    HW295410   0.813   8.967   4.415 -1.5756 -0.9348  1.4397
30819SOL     OW95411   5.200   2.452   9.655 -0.0918 -0.3681  0.2407
30819SOL    HW195412   5.214   2.453   9.750  1.6851  1.2790  0.0291
30819SOL    HW295413   5.235   2.536   9.625 -1.1152 -0.6126 -1.8236
30820SOL     OW95414   3.393   4.325   5.954  0.5477 -0.2346  0.7349
30820SOL    HW195415   3.459   4.256   5.947  0.6758 -0.0529  0.1397
30820SOL    HW295416   3.319   4.283   5.998  1.0924 -0.4112  1.5109
30821SOL     OW95417   0.793   2.300   0.163  0.7306  0.1084 -0.0945
30821SOL    HW195418   0.844   2.276   0.240 -0.6173  1.7008  1.3841
30821SOL    HW295419   0.817   2.392   0.146 -0.4417  0.3865 -0.3388
30822SOL     OW95420   8.288   7.657   0.303  0.3343  0.2653 -0.4877
30822SOL    HW195421   8.316   7.570   0.275  2.0415  0.4956  0.3441
30822SOL    HW295422   8.197   7.664   0.275 -0.3040 -2.3335  0.6222
30823SOL     OW95423   3.912   8.987   3.160 -0.1144  0.4476  0.8805
30823SOL    HW195424   3.901   8.954   3.071 -0.1663 -0.8745  1.3593
30823SOL    HW295425   3.923   9.082   3.149 -0.7578  0.3871 -0.4710
30824SOL     OW95426   8.451   8.103   8.852  0.3366  0.2854 -0.1908
30824SOL    HW195427   8.360   8.075   8.860  0.4813 -0.4050 -0.8173
30824SOL    HW295428   8.483   8.057   8.774  1.7921 -1.0508  1.1186
30825SOL     OW95429   9.526   0.830   3.500  0.2512  0.7331 -0.7780
30825SOL    HW195430   9.615   0.809   3.530  0.0344  0.9306  0.0044
30825SOL    HW295431   9.496   0.749   3.458  1.1638  0.9612 -1.9593
30826SOL     OW95432   4.205   8.584   2.781 -0.3385  0.1696  0.0909
30826SOL    HW195433   4.290   8.550   2.809 -0.4791 -0.6077 -0.3888
30826SOL    HW295434   4.218   8.679   2.776 -0.0566  0.2678  1.8717
30827SOL     OW95435   1.520   2.611   0.247 -0.2996 -1.0661  0.5712
30827SOL    HW195436   1.488   2.621   0.337 -1.6948 -2.3286  0.2752
30827SOL    HW295437   1.545   2.519   0.241 -0.4540 -1.0596 -0.3902
30828SOL     OW95438   6.636   2.753   2.480 -0.1716 -0.4416  0.4499
30828SOL    HW195439   6.590   2.738   2.563  0.0133  1.6687  0.9871
30828SOL    HW295440   6.687   2.673   2.467 -1.8282 -1.7035  1.2502
30829SOL     OW95441   0.082   6.766  10.102 -0.1186  0.1168  0.1765
30829SOL    HW195442   0.065   6.682  10.060  1.1169 -0.1320  0.1190
30829SOL    HW295443   0.032   6.829  10.051 -1.3605 -0.6207  0.4499
30830SOL     OW95444   4.720   9.432   9.371  0.4523 -0.7028  0.5851
30830SOL    HW195445   4.767   9.350   9.362  0.7510 -0.6440  1.5519
30830SOL    HW295446   4.700   9.439   9.464 -0.1805 -0.0142  0.4103
30831SOL     OW95447   3.543   5.962   7.233  0.0761  0.8838 -0.6910
30831SOL    HW195448   3.484   5.993   7.302 -0.3216 -0.6918 -0.2808
30831SOL    HW295449   3.530   6.023   7.160 -0.4790  1.7950  0.1437
30832SOL     OW95450   2.046   3.896   4.454 -0.2352 -0.1344  0.4905
30832SOL    HW195451   2.065   3.976   4.503  0.2193  0.0906 -0.0424
30832SOL    HW295452   2.035   3.926   4.364 -1.4038 -0.4982  0.4955
30833SOL     OW95453   6.402   9.527   6.003  0.7717  0.3842 -0.4400
30833SOL    HW195454   6.344   9.452   6.013  0.8524  0.4317  0.5579
30833SOL    HW295455   6.407   9.565   6.091  0.7119  1.5694 -0.9239
30834SOL     OW95456   3.501   6.622   2.327  0.0286  0.0620  0.5266
30834SOL    HW195457   3.486   6.531   2.301  1.4783 -0.8122  2.4415
30834SOL    HW295458   3.442   6.635   2.402  0.7145  0.2819  1.0324
30835SOL     OW95459   3.867   8.286   4.675  0.5116 -0.1910 -0.3164
30835SOL    HW195460   3.803   8.317   4.739  1.9686  1.0604  0.6161
30835SOL    HW295461   3.817   8.233   4.614 -0.9485 -1.4618  1.8750
30836SOL     OW95462   5.226   6.518   1.134 -0.0632 -0.6143 -0.3702
30836SOL    HW195463   5.220   6.460   1.210  0.2782 -2.2232 -1.5196
30836SOL    HW295464   5.139   6.556   1.125  0.5302  1.8281  2.4253
30837SOL     OW95465   9.324   6.675   3.135 -0.0832 -0.2649 -0.2598
30837SOL    HW195466   9.384   6.720   3.194 -0.0957  1.7594 -1.7006
30837SOL    HW295467   9.238   6.684   3.175 -0.0399  0.7450 -0.3885
30838SOL     OW95468   1.727   5.343   7.369 -0.3427 -0.1440 -0.8352
30838SOL    HW195469   1.634   5.342   7.348 -0.5036 -0.2636 -0.1516
30838SOL    HW295470   1.741   5.425   7.416  0.0436  0.2022 -1.5437
30839SOL     OW95471   5.171   9.950   4.340  0.3992 -0.3268  1.0151
30839SOL    HW195472   5.256   9.920   4.371  0.2542 -0.1336  1.6207
30839SOL    HW295473   5.110   9.881   4.369  0.3847 -0.6228  0.3117
30840SOL     OW95474   8.506   4.572   6.123 -0.3857 -0.4170 -0.3591
30840SOL    HW195475   8.441   4.642   6.114  1.1821  1.1323 -0.0873
30840SOL    HW295476   8.550   4.591   6.206 -0.8672 -2.5857  0.4518
30841SOL     OW95477   3.144   2.174   9.561 -0.1352 -0.1830 -0.1983
30841SOL    HW195478   3.066   2.141   9.516  0.7955 -1.0018 -1.2825
30841SOL    HW295479   3.217   2.128   9.519  0.8222 -0.8955  2.0853
30842SOL     OW95480   7.348   9.774   6.882  0.0129  0.0032 -0.2510
30842SOL    HW195481   7.259   9.774   6.917  0.0879 -1.3543 -0.0060
30842SOL    HW295482   7.348   9.704   6.817  1.2248 -0.8481  0.6316
30843SOL     OW95483   7.527   2.873   1.377  0.0175  0.4319  0.6331
30843SOL    HW195484   7.438   2.839   1.386 -0.4517  1.0237 -1.2460
30843SOL    HW295485   7.570   2.850   1.459 -1.3106 -1.4918  0.8595
30844SOL     OW95486  10.685   4.363   7.853 -0.3283 -0.1838  0.3229
30844SOL    HW195487  10.621   4.431   7.873  0.5187  1.0591 -1.0158
30844SOL    HW295488  10.727   4.392   7.772  2.0904 -0.8476  1.2464
30845SOL     OW95489   1.527   1.068   2.241  0.5180  0.1488 -0.4497
30845SOL    HW195490   1.455   1.070   2.304  0.1683 -2.2864 -0.6833
30845SOL    HW295491   1.602   1.040   2.292  1.5299  3.0850 -0.1111
30846SOL     OW95492   9.924  10.506   9.617 -0.0937  0.3833  0.0035
30846SOL    HW195493   9.856  10.533   9.679 -0.0120  3.1220 -0.9489
30846SOL    HW295494   9.876  10.490   9.535  0.0250 -1.3348  0.2350
30847SOL     OW95495  10.609  10.302   5.291 -0.4064 -0.0040  0.3261
30847SOL    HW195496  10.566  10.382   5.321  0.4672  0.5354  0.1865
30847SOL    HW295497  10.680  10.288   5.354  0.0352 -0.1273 -0.1945
30848SOL     OW95498   0.425   7.546  10.390  0.1154 -0.4424 -0.3170
30848SOL    HW195499   0.409   7.489  10.315  0.2397 -1.6045  0.5129
30848SOL    HW295500   0.339   7.580  10.413 -0.1541 -1.2337 -0.1130
30849SOL     OW95501   4.256   6.429   1.813 -0.1695  0.0893 -0.1581
30849SOL    HW195502   4.173   6.411   1.856 -0.7934  0.0611 -1.3229
30849SOL    HW295503   4.292   6.504   1.860 -1.0101  0.3068  0.1535
30850SOL     OW95504   8.686   3.520   2.722  0.2940 -0.0976 -0.3099
30850SOL    HW195505   8.699   3.431   2.690 -1.1581 -0.7809  0.8628
30850SOL    HW295506   8.695   3.575   2.644 -1.1869 -1.4929 -1.5414
30851SOL     OW95507   8.785   1.384   6.717  0.0643 -0.2093  0.0963
30851SOL    HW195508   8.733   1.305   6.700 -0.3227 -0.0021  0.2939
30851SOL    HW295509   8.850   1.356   6.782 -1.7142  0.2381  2.1901
30852SOL     OW95510   6.240   5.147   8.108 -0.3901 -0.6752  0.0132
30852SOL    HW195511   6.331   5.162   8.134 -0.3262 -0.1409 -0.4970
30852SOL    HW295512   6.198   5.115   8.188 -0.2468  1.1551  0.8928
30853SOL     OW95513   1.204   4.295   3.548  0.0733  0.3113 -0.0514
30853SOL    HW195514   1.197   4.200   3.544  2.1026 -0.2834  4.4672
30853SOL    HW295515   1.117   4.325   3.576 -0.1516 -0.3487 -0.0345
30854SOL     OW95516   5.785   6.813   3.823 -0.4209  0.1785 -0.0491
30854SOL    HW195517   5.727   6.787   3.894  0.6160  0.5113  0.9342
30854SOL    HW295518   5.819   6.899   3.849 -0.3389  0.4991 -1.1392
30855SOL     OW95519   8.917   6.315   6.266  0.0075  0.3476 -0.3352
30855SOL    HW195520   8.841   6.368   6.288 -0.3327 -0.0341 -0.5716
30855SOL    HW295521   8.974   6.372   6.214  0.0937  0.7721  0.2156
30856SOL     OW95522   2.107   6.697  10.067 -0.5558 -0.3431  0.1950
30856SOL    HW195523   2.197   6.682  10.038 -0.7611 -1.3160  0.0135
30856SOL    HW295524   2.055   6.693   9.987 -0.7909 -0.0913  0.3345
30857SOL     OW95525   6.399   1.792   9.061  0.6316  0.0501 -0.4085
30857SOL    HW195526   6.422   1.883   9.043  2.3439 -0.5611 -1.5216
30857SOL    HW295527   6.480   1.752   9.093  0.0148 -1.1987 -0.3063
30858SOL     OW95528  10.167   8.698   7.807  0.5699  0.8633  0.1142
30858SOL    HW195529  10.119   8.643   7.746  0.9398 -1.1091  1.5196
30858SOL    HW295530  10.106   8.770   7.827 -0.3536  0.3959 -0.9191
30859SOL     OW95531   9.561   8.810   8.785 -0.0680 -0.0879 -0.1811
30859SOL    HW195532   9.539   8.861   8.706 -0.6054 -1.1019 -0.7011
30859SOL    HW295533   9.646   8.771   8.765 -0.1105 -0.1831 -0.1773
30860SOL     OW95534   4.021   2.654   9.555  0.3315 -0.3270  0.5111
30860SOL    HW195535   3.989   2.576   9.508  0.9117 -0.2550 -0.0186
30860SOL    HW295536   4.001   2.727   9.496 -1.1495  0.0727  1.4538
30861SOL     OW95537   4.085   2.593  10.466  0.0530 -0.6480  0.1360
30861SOL    HW195538   4.113   2.670  10.515  1.9742 -2.1428  1.5591
30861SOL    HW295539   4.128   2.601  10.381 -1.0876  0.6123 -0.3514
30862SOL     OW95540  10.236   4.726   8.475  0.2753  0.2093 -0.3176
30862SOL    HW195541  10.309   4.772   8.432 -0.2935  0.4403 -1.0622
30862SOL    HW295542  10.265   4.715   8.566  0.9968  0.8149 -0.4589
30863SOL     OW95543   9.942   4.614   1.580 -0.1530 -0.1719  0.1717
30863SOL    HW195544   9.942   4.557   1.503 -0.7324 -0.8835  0.6752
30863SOL    HW295545   9.875   4.680   1.561 -1.4597 -1.2966  0.7164
30864SOL     OW95546   5.713   9.712  10.374 -0.6251 -0.3332 -0.1617
30864SOL    HW195547   5.667   9.792  10.400 -3.4050 -1.9363  0.2698
30864SOL    HW295548   5.718   9.717  10.278  1.0792  1.2217 -0.0407
30865SOL     OW95549   1.561   5.671   1.143 -0.1636 -0.1989 -0.5899
30865SOL    HW195550   1.573   5.638   1.054 -1.5664  0.0775 -0.9012
30865SOL    HW295551   1.602   5.758   1.142  1.1681 -0.7984 -0.5141
30866SOL     OW95552   2.430   9.997  10.537  0.3869 -0.3640 -0.2188
30866SOL    HW195553   2.496   9.977  10.603  0.8704  0.6759 -0.3564
30866SOL    HW295554   2.478  10.042  10.468 -0.5165  0.8166 -0.1222
30867SOL     OW95555   2.815   8.732   0.781  0.4827  0.2345  0.0946
30867SOL    HW195556   2.745   8.690   0.831  2.0114  0.7347  2.8141
30867SOL    HW295557   2.769   8.773   0.707 -1.5045 -2.9924 -0.6928
30868SOL     OW95558   7.655   7.339   4.426  0.2657 -0.2271  0.2406
30868SOL    HW195559   7.612   7.262   4.390  0.5521  0.1241 -0.9250
30868SOL    HW295560   7.665   7.397   4.350 -1.4118  1.6599  1.3649
30869SOL     OW95561   3.322   8.310   1.940  0.3597 -0.8395  0.1863
30869SOL    HW195562   3.328   8.392   1.890  1.9231  0.1931  1.9815
30869SOL    HW295563   3.236   8.315   1.983  0.7695  0.2686  0.9221
30870SOL     OW95564   8.983   6.462   2.327 -0.8020  0.3325  0.1496
30870SOL    HW195565   9.078   6.463   2.339 -1.0647  2.6979  3.3285
30870SOL    HW295566   8.968   6.515   2.249  0.4651 -1.5509 -1.4824
30871SOL     OW95567   9.662   5.315   9.910 -0.6790  0.0832 -0.0103
30871SOL    HW195568   9.594   5.250   9.925 -0.8816  0.1877 -0.4486
30871SOL    HW295569   9.737   5.284   9.960 -0.0473 -1.6444 -1.9076
30872SOL     OW95570   9.577   8.861   4.556 -0.3111 -0.7147 -0.0741
30872SOL    HW195571   9.557   8.935   4.498 -1.7680 -0.2257  1.0175
30872SOL    HW295572   9.588   8.787   4.496 -1.5188 -0.1713 -1.0230
30873SOL     OW95573   1.208   5.407   3.398 -0.3489  0.0684 -0.1234
30873SOL    HW195574   1.155   5.371   3.327  0.7218 -1.1491 -0.3621
30873SOL    HW295575   1.220   5.499   3.376 -1.9433  0.2569 -0.2974
30874SOL     OW95576   9.672  10.371   6.443 -0.1139  0.5749  0.0501
30874SOL    HW195577   9.629  10.286   6.431 -0.0230  0.4666  0.4588
30874SOL    HW295578   9.747  10.369   6.383  2.5034 -1.4451  3.0282
30875SOL     OW95579   3.723   7.483   7.818 -0.0420 -0.0383 -0.2023
30875SOL    HW195580   3.783   7.488   7.892  0.1210  0.2668 -0.3521
30875SOL    HW295581   3.649   7.538   7.843  1.0506  1.9891 -1.2070
30876SOL     OW95582   9.721   7.820   9.395  0.3532 -0.1173 -0.5205
30876SOL    HW195583   9.792   7.874   9.431  0.3328  0.6382 -1.5697
30876SOL    HW295584   9.727   7.833   9.300 -1.2914  0.0803 -0.6135
30877SOL     OW95585   5.168   4.701   3.747  0.0296  0.4555 -0.3355
30877SOL    HW195586   5.237   4.757   3.712  0.5860  0.6353  0.9738
30877SOL    HW295587   5.091   4.758   3.752 -0.0131  0.4735 -1.0598
30878SOL     OW95588   2.810   8.737   3.561  0.6988  0.2714  0.6953
30878SOL    HW195589   2.861   8.657   3.574  1.5557  0.5296 -0.8425
30878SOL    HW295590   2.850   8.802   3.618 -0.2535 -0.4632  2.2629
30879SOL     OW95591   6.945   0.374   1.173  0.1860 -0.5109  0.0040
30879SOL    HW195592   6.882   0.422   1.226 -0.2838 -0.7380 -0.3296
30879SOL    HW295593   7.004   0.333   1.236  0.9907  1.0146  0.2665
30880SOL     OW95594  10.666   5.772   5.811  0.2535 -0.2531 -0.1141
30880SOL    HW195595  10.709   5.690   5.835 -0.6247 -0.9827 -0.9866
30880SOL    HW295596  10.738   5.833   5.798  0.9060 -0.7916  0.8109
30881SOL     OW95597   4.317   2.724   4.773 -0.9464  0.0497 -0.2083
30881SOL    HW195598   4.354   2.768   4.849 -0.2569  0.4105 -0.7429
30881SOL    HW295599   4.266   2.791   4.728 -2.0937 -0.3826  0.3907
30882SOL     OW95600   6.953   9.512   3.665 -0.7348  0.3208 -0.3038
30882SOL    HW195601   6.936   9.422   3.691 -1.8924  0.7491  0.5139
30882SOL    HW295602   6.957   9.509   3.569  1.8294 -0.9999 -0.2431
30883SOL     OW95603   1.699   6.608   3.839  0.0450  0.2392 -0.0955
30883SOL    HW195604   1.672   6.643   3.924 -1.2536  0.2650 -0.5047
30883SOL    HW295605   1.617   6.589   3.793  0.7307 -0.5419 -1.0336
30884SOL     OW95606   2.677   5.770   3.548  0.3228 -0.1882 -0.1528
30884SOL    HW195607   2.732   5.829   3.600 -1.3463 -0.1509  1.6939
30884SOL    HW295608   2.740   5.716   3.499  2.3421 -2.3185  4.1992
30885SOL     OW95609   1.798   1.860   4.443 -0.5602  0.6083 -0.0775
30885SOL    HW195610   1.823   1.778   4.485 -1.5800 -0.1744 -0.9565
30885SOL    HW295611   1.871   1.880   4.384 -0.4281  0.1988 -0.0539
30886SOL     OW95612   2.815   8.995   6.198  0.1385 -0.5232 -0.0475
30886SOL    HW195613   2.797   8.967   6.288 -1.4074 -0.5794 -0.3389
30886SOL    HW295614   2.831   9.089   6.205 -0.3943 -0.4488  0.2524
30887SOL     OW95615   8.880   5.910   2.422 -0.2192 -0.2230  0.7660
30887SOL    HW195616   8.831   5.949   2.350 -0.3538 -0.0035  0.9710
30887SOL    HW295617   8.823   5.921   2.498 -0.1199 -0.5333  0.8900
30888SOL     OW95618   6.082   7.546   2.600  0.1931  0.4470 -0.6118
30888SOL    HW195619   6.064   7.495   2.679  1.5328  0.2738 -0.3890
30888SOL    HW295620   5.997   7.553   2.556 -0.5774  0.5519  0.8271
30889SOL     OW95621   9.404   1.318   9.486 -0.4463  0.1630  0.5872
30889SOL    HW195622   9.461   1.394   9.476 -1.5360  1.4492  3.0428
30889SOL    HW295623   9.359   1.310   9.402  2.2909 -0.0769 -0.9419
30890SOL     OW95624   3.654   7.671   8.106  0.0355 -0.0774  0.5831
30890SOL    HW195625   3.741   7.656   8.068  0.1776 -0.7967  1.1734
30890SOL    HW295626   3.658   7.760   8.141  0.4696 -0.0380  0.4367
30891SOL     OW95627   1.748   6.093   4.565 -0.6983 -0.2059  0.1774
30891SOL    HW195628   1.663   6.117   4.602 -1.4334 -2.1548 -0.1483
30891SOL    HW295629   1.758   6.000   4.586  1.9156  0.2309  1.2146
30892SOL     OW95630   1.121  10.104   7.606  0.2638 -0.0422 -0.2098
30892SOL    HW195631   1.121  10.159   7.684  0.4789  0.1036 -0.3143
30892SOL    HW295632   1.122  10.014   7.640 -0.3393  0.0087 -0.0376
30893SOL     OW95633   9.419   0.532   7.443 -0.2502  0.1761 -0.4798
30893SOL    HW195634   9.393   0.443   7.416 -1.7041 -0.1015  1.6024
30893SOL    HW295635   9.458   0.521   7.530  0.3025  1.5029 -0.5357
30894SOL     OW95636   8.862   3.774   9.438 -0.6204 -0.9845  0.3463
30894SOL    HW195637   8.818   3.689   9.446 -2.0668 -0.4672 -1.4729
30894SOL    HW295638   8.913   3.767   9.358  0.3127 -0.5584  0.8883
30895SOL     OW95639   1.837   2.587   2.876 -0.0795  0.0203 -0.3638
30895SOL    HW195640   1.922   2.558   2.843  0.2018  1.2738 -0.8040
30895SOL    HW295641   1.819   2.668   2.828 -1.2077  0.1386  0.2156
30896SOL     OW95642   1.473   9.536   3.199  0.2033  0.3416 -0.1100
30896SOL    HW195643   1.553   9.544   3.251 -0.8145 -0.7162  1.6981
30896SOL    HW295644   1.412   9.600   3.237 -0.0428  0.7300 -1.1021
30897SOL     OW95645   1.954   1.004   1.283 -0.3603  0.8564 -0.2030
30897SOL    HW195646   1.956   1.010   1.379  0.8533 -0.4251 -0.1146
30897SOL    HW295647   1.862   1.015   1.260 -0.4411  3.2052  0.9333
30898SOL     OW95648   5.612   5.448   9.366  0.4879 -0.4263 -0.4830
30898SOL    HW195649   5.694   5.445   9.415 -0.1897  1.0532  0.8276
30898SOL    HW295650   5.589   5.541   9.363  0.0164 -0.5433 -2.8727
30899SOL     OW95651   5.956   3.501   3.734  0.2868  0.7053  0.3195
30899SOL    HW195652   6.040   3.525   3.693 -0.4423  1.3149 -0.8556
30899SOL    HW295653   5.890   3.538   3.676 -0.7999  1.3104  1.9030
30900SOL     OW95654   9.802   1.033   3.361  0.3562 -0.1449  0.2949
30900SOL    HW195655   9.841   0.998   3.441  1.5203 -0.2577 -0.3109
30900SOL    HW295656   9.712   1.056   3.387  0.9099  0.4431  1.7993
30901SOL     OW95657   3.647   9.516   9.289 -0.1626 -0.4491  0.0741
30901SOL    HW195658   3.691   9.496   9.206  0.3388 -0.2670  0.2900
30901SOL    HW295659   3.687   9.456   9.352  1.0153  0.8488  0.6261
30902SOL     OW95660   8.513  10.440   5.427  0.0076 -0.0282 -0.5510
30902SOL    HW195661   8.512  10.376   5.356 -1.4526  0.2631 -0.8289
30902SOL    HW295662   8.478  10.393   5.503 -0.8455  0.3407 -0.6967
30903SOL     OW95663   0.325   9.591   1.253  0.2124 -0.1715 -0.2412
30903SOL    HW195664   0.354   9.530   1.185 -2.9071 -1.5110 -0.5466
30903SOL    HW295665   0.321   9.537   1.332  0.3671  0.4283  0.1760
30904SOL     OW95666  10.356   4.700   8.728 -0.1804 -0.1853  0.1625
30904SOL    HW195667  10.420   4.754   8.775  0.5442 -0.2268 -0.7400
30904SOL    HW295668  10.309   4.653   8.797 -0.8653  1.5978  0.9699
30905SOL     OW95669   0.120   5.408   2.667 -0.2068 -0.1714 -0.2922
30905SOL    HW195670   0.097   5.324   2.706 -1.2396 -0.2131 -0.9469
30905SOL    HW295671   0.158   5.385   2.582  0.8919 -0.0274  0.1432
30906SOL     OW95672   9.156   7.883   3.580 -0.2559 -0.0115 -0.0236
30906SOL    HW195673   9.106   7.935   3.517  1.5883  1.6855 -0.2008
30906SOL    HW295674   9.181   7.804   3.532 -1.2607 -0.0748 -0.4697
30907SOL     OW95675   6.406   0.527   7.407  0.5143 -0.1457  0.0778
30907SOL    HW195676   6.476   0.547   7.470  1.8969 -1.0317 -1.1118
30907SOL    HW295677   6.411   0.597   7.342  0.6269 -0.4622 -0.2614
30908SOL     OW95678  10.008   5.934   9.997  0.3295 -0.2217  0.4509
30908SOL    HW195679  10.022   6.003   9.932 -0.7841 -0.2950  0.0995
30908SOL    HW295680   9.913   5.934  10.011  0.5382 -0.3552  1.9293
30909SOL     OW95681   6.821   6.371   2.828 -0.6925 -0.2402  0.1012
30909SOL    HW195682   6.824   6.462   2.799  0.9181 -0.2691  0.1197
30909SOL    HW295683   6.734   6.340   2.800 -0.4582  0.6725 -1.7873
30910SOL     OW95684   2.324   8.090   1.036 -0.5712 -0.0495  0.1430
30910SOL    HW195685   2.357   8.144   0.965  1.2260  0.8712  1.6058
30910SOL    HW295686   2.336   8.000   1.006 -1.3828  0.3094 -1.3521
30911SOL     OW95687   2.170   3.318   3.931  0.0064  0.1713  0.7085
30911SOL    HW195688   2.229   3.387   3.963  0.1536  0.0668  0.6622
30911SOL    HW295689   2.228   3.254   3.890 -0.1993  0.4053  0.0449
30912SOL     OW95690   7.898   0.019  10.659  0.4839  0.1968  0.6500
30912SOL    HW195691   7.861   0.054  10.741  1.3844 -0.2776  1.2639
30912SOL    HW295692   7.826   0.028  10.596 -0.1533  0.7752  1.4260
30913SOL     OW95693   9.900   9.791   8.428  0.0132 -0.4424  0.0097
30913SOL    HW195694   9.957   9.861   8.396 -0.0472 -0.6173 -0.4933
30913SOL    HW295695   9.837   9.836   8.485  1.5793 -0.4560  1.8271
30914SOL     OW95696   0.181   4.437   8.064 -0.8668  0.1289 -0.1904
30914SOL    HW195697   0.165   4.380   7.989 -0.4419  0.1479 -0.2962
30914SOL    HW295698   0.156   4.384   8.140 -0.2968 -0.2747 -0.2756
30915SOL     OW95699   0.187   0.138   7.966 -0.0261 -0.0991  0.6540
30915SOL    HW195700   0.178   0.073   7.895  1.2438  0.5002 -0.1017
30915SOL    HW295701   0.117   0.201   7.949  0.1080 -0.0966  0.0689
30916SOL     OW95702   9.780   6.168  10.155  0.2814  0.2341  0.2616
30916SOL    HW195703   9.833   6.196  10.230  3.3231 -0.5245 -1.4282
30916SOL    HW295704   9.752   6.079  10.177  1.0585  0.0530  0.5478
30917SOL     OW95705   3.711   2.408   0.743 -0.1792 -0.1811 -0.4532
30917SOL    HW195706   3.659   2.438   0.668 -0.2899  1.7479  0.3173
30917SOL    HW295707   3.666   2.329   0.773 -1.1260 -0.0334 -1.4156
30918SOL     OW95708   4.389   8.166   6.528 -0.1816 -0.2750  0.0217
30918SOL    HW195709   4.480   8.155   6.556  0.1456  0.1120 -0.8604
30918SOL    HW295710   4.362   8.080   6.498 -0.6174 -0.7633  1.6788
30919SOL     OW95711   1.883   6.961   8.701 -0.6145  0.1991 -0.0052
30919SOL    HW195712   1.933   6.971   8.782 -1.9075  1.2171  0.7054
30919SOL    HW295713   1.900   6.871   8.674  1.7360  0.5495  0.0816
30920SOL     OW95714   8.904   7.719   5.447 -0.2869 -0.5443 -0.4361
30920SOL    HW195715   8.921   7.672   5.366 -0.0225 -2.4126  0.6452
30920SOL    HW295716   8.980   7.777   5.457 -0.4744 -0.0615 -1.6393
30921SOL     OW95717   4.972   9.148   7.847 -0.0435 -0.6390  0.1690
30921SOL    HW195718   4.956   9.217   7.911  2.0068  0.3226 -0.2786
30921SOL    HW295719   4.885   9.118   7.822 -0.9902  1.5442  0.6208
30922SOL     OW95720   3.633   5.410   3.508 -0.0619  0.8553  0.4425
30922SOL    HW195721   3.704   5.468   3.479 -0.5736  1.2674 -0.0000
30922SOL    HW295722   3.659   5.323   3.476 -1.0529  1.4172 -2.2023
30923SOL     OW95723   4.808   8.297   0.785 -0.0248  0.0898  0.2819
30923SOL    HW195724   4.729   8.245   0.791 -0.2073  0.2722 -0.3547
30923SOL    HW295725   4.851   8.266   0.705  1.4856 -1.2599  1.5341
30924SOL     OW95726   6.601   6.193   8.216  0.5171  0.5579  0.0914
30924SOL    HW195727   6.625   6.230   8.301  2.1211 -0.1107 -0.0268
30924SOL    HW295728   6.579   6.269   8.162  1.6040  1.1856  0.4915
30925SOL     OW95729   9.295   3.595   6.181  0.4726  0.1446  0.0826
30925SOL    HW195730   9.282   3.682   6.143 -1.4747  0.2582  0.8758
30925SOL    HW295731   9.329   3.612   6.269  0.6513  0.0843  0.0247
30926SOL     OW95732  10.261   1.476   7.048 -0.6552  0.1813  1.0225
30926SOL    HW195733  10.171   1.444   7.045 -0.5717 -0.1000  1.4002
30926SOL    HW295734  10.252   1.571   7.059 -0.9008  0.2722  0.1179
30927SOL     OW95735   3.664   6.443   6.159  0.4887  0.7588  0.3444
30927SOL    HW195736   3.716   6.438   6.240 -0.1588  1.7432  0.8378
30927SOL    HW295737   3.579   6.407   6.184  1.4857 -3.0649 -1.0379
30928SOL     OW95738   0.445   8.602   0.610 -0.9625 -0.2240  0.2702
30928SOL    HW195739   0.479   8.513   0.618  0.2824  0.1342 -0.7468
30928SOL    HW295740   0.435   8.616   0.516  0.7293  1.3429  0.2609
30929SOL     OW95741   6.614  10.382   8.897  0.4721 -0.3464 -0.3631
30929SOL    HW195742   6.602  10.303   8.844  1.1500  0.2386 -1.4214
30929SOL    HW295743   6.573  10.451   8.845 -0.1321  0.0048  0.5641
30930SOL     OW95744   0.514   7.981   9.003 -0.0087  0.4648 -0.2011
30930SOL    HW195745   0.551   8.070   9.010 -0.7706  0.7652  0.1411
30930SOL    HW295746   0.421   7.993   9.020 -0.6925  0.0471 -3.1360
30931SOL     OW95747   3.675   8.297   1.039 -0.0504  0.4586  0.3859
30931SOL    HW195748   3.600   8.332   1.087  0.1195  0.6051  0.5494
30931SOL    HW295749   3.689   8.210   1.076 -1.4238 -0.4337 -1.0708
30932SOL     OW95750  10.571   1.522   5.609  0.1925 -0.2499  0.2130
30932SOL    HW195751  10.626   1.443   5.616  0.8208  0.2512  1.0931
30932SOL    HW295752  10.503   1.509   5.674  1.1318  0.5703  1.3950
30933SOL     OW95753   4.466   9.010   3.542 -0.6337 -0.1246 -0.2431
30933SOL    HW195754   4.373   9.035   3.540 -0.5110  0.4039 -2.6101
30933SOL    HW295755   4.496   9.024   3.452  0.8349 -3.8014 -0.4736
30934SOL     OW95756   1.985   0.006   4.964  0.1162 -0.4106  0.8166
30934SOL    HW195757   1.987   0.081   5.023  1.1711  1.4352 -1.4126
30934SOL    HW295758   1.892  -0.009   4.948 -0.1883 -0.8658  2.7385
30935SOL     OW95759   2.127   3.532   2.277 -0.4749  0.0783  0.0125
30935SOL    HW195760   2.177   3.491   2.207 -2.2472 -1.7990 -0.2296
30935SOL    HW295761   2.173   3.507   2.357  1.5123  2.1662 -0.3845
30936SOL     OW95762   7.484   6.164   2.916 -0.3303  0.1241  0.1951
30936SOL    HW195763   7.524   6.244   2.883 -0.9510  0.5172  0.3870
30936SOL    HW295764   7.548   6.130   2.980  0.7806 -0.5278 -1.2041
30937SOL     OW95765   4.502   6.817  10.478 -0.2806 -0.0481  0.0746
30937SOL    HW195766   4.587   6.801  10.520 -0.2820  0.1188  0.1396
30937SOL    HW295767   4.447   6.745  10.509 -0.1209 -0.2406 -0.0830
30938SOL     OW95768   1.627   4.671   3.477 -0.4584  0.4226  0.1256
30938SOL    HW195769   1.706   4.703   3.432  0.4065  0.2807  1.4847
30938SOL    HW295770   1.554   4.705   3.425  0.4741 -0.3465 -1.7975
30939SOL     OW95771   1.219   4.934   3.741 -0.1665  0.6599 -0.0410
30939SOL    HW195772   1.292   4.877   3.717 -1.0797 -0.8844  0.6590
30939SOL    HW295773   1.190   4.901   3.826 -2.0853  0.7866 -0.5981
30940SOL     OW95774   8.826   4.524   3.622 -0.5955  0.0614 -0.7155
30940SOL    HW195775   8.785   4.533   3.708 -0.5559  0.1593 -0.7078
30940SOL    HW295776   8.895   4.459   3.634 -0.1113  0.6113 -0.5088
30941SOL     OW95777  10.202  10.312   8.114 -0.5105  0.3788 -0.5761
30941SOL    HW195778  10.154  10.238   8.075  0.2535 -0.0757 -0.6803
30941SOL    HW295779  10.205  10.291   8.207  1.0327 -0.5380 -0.7893
30942SOL     OW95780  10.577  10.091   9.615 -0.1664  0.2069  0.3384
30942SOL    HW195781  10.540  10.043   9.689 -0.9127 -0.6554 -0.5594
30942SOL    HW295782  10.529  10.057   9.539  0.2180  1.4381 -0.4754
30943SOL     OW95783  10.175   8.479   8.738  0.5934  0.3423 -0.6726
30943SOL    HW195784  10.091   8.508   8.704  0.4245 -1.7381 -2.2151
30943SOL    HW295785  10.237   8.545   8.709 -0.6926  3.3135  2.6237
30944SOL     OW95786  10.515   3.720   2.520 -0.1891  0.5725 -0.2914
30944SOL    HW195787  10.507   3.629   2.491 -1.6365 -0.2312  2.2783
30944SOL    HW295788  10.428   3.742   2.553  0.7208  2.0932  1.2646
30945SOL     OW95789   7.093   4.275   0.797 -0.4586 -0.5792 -0.5108
30945SOL    HW195790   7.033   4.210   0.834 -2.3336  1.5633  0.4515
30945SOL    HW295791   7.045   4.312   0.722  0.9756 -0.9393 -1.6407
30946SOL     OW95792   9.948   9.116   5.003  0.3273 -0.8028 -0.2869
30946SOL    HW195793  10.041   9.136   5.010  0.3251 -1.0706  0.6619
30946SOL    HW295794   9.935   9.094   4.910  1.4509 -1.9185 -0.2106
30947SOL     OW95795   2.130   3.388   8.285 -0.1865  0.4508 -0.5002
30947SOL    HW195796   2.169   3.454   8.342 -0.1183  0.5312 -0.6372
30947SOL    HW295797   2.037   3.413   8.281 -0.6371 -0.7849  1.2577
30948SOL     OW95798   6.335   1.384   7.770  0.3028  0.0915  0.7812
30948SOL    HW195799   6.251   1.376   7.816 -0.3698  0.2407 -0.3837
30948SOL    HW295800   6.384   1.449   7.820 -0.3494  0.1473  1.3606
30949SOL     OW95801   0.695   9.190   3.422  0.0719 -0.6729 -0.4964
30949SOL    HW195802   0.667   9.276   3.391  0.5660 -0.4488 -0.3339
30949SOL    HW295803   0.625   9.161   3.481  0.5579  0.2627  0.5920
30950SOL     OW95804   2.760   7.011   1.225 -0.1580 -0.1095  0.1164
30950SOL    HW195805   2.819   7.082   1.202 -0.8442 -0.1372 -2.0102
30950SOL    HW295806   2.803   6.932   1.192 -0.2973 -0.4373  0.7026
30951SOL     OW95807   0.031   5.734   8.234  0.9734 -0.2503  0.7616
30951SOL    HW195808   0.099   5.669   8.250  0.8707 -0.6453 -0.3674
30951SOL    HW295809  -0.051   5.689   8.256  0.7725 -1.0147 -1.3840
30952SOL     OW95810   3.705   1.037   7.502  0.1527  0.2949  0.1598
30952SOL    HW195811   3.746   0.953   7.524  0.6915  0.7284  0.8734
30952SOL    HW295812   3.738   1.098   7.569  0.4066  1.2558 -0.8126
30953SOL     OW95813   8.529   6.988   7.531  0.5312  0.1489 -0.8468
30953SOL    HW195814   8.523   6.896   7.557  0.3508  0.2213 -0.6259
30953SOL    HW295815   8.623   7.005   7.526  0.6206  0.4682  1.0420
30954SOL     OW95816   5.381   0.938   4.896 -0.5298  0.2995 -0.2346
30954SOL    HW195817   5.307   0.899   4.850 -0.1215 -0.7150 -0.0572
30954SOL    HW295818   5.397   0.880   4.971 -0.1969  1.0654  0.3008
30955SOL     OW95819   7.560   2.334   6.609 -0.2256  0.4700  0.0512
30955SOL    HW195820   7.552   2.239   6.618  0.6091  0.4571  0.8233
30955SOL    HW295821   7.588   2.347   6.519 -2.1801  0.1236 -0.6544
30956SOL     OW95822   2.202   9.865   9.686 -0.5786  0.3823  0.5867
30956SOL    HW195823   2.124   9.813   9.667  0.4784 -1.5642  1.3559
30956SOL    HW295824   2.225   9.906   9.603 -0.7123 -1.4354 -0.3813
30957SOL     OW95825   5.494   9.760   6.384  0.0521 -0.3086  0.0164
30957SOL    HW195826   5.469   9.846   6.419 -0.1580 -0.3416 -0.0467
30957SOL    HW295827   5.452   9.698   6.443  1.1300 -0.3778  0.7204
30958SOL     OW95828   1.466   8.265   4.177  0.4020  0.1409 -0.1833
30958SOL    HW195829   1.472   8.315   4.096 -0.3760 -0.3983 -0.5985
30958SOL    HW295830   1.556   8.238   4.196  0.6350  0.5458 -0.6860
30959SOL     OW95831   4.242   7.103   3.728 -0.2575 -0.1698  0.1427
30959SOL    HW195832   4.322   7.146   3.697  0.5802 -1.4415  0.4298
30959SOL    HW295833   4.189   7.173   3.766 -0.3627  1.0881 -2.1733
30960SOL     OW95834   0.416   5.861   6.767  0.1617 -0.4083 -0.8690
30960SOL    HW195835   0.477   5.934   6.772  0.2781 -0.3798 -2.3487
30960SOL    HW295836   0.417   5.823   6.855  0.6763  0.8891 -0.2852
30961SOL     OW95837   3.874   2.217   0.174 -0.8180  0.3348  0.3330
30961SOL    HW195838   3.946   2.265   0.216 -0.5386  0.4184 -0.2256
30961SOL    HW295839   3.887   2.126   0.203 -0.4362  0.3343  0.1715
30962SOL     OW95840   1.126   5.759   6.436  0.8980 -0.7799 -0.3181
30962SOL    HW195841   1.082   5.764   6.520 -1.1746  0.3360 -1.4028
30962SOL    HW295842   1.145   5.850   6.413  1.8063 -1.0982 -0.8964
30963SOL     OW95843   6.932   6.473   3.102  0.5732  0.1133  0.5903
30963SOL    HW195844   6.879   6.435   3.033 -1.3751 -0.1531  2.1233
30963SOL    HW295845   6.983   6.400   3.136  2.0577  0.3878 -0.9593
30964SOL     OW95846   1.312   7.509   6.417 -0.3182 -0.1989 -0.7318
30964SOL    HW195847   1.244   7.536   6.479 -1.2435 -1.6246 -1.0696
30964SOL    HW295848   1.390   7.499   6.471 -1.0727 -1.2541  0.2069
30965SOL     OW95849   2.707   5.129   4.617 -0.1305 -0.2489 -0.6166
30965SOL    HW195850   2.696   5.033   4.617  0.2040 -0.2916 -0.7483
30965SOL    HW295851   2.635   5.161   4.564  0.5524 -0.5443 -1.7794
30966SOL     OW95852   7.804   7.332   3.547 -0.2470 -0.1849 -0.1158
30966SOL    HW195853   7.787   7.392   3.619  0.7813 -2.3415  2.1034
30966SOL    HW295854   7.739   7.262   3.558 -2.3144  0.9977 -3.4366
30967SOL     OW95855  10.172   3.200   1.943  0.6217  0.1514 -0.2144
30967SOL    HW195856  10.135   3.143   1.875  0.7879  0.8914 -0.9426
30967SOL    HW295857  10.150   3.288   1.914  1.1727  0.5036  0.4247
30968SOL     OW95858   6.352   0.650   1.999  0.4173 -0.3309  0.3118
30968SOL    HW195859   6.384   0.693   1.920  2.8097  0.0699  1.3941
30968SOL    HW295860   6.323   0.564   1.970 -0.6967  0.5407 -1.2756
30969SOL     OW95861   3.634   6.167   0.085 -0.1671  0.1444 -0.1592
30969SOL    HW195862   3.615   6.258   0.106  1.1886  0.1154  1.3763
30969SOL    HW295863   3.551   6.121   0.102 -0.4436  0.8742  0.5250
30970SOL     OW95864   7.354   1.365   8.217  0.2030 -0.5953  0.3102
30970SOL    HW195865   7.386   1.455   8.218  1.3001 -0.9629  0.0821
30970SOL    HW295866   7.357   1.338   8.308  0.5434 -0.6167  0.2965
30971SOL     OW95867   1.172   7.843   6.088  0.0515 -0.5531 -0.0713
30971SOL    HW195868   1.266   7.852   6.076 -0.0275  0.1110 -0.2313
30971SOL    HW295869   1.161   7.757   6.128  0.9430  0.2931  2.1806
30972SOL     OW95870   2.400   4.763   4.673  0.2855  0.1869  0.2699
30972SOL    HW195871   2.364   4.761   4.585  2.1087 -0.5095 -0.5047
30972SOL    HW295872   2.491   4.788   4.662  0.2685  1.2883  2.0943
30973SOL     OW95873   4.064   7.733  10.675  0.0780 -0.0566 -0.4812
30973SOL    HW195874   4.028   7.651  10.710  1.0868  0.5714  2.3204
30973SOL    HW295875   4.129   7.705  10.611  0.4803 -1.4986  0.4924
30974SOL     OW95876   6.042   5.916   3.067 -0.1025 -0.6627 -0.1250
30974SOL    HW195877   6.109   5.919   3.136  0.6631  0.9925 -0.8633
30974SOL    HW295878   6.070   5.845   3.009  0.4656 -0.6541  0.1304
30975SOL     OW95879   1.271   1.196   9.098 -0.1476 -0.0192  0.5913
30975SOL    HW195880   1.222   1.178   9.017 -1.2157 -0.1402  1.2452
30975SOL    HW295881   1.334   1.264   9.073  0.0654 -0.5973 -0.5240
30976SOL     OW95882   6.163   6.399   4.527  0.4968 -0.0100 -0.0860
30976SOL    HW195883   6.088   6.388   4.585  0.3789  1.7348  0.1705
30976SOL    HW295884   6.125   6.433   4.446  0.9156 -0.0077 -0.2850
30977SOL     OW95885   2.598   1.849  10.154  0.1620 -0.1345  0.3401
30977SOL    HW195886   2.693   1.859  10.149  0.1501 -0.1551  0.0985
30977SOL    HW295887   2.576   1.792  10.081  0.0395 -0.6474  0.7651
30978SOL     OW95888   8.414   9.272   7.582 -0.1051 -0.0974 -0.0464
30978SOL    HW195889   8.407   9.262   7.677 -0.1342 -1.6207 -0.1813
30978SOL    HW295890   8.508   9.269   7.564 -0.0658  0.7736 -0.0245
30979SOL     OW95891   2.807   2.977   1.328 -0.1498 -0.2658 -0.0310
30979SOL    HW195892   2.725   2.998   1.372  0.2316 -1.1688  1.1723
30979SOL    HW295893   2.838   2.897   1.371  0.3486 -1.0926 -1.8396
30980SOL     OW95894   6.128   3.665   6.330  0.3994 -0.0143  0.2945
30980SOL    HW195895   6.220   3.661   6.305  0.7286  1.1783  1.2329
30980SOL    HW295896   6.091   3.732   6.273 -0.1231 -1.1107 -0.6999
30981SOL     OW95897   5.424  10.376   1.105 -0.3346 -0.0367  0.8667
30981SOL    HW195898   5.343  10.424   1.093 -1.3424 -1.8497 -0.0051
30981SOL    HW295899   5.459  10.365   1.016  0.2704 -0.2631  1.1253
30982SOL     OW95900   5.901   5.840   8.317 -0.5171  0.2903  0.2105
30982SOL    HW195901   5.923   5.933   8.322 -1.4347  0.5073  0.2599
30982SOL    HW295902   5.892   5.823   8.223  0.5762  0.0129  0.1317
30983SOL     OW95903  10.055   0.242   6.903  0.5881  0.1206 -0.2296
30983SOL    HW195904   9.963   0.230   6.881  0.2305  0.1722  1.1775
30983SOL    HW295905  10.075   0.173   6.966  0.5955  2.0531  2.0067
30984SOL     OW95906   0.723   7.210   8.383 -0.2193  0.6962  0.9030
30984SOL    HW195907   0.782   7.186   8.311  0.5937  1.0273  1.4582
30984SOL    HW295908   0.754   7.295   8.413 -2.2795  1.9295 -0.1873
30985SOL     OW95909   3.010   4.549  10.196 -0.2157 -0.0164  0.2120
30985SOL    HW195910   3.038   4.608  10.266 -4.0109 -0.5140  2.3998
30985SOL    HW295911   3.042   4.463  10.223 -0.3763  0.0278  0.5437
30986SOL     OW95912   1.699   6.482   6.449 -0.1076  0.0836 -0.2281
30986SOL    HW195913   1.753   6.427   6.507 -0.3358 -0.4461 -0.5107
30986SOL    HW295914   1.717   6.448   6.362  0.8081  1.3497 -0.5750
30987SOL     OW95915   6.435   8.788   8.856 -0.5661 -0.0178  0.3297
30987SOL    HW195916   6.469   8.784   8.767  1.3700  1.1806  0.9639
30987SOL    HW295917   6.443   8.698   8.888  1.5429  0.0892  0.2444
30988SOL     OW95918   3.298   7.450   6.479  0.1189  0.7352  0.1198
30988SOL    HW195919   3.213   7.436   6.521  0.2545  0.3453  0.2601
30988SOL    HW295920   3.362   7.431   6.547  0.3795 -1.2245 -0.6091
30989SOL     OW95921   3.257   8.137   8.609 -0.0393  0.2269 -0.2036
30989SOL    HW195922   3.240   8.062   8.666  2.1132 -0.5502 -0.5082
30989SOL    HW295923   3.299   8.201   8.666  3.2354 -1.0126 -1.0097
30990SOL     OW95924   8.324   1.673   8.629  0.0371 -0.1219 -0.3528
30990SOL    HW195925   8.339   1.666   8.534  1.4865 -0.4788 -0.1281
30990SOL    HW295926   8.231   1.654   8.640 -0.9714  2.9773 -2.0062
30991SOL     OW95927   2.615   4.712   9.632  0.3753  0.8352 -0.2329
30991SOL    HW195928   2.631   4.618   9.627  1.5048  0.8808  1.4662
30991SOL    HW295929   2.583   4.736   9.545  1.6968 -0.8248 -1.2373
30992SOL     OW95930   5.493   0.765   7.889 -0.4316 -0.3132 -0.5031
30992SOL    HW195931   5.424   0.719   7.937 -0.8170  0.5753 -0.1712
30992SOL    HW295932   5.448   0.803   7.814 -0.2227 -0.0850 -0.5149
30993SOL     OW95933   6.343   6.118   5.116  0.0138  0.0605  0.5445
30993SOL    HW195934   6.259   6.120   5.162 -0.1544 -0.7565  0.2976
30993SOL    HW295935   6.327   6.165   5.034 -0.9008 -2.0324 -0.5740
30994SOL     OW95936   7.014   3.142   8.356 -0.3290 -0.2226 -0.1247
30994SOL    HW195937   6.951   3.112   8.422  0.4921 -1.2844  0.2105
30994SOL    HW295938   7.047   3.061   8.316 -0.0808  0.3653 -1.1607
30995SOL     OW95939   8.981   3.026   2.625 -0.4025 -0.1786  0.1480
30995SOL    HW195940   8.933   2.980   2.556 -0.1495 -0.3139  0.0633
30995SOL    HW295941   9.064   3.050   2.585  0.2672 -1.3644  0.7755
30996SOL     OW95942   9.235   0.434   6.766 -0.8131 -0.6201  0.2998
30996SOL    HW195943   9.319   0.395   6.790 -2.1759 -3.2840  0.9924
30996SOL    HW295944   9.241   0.445   6.671  0.3716 -0.5280  0.3626
30997SOL     OW95945   8.247   9.844   3.185 -0.3815 -0.2077  0.2114
30997SOL    HW195946   8.201   9.762   3.165  0.0577 -0.6295  0.8997
30997SOL    HW295947   8.236   9.897   3.106 -1.5752 -0.5084  0.1630
30998SOL     OW95948   8.499  10.190   8.260  0.0096 -0.1315  0.4771
30998SOL    HW195949   8.483  10.119   8.322 -1.1300 -0.0009  0.3520
30998SOL    HW295950   8.427  10.252   8.275 -0.2361 -0.0483 -0.9092
30999SOL     OW95951   3.560   4.556   8.345 -0.0439  0.2053  0.1699
30999SOL    HW195952   3.599   4.621   8.287 -0.3260  1.0750  0.9421
30999SOL    HW295953   3.566   4.594   8.432 -1.6028 -0.1194  0.4524
31000SOL     OW95954   8.530   7.396   9.184 -0.0827  0.1159 -0.0576
31000SOL    HW195955   8.482   7.474   9.212  1.4022  0.8343  0.6122
31000SOL    HW295956   8.499   7.379   9.095 -0.9978  1.0026  0.0748
31001SOL     OW95957   2.167   9.227   0.274  0.4851  0.4624 -0.3024
31001SOL    HW195958   2.188   9.316   0.248  1.4719  0.2207 -0.3908
31001SOL    HW295959   2.075   9.216   0.251  0.2257  1.5990  0.1276
31002SOL     OW95960   1.179   6.510   8.026 -0.0470 -0.1526  0.2470
31002SOL    HW195961   1.245   6.562   8.070  0.9636 -1.1328 -0.0683
31002SOL    HW295962   1.228   6.448   7.973 -1.2132 -0.9158  0.0082
31003SOL     OW95963   5.987  10.074   2.186  0.2341  0.8754  0.0645
31003SOL    HW195964   5.931  10.044   2.115  0.8317  1.1338 -0.5274
31003SOL    HW295965   5.956  10.163   2.205  0.1903  0.8733  0.0043
31004SOL     OW95966   7.395   6.078  10.452 -0.3705 -0.2256 -0.4290
31004SOL    HW195967   7.331   6.071  10.381 -2.1777  2.9236  0.6821
31004SOL    HW295968   7.404   6.172  10.466 -0.4279 -0.6729  3.7835
31005SOL     OW95969   1.043  10.465   7.761  0.3371 -0.3198 -0.0517
31005SOL    HW195970   1.052  10.560   7.774  0.7017 -0.6429  2.5592
31005SOL    HW295971   0.954  10.455   7.728  0.2025  0.9310 -0.1352
31006SOL     OW95972   1.062   4.319   1.652  0.3842 -0.0955 -0.4464
31006SOL    HW195973   1.067   4.398   1.705 -0.2220 -1.3832  1.6372
31006SOL    HW295974   1.004   4.261   1.701  1.9101 -2.3572 -1.1801
31007SOL     OW95975   6.809   9.809   7.457  0.3502  0.0376  0.3147
31007SOL    HW195976   6.897   9.840   7.480  0.5397  1.1905 -1.6614
31007SOL    HW295977   6.754   9.888   7.461 -0.3329 -0.4323  0.3394
31008SOL     OW95978   8.888   2.494   4.482  0.3331 -0.2051  0.4333
31008SOL    HW195979   8.853   2.418   4.528 -1.2100 -0.8189 -1.5930
31008SOL    HW295980   8.963   2.459   4.433  0.1330 -0.2328  0.1476
31009SOL     OW95981   9.498   3.243   3.217  0.2316 -0.5555 -0.0199
31009SOL    HW195982   9.489   3.290   3.300  0.1908  0.1601 -0.4205
31009SOL    HW295983   9.438   3.287   3.157 -0.8099 -1.9691 -0.0648
31010SOL     OW95984   0.786   5.240   4.683  0.1538 -0.1578  0.8036
31010SOL    HW195985   0.703   5.288   4.675  0.8693  0.8570 -1.8587
31010SOL    HW295986   0.760   5.149   4.693 -1.3667 -0.0349 -1.3209
31011SOL     OW95987   9.536   4.884   7.883  0.5200  0.0252  0.5250
31011SOL    HW195988   9.512   4.814   7.822 -1.8127  2.6204 -1.8575
31011SOL    HW295989   9.599   4.937   7.835  1.9673 -0.1149  2.1536
31012SOL     OW95990   6.444   6.096   4.651 -0.3361  0.7130 -0.0891
31012SOL    HW195991   6.422   6.190   4.649 -1.7034  0.4360  0.8525
31012SOL    HW295992   6.436   6.068   4.560  1.5577  1.8052 -0.6401
31013SOL     OW95993   1.665   9.022   9.641  0.5168 -0.0025 -0.1108
31013SOL    HW195994   1.585   9.021   9.588  0.3510  2.3205 -0.0303
31013SOL    HW295995   1.736   9.028   9.577  0.4851  0.0974 -0.1372
31014SOL     OW95996   1.878   4.659   0.982  0.4400  0.6578  0.9118
31014SOL    HW195997   1.871   4.749   0.951  0.4348  0.3307 -0.1081
31014SOL    HW295998   1.852   4.606   0.906  2.0944 -0.2489  0.9362
31015SOL     OW95999   3.628   1.875   6.994 -0.1834 -0.0924  0.3873
31015SOL    HW196000   3.688   1.835   6.932  0.4165 -0.6328  1.2829
31015SOL    HW296001   3.564   1.921   6.940  0.7739  0.1279 -0.6023
31016SOL     OW96002   1.120   8.382   5.019  0.4925 -0.6042 -0.2951
31016SOL    HW196003   1.081   8.319   5.079 -0.0598  0.7949  0.8570
31016SOL    HW296004   1.139   8.331   4.940 -0.5787 -2.0492  0.3391
31017SOL     OW96005   5.144   0.746   0.638 -0.8479 -0.3020 -0.0959
31017SOL    HW196006   5.082   0.691   0.686  1.5949 -2.6269  0.6505
31017SOL    HW296007   5.198   0.786   0.706 -0.1283 -0.1013 -0.7747
31018SOL     OW96008   8.053   3.130   0.052 -0.5771 -0.2531  0.1050
31018SOL    HW196009   8.060   3.182   0.132 -0.3224  0.3280 -0.2830
31018SOL    HW296010   8.038   3.041   0.082  0.7551 -0.2617  0.8411
31019SOL     OW96011   5.680   1.295   1.749 -0.0168  0.0498  0.1132
31019SOL    HW196012   5.700   1.240   1.825  0.9212 -0.0302 -0.1785
31019SOL    HW296013   5.641   1.374   1.786 -2.6289 -1.3018  0.4678
31020SOL     OW96014   5.432   9.991   8.982 -0.4082  0.1311 -0.4478
31020SOL    HW196015   5.494  10.037   8.925  1.8526 -1.9780  0.1470
31020SOL    HW296016   5.470  10.000   9.070 -2.3639  0.9513  0.3856
31021SOL     OW96017   2.158   4.731   2.196  0.3866 -0.3448 -0.6633
31021SOL    HW196018   2.078   4.691   2.163 -0.7043  0.7474  0.5372
31021SOL    HW296019   2.136   4.823   2.207  2.4379  0.4119 -2.1801
31022SOL     OW96020   8.542   7.555   6.958 -0.4127  0.0597 -0.1089
31022SOL    HW196021   8.579   7.502   6.888  1.6504  1.1378  0.0931
31022SOL    HW296022   8.566   7.645   6.936  0.7892  0.3927  2.2061
31023SOL     OW96023   1.988   5.423   7.445 -0.3211  0.2150  0.2532
31023SOL    HW196024   1.959   5.382   7.526  0.4802 -0.1431  0.3671
31023SOL    HW296025   1.968   5.516   7.456 -0.1968  0.1700  0.8678
31024SOL     OW96026   0.279   3.174   2.569  0.1916 -0.5318  0.2595
31024SOL    HW196027   0.311   3.108   2.508 -0.6880 -0.6587 -0.0849
31024SOL    HW296028   0.193   3.142   2.596 -0.2973  0.5045  0.0113
31025SOL     OW96029   5.123   5.352   8.620  0.2806  0.0321  0.1081
31025SOL    HW196030   5.079   5.267   8.613 -0.6138  0.6215 -2.5114
31025SOL    HW296031   5.075   5.409   8.560  2.7323  1.5573 -0.5555
31026SOL     OW96032   2.480   8.201   4.378 -0.2265 -0.5934 -0.1833
31026SOL    HW196033   2.412   8.145   4.415  0.4569 -1.1871  0.2077
31026SOL    HW296034   2.441   8.288   4.375 -1.2837 -1.0720 -0.7281
31027SOL     OW96035   2.464   8.384   6.941 -0.7077 -0.6914  0.9023
31027SOL    HW196036   2.517   8.448   6.988 -3.4099  1.3672  1.3296
31027SOL    HW296037   2.420   8.334   7.010 -0.9532 -0.9500  0.5625
31028SOL     OW96038   3.259   5.239   7.788 -0.0852 -0.1171  0.0921
31028SOL    HW196039   3.171   5.265   7.760  0.7672  2.5358 -0.4636
31028SOL    HW296040   3.264   5.265   7.880  0.1114 -0.1843  0.1020
31029SOL     OW96041   9.337   2.563   6.305 -0.3406  0.2036  0.4711
31029SOL    HW196042   9.359   2.553   6.212  2.0731 -1.9552  1.1491
31029SOL    HW296043   9.300   2.479   6.330  0.6060  0.1460  1.7880
31030SOL     OW96044   0.352   3.996   0.930  0.0934 -0.2671 -0.1468
31030SOL    HW196045   0.401   4.030   0.855 -1.1893  0.2074 -0.8014
31030SOL    HW296046   0.263   4.030   0.918 -0.5001 -1.4185  0.8022
31031SOL     OW96047   1.066   7.227   9.947 -0.3306 -0.4479  0.2977
31031SOL    HW196048   1.044   7.254   9.858 -0.9462  0.5188  0.7314
31031SOL    HW296049   1.115   7.301   9.983 -1.9475  0.0841  1.4686
31032SOL     OW96050   6.498   6.809  10.557 -0.1312 -0.4317  0.6334
31032SOL    HW196051   6.504   6.824  10.651 -0.3680  0.1636  0.5569
31032SOL    HW296052   6.575   6.852  10.521 -0.8334  0.6978  0.4105
31033SOL     OW96053   5.602   2.374   4.961  0.4374  0.6109 -0.6474
31033SOL    HW196054   5.535   2.410   4.902 -1.0720 -0.1658  0.5182
31033SOL    HW296055   5.625   2.448   5.017 -1.8542  0.1641  1.0277
31034SOL     OW96056  10.037   7.640   9.206 -0.4672 -0.3268  0.0677
31034SOL    HW196057   9.979   7.695   9.153  1.0379  0.9777 -0.2705
31034SOL    HW296058   9.988   7.627   9.288 -0.3248  2.7801  0.7687
31035SOL     OW96059   4.350   8.581   2.316  0.1511 -0.2800  0.3779
31035SOL    HW196060   4.348   8.521   2.390  0.1332  0.3049  0.8605
31035SOL    HW296061   4.433   8.562   2.272  0.5990 -0.0017  1.0818
31036SOL     OW96062   6.373   0.768   8.007  0.3039 -0.1929  0.1577
31036SOL    HW196063   6.306   0.770   8.075 -0.5982  0.6598 -0.7195
31036SOL    HW296064   6.388   0.675   7.990 -0.0953 -0.4006  0.9045
31037SOL     OW96065   1.202   3.747   4.641 -0.0983 -0.2407  0.1155
31037SOL    HW196066   1.192   3.815   4.708 -0.1797  0.5417 -0.6770
31037SOL    HW296067   1.246   3.791   4.569  0.3133 -1.1698 -0.2178
31038SOL     OW96068   0.198   6.402   0.950 -0.0324  0.0405 -0.4842
31038SOL    HW196069   0.166   6.375   1.036 -0.3456 -2.1226 -1.2294
31038SOL    HW296070   0.245   6.326   0.917 -0.0844  0.7545 -2.3149
31039SOL     OW96071   6.909   7.466   9.883  0.0745 -0.0185 -0.2324
31039SOL    HW196072   6.971   7.409   9.837 -0.4205 -0.2056 -0.6859
31039SOL    HW296073   6.825   7.421   9.875 -0.2435  0.5593 -0.1996
31040SOL     OW96074   8.565   5.228   4.415  0.1086 -0.2015 -0.6431
31040SOL    HW196075   8.473   5.206   4.399  0.1264 -0.6769 -0.1590
31040SOL    HW296076   8.570   5.237   4.511 -0.3644  4.1122 -0.8434
31041SOL     OW96077   9.917   5.618   6.381 -0.2653 -0.8579  0.4731
31041SOL    HW196078   9.864   5.674   6.437  0.0647  0.2755 -0.2910
31041SOL    HW296079   9.860   5.596   6.307  0.5553  1.2020 -0.8656
31042SOL     OW96080   8.298   1.698   8.197 -0.3606  0.4096 -0.4063
31042SOL    HW196081   8.329   1.786   8.173  1.9854 -0.1414  0.4302
31042SOL    HW296082   8.359   1.668   8.264 -0.2729 -2.4181 -1.6415
31043SOL     OW96083   5.461   4.903   6.686 -0.0099 -0.6251  0.0503
31043SOL    HW196084   5.474   4.949   6.769 -1.7284  1.4972 -0.7697
31043SOL    HW296085   5.463   4.971   6.620 -0.5025 -2.0288 -1.4769
31044SOL     OW96086   5.068  10.245   1.825  0.3828 -0.1806 -0.1762
31044SOL    HW196087   5.063  10.335   1.792  1.5872 -0.2805 -0.6716
31044SOL    HW296088   5.076  10.255   1.919  4.3399  0.4608 -0.4237
31045SOL     OW96089   5.720   4.073   3.469  0.5690  0.0179 -0.0847
31045SOL    HW196090   5.646   4.128   3.495  0.0394 -0.6176 -0.2070
31045SOL    HW296091   5.683   4.012   3.405  1.7062  1.1973 -1.9603
31046SOL     OW96092   8.681   3.509   0.074 -0.3857  0.3689  0.1420
31046SOL    HW196093   8.620   3.436   0.061 -1.3423  1.0212  0.8286
31046SOL    HW296094   8.764   3.477   0.040 -1.2554 -0.3126 -1.4334
31047SOL     OW96095   8.519  10.510   9.744  0.1931 -0.1071  0.1939
31047SOL    HW196096   8.581  10.467   9.684  0.2219  0.4813 -0.2113
31047SOL    HW296097   8.550  10.485   9.831  2.0838  1.5465  0.0765
31048SOL     OW96098   0.419   2.635   5.668  0.0140 -0.7843  0.1581
31048SOL    HW196099   0.356   2.671   5.606  0.5752 -0.5351 -0.2782
31048SOL    HW296100   0.397   2.542   5.674 -2.1841 -0.2415  2.1572
31049SOL     OW96101   3.485   2.318   3.719 -0.3230 -0.1947  0.3342
31049SOL    HW196102   3.412   2.325   3.780 -0.2897  0.2987  0.3225
31049SOL    HW296103   3.492   2.224   3.700 -0.6597 -0.2927  0.6872
31050SOL     OW96104  10.581   3.018   5.913  0.3236  0.4373  0.1726
31050SOL    HW196105  10.601   3.065   5.832  1.7506 -0.5420 -0.0839
31050SOL    HW296106  10.590   2.925   5.889  0.4827  0.1284  1.3894
31051SOL     OW96107   2.749   6.032   9.977 -0.5620 -0.1117 -0.3562
31051SOL    HW196108   2.689   5.959   9.959 -0.2859 -0.1154 -1.2912
31051SOL    HW296109   2.779   6.060   9.891 -0.3743  0.8707  0.0237
31052SOL     OW96110   8.706   6.694   9.675 -0.0049 -0.8340 -0.1641
31052SOL    HW196111   8.795   6.728   9.677 -0.5186  0.5659 -0.3724
31052SOL    HW296112   8.699   6.650   9.590  0.7309 -1.7038  0.2036
31053SOL     OW96113   6.866   5.549   3.666  0.1805 -0.5409  0.0382
31053SOL    HW196114   6.807   5.623   3.678  1.4572  0.3553  1.1612
31053SOL    HW296115   6.954   5.587   3.676  0.8753 -2.1211  0.2028
31054SOL     OW96116   4.088   5.539   5.365  0.4670 -0.4057 -0.1839
31054SOL    HW196117   4.022   5.598   5.329  1.9967  1.0813 -0.7154
31054SOL    HW296118   4.049   5.506   5.446  0.4613  3.5321  1.6884
31055SOL     OW96119   6.939   4.356   5.022  0.0460  0.0060  0.5947
31055SOL    HW196120   6.974   4.344   5.110 -1.4684 -0.6394  1.1467
31055SOL    HW296121   6.981   4.435   4.990  1.4933 -0.3857  1.4427
31056SOL     OW96122   2.636   6.297  10.024  0.3670  0.5477 -0.1571
31056SOL    HW196123   2.699   6.355  10.068  0.1417 -0.0718  0.9995
31056SOL    HW296124   2.689   6.223   9.993  0.2814  0.2200  0.4670
31057SOL     OW96125   0.017   0.998   5.235  0.2042  0.5019  0.3078
31057SOL    HW196126   0.015   1.091   5.211  0.3650 -0.1499 -2.6158
31057SOL    HW296127   0.096   0.989   5.289  1.1288  1.8061 -0.7496
31058SOL     OW96128   4.735   5.356   3.329 -0.1064  0.2319 -0.6364
31058SOL    HW196129   4.806   5.420   3.334  0.1376 -0.0314 -0.7291
31058SOL    HW296130   4.748   5.300   3.405 -0.7718  0.7551 -0.1285
31059SOL     OW96131   5.027   1.280   6.184  0.0623  0.0671 -0.2345
31059SOL    HW196132   5.115   1.243   6.191  0.6724  1.6624  1.4636
31059SOL    HW296133   5.019   1.305   6.092  0.9053 -1.1983 -0.6798
31060SOL     OW96134  10.669   6.684   5.025 -0.6892 -0.5883 -0.2569
31060SOL    HW196135  10.671   6.670   4.930  2.2973 -1.7249 -0.1380
31060SOL    HW296136  10.659   6.597   5.062 -0.5540 -0.2988  0.4857
31061SOL     OW96137   8.332   1.910  10.231 -0.4754 -0.0227 -0.0256
31061SOL    HW196138   8.329   1.988  10.287 -1.7310 -1.0146  1.3901
31061SOL    HW296139   8.425   1.889  10.223 -0.2414  0.3571  1.4502
31062SOL     OW96140   5.452   1.738   6.421  0.5687 -0.3395  0.4736
31062SOL    HW196141   5.417   1.821   6.453 -1.6111 -1.0542  0.1066
31062SOL    HW296142   5.479   1.756   6.331  0.1474 -0.0118  0.4117
31063SOL     OW96143   4.820   8.630   4.726  0.2024  0.0128  0.3611
31063SOL    HW196144   4.821   8.725   4.733  1.1740  0.0468 -0.0238
31063SOL    HW296145   4.901   8.608   4.679 -0.5335 -0.9308 -0.5353
31064SOL     OW96146  10.422   1.527   4.288  0.1265  0.3850  0.0822
31064SOL    HW196147  10.335   1.552   4.257  0.2610  2.1580  0.9676
31064SOL    HW296148  10.411   1.438   4.323 -1.1167  0.2639 -0.5736
31065SOL     OW96149   9.530   3.269   0.781  0.2967 -0.0183  0.1086
31065SOL    HW196150   9.588   3.336   0.819  0.3118  1.7021 -2.7007
31065SOL    HW296151   9.590   3.208   0.737  0.1406 -0.7242  0.8323
31066SOL     OW96152   8.004   1.369   8.534 -0.2868  0.5810  0.5117
31066SOL    HW196153   8.085   1.348   8.486 -0.6780  1.7272 -0.6927
31066SOL    HW296154   8.030   1.438   8.595  0.0770 -0.4743  1.6031
31067SOL     OW96155   5.525   2.691   0.697 -0.2509  0.1469  0.3582
31067SOL    HW196156   5.506   2.626   0.629 -0.4332  2.1331 -1.6274
31067SOL    HW296157   5.443   2.700   0.745 -0.4984 -0.4403  0.0518
31068SOL     OW96158   7.980  10.112   7.833 -0.1663  0.4001 -0.3734
31068SOL    HW196159   7.978  10.059   7.912  1.8428 -2.4227 -2.0259
31068SOL    HW296160   7.889  10.115   7.803 -0.5949 -0.5446  0.7734
31069SOL     OW96161   5.938   3.629   2.887 -0.7420  0.3206 -0.0236
31069SOL    HW196162   6.020   3.607   2.932 -0.2161  1.8232 -0.1985
31069SOL    HW296163   5.894   3.545   2.876  0.5694 -0.4657  0.4764
31070SOL     OW96164   3.677   6.684   6.018  0.1933  0.0177  0.2624
31070SOL    HW196165   3.697   6.595   6.044  1.5954 -0.0954 -1.0401
31070SOL    HW296166   3.635   6.723   6.094 -3.5082 -2.6440 -0.1076
31071SOL     OW96167   5.033   4.911  10.208  0.2973  0.0220 -0.1755
31071SOL    HW196168   5.125   4.885  10.209  0.3680  0.2807  1.1629
31071SOL    HW296169   5.033   4.999  10.170  0.4852 -0.3523 -1.0633
31072SOL     OW96170   6.867   8.610   7.176  0.2794 -0.0831  0.2028
31072SOL    HW196171   6.950   8.656   7.189  0.1268 -0.1654  1.6253
31072SOL    HW296172   6.812   8.672   7.129  1.0621  0.0530 -0.5586
31073SOL     OW96173   7.446   3.682   3.207  0.2802 -0.3007  0.3092
31073SOL    HW196174   7.522   3.643   3.163  0.7127  0.5621  0.2644
31073SOL    HW296175   7.447   3.642   3.295  0.9955 -0.0453  0.4284
31074SOL     OW96176   5.387   3.938   2.950 -0.6055  0.7191 -0.0994
31074SOL    HW196177   5.339   3.987   2.884 -0.3444  0.6995 -0.3100
31074SOL    HW296178   5.376   3.987   3.031 -1.6086  0.3075  0.0264
31075SOL     OW96179   5.029   6.499   8.581  0.0439 -0.4858 -0.1855
31075SOL    HW196180   4.938   6.491   8.555  0.2341 -0.9958 -0.7091
31075SOL    HW296181   5.026   6.512   8.676 -0.5541 -0.8100 -0.1554
31076SOL     OW96182   8.132   3.040   1.075  0.4017 -0.0998 -0.0973
31076SOL    HW196183   8.086   3.096   1.137  2.7181  1.0159  0.7193
31076SOL    HW296184   8.171   2.971   1.129  1.0494 -0.0816 -0.5381
31077SOL     OW96185   3.662   1.427   7.123  0.0880 -0.1569 -0.0750
31077SOL    HW196186   3.666   1.499   7.186 -1.1411 -0.3619  0.2701
31077SOL    HW296187   3.687   1.350   7.174  1.7837  0.0461 -0.5378
31078SOL     OW96188   1.975   9.162   4.117  0.5575  0.4512 -0.0742
31078SOL    HW196189   1.962   9.253   4.142  1.0293  0.1982  1.1792
31078SOL    HW296190   2.044   9.130   4.176 -0.7145 -1.1557  0.6325
31079SOL     OW96191   8.624   3.232   4.713 -0.1914 -0.0344  0.5923
31079SOL    HW196192   8.676   3.259   4.789  0.4862 -0.8218  0.4284
31079SOL    HW296193   8.690   3.203   4.649 -0.7769  0.1804 -0.1210
31080SOL     OW96194  10.281   4.475   1.173  0.6160 -0.3994  0.0917
31080SOL    HW196195  10.264   4.514   1.259 -0.8380 -1.3797  0.2934
31080SOL    HW296196  10.207   4.416   1.159  1.8612 -1.7801 -0.9508
31081SOL     OW96197   0.748   9.511   3.655  0.1406 -0.1728 -0.1958
31081SOL    HW196198   0.739   9.415   3.657 -0.2116 -0.2311 -2.4005
31081SOL    HW296199   0.661   9.543   3.680  0.3424 -0.3840  0.8577
31082SOL     OW96200   7.909   7.554   2.556  0.1317  0.1065 -0.6760
31082SOL    HW196201   7.823   7.529   2.523 -0.1964 -0.3299  0.4439
31082SOL    HW296202   7.934   7.483   2.615  0.6022  0.9097  0.1231
31083SOL     OW96203   2.706   8.494   2.213  0.7962 -0.2887  0.2603
31083SOL    HW196204   2.695   8.525   2.123  0.8819  0.8861  0.6433
31083SOL    HW296205   2.713   8.399   2.204 -2.4695 -0.5718 -0.6744
31084SOL     OW96206   1.339   9.690   6.008 -0.4555 -0.3347  0.9502
31084SOL    HW196207   1.418   9.672   5.958 -1.6126 -0.4330 -0.9437
31084SOL    HW296208   1.363   9.762   6.066  1.0727 -0.5347  0.6017
31085SOL     OW96209   5.499   3.538   2.099 -0.0698 -0.0538 -0.0416
31085SOL    HW196210   5.525   3.471   2.036  3.3511  0.2954  0.7932
31085SOL    HW296211   5.543   3.513   2.180  1.4284  3.1739  0.2889
31086SOL     OW96212   5.633   4.513   6.502 -0.3271  0.3557  0.3616
31086SOL    HW196213   5.547   4.476   6.480  0.7711 -1.0873 -1.9551
31086SOL    HW296214   5.680   4.441   6.543 -0.3325  1.3038  2.1491
31087SOL     OW96215   0.479   2.260   8.243 -0.4999  0.1915 -0.2775
31087SOL    HW196216   0.483   2.165   8.254 -1.6258 -0.5408 -4.6567
31087SOL    HW296217   0.393   2.284   8.277 -0.0368 -0.2008  1.2690
31088SOL     OW96218   0.235   5.185  10.640 -0.9873 -0.1212  0.4038
31088SOL    HW196219   0.167   5.251  10.625 -0.7628  0.1182  0.4573
31088SOL    HW296220   0.190   5.116  10.690 -0.8487  0.6456  1.6102
31089SOL     OW96221   4.799   2.198   2.627  0.7920  0.0008 -0.7389
31089SOL    HW196222   4.857   2.273   2.612  3.0180 -1.2474  1.0721
31089SOL    HW296223   4.857   2.123   2.630 -1.0997 -1.5197 -0.0948
31090SOL     OW96224   3.826   3.844   4.859 -0.1872  0.0160  0.3256
31090SOL    HW196225   3.830   3.823   4.952  1.6930  0.3792  0.3622
31090SOL    HW296226   3.779   3.927   4.855 -0.2975 -0.0142  0.9551
31091SOL     OW96227   6.381   9.752  10.540  0.3048  0.0490 -0.5186
31091SOL    HW196228   6.312   9.766  10.605  1.0150  0.5091  0.1539
31091SOL    HW296229   6.352   9.801  10.463  0.3188  1.0089  0.0741
31092SOL     OW96230   2.138   5.297   2.403  0.1458  0.3110 -0.2776
31092SOL    HW196231   2.099   5.283   2.490  1.3918  0.0214  0.2483
31092SOL    HW296232   2.230   5.277   2.415  0.5140  1.2272 -1.4522
31093SOL     OW96233   5.227   2.967   9.513 -0.7757  0.5751  0.3858
31093SOL    HW196234   5.170   2.973   9.590  0.8302  1.9464  1.5558
31093SOL    HW296235   5.193   3.034   9.453 -0.4638  1.3642  1.0630
31094SOL     OW96236   8.330   6.885   1.927  0.0834 -0.7378  0.7642
31094SOL    HW196237   8.247   6.881   1.880  0.5557 -0.1947 -0.1538
31094SOL    HW296238   8.351   6.978   1.932  0.3857 -0.8370  1.4455
31095SOL     OW96239   3.365   5.057   6.775 -0.2148  0.2376  0.7722
31095SOL    HW196240   3.378   5.146   6.743  1.6761 -0.8548 -1.8684
31095SOL    HW296241   3.451   5.030   6.807 -0.2226 -1.2748 -0.3666
31096SOL     OW96242  10.213   7.352   5.328  0.1860 -0.1697  0.5954
31096SOL    HW196243  10.274   7.404   5.276 -1.6861  0.9224 -0.6189
31096SOL    HW296244  10.257   7.268   5.338  0.4848 -0.7160 -3.3644
31097SOL     OW96245   1.864   3.634   4.048 -0.2584 -0.1602  0.0133
31097SOL    HW196246   1.945   3.684   4.060 -1.1231  1.5671 -0.9716
31097SOL    HW296247   1.891   3.543   4.056  1.6489  0.3916  0.4344
31098SOL     OW96248   1.816   0.672   1.060  0.1557  0.2412  0.2346
31098SOL    HW196249   1.811   0.684   0.965  0.6174 -2.2193 -0.1825
31098SOL    HW296250   1.728   0.690   1.092 -0.8706 -1.8831 -1.1402
31099SOL     OW96251   2.880   3.656   9.751 -0.4753  0.7700  0.4387
31099SOL    HW196252   2.825   3.683   9.824  0.1203  1.6110  0.5891
31099SOL    HW296253   2.818   3.621   9.687 -0.9946 -0.0468  1.3593
31100SOL     OW96254   9.884   6.719   0.525  0.2056  0.0802 -0.0086
31100SOL    HW196255   9.877   6.632   0.485 -1.8714 -0.9003  2.1664
31100SOL    HW296256   9.891   6.779   0.451  0.0285 -1.8182 -1.6649
31101SOL     OW96257   1.048   4.511   5.954  0.5849  0.3286 -0.2351
31101SOL    HW196258   0.970   4.539   5.906  1.9254 -1.0663 -3.5102
31101SOL    HW296259   1.028   4.422   5.982  0.0730  0.9001  1.3430
31102SOL     OW96260   4.213   6.020   6.476 -0.0447  0.2900  0.4014
31102SOL    HW196261   4.139   6.041   6.419 -0.2372  0.4414  0.7062
31102SOL    HW296262   4.229   5.927   6.461  1.8727  0.9284 -2.2046
31103SOL     OW96263   0.278   9.071   1.761 -0.0449  0.2709 -0.2727
31103SOL    HW196264   0.203   9.129   1.748 -0.1847  0.5611  1.5335
31103SOL    HW296265   0.326   9.109   1.835  0.7251 -1.0410 -0.0585
31104SOL     OW96266   2.791  10.338   4.925  0.5492 -0.2013  0.4686
31104SOL    HW196267   2.858  10.272   4.905  1.1581  0.9543 -1.6542
31104SOL    HW296268   2.829  10.420   4.896 -1.5607  0.5836 -0.2793
31105SOL     OW96269   2.638   7.305   4.760  0.9676 -0.3746  0.0892
31105SOL    HW196270   2.669   7.262   4.681  0.4037  0.1512 -0.4345
31105SOL    HW296271   2.543   7.296   4.756  0.8948  0.2222  0.3724
31106SOL     OW96272   8.434   3.188   9.896  0.1204  0.1859  0.5871
31106SOL    HW196273   8.447   3.186   9.990 -0.6359  0.6775  0.7132
31106SOL    HW296274   8.385   3.269   9.880  0.0807  0.0171 -0.2017
31107SOL     OW96275   5.993   7.269   8.763  0.1055  0.4216  0.2068
31107SOL    HW196276   6.011   7.340   8.703 -3.7133  1.7620  0.3344
31107SOL    HW296277   6.065   7.271   8.826  2.5173  1.0534 -2.3785
31108SOL     OW96278   7.037   0.957   7.705 -0.2690  0.7384  0.3377
31108SOL    HW196279   7.053   1.001   7.789  0.4542  0.0991  0.5357
31108SOL    HW296280   7.113   0.978   7.651 -1.3126  2.2359 -0.6486
31109SOL     OW96281   5.956   5.854   5.984 -0.2616 -0.0295 -0.0806
31109SOL    HW196282   5.890   5.907   5.940 -2.4181  0.1061  2.9903
31109SOL    HW296283   6.036   5.908   5.981 -0.9045  0.9051 -1.7645
31110SOL     OW96284   2.908   0.331   6.994 -0.1851  0.3213  0.0542
31110SOL    HW196285   2.953   0.362   7.072  0.5805 -0.0312 -0.2451
31110SOL    HW296286   2.875   0.411   6.952  2.6437  0.9141 -1.2563
31111SOL     OW96287   8.861   6.311   4.076 -0.0644 -0.4934  0.4645
31111SOL    HW196288   8.931   6.363   4.114  0.3785 -0.2476 -0.6285
31111SOL    HW296289   8.895   6.284   3.990 -1.8804  0.9696 -0.7880
31112SOL     OW96290   0.972   9.884   2.829  0.2877 -0.5603  0.8221
31112SOL    HW196291   0.931   9.797   2.830 -0.2425 -0.3457 -0.2149
31112SOL    HW296292   1.066   9.866   2.829  0.1975 -1.1833 -0.2750
31113SOL     OW96293   7.005   9.497   4.479  0.1190  0.4581 -0.5571
31113SOL    HW196294   6.952   9.490   4.559  0.4964  1.1128 -0.2457
31113SOL    HW296295   6.945   9.469   4.409  0.1615 -1.3505  0.0696
31114SOL     OW96296   6.521   1.411   0.802  0.3103  0.4327  0.5951
31114SOL    HW196297   6.483   1.399   0.714 -0.3183  1.0071  0.7786
31114SOL    HW296298   6.481   1.341   0.854  0.9181 -0.1002  0.3603
31115SOL     OW96299   6.528   6.906   8.168  0.2784  0.3510  0.0278
31115SOL    HW196300   6.501   6.879   8.081 -0.9041  0.1596  0.4281
31115SOL    HW296301   6.612   6.864   8.182 -0.0282 -0.4928 -0.6053
31116SOL     OW96302   4.062   6.142   3.448 -0.0135 -0.1579  0.2953
31116SOL    HW196303   3.977   6.176   3.479 -0.2524  0.5255 -1.0585
31116SOL    HW296304   4.094   6.089   3.521 -1.6710 -0.5460  0.7874
31117SOL     OW96305   4.427   0.901   7.452 -0.5507  0.1511 -0.4646
31117SOL    HW196306   4.517   0.933   7.458 -0.9446  1.0310  1.4052
31117SOL    HW296307   4.374   0.969   7.493 -1.9403 -0.9057 -0.4287
31118SOL     OW96308   1.984   1.929   2.631  0.3771  0.6228 -0.1683
31118SOL    HW196309   1.899   1.972   2.635  0.5949  0.9838  0.7024
31118SOL    HW296310   2.035   1.981   2.569  0.3334  1.0678  0.1716
31119SOL     OW96311   4.129   0.740   8.227  0.2038  0.7868  0.0833
31119SOL    HW196312   4.192   0.720   8.158  0.3191  0.7056  0.2139
31119SOL    HW296313   4.062   0.673   8.219 -0.7184  1.7912 -1.1070
31120SOL     OW96314   6.851   3.700   2.545  0.4707 -0.1103  0.2291
31120SOL    HW196315   6.843   3.688   2.450  0.9411 -0.0755  0.1832
31120SOL    HW296316   6.860   3.612   2.579 -0.2672 -0.1667  0.3026
31121SOL     OW96317   2.094   2.413   7.903  0.3196 -0.4724 -0.6749
31121SOL    HW196318   2.164   2.407   7.837 -1.1423 -2.0635 -2.2060
31121SOL    HW296319   2.090   2.326   7.941 -0.3923 -0.2053 -0.1290
31122SOL     OW96320   4.227   7.426   0.047  0.0366 -0.1497 -0.3312
31122SOL    HW196321   4.250   7.494   0.110  0.2717 -0.1745 -0.3894
31122SOL    HW296322   4.185   7.358   0.100 -3.2739  1.4467 -0.7098
31123SOL     OW96323   1.188   8.069   0.749 -0.3197  0.5403 -0.6204
31123SOL    HW196324   1.168   8.068   0.842  0.1543  0.4921 -0.5136
31123SOL    HW296325   1.259   8.134   0.741 -0.4062  0.5943 -0.9555
31124SOL     OW96326   0.344   5.102   0.393  0.0086 -0.0028  0.1354
31124SOL    HW196327   0.361   5.024   0.446  0.6751  0.9564  1.3648
31124SOL    HW296328   0.411   5.100   0.324  0.2409 -0.3225  0.3718
31125SOL     OW96329   0.498   7.078   2.280  0.6611 -0.1226  0.0390
31125SOL    HW196330   0.563   7.058   2.346  0.6133  1.8268  0.7304
31125SOL    HW296331   0.433   7.132   2.325 -0.8694 -1.0724 -0.9102
31126SOL     OW96332   5.203   4.164   5.623  1.0889 -0.2059  0.3236
31126SOL    HW196333   5.120   4.209   5.603  0.2491 -1.2327  1.3790
31126SOL    HW296334   5.256   4.177   5.544 -0.8409 -1.2501 -1.2617
31127SOL     OW96335   1.167   8.643   4.693  0.1647 -0.2344  0.1661
31127SOL    HW196336   1.084   8.658   4.736 -0.0009 -0.0319 -0.2173
31127SOL    HW296337   1.165   8.700   4.616  0.2908 -0.8691 -0.3171
31128SOL     OW96338   9.480   7.813   7.523  0.0069 -0.4556  0.2122
31128SOL    HW196339   9.550   7.790   7.584 -1.6571  0.6884  2.7152
31128SOL    HW296340   9.496   7.905   7.502 -0.5364 -0.2774  0.5498
31129SOL     OW96341   6.507   4.397   1.900 -0.3324 -0.3435 -0.1255
31129SOL    HW196342   6.519   4.491   1.911 -1.3147 -0.2594  0.4268
31129SOL    HW296343   6.414   4.388   1.879  0.0039 -1.1057 -1.3873
31130SOL     OW96344   0.456   3.858   0.457  0.0511  0.6513 -0.3678
31130SOL    HW196345   0.437   3.765   0.463  0.5495  0.3331 -2.5861
31130SOL    HW296346   0.550   3.865   0.473  0.1999  0.6134 -1.1667
31131SOL     OW96347   4.715   2.121   3.452  0.5889 -0.3074 -0.3457
31131SOL    HW196348   4.694   2.094   3.363  1.0656 -1.8751 -0.0153
31131SOL    HW296349   4.770   2.051   3.486 -0.0647 -0.0405  1.3828
31132SOL     OW96350   7.198   6.750   4.894  0.8158 -0.0006 -0.6301
31132SOL    HW196351   7.220   6.843   4.891  1.6931 -0.1764  0.0448
31132SOL    HW296352   7.281   6.706   4.908  0.5396 -0.9662 -1.7834
31133SOL     OW96353   2.560   2.944   7.474 -0.3409  0.4038 -0.0856
31133SOL    HW196354   2.607   2.867   7.443 -1.3550  0.6831 -2.5512
31133SOL    HW296355   2.589   2.955   7.564  0.3307 -2.4458  0.1388
31134SOL     OW96356   7.679   8.452   0.683 -0.2260  0.4201 -0.1274
31134SOL    HW196357   7.650   8.482   0.770 -0.2286 -0.9117  0.3575
31134SOL    HW296358   7.695   8.532   0.634 -2.8856  1.2552  0.1862
31135SOL     OW96359   8.141   9.554   3.142  0.2813  0.6559  0.0337
31135SOL    HW196360   8.175   9.465   3.157  1.3811  1.1058  0.3235
31135SOL    HW296361   8.087   9.546   3.064  0.8348 -0.1607 -0.2801
31136SOL     OW96362   2.091   9.024   0.974 -0.1555  0.0193  0.4442
31136SOL    HW196363   2.153   9.095   0.989  0.3488 -0.4150  0.4348
31136SOL    HW296364   2.009   9.068   0.950  0.4255  0.5738 -0.5794
31137SOL     OW96365   5.277   9.899   2.482 -0.1169 -0.2407 -0.4646
31137SOL    HW196366   5.214   9.904   2.553  0.0325 -2.7252 -0.0744
31137SOL    HW296367   5.362   9.915   2.523 -0.0651 -1.3386 -0.1279
31138SOL     OW96368   1.404   5.860   0.679 -0.0461  0.4711  0.4321
31138SOL    HW196369   1.401   5.911   0.760  0.3888 -0.3578  0.9845
31138SOL    HW296370   1.364   5.917   0.613 -0.3896  1.1642  1.2220
31139SOL     OW96371   0.230   8.176   6.081 -0.3794  0.7648  0.3501
31139SOL    HW196372   0.226   8.226   6.162  0.0350  1.1070  0.1605
31139SOL    HW296373   0.186   8.231   6.016 -1.0496  0.3279  0.4160
31140SOL     OW96374   3.708   4.531   6.884 -0.3701  0.0616 -0.1981
31140SOL    HW196375   3.674   4.501   6.800  3.1711  0.4804 -1.9742
31140SOL    HW296376   3.780   4.470   6.904  1.2788  2.1514  0.5896
31141SOL     OW96377   9.016   3.858   4.249  0.0323 -0.2926  0.8749
31141SOL    HW196378   8.928   3.868   4.285 -0.0824  1.4129  0.2410
31141SOL    HW296379   9.062   3.938   4.278  0.7649 -0.2311 -0.4063
31142SOL     OW96380   7.915   1.287   7.007  0.0235  0.0284  0.0176
31142SOL    HW196381   7.970   1.360   6.979 -0.8540  1.1198  1.0225
31142SOL    HW296382   7.834   1.329   7.037 -0.5267 -1.3700  0.5487
31143SOL     OW96383   4.811   6.319   6.784  0.6455  0.5714  0.5594
31143SOL    HW196384   4.837   6.300   6.694  1.7204  0.0192  0.9650
31143SOL    HW296385   4.718   6.295   6.787  1.2187 -2.0470  0.2619
31144SOL     OW96386   7.796   7.991   6.034  0.3439 -0.1526 -0.2744
31144SOL    HW196387   7.804   7.954   5.946  1.7914 -1.0607  0.2069
31144SOL    HW296388   7.833   8.079   6.026  2.0025 -0.8198 -0.2386
31145SOL     OW96389   9.749   7.238   3.763  0.3732  0.3832  0.2775
31145SOL    HW196390   9.708   7.276   3.685  0.0785  0.6999  0.5819
31145SOL    HW296391   9.737   7.305   3.831 -1.6189 -0.8776  1.2886
31146SOL     OW96392   5.397   5.416   8.573 -0.4571  0.3901 -0.0691
31146SOL    HW196393   5.407   5.503   8.614 -0.9765  0.0055  0.9196
31146SOL    HW296394   5.305   5.393   8.588 -0.7699  0.3693 -1.8027
31147SOL     OW96395   3.346   3.117   4.419  0.0835 -0.2596  0.1799
31147SOL    HW196396   3.441   3.118   4.423  0.3259  1.0788 -3.1503
31147SOL    HW296397   3.325   3.035   4.374 -0.0656  0.7243 -1.6471
31148SOL     OW96398   4.734   7.901   1.664  0.1505 -0.0708  0.2080
31148SOL    HW196399   4.820   7.915   1.625  0.3417 -0.9520  0.3080
31148SOL    HW296400   4.748   7.913   1.758 -0.3453  2.2385  0.0565
31149SOL     OW96401   8.030   0.445   3.863 -0.1714 -0.1031  0.0565
31149SOL    HW196402   8.110   0.396   3.881  0.4031  1.5130  2.4782
31149SOL    HW296403   7.961   0.379   3.861  0.9832 -1.3360 -0.1712
31150SOL     OW96404   8.285   3.078   5.162 -0.2078 -0.0343 -0.3849
31150SOL    HW196405   8.366   3.129   5.168 -0.6197  0.4599  1.8979
31150SOL    HW296406   8.218   3.135   5.200 -0.9522 -1.6733  0.9086
31151SOL     OW96407   3.844   4.296   6.934 -0.4324 -0.1220  0.1362
31151SOL    HW196408   3.839   4.239   7.011 -0.8852  1.8708  1.6549
31151SOL    HW296409   3.820   4.239   6.860  3.3265 -3.0335  0.8475
31152SOL     OW96410   8.283   9.809   4.231  0.0581 -0.1532 -0.3384
31152SOL    HW196411   8.250   9.761   4.155 -0.2713  1.6228 -1.3715
31152SOL    HW296412   8.288   9.900   4.202  2.4970  0.2011  0.9203
31153SOL     OW96413   6.729   8.834   7.837  0.0922  0.0587  0.7257
31153SOL    HW196414   6.688   8.778   7.903 -1.1848  0.1373  0.0390
31153SOL    HW296415   6.758   8.911   7.886 -0.8897  0.1398  1.2080
31154SOL     OW96416   0.554   0.213   0.192  0.6105  0.1458 -0.7289
31154SOL    HW196417   0.506   0.223   0.275 -0.5021 -0.0071 -1.3428
31154SOL    HW296418   0.634   0.167   0.217 -0.4933 -1.4613  0.0147
31155SOL     OW96419   5.715   0.885   7.503 -0.3435  0.2049  0.8090
31155SOL    HW196420   5.706   0.974   7.468  0.0926  0.1347  0.5063
31155SOL    HW296421   5.742   0.898   7.594 -0.7739  0.3871  0.9109
31156SOL     OW96422   3.043   7.255   0.580 -0.4848  0.4890  0.7400
31156SOL    HW196423   2.994   7.263   0.498 -0.4582 -1.4001  0.4932
31156SOL    HW296424   3.085   7.340   0.591  0.3124  0.4993 -1.7217
31157SOL     OW96425   2.964   7.728   3.331  0.3657  0.7995 -0.0525
31157SOL    HW196426   2.892   7.673   3.362  0.5225  0.8820  0.4670
31157SOL    HW296427   3.018   7.669   3.278  1.8309 -0.2257  2.4014
31158SOL     OW96428   4.789   5.874   5.802 -0.1855  0.4080 -0.0477
31158SOL    HW196429   4.837   5.887   5.721  0.6765 -0.9802  0.2037
31158SOL    HW296430   4.851   5.895   5.872  0.4160 -2.1535  0.2990
31159SOL     OW96431   6.076   6.728   3.769 -0.4411  0.2566 -0.1603
31159SOL    HW196432   5.988   6.751   3.741 -1.1916 -0.4395  1.4858
31159SOL    HW296433   6.067   6.705   3.861  1.6967  1.4905  0.4492
31160SOL     OW96434  10.248   2.684   1.604 -0.1831  0.3731  0.2104
31160SOL    HW196435  10.268   2.697   1.511  1.8021 -1.0335  0.3759
31160SOL    HW296436  10.239   2.590   1.614  1.2972  0.3318  1.7059
31161SOL     OW96437   4.581   6.815   4.994  0.2124  0.0063  0.4944
31161SOL    HW196438   4.600   6.722   4.984  0.9504  0.0800  1.1080
31161SOL    HW296439   4.558   6.824   5.087 -0.9446  0.2558  0.1989
31162SOL     OW96440   0.276   9.302   4.935 -0.0968  0.1609 -0.1872
31162SOL    HW196441   0.327   9.262   4.864 -1.1363 -1.3658 -0.1164
31162SOL    HW296442   0.247   9.228   4.989 -1.2541  1.0997  0.5350
31163SOL     OW96443   8.325  10.535   4.494  0.3305 -0.3372  0.3509
31163SOL    HW196444   8.257  10.469   4.483 -0.4974  0.3070  1.3540
31163SOL    HW296445   8.399  10.503   4.442 -1.2353 -0.3114 -2.0744
31164SOL     OW96446   9.936   9.679   0.306 -0.2697 -0.1298 -0.2460
31164SOL    HW196447  10.011   9.678   0.365 -0.3567  1.9834 -0.0332
31164SOL    HW296448   9.974   9.697   0.220 -0.3850 -0.7734 -0.4372
31165SOL     OW96449   8.659   6.969   8.688 -0.4230 -0.8013 -0.4005
31165SOL    HW196450   8.683   6.889   8.735  0.9924 -1.4310 -2.0912
31165SOL    HW296451   8.670   7.039   8.753 -2.7691 -2.0123  1.4355
31166SOL     OW96452   0.930   0.273   8.463 -0.1018 -0.0757 -0.2926
31166SOL    HW196453   0.860   0.207   8.468 -0.1315 -0.0085  0.2275
31166SOL    HW296454   1.003   0.228   8.422 -0.7414  0.1068 -1.6985
31167SOL     OW96455   3.134   2.854   6.745 -0.0983  0.5665  0.5521
31167SOL    HW196456   3.119   2.934   6.694  0.5455  1.0435  1.0964
31167SOL    HW296457   3.197   2.804   6.693  1.0699  1.3547  1.1677
31168SOL     OW96458   9.980   1.978   1.840  0.5550 -0.4767  1.2940
31168SOL    HW196459  10.036   1.925   1.897  0.6539 -2.9678 -0.9474
31168SOL    HW296460  10.028   1.983   1.757 -0.8979  0.5005  0.4783
31169SOL     OW96461   4.402   8.989   6.939 -0.2655 -0.0674 -0.1472
31169SOL    HW196462   4.340   8.925   6.904 -0.9823  0.2158  0.5564
31169SOL    HW296463   4.475   8.937   6.972 -0.4940 -0.4713 -0.2711
31170SOL     OW96464   4.461   4.858   9.995  0.2334 -0.4178  0.0398
31170SOL    HW196465   4.472   4.932  10.055  0.8091 -1.3930  1.1655
31170SOL    HW296466   4.531   4.868   9.931  1.8861 -1.3377  1.6416
31171SOL     OW96467   3.659   9.218   3.107 -0.3142 -0.3576  0.6691
31171SOL    HW196468   3.612   9.177   3.034 -1.7006  1.6222  0.3554
31171SOL    HW296469   3.631   9.168   3.184 -2.7778  0.5271  0.4441
31172SOL     OW96470   7.879   8.686   8.887  0.2399  0.2756  0.2511
31172SOL    HW196471   7.830   8.711   8.809 -1.1864  1.6150  1.4886
31172SOL    HW296472   7.863   8.757   8.949  0.8634 -0.9968  1.9573
31173SOL     OW96473   2.065   8.992   6.929  0.2118  0.4099 -0.2241
31173SOL    HW196474   2.090   9.024   7.016  0.2558  0.0785 -0.1137
31173SOL    HW296475   2.133   9.025   6.871 -0.6383  1.9562 -0.3913
31174SOL     OW96476  10.019   2.055   0.481 -0.3634  0.0107 -0.5370
31174SOL    HW196477   9.991   2.082   0.393 -1.3509  2.5170  0.4741
31174SOL    HW296478  10.067   2.130   0.516  0.3763 -1.0969  0.9443
31175SOL     OW96479   7.590   7.264   7.498 -0.4676  0.0506 -0.4845
31175SOL    HW196480   7.675   7.271   7.540 -0.5750  2.3428 -0.5080
31175SOL    HW296481   7.608   7.224   7.413  0.0096 -2.8374  0.8630
31176SOL     OW96482   7.545   2.695   4.005  0.3773 -0.8469  0.3152
31176SOL    HW196483   7.460   2.721   4.041 -0.0056 -2.0552  0.3274
31176SOL    HW296484   7.538   2.601   3.992  2.5917 -1.4872  2.8045
31177SOL     OW96485   5.794   9.210   2.175  0.4014  0.0551  0.0311
31177SOL    HW196486   5.862   9.273   2.152 -1.0168  0.9732 -2.0054
31177SOL    HW296487   5.734   9.260   2.231  0.5091 -0.2169  0.3897
31178SOL     OW96488   1.348   8.778  10.178 -0.0354  0.4506  0.1826
31178SOL    HW196489   1.346   8.685  10.156 -1.4490  0.2108  1.2213
31178SOL    HW296490   1.391   8.820  10.103  1.0517 -1.0806 -0.0856
31179SOL     OW96491   7.364   4.327   4.485 -0.0990 -0.0394 -0.4107
31179SOL    HW196492   7.293   4.339   4.421  1.1733  0.9836 -1.6996
31179SOL    HW296493   7.444   4.346   4.436  0.9152  1.4074  1.6432
31180SOL     OW96494   6.236   8.776   0.645 -0.3620  0.0478 -0.7907
31180SOL    HW196495   6.314   8.736   0.684 -0.8543  0.6698  0.9525
31180SOL    HW296496   6.258   8.790   0.553  1.5817  0.2017 -0.3327
31181SOL     OW96497   7.653   5.666   2.658 -0.3315  0.1990  0.2749
31181SOL    HW196498   7.619   5.755   2.669  0.3218  0.4695  0.1409
31181SOL    HW296499   7.746   5.674   2.677 -0.3309 -0.5246  0.5874
31182SOL     OW96500   8.579   9.858   2.735 -0.0540 -0.5288 -0.2618
31182SOL    HW196501   8.602   9.823   2.821 -0.8124  1.6682  0.8938
31182SOL    HW296502   8.612   9.948   2.736  0.1036 -0.5114 -2.3747
31183SOL     OW96503   5.617   2.897   2.432  0.0938  0.4030 -0.4639
31183SOL    HW196504   5.693   2.847   2.401 -0.8863 -0.3387 -1.7651
31183SOL    HW296505   5.654   2.982   2.458  1.2805  0.3735 -1.8786
31184SOL     OW96506   6.303  10.160   6.835  0.2694 -0.2022  0.1088
31184SOL    HW196507   6.283  10.200   6.750 -2.0553  0.0908  0.7346
31184SOL    HW296508   6.341  10.075   6.813  2.6015  1.0445 -1.2067
31185SOL     OW96509   7.763   8.145   6.396  0.0697 -0.5018  0.0506
31185SOL    HW196510   7.708   8.089   6.342  1.2136  0.2668 -2.0249
31185SOL    HW296511   7.701   8.201   6.444 -0.9793 -1.3068 -0.3425
31186SOL     OW96512   8.079   8.779   8.402 -0.2053 -0.5542  0.0607
31186SOL    HW196513   8.036   8.693   8.396 -2.0347  0.2434  0.7785
31186SOL    HW296514   8.058   8.809   8.491 -2.0236  1.7947 -1.0559
31187SOL     OW96515   6.903   6.204   8.370 -0.0491  0.5251  0.4313
31187SOL    HW196516   6.894   6.124   8.319  0.5585 -0.3119  1.5947
31187SOL    HW296517   6.836   6.198   8.439  0.7462  0.4449  1.2202
31188SOL     OW96518   1.723   1.133   9.559  0.0511  0.2249 -0.1121
31188SOL    HW196519   1.758   1.221   9.571 -0.3300  0.2471  1.0510
31188SOL    HW296520   1.738   1.090   9.644  0.9591 -1.0979 -0.9154
31189SOL     OW96521   2.269   2.164   9.350  0.2611  0.2783 -0.4077
31189SOL    HW196522   2.235   2.229   9.411  0.3548  0.3964 -0.4807
31189SOL    HW296523   2.330   2.212   9.294  2.8562 -0.4512  1.6004
31190SOL     OW96524   1.809   7.211   9.588  0.0036 -0.3226  0.1313
31190SOL    HW196525   1.845   7.251   9.509  0.3969 -0.9659 -0.0202
31190SOL    HW296526   1.731   7.163   9.557 -1.3125  1.4572  0.5280
31191SOL     OW96527  10.471   2.747   1.772 -0.4026  0.4222 -0.8346
31191SOL    HW196528  10.490   2.840   1.779 -0.5903  0.3340  1.3652
31191SOL    HW296529  10.404   2.742   1.703 -0.1825  1.8574 -1.1916
31192SOL     OW96530   7.019   2.279   6.147  0.1586 -0.0731 -0.4555
31192SOL    HW196531   7.088   2.212   6.148  1.5428  1.2789 -0.2583
31192SOL    HW296532   7.036   2.329   6.067 -0.9247 -0.0050 -0.6585
31193SOL     OW96533   8.698   8.303   3.226  0.2508 -0.3671 -0.6104
31193SOL    HW196534   8.718   8.390   3.191 -0.0149 -0.7510 -1.7451
31193SOL    HW296535   8.742   8.242   3.166 -1.1318 -1.0779 -0.9437
31194SOL     OW96536   8.952   6.153   3.151  0.1994  0.3700  0.0568
31194SOL    HW196537   8.994   6.180   3.069  0.3913  2.9169  0.9132
31194SOL    HW296538   9.015   6.093   3.191 -0.2190 -1.5251 -1.9239
31195SOL     OW96539   9.776   8.321   5.565  0.7243 -0.3366  0.0975
31195SOL    HW196540   9.871   8.325   5.560  0.7389  2.0661  1.0365
31195SOL    HW296541   9.750   8.403   5.606 -1.8792 -0.1739 -1.6055
31196SOL     OW96542   2.804   8.511   5.485  0.6216 -0.0873 -0.0197
31196SOL    HW196543   2.799   8.566   5.407  0.4075 -0.7322 -0.4685
31196SOL    HW296544   2.772   8.426   5.457 -0.3088 -0.0989  0.9985
31197SOL     OW96545   1.760   8.890   0.981 -0.7798  0.4192  0.0628
31197SOL    HW196546   1.832   8.826   0.985 -0.7090  0.4530 -0.6324
31197SOL    HW296547   1.684   8.841   1.014 -0.4350  0.3984  0.8484
31198SOL     OW96548   2.356   9.801   6.532  0.1890  0.2888 -0.2908
31198SOL    HW196549   2.401   9.773   6.453  0.8554  0.5509 -0.0143
31198SOL    HW296550   2.409   9.874   6.565  0.0031  0.0896  0.4683
31199SOL     OW96551   9.227   4.823   1.292 -0.0868  0.4747  0.4155
31199SOL    HW196552   9.230   4.794   1.201  0.0865  2.3954 -0.2542
31199SOL    HW296553   9.319   4.827   1.318 -0.0026  1.7710 -0.0021
31200SOL     OW96554   8.563   2.239   9.768 -0.5157  0.3870  0.4986
31200SOL    HW196555   8.551   2.316   9.823  1.8692  0.9799  0.2724
31200SOL    HW296556   8.580   2.168   9.830  1.3565  0.8919  0.6017
31201SOL     OW96557   4.529   8.883   6.364 -0.1014  0.5745 -0.3117
31201SOL    HW196558   4.511   8.885   6.458 -0.3776 -0.8268 -0.3089
31201SOL    HW296559   4.624   8.890   6.357  0.1386 -1.4953  0.2279
31202SOL     OW96560   2.798   5.350   1.728  0.0560 -0.2005  0.6494
31202SOL    HW196561   2.813   5.422   1.789  1.8684 -0.3544  0.4408
31202SOL    HW296562   2.859   5.282   1.757  0.5609 -0.4775 -0.9990
31203SOL     OW96563   2.946   5.869   4.393  0.7921  0.0986 -0.7945
31203SOL    HW196564   3.035   5.833   4.394  0.8725  0.0331  2.8038
31203SOL    HW296565   2.953   5.951   4.443 -1.0269  0.5891 -1.2778
31204SOL     OW96566   3.191   4.149   1.315  0.3391 -0.1605 -0.1741
31204SOL    HW196567   3.221   4.232   1.351 -0.5735 -0.0746  0.4368
31204SOL    HW296568   3.117   4.124   1.371 -0.1876 -0.7596 -1.1144
31205SOL     OW96569   7.167   6.284   3.714 -0.2782 -0.1069  0.2957
31205SOL    HW196570   7.106   6.352   3.684 -0.2602 -0.4686 -0.5986
31205SOL    HW296571   7.137   6.205   3.670  1.6341 -0.0300 -1.2955
31206SOL     OW96572   9.251   3.770   3.211 -0.2398  0.1303  0.3871
31206SOL    HW196573   9.246   3.757   3.305 -1.1742  0.7994  0.4385
31206SOL    HW296574   9.236   3.683   3.174 -2.4169  0.2884  0.8113
31207SOL     OW96575   4.311   3.731   4.750  0.1533  0.1275  0.4070
31207SOL    HW196576   4.233   3.730   4.806  0.4583  1.7703  0.9035
31207SOL    HW296577   4.304   3.651   4.698  0.1772 -1.8440  3.1998
31208SOL     OW96578   4.598   7.126   3.323 -0.2371  0.2810 -0.0332
31208SOL    HW196579   4.664   7.071   3.281 -1.1976 -0.0539 -1.1387
31208SOL    HW296580   4.556   7.173   3.251 -0.5163  1.2739  0.7521
31209SOL     OW96581   7.453   2.028   4.184 -0.2789  0.2230  0.0900
31209SOL    HW196582   7.491   2.009   4.270 -2.4850 -0.6587  0.9423
31209SOL    HW296583   7.471   1.949   4.132 -0.6866 -0.0806  0.4027
31210SOL     OW96584  10.005   9.415  10.218  0.3397  0.4859  0.0868
31210SOL    HW196585  10.082   9.433  10.163 -0.2091  2.1219 -0.2021
31210SOL    HW296586   9.938   9.386  10.156 -0.1614  1.9541 -0.0842
31211SOL     OW96587  10.274   6.626   2.792  0.1695  0.5528  0.2962
31211SOL    HW196588  10.193   6.576   2.798  0.0859  0.8284  1.9315
31211SOL    HW296589  10.249   6.715   2.817  0.4954  1.2404 -1.6966
31212SOL     OW96590   3.873   4.435   7.387 -0.3827  0.2350 -0.2514
31212SOL    HW196591   3.870   4.398   7.475 -1.9553  1.5495  0.3055
31212SOL    HW296592   3.900   4.363   7.331 -2.7324 -1.6397  0.8587
31213SOL     OW96593   7.109   5.998   9.213  0.3662 -0.0744  0.0688
31213SOL    HW196594   7.073   5.988   9.125 -1.5377  0.9396  0.6726
31213SOL    HW296595   7.134   5.910   9.240 -1.7263 -0.8714 -0.4244
31214SOL     OW96596   4.376   7.694   7.128 -0.2400  0.3550 -0.0890
31214SOL    HW196597   4.305   7.696   7.064 -1.0889  1.2143  0.8397
31214SOL    HW296598   4.356   7.618   7.183 -1.1033  1.2322  0.8575
31215SOL     OW96599   0.274   1.520  10.147  0.3068 -0.5581 -0.2621
31215SOL    HW196600   0.274   1.614  10.166  0.9100  0.1014 -3.0489
31215SOL    HW296601   0.367   1.498  10.134  0.0709 -1.2202 -0.9338
31216SOL     OW96602   0.221   5.087   7.394 -0.5094 -0.0363  0.3123
31216SOL    HW196603   0.182   5.138   7.464 -1.0519  0.1600 -0.1272
31216SOL    HW296604   0.315   5.090   7.411 -0.6137  0.2912  0.8354
31217SOL     OW96605   1.686   2.259   8.560 -0.4695  0.0503  0.3049
31217SOL    HW196606   1.606   2.217   8.531  0.0903  0.6891 -2.4403
31217SOL    HW296607   1.719   2.306   8.483  1.9187  0.7926  1.6442
31218SOL     OW96608   9.954  10.092   5.434 -0.5502 -0.2235 -0.3841
31218SOL    HW196609   9.982  10.158   5.370 -0.5158  0.3620  0.2276
31218SOL    HW296610   9.939  10.141   5.514 -0.5179 -0.9708  0.0864
31219SOL     OW96611   9.490   2.517   8.103  0.3375 -0.3437 -0.0435
31219SOL    HW196612   9.474   2.422   8.107 -2.7197  0.0568 -0.4794
31219SOL    HW296613   9.437   2.547   8.030  0.2943  1.8924  0.8403
31220SOL     OW96614   6.641   7.975   6.548  0.1950 -0.1867  0.4393
31220SOL    HW196615   6.565   7.985   6.605  0.1989  1.8092  0.1787
31220SOL    HW296616   6.609   7.927   6.472 -0.8010  0.5230  0.3889
31221SOL     OW96617   6.098   6.134   4.482 -0.3901 -0.1859  0.0531
31221SOL    HW196618   6.136   6.090   4.406 -1.7413 -0.4130 -0.5117
31221SOL    HW296619   6.133   6.223   4.478  0.6025 -0.5601 -0.0566
31222SOL     OW96620   3.496   0.497   1.173 -0.1466  0.3215 -0.6310
31222SOL    HW196621   3.478   0.493   1.267  0.3153 -0.7122 -0.5818
31222SOL    HW296622   3.505   0.406   1.146 -1.1422  0.5683 -1.8587
31223SOL     OW96623   6.087   4.692   8.571 -0.3199  0.4704 -0.2711
31223SOL    HW196624   5.993   4.702   8.558 -0.2895  0.9965 -0.1168
31223SOL    HW296625   6.096   4.617   8.629 -0.7327  1.3528  0.9632
31224SOL     OW96626   2.879   6.532  10.189  0.5249 -0.3021 -0.7432
31224SOL    HW196627   2.890   6.437  10.193  1.4963 -0.2041 -0.8204
31224SOL    HW296628   2.817   6.553  10.260  0.8457 -0.9097 -0.2807
31225SOL     OW96629   1.722   1.233   8.016  0.5818  0.0736 -0.0320
31225SOL    HW196630   1.649   1.216   8.075 -0.1792 -0.3501 -1.0565
31225SOL    HW296631   1.713   1.167   7.948 -0.0218  1.9764 -1.9282
31226SOL     OW96632   5.211   6.749   1.475 -0.0451 -0.2350 -0.2103
31226SOL    HW196633   5.133   6.776   1.425 -1.0164 -1.4383  0.6033
31226SOL    HW296634   5.210   6.654   1.470  1.2166 -0.2719  0.0788
31227SOL     OW96635   5.609   9.293   0.477 -0.0311  0.1160 -0.2903
31227SOL    HW196636   5.586   9.384   0.492 -0.3589 -0.0465  0.2252
31227SOL    HW296637   5.595   9.250   0.562  0.7892 -0.2749 -0.3461
31228SOL     OW96638   6.556   1.134   6.452 -0.2167  0.3110 -0.2661
31228SOL    HW196639   6.616   1.129   6.378  0.0875 -0.7669  0.0342
31228SOL    HW296640   6.484   1.075   6.429 -0.6582  0.8022 -0.1716
31229SOL     OW96641   5.116   1.900   3.391  0.3560  0.5196 -0.4266
31229SOL    HW196642   5.079   1.917   3.304  1.3708 -0.1923 -1.0285
31229SOL    HW296643   5.143   1.986   3.423 -1.6571  1.0439 -0.0076
31230SOL     OW96644   1.478   0.854   0.688  0.0611 -0.1508 -0.2125
31230SOL    HW196645   1.384   0.837   0.686 -0.1268  0.6344  0.9354
31230SOL    HW296646   1.516   0.787   0.631 -1.0667 -1.3962  0.4376
31231SOL     OW96647   0.535  10.231   1.276 -0.3912  0.9078  0.0536
31231SOL    HW196648   0.483  10.309   1.297 -1.6849 -0.3179  1.7716
31231SOL    HW296649   0.469  10.163   1.259  0.6506 -0.2503  0.5047
31232SOL     OW96650   9.501   1.494   3.638 -0.1417  0.2912  0.1653
31232SOL    HW196651   9.460   1.547   3.570 -2.0803 -0.4159  0.7034
31232SOL    HW296652   9.458   1.408   3.631 -0.0605  0.0625  1.9481
31233SOL     OW96653   4.187   2.906   4.631  0.0387 -0.2862  0.2274
31233SOL    HW196654   4.194   2.963   4.555 -1.9804  1.1826  1.0335
31233SOL    HW296655   4.102   2.863   4.621 -0.9183  0.9701  2.2313
31234SOL     OW96656   5.870   6.500   6.572  0.4361 -0.3532  0.7401
31234SOL    HW196657   5.926   6.442   6.623  2.4657 -2.8744 -3.7137
31234SOL    HW296658   5.920   6.581   6.564  0.9445 -0.6176  1.1653
31235SOL     OW96659   0.070   1.096   2.959 -0.4231  0.2430 -0.2130
31235SOL    HW196660  -0.024   1.113   2.964 -0.4897 -0.1981  0.0229
31235SOL    HW296661   0.110   1.176   2.994 -0.7250  0.2141  0.2103
31236SOL     OW96662   0.250  10.433   6.679  0.0664 -0.4641  0.3088
31236SOL    HW196663   0.332  10.482   6.680  1.3826 -2.5284 -0.8543
31236SOL    HW296664   0.248  10.387   6.762  0.3184 -0.7640  0.1500
31237SOL     OW96665   0.281   3.150   4.901 -0.0078 -0.1494  0.1159
31237SOL    HW196666   0.359   3.112   4.861  0.6862  3.2217 -2.1763
31237SOL    HW296667   0.314   3.190   4.982  0.2742 -0.2346  0.0442
31238SOL     OW96668   1.911   6.289   5.034 -0.1500  0.2076 -0.0257
31238SOL    HW196669   1.876   6.205   5.062  2.5216 -0.7635  0.6438
31238SOL    HW296670   1.874   6.352   5.096 -0.0235 -0.8813  1.2003
31239SOL     OW96671  10.147   3.590   6.115 -0.7656 -0.0090 -0.2444
31239SOL    HW196672  10.152   3.624   6.026  1.8311  1.5045  0.3621
31239SOL    HW296673  10.165   3.665   6.171 -0.1895 -1.3345  1.4532
31240SOL     OW96674   5.001  10.620   9.247  0.7118 -0.0047 -0.3057
31240SOL    HW196675   5.021  10.611   9.154 -0.2794  2.5170 -0.8426
31240SOL    HW296676   4.987  10.530   9.277  2.5579 -1.0214 -2.1981
31241SOL     OW96677   0.740   7.644   1.329 -0.6411 -0.3056  0.2054
31241SOL    HW196678   0.830   7.666   1.307 -0.9556  1.7083  0.7422
31241SOL    HW296679   0.687   7.695   1.269 -1.4693 -2.0659 -0.6270
31242SOL     OW96680   6.342   4.166   5.927 -0.8495 -0.2927  0.2651
31242SOL    HW196681   6.247   4.158   5.914 -1.0226  1.0887  0.5456
31242SOL    HW296682   6.356   4.258   5.948  0.3910 -0.7701  1.7356
31243SOL     OW96683   7.255   1.366   2.037 -0.0656  0.0471  0.2922
31243SOL    HW196684   7.215   1.282   2.059  0.7837 -0.1502  1.1802
31243SOL    HW296685   7.199   1.431   2.080 -1.8906  0.1389 -2.0521
31244SOL     OW96686   0.463   3.699   8.135  0.2734 -0.4683  0.7606
31244SOL    HW196687   0.470   3.660   8.222 -0.2626  0.8743  1.4397
31244SOL    HW296688   0.370   3.721   8.126  0.0477 -1.8349 -0.7422
31245SOL     OW96689   0.136   6.076   6.377  0.7085  0.4386 -0.3096
31245SOL    HW196690   0.115   5.985   6.401  0.1925  0.4245 -0.8022
31245SOL    HW296691   0.222   6.091   6.417 -0.1257  0.4439  1.5956
31246SOL     OW96692   4.713   4.657   1.653  0.3931  0.6886 -0.9808
31246SOL    HW196693   4.689   4.731   1.709 -1.0525 -0.3249 -0.1741
31246SOL    HW296694   4.632   4.605   1.646  0.9627 -0.0446 -2.7366
31247SOL     OW96695   9.601   8.337  10.161 -0.2102 -0.3852  0.0906
31247SOL    HW196696   9.601   8.414  10.104  0.1673 -1.7059 -1.7700
31247SOL    HW296697   9.539   8.360  10.231  2.6414  3.0900  1.8160
31248SOL     OW96698   7.099   4.130   4.140  0.2087 -0.0774  0.1311
31248SOL    HW196699   7.087   4.065   4.209  1.4279  0.7406  1.1769
31248SOL    HW296700   7.017   4.129   4.091 -0.3425 -1.3389  1.0212
31249SOL     OW96701   8.732   9.871   9.374  0.0948  1.0519  0.7636
31249SOL    HW196702   8.783   9.794   9.396  0.7337  1.2576  0.0304
31249SOL    HW296703   8.643   9.838   9.359  0.2614  0.5347  0.9115
31250SOL     OW96704  10.096   4.051   2.873 -0.0375  0.1718  0.1244
31250SOL    HW196705  10.051   4.112   2.931  0.0660 -1.0239  1.5171
31250SOL    HW296706  10.028   3.987   2.849  0.4361 -0.5476  0.6763
31251SOL     OW96707   4.180  10.176   1.226 -0.3578 -0.4485  0.0524
31251SOL    HW196708   4.196  10.110   1.159 -1.2167 -0.4585 -0.1544
31251SOL    HW296709   4.130  10.244   1.181 -0.9909 -0.4746  0.6828
31252SOL     OW96710   6.403   4.288  10.314 -0.2336 -0.4144  0.0459
31252SOL    HW196711   6.480   4.268  10.260  1.7262  0.6149  2.2663
31252SOL    HW296712   6.367   4.202  10.335  0.0060 -0.9071 -1.3950
31253SOL     OW96713   6.480   7.828   3.314 -0.2886  0.2129  0.1475
31253SOL    HW196714   6.440   7.741   3.314 -2.3693  1.1108  0.1996
31253SOL    HW296715   6.435   7.874   3.243  1.6888  0.8801 -0.7237
31254SOL     OW96716   4.602   2.922   7.909 -0.1212  0.5724 -0.0371
31254SOL    HW196717   4.538   2.855   7.929 -2.1375  1.7098 -2.2284
31254SOL    HW296718   4.553   3.004   7.912  0.8208  1.3805 -3.0577
31255SOL     OW96719   8.189   8.289   2.142  0.8280 -0.0113  0.2120
31255SOL    HW196720   8.166   8.289   2.235  2.9855 -1.0880  0.8171
31255SOL    HW296721   8.228   8.376   2.127  3.1209 -0.7948  1.1293
31256SOL     OW96722   8.374   3.354   8.011  0.1672  0.2494 -0.0680
31256SOL    HW196723   8.463   3.370   7.979 -0.0789 -0.9489 -1.4941
31256SOL    HW296724   8.375   3.263   8.040 -0.0954  0.8137  1.8372
31257SOL     OW96725   3.468   7.599   7.788 -0.1679 -0.3658  0.2111
31257SOL    HW196726   3.388   7.551   7.765 -1.9788  1.4564  2.1972
31257SOL    HW296727   3.439   7.664   7.852  2.9524  0.3762  1.0460
31258SOL     OW96728   0.542   1.585   8.546 -0.1567  0.5516  0.1973
31258SOL    HW196729   0.597   1.508   8.529  0.3136  0.7442  0.8420
31258SOL    HW296730   0.484   1.589   8.469  1.5426  1.0568 -1.1162
31259SOL     OW96731   6.083   7.378   3.240  0.3100 -0.0364 -0.5502
31259SOL    HW196732   6.135   7.380   3.159 -1.3026 -0.6734 -1.6526
31259SOL    HW296733   6.008   7.435   3.222  0.2731  0.3668  0.7742
31260SOL     OW96734   4.980   7.492   9.858 -0.8880 -0.0962  0.2944
31260SOL    HW196735   4.975   7.397   9.861 -0.8233 -0.0680  2.2612
31260SOL    HW296736   5.074   7.510   9.849 -0.8978 -0.1974 -0.0494
31261SOL     OW96737   5.503   3.404   5.597  0.8208  0.1579  0.5502
31261SOL    HW196738   5.417   3.388   5.636  0.5070 -0.4022 -0.3363
31261SOL    HW296739   5.484   3.447   5.513  1.4390  0.5797  0.6178
31262SOL     OW96740   8.434   3.846   4.271 -0.4087  0.4404  0.0276
31262SOL    HW196741   8.423   3.758   4.306 -1.3431 -0.2424 -1.8767
31262SOL    HW296742   8.360   3.858   4.212 -0.1396  2.3991  0.0318
31263SOL     OW96743   5.966   4.635   6.317  0.1859 -0.3416 -0.0402
31263SOL    HW196744   5.947   4.607   6.227  2.1919  1.2294 -1.0420
31263SOL    HW296745   5.920   4.719   6.326  1.2827  0.2879 -0.1887
31264SOL     OW96746   4.524   9.258   3.268 -0.5342 -0.1899  0.2660
31264SOL    HW196747   4.455   9.321   3.248 -0.6821  0.2191  1.9549
31264SOL    HW296748   4.569   9.295   3.344 -0.6976 -2.1728  1.3769
31265SOL     OW96749   8.875   0.344   7.084 -0.1059  0.2037  0.7135
31265SOL    HW196750   8.814   0.270   7.085 -0.0833  0.1772  1.9665
31265SOL    HW296751   8.822   0.418   7.057 -0.7341  0.1853  1.8292
31266SOL     OW96752   0.751   5.470   2.409 -0.0510 -0.4703 -0.5738
31266SOL    HW196753   0.843   5.479   2.434  0.0210 -0.8378 -0.7077
31266SOL    HW296754   0.731   5.377   2.420 -0.1322 -0.5701 -1.4699
31267SOL     OW96755   6.038   7.146   9.659 -0.4963  0.1848 -0.0521
31267SOL    HW196756   5.976   7.105   9.719  0.3146 -0.1397  0.5906
31267SOL    HW296757   5.996   7.227   9.631 -1.2194 -0.0548  0.3323
31268SOL     OW96758   4.383   5.467   7.643 -0.2118  0.1234 -0.5291
31268SOL    HW196759   4.317   5.478   7.574  0.8669 -1.0785 -1.8077
31268SOL    HW296760   4.428   5.386   7.621  2.4937  1.4653 -0.4109
31269SOL     OW96761   0.811   5.504   3.321 -0.3394 -0.1226  0.1391
31269SOL    HW196762   0.731   5.537   3.279 -0.1498 -0.8468 -0.8201
31269SOL    HW296763   0.825   5.563   3.396 -2.2489 -0.4949  0.8577
31270SOL     OW96764  10.467   3.078  10.470  0.5041 -1.0651 -0.4593
31270SOL    HW196765  10.403   3.014  10.503  1.2627 -1.6281 -0.0376
31270SOL    HW296766  10.461   3.151  10.531 -0.5917 -0.5779 -1.1226
31271SOL     OW96767   4.653   1.564   8.042  0.2482  0.4338 -0.0633
31271SOL    HW196768   4.721   1.510   8.000  1.6341  2.2022 -0.2097
31271SOL    HW296769   4.675   1.560   8.136 -0.3476 -0.1538  0.0605
31272SOL     OW96770   3.809  10.477   9.040 -0.0541 -0.0988  0.2514
31272SOL    HW196771   3.878  10.411   9.037 -0.0497 -0.2549  2.4336
31272SOL    HW296772   3.775  10.473   9.129 -0.8218  2.0896  0.1265
31273SOL     OW96773   0.941   8.317   2.301 -0.6805  0.2017  0.0551
31273SOL    HW196774   0.956   8.222   2.297 -0.1137  0.2148  1.2772
31273SOL    HW296775   0.846   8.326   2.290 -0.5694 -0.3527 -1.7827
31274SOL     OW96776   0.877   9.010   6.607 -0.3423  0.5692 -1.2225
31274SOL    HW196777   0.898   9.017   6.514 -2.1676  0.4815 -1.6927
31274SOL    HW296778   0.809   9.077   6.620 -1.0768 -0.3329 -0.2798
31275SOL     OW96779   3.683   1.542   2.387 -0.6179 -0.1742 -0.0770
31275SOL    HW196780   3.775   1.566   2.387 -1.3501  3.1814 -1.3042
31275SOL    HW296781   3.640   1.609   2.440 -2.6127 -0.0483 -1.6875
31276SOL     OW96782   6.837   5.673   4.216 -0.0412  0.4739 -0.0603
31276SOL    HW196783   6.890   5.689   4.138 -1.7464  1.6241 -1.0654
31276SOL    HW296784   6.786   5.595   4.196 -1.4318  1.4980 -0.6980
31277SOL     OW96785   7.464  10.375   8.535 -0.0440 -0.2479 -0.5299
31277SOL    HW196786   7.385  10.371   8.482  0.4049 -3.3731 -1.1817
31277SOL    HW296787   7.432  10.387   8.625 -1.0983  0.6521 -1.0062
31278SOL     OW96788   1.812   9.962   1.723 -0.0723  0.3607  0.0614
31278SOL    HW196789   1.811  10.027   1.653 -0.3353  0.3351  0.0393
31278SOL    HW296790   1.730   9.913   1.711  0.0786  0.0908  0.1376
31279SOL     OW96791  10.406   2.782   0.683 -0.2968  1.0281 -0.1308
31279SOL    HW196792  10.401   2.704   0.739 -2.7197  1.0593 -0.1976
31279SOL    HW296793  10.458   2.754   0.608  1.0006  0.2717  0.9845
31280SOL     OW96794   4.887   6.480   0.430  0.0934 -0.0034 -0.0967
31280SOL    HW196795   4.828   6.556   0.427  2.0997  1.7730  1.6191
31280SOL    HW296796   4.940   6.487   0.351 -1.3162 -1.0846 -1.1806
31281SOL     OW96797   2.140   4.865   3.775 -0.0651  0.0314 -0.4616
31281SOL    HW196798   2.194   4.814   3.834 -0.6157 -1.7172 -1.3964
31281SOL    HW296799   2.202   4.910   3.718  0.4244  0.1461  0.1511
31282SOL     OW96800   0.521   4.777   0.127  0.1644  0.6540  0.8110
31282SOL    HW196801   0.441   4.811   0.087  0.1382 -0.8515 -0.4932
31282SOL    HW296802   0.525   4.821   0.212 -1.5340  1.4737  0.5165
31283SOL     OW96803   6.246   1.843   0.615 -0.4705 -0.5727 -0.0300
31283SOL    HW196804   6.155   1.825   0.641 -0.5915  2.3492  1.9740
31283SOL    HW296805   6.239   1.884   0.529 -1.2521  1.0388  0.7642
31284SOL     OW96806   8.853   3.135   4.566 -0.2589  0.1460 -0.5460
31284SOL    HW196807   8.863   3.098   4.478 -0.1592 -0.2660 -0.3646
31284SOL    HW296808   8.931   3.189   4.578  0.7233 -1.3232  0.0206
31285SOL     OW96809   9.795   7.308   3.482 -0.5295  0.0968 -0.3707
31285SOL    HW196810   9.758   7.386   3.525  0.5293  0.3334  0.1543
31285SOL    HW296811   9.848   7.343   3.411  1.9558  0.0893  1.3386
31286SOL     OW96812   8.326   2.389   4.068  0.2933 -0.2911  0.2697
31286SOL    HW196813   8.392   2.377   4.137  3.2982 -1.6274 -2.5231
31286SOL    HW296814   8.354   2.468   4.021 -2.8876  1.8090  1.6280
31287SOL     OW96815   1.851   7.197   4.174 -0.6445  0.4613 -0.0247
31287SOL    HW196816   1.776   7.138   4.182 -1.8095  2.0023  1.1010
31287SOL    HW296817   1.903   7.180   4.252 -1.4963  1.5519  0.8113
31288SOL     OW96818   6.056   7.142   0.919 -0.0916  0.1125 -0.3615
31288SOL    HW196819   6.151   7.151   0.930  0.1215 -2.7100  0.9158
31288SOL    HW296820   6.046   7.073   0.853 -1.3226  1.3376 -1.5192
31289SOL     OW96821   1.279   1.429   9.622 -0.4603  0.2797  0.0420
31289SOL    HW196822   1.262   1.448   9.714  0.0792 -1.0065  0.4280
31289SOL    HW296823   1.373   1.445   9.611 -0.2794 -0.7282  0.0302
31290SOL     OW96824   7.247   8.303   1.674 -0.3563  0.3840  0.3943
31290SOL    HW196825   7.253   8.232   1.609 -1.3475 -0.2831  0.9998
31290SOL    HW296826   7.314   8.281   1.738  1.5033  1.7313 -0.9976
31291SOL     OW96827   2.269   6.682   6.290  0.0082 -0.1015  0.6734
31291SOL    HW196828   2.239   6.598   6.324  0.8883 -0.2807  1.0554
31291SOL    HW296829   2.326   6.659   6.216  0.3653  0.1420  0.8653
31292SOL     OW96830  10.515   3.979   4.293  0.1306  0.0956  0.0574
31292SOL    HW196831  10.465   4.061   4.297 -1.0318 -0.5304 -0.9512
31292SOL    HW296832  10.454   3.912   4.322  0.0831 -0.7947 -1.9215
31293SOL     OW96833   6.979   3.474   4.347 -0.3945  0.7439 -0.0317
31293SOL    HW196834   7.063   3.460   4.391  0.3826 -0.0693 -1.6942
31293SOL    HW296835   6.927   3.522   4.411  1.1153  0.7339  1.2798
31294SOL     OW96836   0.314   8.045   6.901  0.0759 -0.4420  0.1427
31294SOL    HW196837   0.334   8.135   6.928  1.6252 -0.9312  0.7459
31294SOL    HW296838   0.322   7.994   6.982  1.4285 -1.4414 -0.5896
31295SOL     OW96839   8.017   4.401   0.576  0.3128  0.5070 -0.2294
31295SOL    HW196840   8.029   4.495   0.593 -0.1517  0.6303 -0.5790
31295SOL    HW296841   7.981   4.396   0.488 -0.3078  0.0395  0.0357
31296SOL     OW96842   1.098   5.079   3.290  0.6096  0.5816  0.4652
31296SOL    HW196843   1.180   5.075   3.240  0.1862 -0.9281 -0.1432
31296SOL    HW296844   1.120   5.044   3.376  0.9468  1.6415  0.8297
31297SOL     OW96845   3.591   3.324   0.303  0.1275  0.1512  0.2150
31297SOL    HW196846   3.664   3.385   0.289  0.2293 -0.2634 -1.2774
31297SOL    HW296847   3.551   3.314   0.217 -2.3580  1.1266  1.1609
31298SOL     OW96848   4.792   4.074   2.216  0.1128 -0.1000  0.1946
31298SOL    HW196849   4.819   4.089   2.125 -0.8967  2.4773  0.2441
31298SOL    HW296850   4.704   4.110   2.222  0.0012 -0.5689  2.1141
31299SOL     OW96851   7.100   8.846   9.610  0.5460  0.1765 -0.1938
31299SOL    HW196852   7.126   8.869   9.699 -0.6880 -2.7068  1.0490
31299SOL    HW296853   7.044   8.917   9.582 -1.1867 -0.0281  2.4261
31300SOL     OW96854   2.887   4.553   7.980  0.3163  0.5297  0.1915
31300SOL    HW196855   2.962   4.599   8.019  1.2636 -0.9738  0.1997
31300SOL    HW296856   2.822   4.548   8.050  0.1712  1.8723  0.1782
31301SOL     OW96857   6.683   7.139   8.417 -0.4758  0.0559 -0.0100
31301SOL    HW196858   6.743   7.065   8.431  0.7357  1.2080  1.2079
31301SOL    HW296859   6.603   7.113   8.462 -0.6247 -1.1424 -0.9048
31302SOL     OW96860   7.865   2.698   0.447  0.2328  0.4219 -0.4838
31302SOL    HW196861   7.775   2.687   0.418  0.3354  0.1851 -0.7273
31302SOL    HW296862   7.863   2.773   0.506  0.3107  2.1192 -2.4994
31303SOL     OW96863   5.387   9.262   4.638  0.2338  0.2362 -0.5207
31303SOL    HW196864   5.426   9.239   4.723 -0.8584 -0.2244 -0.1194
31303SOL    HW296865   5.325   9.332   4.659  0.8790  1.0114 -1.1596
31304SOL     OW96866   3.879   9.811   0.465  0.0705 -0.2630  0.4322
31304SOL    HW196867   3.946   9.805   0.397 -0.5089 -0.0776 -0.1661
31304SOL    HW296868   3.915   9.873   0.530  1.1272 -1.3288  0.8954
31305SOL     OW96869   1.922   1.867   5.097 -0.1307 -0.1181  0.4087
31305SOL    HW196870   1.987   1.871   5.167  0.2752 -1.1383  0.1190
31305SOL    HW296871   1.973   1.873   5.016 -0.3161 -1.4711  0.1666
31306SOL     OW96872   0.035   9.928   5.501  0.0628  0.3356  0.2466
31306SOL    HW196873   0.111   9.902   5.450 -0.7170 -1.0929 -0.2409
31306SOL    HW296874   0.068   9.995   5.561  1.6428 -0.0996 -0.0914
31307SOL     OW96875   5.199   7.160   5.286  0.4569  0.3449  0.3151
31307SOL    HW196876   5.215   7.251   5.262 -0.1220  0.1438 -0.9144
31307SOL    HW296877   5.212   7.157   5.381  1.7418  1.4248  0.1985
31308SOL     OW96878   1.719   0.678  10.519 -0.0360 -0.2511  0.7554
31308SOL    HW196879   1.670   0.755  10.547  1.7464  2.4333 -2.7987
31308SOL    HW296880   1.653   0.619  10.483 -1.1330  1.1910  0.3489
31309SOL     OW96881   3.605   5.750   8.613  0.4849  1.4578  0.5261
31309SOL    HW196882   3.589   5.731   8.520 -0.9920  2.7927  0.4537
31309SOL    HW296883   3.588   5.667   8.658  0.0010  1.1044 -0.2815
31310SOL     OW96884  10.556   9.701   0.037 -0.7187 -0.1006  0.0751
31310SOL    HW196885  10.648   9.705   0.012  0.2907  0.9270  3.4337
31310SOL    HW296886  10.537   9.608   0.044  0.0515 -0.3182 -0.6154
31311SOL     OW96887   3.756   9.358   1.735 -0.1395  0.3268 -0.4410
31311SOL    HW196888   3.781   9.358   1.643 -1.0504 -0.8706 -0.7114
31311SOL    HW296889   3.832   9.323   1.781  0.4926  1.3652 -0.6667
31312SOL     OW96890   7.030   0.552   6.148  0.7399 -0.1022  0.3645
31312SOL    HW196891   7.093   0.616   6.116  0.6714  0.4651  1.3252
31312SOL    HW296892   6.976   0.601   6.210 -0.4632 -0.6481 -0.2154
31313SOL     OW96893   2.634   2.269   7.979 -0.3870  0.4556 -0.3141
31313SOL    HW196894   2.677   2.352   7.958 -1.7314  1.3215  0.1918
31313SOL    HW296895   2.660   2.251   8.069  1.6992 -0.8791 -1.1179
31314SOL     OW96896   0.094   3.649   0.695  0.4684  1.0118 -0.2960
31314SOL    HW196897   0.097   3.719   0.630  2.6152  1.4220  0.1815
31314SOL    HW296898   0.097   3.695   0.780 -3.8369  0.5965  0.3083
31315SOL     OW96899   5.633   5.563   4.928  0.0807  0.5652 -0.1013
31315SOL    HW196900   5.658   5.603   5.011  0.5024  0.5786 -0.2274
31315SOL    HW296901   5.675   5.619   4.862  0.8179 -0.1707 -0.2804
31316SOL     OW96902   3.446   0.438   1.440 -0.0058  0.0138 -0.3539
31316SOL    HW196903   3.390   0.362   1.423 -0.0570  0.1516 -0.8320
31316SOL    HW296904   3.418   0.470   1.525  0.2822 -0.7321  0.0360
31317SOL     OW96905   0.082   8.471  10.462 -0.3755 -0.4512 -0.5778
31317SOL    HW196906   0.050   8.547  10.510  1.6681  0.0276  0.1363
31317SOL    HW296907   0.122   8.508  10.383  0.3036 -0.8101 -0.4060
31318SOL     OW96908   8.221   7.633   9.871 -0.1798  0.3226  0.0252
31318SOL    HW196909   8.237   7.651   9.963 -1.0450 -0.1579  0.2780
31318SOL    HW296910   8.306   7.647   9.829  0.4458 -0.3529  1.0259
31319SOL     OW96911   9.156   1.290   2.501  0.0925 -0.2230 -0.0923
31319SOL    HW196912   9.235   1.241   2.527  0.4758  0.5865  0.3218
31319SOL    HW296913   9.116   1.236   2.433  0.4538 -1.1505  0.4007
31320SOL     OW96914   6.793   2.580   0.124  0.7139 -0.2664 -0.6212
31320SOL    HW196915   6.839   2.664   0.125 -0.3935  0.3491 -0.0541
31320SOL    HW296916   6.811   2.544   0.037  0.6788  0.8577 -1.1081
31321SOL     OW96917   0.799   6.807   2.594  0.3428  0.4162 -0.2768
31321SOL    HW196918   0.791   6.716   2.566  1.2511  0.4354 -0.6456
31321SOL    HW296919   0.863   6.804   2.665 -2.2722  0.2940  2.2450
31322SOL     OW96920   4.247   1.147   5.251 -0.1668 -0.0410 -0.1429
31322SOL    HW196921   4.203   1.156   5.167 -0.4145 -0.2139 -0.0353
31322SOL    HW296922   4.324   1.203   5.245 -0.7767  0.8167 -0.0852
31323SOL     OW96923   0.486   0.558  10.509 -0.5875  0.2323 -0.2502
31323SOL    HW196924   0.580   0.550  10.526 -1.1855 -1.1244  3.4532
31323SOL    HW296925   0.460   0.470  10.480 -0.6492  0.8001 -1.9944
31324SOL     OW96926   4.342   0.349   3.218  0.0971 -0.1286 -0.0765
31324SOL    HW196927   4.419   0.386   3.175  0.4127  0.5373  1.0114
31324SOL    HW296928   4.312   0.281   3.159  0.3990  0.8661 -1.4218
31325SOL     OW96929   2.374   7.310   9.811  0.3550  0.0111  0.1848
31325SOL    HW196930   2.322   7.388   9.797 -1.6248 -1.1840  0.5760
31325SOL    HW296931   2.439   7.312   9.740  0.1599  1.8233  0.0137
31326SOL     OW96932   9.739   0.381   9.842  0.5406  0.0989 -0.4591
31326SOL    HW196933   9.695   0.393   9.926  0.0251  0.3459 -0.7594
31326SOL    HW296934   9.737   0.287   9.827 -0.9173  0.1918 -1.0008
31327SOL     OW96935   3.097   6.848   0.407  0.3789  0.2224 -0.0907
31327SOL    HW196936   3.139   6.915   0.462 -1.2838 -0.5748  2.3043
31327SOL    HW296937   3.129   6.765   0.442 -1.2625 -0.3305  0.1683
31328SOL     OW96938   1.228   2.017   0.253 -0.4644 -0.1125  0.0793
31328SOL    HW196939   1.293   1.947   0.259  0.6013  0.8240 -0.2246
31328SOL    HW296940   1.280   2.097   0.245 -1.6617  0.6894  0.1544
31329SOL     OW96941   2.153   4.265  10.351  0.0753 -0.0442  0.3673
31329SOL    HW196942   2.144   4.349  10.397  1.3435 -0.1772  0.8970
31329SOL    HW296943   2.120   4.282  10.263 -0.4759  0.7771  0.7195
31330SOL     OW96944   4.477   5.945   4.373  0.6875  1.0131 -0.0628
31330SOL    HW196945   4.554   5.966   4.426  2.5270  0.6347 -2.4187
31330SOL    HW296946   4.461   5.852   4.391 -0.0766  1.3894  1.3877
31331SOL     OW96947   3.381   1.194   8.743  0.3203  0.0362 -0.0692
31331SOL    HW196948   3.298   1.147   8.743  0.7706 -0.7807 -0.1120
31331SOL    HW296949   3.448   1.125   8.746  0.9924  0.6929  0.5450
31332SOL     OW96950   1.674   9.681   1.444 -0.3588 -0.1380  0.2737
31332SOL    HW196951   1.616   9.629   1.500  1.6374  0.5828  3.2421
31332SOL    HW296952   1.744   9.620   1.420 -0.5529 -0.0965 -0.4240
31333SOL     OW96953   5.645   1.711   0.041  0.3007  0.0218 -0.2639
31333SOL    HW196954   5.552   1.721   0.021  0.2480 -0.7833 -0.4476
31333SOL    HW296955   5.652   1.733   0.134 -0.8098 -3.8317  0.9442
31334SOL     OW96956   9.761   1.893   8.536  0.3050 -0.0246  0.0834
31334SOL    HW196957   9.778   1.928   8.449 -2.2626  0.7900 -0.1651
31334SOL    HW296958   9.676   1.850   8.528 -1.5564  2.7500  2.8398
31335SOL     OW96959   2.438   3.307   8.627  0.5174 -0.0581  0.2797
31335SOL    HW196960   2.401   3.286   8.713  0.5373 -0.4291  0.2000
31335SOL    HW296961   2.502   3.238   8.611 -0.5131 -0.8411 -0.6665
31336SOL     OW96962   6.597   6.521   2.191 -0.1427 -0.0209  0.8183
31336SOL    HW196963   6.599   6.613   2.215 -2.2303  0.2021  0.3013
31336SOL    HW296964   6.647   6.517   2.109 -0.0340  0.6548  0.8459
31337SOL     OW96965   0.942  10.020   0.219 -0.3271 -0.3968  0.0891
31337SOL    HW196966   0.998   9.955   0.177 -0.0410 -0.4865  0.6110
31337SOL    HW296967   0.866   9.971   0.249 -0.7309 -0.2632 -0.6818
31338SOL     OW96968   1.786   7.477   1.464  0.7992 -0.0294  0.0479
31338SOL    HW196969   1.785   7.442   1.553  0.0136  0.8393  0.3872
31338SOL    HW296970   1.877   7.466   1.435  1.0070 -0.5330  0.8574
31339SOL     OW96971   8.773   3.026   4.070 -0.2296  0.0684  0.3951
31339SOL    HW196972   8.829   2.994   4.141 -1.4769  0.8014  1.7585
31339SOL    HW296973   8.809   3.111   4.047 -0.7177  0.5219  1.2452
31340SOL     OW96974  10.646   8.037   9.048 -0.2614 -0.5442 -0.2450
31340SOL    HW196975  10.584   7.964   9.045  0.2286 -1.0238  0.6587
31340SOL    HW296976  10.593   8.115   9.032 -1.0815 -0.9631  0.3739
31341SOL     OW96977   0.392   1.739   7.342  0.1857  0.1106  0.2078
31341SOL    HW196978   0.435   1.782   7.268  1.5664  1.6838  1.8415
31341SOL    HW296979   0.464   1.710   7.398 -0.8296 -0.8693  1.0506
31342SOL     OW96980   7.309   8.462  10.145 -0.3684 -0.3509 -0.0495
31342SOL    HW196981   7.320   8.405  10.221 -1.9315  0.5101  0.8728
31342SOL    HW296982   7.356   8.417  10.075  0.3151 -1.6500  1.1798
31343SOL     OW96983   4.754   5.436   1.977  0.3030 -0.0688 -0.7877
31343SOL    HW196984   4.723   5.379   1.906 -0.9028 -0.8509  0.3319
31343SOL    HW296985   4.841   5.401   1.998 -0.3695 -1.4562 -0.2014
31344SOL     OW96986   7.414   5.078   6.560  0.6375 -0.3216  0.4124
31344SOL    HW196987   7.456   5.026   6.491  0.3917 -0.6088  0.4746
31344SOL    HW296988   7.462   5.160   6.560  1.0073 -0.5316  0.2799
31345SOL     OW96989   6.805   7.811   5.589 -0.0273 -0.0707 -0.1632
31345SOL    HW196990   6.826   7.760   5.511 -0.5598 -0.5025 -0.0263
31345SOL    HW296991   6.804   7.747   5.660 -0.8999  0.0938 -0.0205
31346SOL     OW96992   1.739   9.737   3.512  0.5433  0.3708 -0.3481
31346SOL    HW196993   1.771   9.804   3.573 -0.6132 -0.7885  1.6257
31346SOL    HW296994   1.817   9.686   3.490  0.8528  0.2554  0.9268
31347SOL     OW96995   9.959   4.541   1.304 -0.1518  0.2706  0.5800
31347SOL    HW196996   9.973   4.634   1.287 -0.4669  0.5102  1.5187
31347SOL    HW296997   9.868   4.536   1.334  0.2196 -0.1333  1.7238
31348SOL     OW96998   0.602   0.529   7.610 -0.3009  0.0350  0.3666
31348SOL    HW196999   0.696   0.510   7.604 -0.0655  0.0765  2.7522
31348SOL    HW297000   0.580   0.507   7.701 -2.0234  2.4503  0.6160
31349SOL     OW97001   1.421   1.940   7.921  0.2199 -0.2052  0.0084
31349SOL    HW197002   1.475   1.962   7.845 -2.5272  0.1493 -1.9798
31349SOL    HW297003   1.464   1.864   7.959  1.8725 -0.2095 -1.7246
31350SOL     OW97004   4.844   1.780   8.356 -0.4973  0.0668 -0.1590
31350SOL    HW197005   4.883   1.803   8.272  0.9295  0.5620  0.6058
31350SOL    HW297006   4.800   1.696   8.339 -1.7402  0.9835 -1.7989
31351SOL     OW97007   3.598   4.996   0.685  0.1578 -0.9062 -0.3561
31351SOL    HW197008   3.673   4.997   0.627 -0.3245  1.2597 -1.0399
31351SOL    HW297009   3.524   4.973   0.629 -0.1386  0.0868 -0.3931
31352SOL     OW97010   9.359   1.312   4.430  0.3852  0.6912  0.1047
31352SOL    HW197011   9.311   1.230   4.444 -0.1349  0.9583 -0.0793
31352SOL    HW297012   9.419   1.293   4.359  1.5718 -0.0651  1.2637
31353SOL     OW97013   9.412   8.212   6.666 -0.1488  0.2129  0.1035
31353SOL    HW197014   9.398   8.282   6.730 -1.3480  1.0676 -1.0439
31353SOL    HW297015   9.381   8.249   6.584  1.8268 -0.6670 -1.1178
31354SOL     OW97016   7.505   0.144   3.661 -0.2433 -0.3841 -0.8588
31354SOL    HW197017   7.517   0.086   3.586  1.3740 -0.7341 -0.3611
31354SOL    HW297018   7.532   0.230   3.630 -2.7932  0.2183 -1.6450
31355SOL     OW97019   2.347  10.621   4.703 -0.2645 -0.3445  0.2559
31355SOL    HW197020   2.413  10.557   4.730  0.8048  1.4517  2.1146
31355SOL    HW297021   2.394  10.703   4.695 -1.8129  0.4801 -1.0004
31356SOL     OW97022   8.649   1.076   2.429  0.0083 -0.5851 -0.7146
31356SOL    HW197023   8.638   1.167   2.457 -2.7211 -0.0756 -2.9445
31356SOL    HW297024   8.626   1.024   2.506  0.9558  0.5771  0.3996
31357SOL     OW97025   0.532   2.012   3.518 -0.3758  0.1764  0.2410
31357SOL    HW197026   0.471   2.057   3.577 -1.6983  0.7616 -1.4984
31357SOL    HW297027   0.618   2.045   3.543 -0.7855 -0.1157  2.2663
31358SOL     OW97028   2.161   4.717   4.859  0.1492 -0.9856 -0.8917
31358SOL    HW197029   2.073   4.746   4.884  0.8909  0.1758  0.5393
31358SOL    HW297030   2.150   4.624   4.837 -1.5791 -0.6439 -1.6559
31359SOL     OW97031   6.767   6.325   5.700  0.4330  0.2448  0.3285
31359SOL    HW197032   6.764   6.387   5.627 -0.6531 -1.5307 -1.2374
31359SOL    HW297033   6.841   6.354   5.753  0.8642  1.9897 -1.1223
31360SOL     OW97034   4.991   1.164   9.620  0.3193 -0.4196  0.2192
31360SOL    HW197035   5.058   1.232   9.626  1.0927 -0.9878 -1.4314
31360SOL    HW297036   5.012   1.104   9.691 -0.1871  0.8543  1.5030
31361SOL     OW97037   9.466   9.229   2.995 -0.8876 -0.1486  0.4843
31361SOL    HW197038   9.537   9.217   2.931 -0.5964 -2.0522  1.0924
31361SOL    HW297039   9.468   9.149   3.048 -3.0303  0.0627  0.9840
31362SOL     OW97040   7.585   6.471   1.731  0.0179 -0.3540 -0.3789
31362SOL    HW197041   7.511   6.512   1.686  1.1171 -0.5873 -2.5117
31362SOL    HW297042   7.593   6.385   1.691  1.1163 -0.5399  0.1992
31363SOL     OW97043   8.857   7.835   9.180 -0.6605 -0.3316 -0.1526
31363SOL    HW197044   8.765   7.855   9.195 -0.9000 -1.8986  0.6269
31363SOL    HW297045   8.900   7.921   9.175 -2.2666  0.4419 -1.4035
31364SOL     OW97046   7.712   1.351  10.534 -0.4110  0.1583  0.7349
31364SOL    HW197047   7.639   1.354  10.596 -0.6637 -0.3074  0.4659
31364SOL    HW297048   7.681   1.293  10.464  1.0323 -1.7663  1.6264
31365SOL     OW97049  10.569  10.221   8.500 -0.1397  0.0141  0.0466
31365SOL    HW197050  10.534  10.310   8.502 -0.8095 -0.2257 -0.6115
31365SOL    HW297051  10.625  10.219   8.422  0.5745  0.1087  0.5496
31366SOL     OW97052   0.575   4.533   4.051 -0.3600 -0.0235 -0.0570
31366SOL    HW197053   0.492   4.486   4.043  0.2536 -1.2682  0.5995
31366SOL    HW297054   0.551   4.615   4.094 -1.4277  0.2055 -1.0394
31367SOL     OW97055   7.685   0.091   1.004 -0.4270 -0.3891  0.3413
31367SOL    HW197056   7.693   0.124   1.094 -1.6395  1.7541 -0.2857
31367SOL    HW297057   7.659  -0.000   1.015  2.1533 -1.0298  2.1474
31368SOL     OW97058   9.719   4.245   4.989  0.0207 -0.8992 -0.3572
31368SOL    HW197059   9.689   4.281   5.073  0.2681 -0.8518 -0.2882
31368SOL    HW297060   9.751   4.320   4.940 -0.0992 -0.9313 -0.4845
31369SOL     OW97061   3.895   5.153   3.925  0.1916  0.0216  0.0299
31369SOL    HW197062   3.831   5.098   3.879  3.0020 -1.2684 -2.6913
31369SOL    HW297063   3.918   5.220   3.861 -0.5143  2.3287  2.0341
31370SOL     OW97064   5.895   1.029   0.321  0.2039  0.0024  0.0010
31370SOL    HW197065   5.855   0.968   0.259  2.0647 -0.6519 -0.6172
31370SOL    HW297066   5.901   0.980   0.403  0.0788 -0.0264 -0.0071
31371SOL     OW97067   2.255   8.988   3.738  0.0716 -0.1027 -0.1168
31371SOL    HW197068   2.195   9.002   3.811 -0.1626 -0.6140 -0.2111
31371SOL    HW297069   2.255   8.894   3.724 -0.7784  0.0826 -1.5221
31372SOL     OW97070   8.564   7.029   1.816  0.1927 -0.4170 -0.0691
31372SOL    HW197071   8.601   6.973   1.885  2.5736 -0.0541 -0.9560
31372SOL    HW297072   8.543   6.969   1.745  1.1676 -0.3961 -0.3853
31373SOL     OW97073   2.780   7.462   3.098  0.3813 -0.7861  0.3120
31373SOL    HW197074   2.844   7.412   3.148  0.7485 -1.3408 -0.6755
31373SOL    HW297075   2.703   7.406   3.095  0.4559 -0.8733  0.0233
31374SOL     OW97076   5.895  10.669   1.268  0.4127  0.0109  0.3880
31374SOL    HW197077   5.898  10.730   1.194  0.3050 -1.0659 -0.5473
31374SOL    HW297078   5.811  10.624   1.258  0.3087 -0.0104  1.2950
31375SOL     OW97079   5.374   3.218   8.067  0.1202  0.7270 -0.1400
31375SOL    HW197080   5.468   3.200   8.060  0.3573  1.2311  1.4389
31375SOL    HW297081   5.358   3.230   8.161 -1.1884  2.4095 -0.5178
31376SOL     OW97082   7.528   5.005   2.806  0.2991  0.2016  0.8747
31376SOL    HW197083   7.590   4.981   2.875  1.3461  2.9558  1.0348
31376SOL    HW297084   7.461   5.057   2.850  0.2922  0.9411  0.0301
31377SOL     OW97085   9.938   7.621   0.682 -0.3948 -0.0337 -0.3743
31377SOL    HW197086   9.916   7.550   0.621 -1.1054  0.8320 -1.1614
31377SOL    HW297087   9.927   7.582   0.769 -1.8576 -0.5823 -0.7800
31378SOL     OW97088   9.252   0.920   2.282 -0.8043  0.4104 -0.9945
31378SOL    HW197089   9.344   0.943   2.289 -0.1363 -2.4170  2.0907
31378SOL    HW297090   9.241   0.895   2.190  1.5112  0.6841 -1.4137
31379SOL     OW97091   5.109   2.916   5.976  0.1875  0.3879 -0.0983
31379SOL    HW197092   5.144   2.837   5.936  0.9146  0.8402 -0.3736
31379SOL    HW297093   5.019   2.921   5.944  0.9212  1.0719 -2.2085
31380SOL     OW97094   5.382   2.118   2.865 -0.0230  0.0679 -0.0195
31380SOL    HW197095   5.456   2.175   2.885 -0.5434  1.0965 -0.9039
31380SOL    HW297096   5.422   2.036   2.834  0.8998  1.7793 -3.9589
31381SOL     OW97097   9.538   8.631   2.508  0.1256  0.1268  0.0318
31381SOL    HW197098   9.620   8.669   2.540  0.7381 -1.1462  0.0743
31381SOL    HW297099   9.557   8.608   2.417 -0.4633  0.5720 -0.2059
31382SOL     OW97100   1.622  10.569   9.113  0.6703  0.1640 -0.2118
31382SOL    HW197101   1.646  10.503   9.049  2.9323 -0.0289  0.7237
31382SOL    HW297102   1.607  10.648   9.062  1.2680 -0.2721 -1.0822
31383SOL     OW97103   0.791   1.261   3.625 -0.0613  0.3575  0.0513
31383SOL    HW197104   0.710   1.232   3.582 -0.2170  1.2304 -0.2483
31383SOL    HW297105   0.805   1.350   3.594  1.1749  0.1187 -0.1202
31384SOL     OW97106   3.386   9.564   8.426 -0.3513 -0.5223  0.0312
31384SOL    HW197107   3.431   9.648   8.440  1.6867 -1.8824  2.7639
31384SOL    HW297108   3.300   9.588   8.392  0.4161  2.6283  0.0076
31385SOL     OW97109  10.141   2.771  10.066  0.0783  0.0900 -0.4476
31385SOL    HW197110  10.217   2.783  10.123 -0.2848 -3.1030  0.9251
31385SOL    HW297111  10.177   2.773   9.978  1.2499  1.6192  0.0292
31386SOL     OW97112   2.141   0.560   2.008  0.5765 -0.2807 -0.0444
31386SOL    HW197113   2.196   0.511   1.947 -0.3978 -2.4921  0.7673
31386SOL    HW297114   2.198   0.630   2.041  2.1918 -1.1521 -0.8741
31387SOL     OW97115   6.294   5.091   1.935  0.2826 -1.1824 -0.5823
31387SOL    HW197116   6.381   5.114   1.968 -1.0142  2.3007  0.8524
31387SOL    HW297117   6.244   5.067   2.013 -0.7200 -0.6802 -1.0609
31388SOL     OW97118   9.537   1.514   9.256 -0.2291 -0.2252 -0.2618
31388SOL    HW197119   9.578   1.592   9.219 -1.3062 -0.2443 -1.6224
31388SOL    HW297120   9.490   1.545   9.333 -0.5910  0.4867 -0.7531
31389SOL     OW97121  10.605   0.070   9.985 -0.0947  0.6107 -0.1406
31389SOL    HW197122  10.685   0.038   9.943  0.0122 -1.8166  1.7084
31389SOL    HW297123  10.543   0.079   9.913  0.5146 -1.9764 -1.1346
31390SOL     OW97124   6.950   0.699   7.583 -0.0906  0.2353  0.1439
31390SOL    HW197125   6.981   0.790   7.579  0.0294  0.1864 -0.0349
31390SOL    HW297126   6.860   0.704   7.549 -0.7338  0.5754  1.7859
31391SOL     OW97127   2.990   1.982   1.516  0.4084  0.2944 -0.9236
31391SOL    HW197128   2.924   1.963   1.450 -1.0791  0.5435  0.4341
31391SOL    HW297129   3.018   2.072   1.496 -1.5726  1.1688 -0.0064
31392SOL     OW97130   1.084   0.299   7.721 -0.5589 -0.1888 -0.0051
31392SOL    HW197131   1.148   0.361   7.684  0.5104 -2.7517 -2.8401
31392SOL    HW297132   1.133   0.217   7.731 -2.5047 -1.2581  1.3590
31393SOL     OW97133   1.754   2.266  10.029  0.6008  0.0491  0.3383
31393SOL    HW197134   1.849   2.278  10.035  0.3561  1.5394  2.0070
31393SOL    HW297135   1.737   2.261   9.935  2.3085 -0.2066  0.0009
31394SOL     OW97136   1.884   6.980   4.694  0.0926 -0.1385  0.1616
31394SOL    HW197137   1.969   7.014   4.667 -0.7014  1.4555 -0.4165
31394SOL    HW297138   1.843   6.950   4.613 -0.1831 -0.2421  0.3387
31395SOL     OW97139   8.027   3.162   2.864 -0.0916  0.7720 -0.2001
31395SOL    HW197140   7.955   3.180   2.924 -3.0920 -1.1859 -2.8832
31395SOL    HW297141   8.057   3.075   2.887  0.2925  0.9127 -0.1540
31396SOL     OW97142   9.732   1.613   4.945 -0.1888 -0.3100 -0.0250
31396SOL    HW197143   9.755   1.706   4.943 -1.0518 -0.0880 -1.4590
31396SOL    HW297144   9.793   1.571   4.885  0.6768 -0.8222  1.1717
31397SOL     OW97145   3.710   9.043   5.977  0.1838 -0.9057 -0.1375
31397SOL    HW197146   3.755   9.031   5.894 -1.7885 -0.8909 -1.2513
31397SOL    HW297147   3.617   9.031   5.957 -0.5267  0.8441  1.6976
31398SOL     OW97148   5.962   1.121   8.068  0.4874 -0.3220 -0.0849
31398SOL    HW197149   5.972   1.033   8.031  2.9106 -0.8822  1.6540
31398SOL    HW297150   5.874   1.148   8.042 -0.0212 -2.9029 -1.3866
31399SOL     OW97151   5.016   7.163   0.971  0.1357  0.2989 -0.2318
31399SOL    HW197152   5.076   7.187   0.900 -0.6898  0.1236 -1.0065
31399SOL    HW297153   4.948   7.231   0.968 -0.4367 -0.2735 -0.2662
31400SOL     OW97154   6.398   4.580   7.431  0.4518 -0.6315 -0.2365
31400SOL    HW197155   6.323   4.624   7.471  0.7214  1.0514 -1.4929
31400SOL    HW297156   6.416   4.506   7.490 -1.4867 -0.4465  0.6707
31401SOL     OW97157   1.322   8.538   6.465 -0.3458 -0.2278  0.0529
31401SOL    HW197158   1.257   8.606   6.483 -0.1884  1.0070 -3.3629
31401SOL    HW297159   1.359   8.562   6.380  1.8246 -3.0417  0.0651
31402SOL     OW97160   9.116   0.138   3.366 -0.4403 -0.2032  0.3128
31402SOL    HW197161   9.146   0.137   3.457 -0.5238 -1.2002  0.3449
31402SOL    HW297162   9.035   0.189   3.368 -1.2619 -1.4770  1.0969
31403SOL     OW97163   1.508   0.294   3.844  0.0499 -0.2191 -0.0873
31403SOL    HW197164   1.551   0.256   3.921 -0.5087 -0.4249  0.1278
31403SOL    HW297165   1.432   0.341   3.880  0.0712  0.1136 -0.4679
31404SOL     OW97166   1.309   5.527   1.706  0.1467  0.4173  0.4430
31404SOL    HW197167   1.387   5.498   1.753  1.0090 -0.1693 -1.3104
31404SOL    HW297168   1.302   5.468   1.631  1.2433  3.8266 -2.5779
31405SOL     OW97169   1.569   2.332   8.885  0.1802 -0.2453  0.5465
31405SOL    HW197170   1.661   2.350   8.863 -0.3683  0.4578 -1.4049
31405SOL    HW297171   1.573   2.256   8.943  2.1535  1.6797  3.1575
31406SOL     OW97172   9.115   6.409   5.868 -0.4888  0.1543 -0.2127
31406SOL    HW197173   9.206   6.432   5.888 -1.2866  3.6704  0.0711
31406SOL    HW297174   9.093   6.462   5.791 -2.4633 -0.0988  0.1129
31407SOL     OW97175   6.916   6.239   3.890  0.3713  0.2174 -0.0873
31407SOL    HW197176   6.859   6.183   3.837 -0.7551  1.9225 -0.7391
31407SOL    HW297177   7.005   6.215   3.862 -0.1483  0.1205 -1.8018
31408SOL     OW97178   6.247   4.062   4.930 -0.2589  0.4054  0.0591
31408SOL    HW197179   6.258   3.976   4.888  1.6708  0.4527  0.3907
31408SOL    HW297180   6.191   4.045   5.006 -0.6888 -0.3682 -0.4166
31409SOL     OW97181   0.553   1.641  10.061 -0.2399  0.4994  0.0069
31409SOL    HW197182   0.586   1.705  10.124 -0.7872  0.2381  0.5647
31409SOL    HW297183   0.558   1.558  10.107 -0.0504  0.2130 -0.5234
31410SOL     OW97184   1.551   5.265   9.997  0.2677  0.5217 -0.4391
31410SOL    HW197185   1.477   5.296  10.048  1.1640  1.5131  0.3137
31410SOL    HW297186   1.512   5.223   9.920 -1.0595  2.1376 -0.7101
31411SOL     OW97187   5.448   1.372   9.089  0.0166  0.3198 -0.0022
31411SOL    HW197188   5.507   1.360   9.014 -0.9201  0.6649 -0.8135
31411SOL    HW297189   5.375   1.312   9.071 -0.9475  1.5075 -0.1439
31412SOL     OW97190   9.261   1.719   3.662 -0.1624 -0.2048 -0.6542
31412SOL    HW197191   9.256   1.706   3.757 -0.5363  0.5357 -0.5631
31412SOL    HW297192   9.354   1.733   3.645  0.0052 -1.0919 -0.5079
31413SOL     OW97193   1.385   7.749   3.307  0.6279 -0.2540  0.5177
31413SOL    HW197194   1.417   7.743   3.397  2.6475  0.6039 -0.0949
31413SOL    HW297195   1.400   7.662   3.271  3.1428  0.3012  0.0279
31414SOL     OW97196   7.765   2.013   3.292 -0.3062  0.1348  0.2366
31414SOL    HW197197   7.822   2.085   3.262  1.6481 -0.4641  2.2317
31414SOL    HW297198   7.759   2.025   3.386 -2.3092 -0.7382  0.2690
31415SOL     OW97199   0.283   5.031   5.629  0.0697 -0.0957 -0.6963
31415SOL    HW197200   0.220   5.005   5.697  0.0436  2.6809  0.4939
31415SOL    HW297201   0.333   4.951   5.611 -0.4002 -1.1544  2.1089
31416SOL     OW97202   8.101   1.688   8.962  0.3442  0.2580  0.3667
31416SOL    HW197203   8.156   1.724   9.031 -0.3858  0.1752  1.0105
31416SOL    HW297204   8.022   1.658   9.007 -0.3880  0.7006 -0.5776
31417SOL     OW97205   6.195  10.474   5.723 -0.3240  0.1132 -0.0901
31417SOL    HW197206   6.117  10.420   5.715 -1.8889  1.7376  2.5963
31417SOL    HW297207   6.256  10.421   5.774 -0.5107 -0.3609 -0.3570
31418SOL     OW97208   5.673   3.870   2.417 -0.1568  0.5743 -0.1012
31418SOL    HW197209   5.624   3.946   2.450 -0.4735  0.1286  0.4772
31418SOL    HW297210   5.673   3.808   2.490 -0.0815 -0.0718 -0.6383
31419SOL     OW97211   2.777   5.060   0.649  0.4625  0.8668 -0.1823
31419SOL    HW197212   2.809   5.137   0.601 -0.9319  1.2457 -0.5626
31419SOL    HW297213   2.772   4.991   0.583  1.3113  0.5659  0.0662
31420SOL     OW97214   0.692   2.149   2.576 -0.1921  0.1878  0.2353
31420SOL    HW197215   0.783   2.139   2.548 -0.9588  0.7865 -2.8255
31420SOL    HW297216   0.678   2.077   2.637  2.2094 -0.1034  0.5629
31421SOL     OW97217   6.600   3.412   1.320 -0.1229  0.4701 -0.6506
31421SOL    HW197218   6.676   3.370   1.359  0.3112  0.5668 -1.3824
31421SOL    HW297219   6.591   3.372   1.234  0.5187  2.0850 -1.5167
31422SOL     OW97220   4.569   7.984   0.097 -0.4863 -0.4063 -0.1384
31422SOL    HW197221   4.495   8.013   0.151  0.1785  1.0050  0.0535
31422SOL    HW297222   4.539   7.902   0.058 -1.9082 -0.2012  0.4547
31423SOL     OW97223   9.327   1.789   8.164 -0.3017  0.1041 -0.2029
31423SOL    HW197224   9.301   1.834   8.244  0.3948  0.1738 -0.0054
31423SOL    HW297225   9.420   1.810   8.154  0.3357 -2.1274  0.4796
31424SOL     OW97226   8.833   1.705   1.118  0.6877  0.2043  0.3137
31424SOL    HW197227   8.767   1.673   1.180  1.4564 -0.7682  0.6647
31424SOL    HW297228   8.797   1.686   1.032  0.0147  0.7254  0.4750
31425SOL     OW97229   2.114  10.587   7.476  0.3070  0.2016  0.9322
31425SOL    HW197230   2.184  10.538   7.434 -0.6905 -0.1363 -0.4345
31425SOL    HW297231   2.065  10.626   7.403 -1.2328 -0.0266  1.7903
31426SOL     OW97232   8.904  10.493   8.114 -0.1956  0.3760 -0.7038
31426SOL    HW197233   8.931  10.412   8.157  0.8351  0.8359 -0.4689
31426SOL    HW297234   8.821  10.471   8.071 -0.2673 -0.6098 -0.0749
31427SOL     OW97235   3.806  10.465  10.320  0.1617 -0.4055  0.2459
31427SOL    HW197236   3.718  10.489  10.291  0.1748 -0.6142  0.0267
31427SOL    HW297237   3.811  10.496  10.410  0.3948  0.9689 -0.2215
31428SOL     OW97238   6.812   9.979   5.602  0.0119 -0.1820 -0.1621
31428SOL    HW197239   6.844   9.982   5.512 -0.7186  1.7949 -0.4068
31428SOL    HW297240   6.831   9.890   5.631  2.0554 -0.2831 -1.5968
31429SOL     OW97241   0.692   9.694   2.312 -0.5129  0.3604  0.0735
31429SOL    HW197242   0.631   9.631   2.350  0.1527  0.1168  0.7778
31429SOL    HW297243   0.777   9.668   2.347 -0.0343  0.8278 -0.7099
31430SOL     OW97244   2.918   0.050   8.978 -0.1142 -0.0131  0.2566
31430SOL    HW197245   2.958  -0.012   9.039 -0.3974 -0.5572 -0.0974
31430SOL    HW297246   2.838   0.079   9.021 -0.0714 -0.0307  0.3487
31431SOL     OW97247   1.258   9.232   3.765  0.6303 -0.3001 -0.1231
31431SOL    HW197248   1.314   9.217   3.841  0.6871  0.2584 -0.0494
31431SOL    HW297249   1.222   9.146   3.744  0.0766 -0.3441  0.9548
31432SOL     OW97250  10.111   2.859   5.699 -0.0525 -0.1202  0.0645
31432SOL    HW197251  10.043   2.926   5.699  0.2643  0.2120  0.5015
31432SOL    HW297252  10.109   2.822   5.787  0.4828  0.0568  0.1550
31433SOL     OW97253   9.633   9.594   7.250 -0.3572 -0.8224  0.6186
31433SOL    HW197254   9.546   9.629   7.232 -0.3377 -0.2704  1.5348
31433SOL    HW297255   9.650   9.533   7.179 -0.0437  1.6613 -1.6277
31434SOL     OW97256   2.100   1.864   5.296  0.2199 -0.1230 -0.2815
31434SOL    HW197257   2.166   1.797   5.281  0.5560 -0.5759  2.5588
31434SOL    HW297258   2.051   1.833   5.373 -1.7239  1.3594 -0.8244
31435SOL     OW97259   6.583   9.743   7.962 -0.0126 -0.7207 -0.1217
31435SOL    HW197260   6.627   9.716   7.881 -0.4637 -3.0654  0.3341
31435SOL    HW297261   6.494   9.762   7.935  0.8508  3.1002 -0.8798
31436SOL     OW97262  10.661   3.935   9.733 -0.0160 -0.3853 -0.2597
31436SOL    HW197263  10.627   4.016   9.695 -0.7845 -1.3724 -1.8158
31436SOL    HW297264  10.749   3.927   9.698  0.0486 -0.2351 -0.1297
31437SOL     OW97265   1.187  10.144   9.418 -0.6640 -0.0494 -0.2378
31437SOL    HW197266   1.123  10.088   9.461 -1.3403 -0.4624 -1.7341
31437SOL    HW297267   1.266  10.090   9.411  0.5028  0.9602  3.0243
31438SOL     OW97268   8.388   0.537   8.303 -0.4551 -0.8120  0.0423
31438SOL    HW197269   8.342   0.481   8.365 -1.8447  0.0318 -0.1800
31438SOL    HW297270   8.351   0.514   8.217  0.1334 -0.7011 -0.2461
31439SOL     OW97271   0.499   4.042   9.769 -0.2872 -0.4248  0.3725
31439SOL    HW197272   0.418   4.092   9.783  0.4288  0.8628  0.0797
31439SOL    HW297273   0.537   4.034   9.857  1.8577  3.6044  0.0744
31440SOL     OW97274   1.406   2.768   1.816  0.5088  0.0178  0.4002
31440SOL    HW197275   1.372   2.714   1.887  1.2109  0.3378  1.0013
31440SOL    HW297276   1.500   2.750   1.815  0.4290 -0.4138 -0.8370
31441SOL     OW97277   3.826   6.410   6.421  0.1512  0.3282 -0.1632
31441SOL    HW197278   3.769   6.335   6.408  0.9838 -0.4625  0.5789
31441SOL    HW297279   3.911   6.372   6.442  0.4361  1.4684  0.8717
31442SOL     OW97280  10.049   8.793   7.375 -0.3693 -0.7671  0.1113
31442SOL    HW197281  10.125   8.735   7.368 -0.0824 -0.1789 -2.4692
31442SOL    HW297282  10.086   8.879   7.396 -0.6395 -1.0581  1.9762
31443SOL     OW97283   4.083   8.000   0.092 -0.4758 -0.3006 -0.2163
31443SOL    HW197284   4.090   7.926   0.032  1.6889 -0.0711 -0.3249
31443SOL    HW297285   4.074   7.960   0.179  3.4827 -0.9128  0.0909
31444SOL     OW97286   2.282   7.113   8.969 -0.0218  0.8519 -0.1169
31444SOL    HW197287   2.249   7.105   9.058  0.5796 -0.2691  0.0223
31444SOL    HW297288   2.370   7.075   8.972 -0.0607  0.6212 -1.2185
31445SOL     OW97289   8.040   2.922   1.936 -0.4083  0.0544 -0.3798
31445SOL    HW197290   8.074   2.868   2.008  0.9941  1.3254 -0.0576
31445SOL    HW297291   7.995   2.994   1.979  1.0846  1.2340 -0.7210
31446SOL     OW97292   7.917   3.467   5.116  0.2717 -0.5063 -0.2666
31446SOL    HW197293   7.870   3.548   5.135 -0.6884 -1.1364  0.1246
31446SOL    HW297294   7.914   3.460   5.021 -0.6371 -0.6397 -0.2420
31447SOL     OW97295  10.536   5.051   8.474  0.2123 -0.4732  0.3401
31447SOL    HW197296  10.590   5.130   8.473 -0.0660 -0.2707 -1.4379
31447SOL    HW297297  10.503   5.045   8.564  2.0430  0.1644  1.1031
31448SOL     OW97298   8.206   4.665   5.670  0.3650 -0.4070  0.5345
31448SOL    HW197299   8.157   4.600   5.719 -1.0048 -1.0432 -1.5674
31448SOL    HW297300   8.151   4.686   5.594  2.6809 -0.0936 -1.1911
31449SOL     OW97301   3.764   2.102   8.540  0.3160 -0.2754 -0.5381
31449SOL    HW197302   3.688   2.050   8.568  0.1104  0.3810  0.1630
31449SOL    HW297303   3.759   2.102   8.445  1.1082 -2.6984 -0.6439
31450SOL     OW97304   1.068   6.249   4.149 -0.7691 -0.3910  0.0989
31450SOL    HW197305   1.095   6.168   4.194 -0.0292 -0.6076 -0.7083
31450SOL    HW297306   1.105   6.319   4.203  0.7372 -0.6661 -0.5079
31451SOL     OW97307   8.382   0.238   1.474  0.0725 -0.1841 -0.2854
31451SOL    HW197308   8.458   0.290   1.497  0.1815 -0.2674 -0.4547
31451SOL    HW297309   8.310   0.301   1.468  0.1947 -0.0588 -0.4472
31452SOL     OW97310   7.952   4.717   5.533 -0.2232  0.2383 -0.1441
31452SOL    HW197311   7.893   4.648   5.503 -1.8362  0.7316  1.6772
31452SOL    HW297312   7.898   4.796   5.535  0.7162  0.8951  0.7708
31453SOL     OW97313   1.697   8.514   3.815 -0.4320 -0.0545 -0.6177
31453SOL    HW197314   1.744   8.503   3.732 -1.4464 -0.9182 -1.1146
31453SOL    HW297315   1.725   8.598   3.848  2.0941 -0.8906 -0.4664
31454SOL     OW97316   2.492   8.667   2.744  0.7533  0.2417  0.1260
31454SOL    HW197317   2.526   8.610   2.675 -0.1639  0.8344 -0.8375
31454SOL    HW297318   2.499   8.614   2.824  1.3731 -0.6307 -0.4850
31455SOL     OW97319   2.594   4.464   9.625 -0.2723 -0.2182 -0.2814
31455SOL    HW197320   2.532   4.423   9.685  0.2194  0.0640  0.4358
31455SOL    HW297321   2.652   4.393   9.598  0.1649 -0.1372  0.4304
31456SOL     OW97322   9.809   3.153   0.717 -0.4501  0.6173 -0.0145
31456SOL    HW197323   9.897   3.149   0.680 -0.9927 -1.5165 -1.2526
31456SOL    HW297324   9.753   3.172   0.642 -1.2017  0.2235  0.4371
31457SOL     OW97325   9.518   8.203   1.192  0.1367 -0.5347 -0.2609
31457SOL    HW197326   9.549   8.113   1.191  0.6805 -0.3509 -0.7000
31457SOL    HW297327   9.516   8.227   1.285  2.4852 -0.1870 -0.2161
31458SOL     OW97328   4.654   8.925  10.646  0.0916  0.5143 -0.7513
31458SOL    HW197329   4.605   8.974  10.580 -1.5408 -0.8206 -0.6022
31458SOL    HW297330   4.668   8.839  10.607  0.8597  0.3425 -0.1259
31459SOL     OW97331   2.229   4.158   3.788 -0.0571 -0.4805  0.0749
31459SOL    HW197332   2.297   4.217   3.755  0.5119 -0.4214  1.2812
31459SOL    HW297333   2.232   4.082   3.730  0.6254 -0.2172 -0.2452
31460SOL     OW97334   5.487   5.479   8.858 -0.2813  0.0243  0.5511
31460SOL    HW197335   5.455   5.551   8.803 -1.8807 -1.9606 -1.2638
31460SOL    HW297336   5.431   5.482   8.936 -0.3091  0.7211  0.5187
31461SOL     OW97337   8.635   8.917   2.223  0.1884 -0.0644  0.0237
31461SOL    HW197338   8.596   8.923   2.136  0.1255  0.6392  0.0887
31461SOL    HW297339   8.680   9.001   2.234 -0.0133 -0.0449  0.7649
31462SOL     OW97340   0.255  10.028   6.259  0.2232 -0.0825  0.4512
31462SOL    HW197341   0.166  10.034   6.222  0.7030 -0.4038 -0.8275
31462SOL    HW297342   0.286  10.118   6.263  0.1823 -0.0448 -0.0107
31463SOL     OW97343   4.249   2.735   3.093 -0.4755 -0.3756 -0.5554
31463SOL    HW197344   4.186   2.807   3.095  1.6468  1.5671  0.7837
31463SOL    HW297345   4.206   2.663   3.140 -2.0562  0.5146 -0.5900
31464SOL     OW97346   0.389   1.098   2.010  0.2118  0.1589 -0.1436
31464SOL    HW197347   0.297   1.077   1.995  0.3385  0.1853 -1.0595
31464SOL    HW297348   0.437   1.031   1.962  0.7201 -0.7858  1.6022
31465SOL     OW97349   1.665   5.608   5.399  0.0933  0.3787  0.0016
31465SOL    HW197350   1.588   5.584   5.348 -0.9255  2.5611  0.3852
31465SOL    HW297351   1.656   5.561   5.481  0.2184 -0.8844 -0.6880
31466SOL     OW97352   4.900   7.494   8.046  0.5585  0.1228 -0.4051
31466SOL    HW197353   4.987   7.491   8.085  0.4440  3.5663  0.3921
31466SOL    HW297354   4.842   7.519   8.118 -0.5754  0.9058 -1.5401
31467SOL     OW97355   2.591   9.696   5.783  0.1159 -0.0091  0.0610
31467SOL    HW197356   2.571   9.789   5.793  1.3709  0.1966  0.8056
31467SOL    HW297357   2.521   9.652   5.832  0.4339  0.6166  1.1106
31468SOL     OW97358   4.755   5.751   8.270  0.0744 -0.0859 -0.6254
31468SOL    HW197359   4.816   5.728   8.201  1.4094  3.4948 -0.8601
31468SOL    HW297360   4.811   5.778   8.343 -1.1998  1.4325 -0.1490
31469SOL     OW97361   9.326   8.916   6.511  0.9185  0.2785  0.6999
31469SOL    HW197362   9.366   8.860   6.444  0.7770  0.0330  0.8187
31469SOL    HW297363   9.286   8.855   6.573 -0.6750  0.5336 -0.0412
31470SOL     OW97364   8.691   3.514   5.989 -0.2434  0.2775 -0.0020
31470SOL    HW197365   8.659   3.587   5.935  0.5539  0.2683 -0.5049
31470SOL    HW297366   8.628   3.509   6.061 -1.8817 -0.3175 -1.3932
31471SOL     OW97367   4.821   0.638   3.916  0.3319 -0.2615 -0.0234
31471SOL    HW197368   4.731   0.672   3.914  0.7477  0.8726 -1.0967
31471SOL    HW297369   4.853   0.651   3.827  0.6463 -3.2964 -0.4389
31472SOL     OW97370   5.914   7.533   5.168 -0.2338 -0.2806 -0.4266
31472SOL    HW197371   5.891   7.519   5.260 -0.4385  0.9818 -0.2730
31472SOL    HW297372   6.004   7.502   5.161  0.5119  1.4789  0.7036
31473SOL     OW97373   6.452   7.622   2.983 -0.1520  0.7683 -0.2291
31473SOL    HW197374   6.546   7.627   2.966 -0.0653 -2.1780 -1.0854
31473SOL    HW297375   6.413   7.599   2.899 -1.7241  2.1296  0.0618
31474SOL     OW97376   1.055   3.177   2.203  0.0281  0.5157 -0.5843
31474SOL    HW197377   1.041   3.114   2.132  1.6336 -1.3161  0.6203
31474SOL    HW297378   1.143   3.157   2.236  0.5906  3.3616 -0.0542
31475SOL     OW97379  10.285  10.353   1.254  0.4719 -0.1369 -0.8112
31475SOL    HW197380  10.209  10.295   1.249  0.8779 -0.7017 -0.6528
31475SOL    HW297381  10.349  10.314   1.194 -0.4121  1.9992 -3.3022
31476SOL     OW97382   2.308   9.569   3.043  0.0807  0.2630 -0.3929
31476SOL    HW197383   2.358   9.587   3.123 -1.3469 -1.3218  0.9350
31476SOL    HW297384   2.373   9.571   2.973  1.9914 -1.4611  1.2176
31477SOL     OW97385   3.072   2.784   0.360 -0.0581 -0.5184 -0.4183
31477SOL    HW197386   3.072   2.759   0.268  0.3788  0.5304 -0.7081
31477SOL    HW297387   3.163   2.779   0.387  0.3308  2.3123 -0.9407
31478SOL     OW97388   0.394   7.596   7.272  0.8908 -0.5044  0.4562
31478SOL    HW197389   0.374   7.528   7.209 -1.0843 -0.1240  0.6081
31478SOL    HW297390   0.361   7.677   7.232 -0.3829 -0.2569  1.9316
31479SOL     OW97391   4.472   8.750  10.505 -0.1824  0.0140  0.2589
31479SOL    HW197392   4.538   8.682  10.487  0.2790  0.4108  0.4298
31479SOL    HW297393   4.388   8.705  10.493  0.0695 -1.1878  2.4314
31480SOL     OW97394   6.097   8.688   6.927  0.0617 -0.2002  0.1321
31480SOL    HW197395   6.170   8.731   6.970  1.1979 -1.1439 -0.7921
31480SOL    HW297396   6.098   8.599   6.962 -0.5811 -0.2654  0.0069
31481SOL     OW97397   6.870   9.058   7.931 -0.2842 -0.0572 -0.2265
31481SOL    HW197398   6.943   9.036   7.990  0.2191  1.2612 -0.3115
31481SOL    HW297399   6.836   9.141   7.966 -0.4542  0.3610 -1.3603
31482SOL     OW97400   1.416   7.306   3.202  0.3086  0.1770 -0.0046
31482SOL    HW197401   1.485   7.239   3.198 -0.9019 -1.0997 -0.2972
31482SOL    HW297402   1.339   7.263   3.165 -0.6111  1.6301  0.1529
31483SOL     OW97403   1.195   0.564   8.185  0.3700  0.2716  0.1787
31483SOL    HW197404   1.221   0.507   8.113 -0.3573 -0.5112  0.5251
31483SOL    HW297405   1.170   0.646   8.143  0.8632  0.1486 -0.3697
31484SOL     OW97406   3.571   4.707   6.548 -0.1538 -0.1137  0.5289
31484SOL    HW197407   3.500   4.741   6.493  1.0807  1.3327 -0.2617
31484SOL    HW297408   3.558   4.750   6.632 -1.5831 -1.7232  1.1907
31485SOL     OW97409   2.800   6.202   8.915 -0.1559 -0.0779  0.2009
31485SOL    HW197410   2.873   6.140   8.907 -0.7607 -0.5524 -2.6929
31485SOL    HW297411   2.722   6.146   8.920 -0.5751  0.4066 -0.7105
31486SOL     OW97412   1.032   6.569   9.995  0.1599 -0.7569 -0.1928
31486SOL    HW197413   1.086   6.601   9.923  0.6731 -0.4216  0.3360
31486SOL    HW297414   1.026   6.643  10.056 -0.9530 -0.7607 -0.2658
31487SOL     OW97415   6.131   6.143   8.347 -0.0105 -0.3058  0.3852
31487SOL    HW197416   6.063   6.129   8.412  1.5497 -0.1115  2.1286
31487SOL    HW297417   6.210   6.162   8.398  0.9743  1.2645 -1.5743
31488SOL     OW97418   2.180   3.421   4.917  0.2253  0.3455  0.1656
31488SOL    HW197419   2.269   3.406   4.950  0.2886 -0.5592 -0.3831
31488SOL    HW297420   2.123   3.398   4.991  0.3815 -1.2954 -0.1743
31489SOL     OW97421   5.868   8.080  10.234  0.3118  0.2939 -0.8401
31489SOL    HW197422   5.834   8.098  10.146 -0.4508  0.9273 -0.4360
31489SOL    HW297423   5.917   8.159  10.257  0.8934 -0.0570 -0.8723
31490SOL     OW97424   0.222   7.990   9.064  0.5621 -0.0347 -0.0013
31490SOL    HW197425   0.211   7.896   9.082 -0.6144  0.5374  2.7283
31490SOL    HW297426   0.132   8.024   9.066  0.9561  1.1441 -1.2333
31491SOL     OW97427  10.624   1.202   1.754 -0.3070  0.0218  0.0324
31491SOL    HW197428  10.645   1.109   1.763  1.4374  0.5112  1.5572
31491SOL    HW297429  10.687   1.234   1.689 -0.2282  0.3344  0.2608
31492SOL     OW97430   3.134   5.060   4.627  0.2773  0.0866  0.5800
31492SOL    HW197431   3.079   5.122   4.579  0.4972 -0.5996 -0.5891
31492SOL    HW297432   3.161   5.108   4.705  0.4343  1.4719 -0.2892
31493SOL     OW97433   3.652   8.411   5.955 -0.1687  0.5623  0.7028
31493SOL    HW197434   3.626   8.389   6.045  0.5678  4.0716  1.9419
31493SOL    HW297435   3.713   8.484   5.965  0.6802  0.4803 -2.6632
31494SOL     OW97436   8.553   3.564  10.337  0.0624  0.1294  0.1440
31494SOL    HW197437   8.641   3.535  10.314 -1.2871 -3.6960 -1.0718
31494SOL    HW297438   8.543   3.540  10.429  0.5361  1.3869  0.5363
31495SOL     OW97439   0.062  10.171   2.472  0.2586 -0.6002 -0.5627
31495SOL    HW197440   0.143  10.186   2.521 -0.3160  0.4087  0.1128
31495SOL    HW297441   0.087  10.180   2.380  1.1606 -1.5701 -0.4365
31496SOL     OW97442   4.255   5.107   0.573  0.1665  0.5135  0.4150
31496SOL    HW197443   4.183   5.154   0.531 -0.2521  0.2124  0.7962
31496SOL    HW297444   4.288   5.167   0.640 -0.8701 -0.0117  1.4304
31497SOL     OW97445   0.658   6.729   4.010  0.0024  0.4043  0.2675
31497SOL    HW197446   0.577   6.779   4.022  0.0018 -0.1045  2.8390
31497SOL    HW297447   0.692   6.716   4.098  1.1768 -2.2031 -0.4775
31498SOL     OW97448   4.056  10.550   2.588  0.1500 -0.0793  0.0767
31498SOL    HW197449   4.090  10.541   2.499 -1.6720 -0.1755 -0.6587
31498SOL    HW297450   3.998  10.626   2.584  0.7072  0.4466  1.4154
31499SOL     OW97451   0.476   5.197   0.785 -0.1764  0.2938 -0.5423
31499SOL    HW197452   0.461   5.284   0.823  0.2945 -0.2763  1.0300
31499SOL    HW297453   0.391   5.170   0.751 -1.1594  0.0432  1.9010
31500SOL     OW97454   0.647   8.790   8.371 -0.0361 -1.0262 -0.1533
31500SOL    HW197455   0.563   8.780   8.417 -0.8181 -0.0149 -1.3100
31500SOL    HW297456   0.624   8.832   8.288  1.6397 -0.6303 -0.4432
31501SOL     OW97457   5.948   0.333   3.695  0.8290  0.3184  0.2831
31501SOL    HW197458   5.853   0.343   3.686  1.0849  1.6949 -1.5112
31501SOL    HW297459   5.964   0.340   3.789 -0.9302 -1.2298  0.7782
31502SOL     OW97460   2.496   6.348   7.984  0.3615 -0.1313 -0.1188
31502SOL    HW197461   2.461   6.266   7.949  0.1008 -0.1185  0.1165
31502SOL    HW297462   2.427   6.382   8.041  1.0719 -0.5097  0.9927
31503SOL     OW97463   6.531   0.546   9.339 -0.1949 -0.0340  0.3696
31503SOL    HW197464   6.589   0.539   9.262 -0.7865  1.6044 -0.2608
31503SOL    HW297465   6.443   0.555   9.302 -0.5610  0.1537  1.2636
31504SOL     OW97466  10.595   3.445   2.809 -0.2520  0.3614  0.4475
31504SOL    HW197467  10.682   3.405   2.802 -0.2312  0.5506 -0.4633
31504SOL    HW297468  10.604   3.531   2.768 -1.3558 -0.4267 -1.5987
31505SOL     OW97469   3.665   8.525   9.218  0.2084  0.2418 -0.1304
31505SOL    HW197470   3.659   8.621   9.212 -1.2021  0.1743 -0.1615
31505SOL    HW297471   3.756   8.505   9.196  1.1926  1.7501  2.1323
31506SOL     OW97472   5.176   9.859   6.909  0.0443  0.2578  0.0465
31506SOL    HW197473   5.165   9.951   6.933  0.0673  0.6070 -1.2019
31506SOL    HW297474   5.145   9.855   6.818  1.1793 -0.7202 -0.3090
31507SOL     OW97475  10.281   7.254   3.444 -0.0787 -0.8132  0.2498
31507SOL    HW197476  10.367   7.213   3.449  0.0103 -0.5215  1.1444
31507SOL    HW297477  10.277   7.311   3.520 -0.4885  0.2938 -0.5668
31508SOL     OW97478   6.529   7.596   7.472  0.4009  0.1106 -0.4424
31508SOL    HW197479   6.441   7.603   7.437 -0.5998 -2.0119  1.3625
31508SOL    HW297480   6.555   7.505   7.456  2.1650  0.6040 -0.6651
31509SOL     OW97481   4.870   0.422   0.621 -0.0659  0.2109  0.1505
31509SOL    HW197482   4.891   0.372   0.542 -1.0528  0.6914 -0.4507
31509SOL    HW297483   4.814   0.364   0.672 -0.8868  0.5410 -0.3590
31510SOL     OW97484   8.546   3.951   0.869  0.2893  0.5161  0.3516
31510SOL    HW197485   8.523   3.894   0.943 -2.6197  1.5301  0.3324
31510SOL    HW297486   8.572   3.890   0.799 -1.5001 -0.7492  0.7304
31511SOL     OW97487   9.636   3.685   0.941 -0.4306  0.5312  1.1117
31511SOL    HW197488   9.679   3.609   0.901  0.1682  1.5916 -0.3567
31511SOL    HW297489   9.701   3.720   1.001 -0.0528  0.8502  0.5273
31512SOL     OW97490   1.703   2.912   4.940 -0.1595 -0.3669 -0.2857
31512SOL    HW197491   1.778   2.854   4.928  0.8804  0.7435  0.5909
31512SOL    HW297492   1.722   2.987   4.884 -1.1665 -0.5525 -0.8959
31513SOL     OW97493   0.192   6.016   3.163  0.5805  0.1012  0.3184
31513SOL    HW197494   0.143   6.098   3.176 -0.4572  0.0258 -2.4621
31513SOL    HW297495   0.175   5.992   3.072  1.1327 -3.0778  0.9540
31514SOL     OW97496   8.385   7.298   3.695 -0.2515 -0.4251  0.7121
31514SOL    HW197497   8.334   7.329   3.620 -0.8998  0.8380  1.6333
31514SOL    HW297498   8.422   7.214   3.667 -1.1053 -0.3394 -0.7310
31515SOL     OW97499   8.408   1.984   7.519  0.8120 -0.1850  0.1127
31515SOL    HW197500   8.456   2.063   7.545  0.2181  0.5455 -0.9089
31515SOL    HW297501   8.462   1.945   7.450  1.7311 -1.3938  1.4669
31516SOL     OW97502   4.779   6.354   8.755  0.4554 -0.1543 -0.2019
31516SOL    HW197503   4.794   6.342   8.661 -0.1746 -1.5630 -0.1592
31516SOL    HW297504   4.824   6.435   8.777 -0.1007  0.6570 -1.8850
31517SOL     OW97505  10.478  10.366   8.914  0.2194 -0.5343 -0.3287
31517SOL    HW197506  10.471  10.436   8.979  2.7043 -0.2305 -0.3188
31517SOL    HW297507  10.425  10.294   8.951  0.1459  0.2469  1.1531
31518SOL     OW97508   8.608   2.372   2.029  0.1508 -0.1357 -0.2941
31518SOL    HW197509   8.631   2.289   2.072  1.0029  0.0043 -0.4566
31518SOL    HW297510   8.556   2.419   2.094  1.3717  0.0523  0.5979
31519SOL     OW97511   7.049   4.563   3.250 -0.1331 -0.4412  0.2786
31519SOL    HW197512   7.059   4.587   3.158  0.3695  1.5371  0.8128
31519SOL    HW297513   7.138   4.546   3.281 -0.3822 -2.1453  0.1819
31520SOL     OW97514   8.174   5.139   9.285 -0.3049  0.1567  0.4047
31520SOL    HW197515   8.215   5.225   9.277 -1.3716  0.8415  1.8837
31520SOL    HW297516   8.224   5.095   9.354  1.0240 -0.9339 -1.1817
31521SOL     OW97517   0.388   4.326   0.551 -0.1099 -0.4775  0.1628
31521SOL    HW197518   0.386   4.401   0.610  0.4087 -0.8805  0.7048
31521SOL    HW297519   0.439   4.356   0.475 -0.8406  0.0642 -0.1288
31522SOL     OW97520   4.361   8.546   4.200 -0.4429  0.1800  0.0723
31522SOL    HW197521   4.451   8.560   4.172 -0.9780  1.5313 -1.0776
31522SOL    HW297522   4.336   8.463   4.159  0.3336 -0.3284  0.6018
31523SOL     OW97523   5.849   0.632  10.188  0.3696 -0.1113 -0.0411
31523SOL    HW197524   5.921   0.621  10.250  0.9214 -0.1286 -0.6710
31523SOL    HW297525   5.836   0.727  10.183  0.0327 -0.1287  0.4187
31524SOL     OW97526   6.542   2.725   2.722  0.0333  0.1794 -0.4875
31524SOL    HW197527   6.637   2.718   2.724  0.1525  1.8430  0.7512
31524SOL    HW297528   6.514   2.710   2.812 -0.6958  1.6865 -0.4295
31525SOL     OW97529   9.653   3.633   6.228  0.1880  0.6469 -0.4696
31525SOL    HW197530   9.637   3.572   6.300  1.2182  0.9699  0.0540
31525SOL    HW297531   9.741   3.666   6.244  0.4456  0.7186 -1.8872
31526SOL     OW97532   5.250   1.121   6.485 -0.0003 -0.6072 -0.2297
31526SOL    HW197533   5.263   1.135   6.392  0.7938 -1.4817 -0.2677
31526SOL    HW297534   5.170   1.068   6.490 -0.5951  0.2672 -0.3417
31527SOL     OW97535   0.158   9.201   6.935  0.2302  0.2276  0.3087
31527SOL    HW197536   0.182   9.293   6.947  1.2257 -0.1196  1.1309
31527SOL    HW297537   0.063   9.199   6.949  0.2871  1.0319  0.8989
31528SOL     OW97538   0.932   8.004   4.966 -0.7914 -0.9463  0.1321
31528SOL    HW197539   1.006   8.004   4.906 -0.8540 -0.8903  0.0548
31528SOL    HW297540   0.861   7.962   4.916 -1.8220  1.9604 -1.0222
31529SOL     OW97541   2.349   2.905   2.022  0.0297  0.1392  0.2293
31529SOL    HW197542   2.441   2.884   2.036  0.3193  2.0956  1.5445
31529SOL    HW297543   2.343   3.000   2.031 -1.8277  0.2969 -1.6972
31530SOL     OW97544   4.248   1.814   8.288  0.3158  0.4002 -0.4919
31530SOL    HW197545   4.253   1.809   8.192 -0.3505 -0.5303 -0.4877
31530SOL    HW297546   4.338   1.802   8.317  0.1483 -2.6794 -0.9002
31531SOL     OW97547   6.619   0.309   8.924  0.2814 -0.0487  0.1109
31531SOL    HW197548   6.683   0.340   8.860  0.7637  0.8770  1.0082
31531SOL    HW297549   6.586   0.389   8.965 -1.9251 -0.4516 -0.7386
31532SOL     OW97550   8.793   6.810   7.280 -0.5292  0.7070 -0.1009
31532SOL    HW197551   8.734   6.814   7.205  0.4271 -3.3504 -1.3350
31532SOL    HW297552   8.744   6.760   7.346  0.3372  0.1341  0.1213
31533SOL     OW97553   0.994   0.632   5.483 -0.2652  0.6929 -0.3434
31533SOL    HW197554   1.016   0.652   5.392  0.7512 -0.3484 -0.3474
31533SOL    HW297555   0.953   0.546   5.480 -0.7304  0.8922  0.1264
31534SOL     OW97556  10.120   8.122   8.571 -0.3712  0.1829  0.4459
31534SOL    HW197557  10.161   8.173   8.501 -1.6925 -1.3281 -1.5192
31534SOL    HW297558  10.171   8.041   8.575 -2.7697 -1.6085 -1.8449
31535SOL     OW97559   8.308   5.149   0.027  0.4064  0.4619 -0.4387
31535SOL    HW197560   8.217   5.173   0.009 -0.2217 -1.3761  0.0378
31535SOL    HW297561   8.337   5.211   0.093 -1.4286 -0.5322  1.4332
31536SOL     OW97562   6.521   1.657   2.275  0.1209 -0.7943 -0.5112
31536SOL    HW197563   6.497   1.631   2.187 -1.1187 -2.6117  0.3023
31536SOL    HW297564   6.557   1.578   2.316  1.1558  0.1348  0.4687
31537SOL     OW97565   6.351   7.905   1.349 -0.1780 -0.2877 -0.5776
31537SOL    HW197566   6.417   7.869   1.408  0.2824 -0.0946 -0.9706
31537SOL    HW297567   6.379   7.995   1.333 -1.5008  0.3718  0.6501
31538SOL     OW97568   3.487   5.711   0.650 -0.3314 -0.3492  0.0305
31538SOL    HW197569   3.509   5.795   0.609  1.4747 -0.2065  1.1817
31538SOL    HW297570   3.470   5.733   0.741  0.8110 -1.2854  0.4981
31539SOL     OW97571   9.294   5.901   3.455 -0.6315  0.0982 -0.2002
31539SOL    HW197572   9.372   5.846   3.459 -0.9177 -0.2532  1.6862
31539SOL    HW297573   9.284   5.922   3.363  0.5002 -1.5588 -0.7513
31540SOL     OW97574   3.742   8.087   8.712 -0.3740  0.0078  0.2321
31540SOL    HW197575   3.785   8.102   8.628 -0.6268 -0.9053 -0.0730
31540SOL    HW297576   3.673   8.024   8.693  0.9784 -1.9592  1.5162
31541SOL     OW97577   4.662   6.029  10.675  0.8537  0.2699  0.9689
31541SOL    HW197578   4.691   5.939  10.692  1.1582  0.1728  0.0167
31541SOL    HW297579   4.568   6.029  10.693  1.3540  0.6199  4.2849
31542SOL     OW97580   4.679   0.808   3.091 -0.2951  0.0287 -0.8468
31542SOL    HW197581   4.624   0.778   3.019 -1.8762  1.6398 -0.3897
31542SOL    HW297582   4.634   0.885   3.125  0.7611 -0.2655  1.4262
31543SOL     OW97583   2.805   5.402   8.596  0.0929 -0.1369 -0.0161
31543SOL    HW197584   2.893   5.388   8.560 -0.9828  0.6284 -3.3484
31543SOL    HW297585   2.810   5.487   8.640  1.0510 -0.1795 -0.0191
31544SOL     OW97586  10.319   3.866  10.174 -0.1041  0.4963 -0.1694
31544SOL    HW197587  10.270   3.789  10.201  1.4656 -0.1684  0.9511
31544SOL    HW297588  10.411   3.837  10.174  0.4131  2.0198 -0.9553
31545SOL     OW97589   9.570   1.281   1.699  0.2746  0.2504 -0.2420
31545SOL    HW197590   9.659   1.255   1.720  0.0473 -0.2543  0.1277
31545SOL    HW297591   9.578   1.371   1.667  1.1792 -0.5344 -2.3907
31546SOL     OW97592   0.859   5.872   5.008 -0.1622 -0.3878 -0.1800
31546SOL    HW197593   0.871   5.891   4.915  1.1663 -0.6672 -0.0855
31546SOL    HW297594   0.816   5.787   5.010 -1.1400  0.0859 -0.5393
31547SOL     OW97595   2.018   1.436   0.267 -0.0010  0.2585 -0.3878
31547SOL    HW197596   2.004   1.378   0.193 -1.5677  1.0598 -0.7667
31547SOL    HW297597   1.953   1.506   0.255  0.0199  0.6508  1.4829
31548SOL     OW97598   4.738  10.112   4.300 -0.6049  0.3250 -0.0333
31548SOL    HW197599   4.684  10.190   4.292 -1.4655 -0.4408 -2.6222
31548SOL    HW297600   4.684  10.041   4.266  0.4774 -1.2884  1.4094
31549SOL     OW97601   0.761   2.176   9.297  0.0370 -0.0336  0.7782
31549SOL    HW197602   0.742   2.134   9.381  0.4369 -1.3267  0.2502
31549SOL    HW297603   0.856   2.189   9.297  0.2272 -1.2155  0.0377
31550SOL     OW97604   5.196   2.556   4.693  0.0154 -0.7315  0.4200
31550SOL    HW197605   5.157   2.596   4.616 -0.1844  0.5757  1.1545
31550SOL    HW297606   5.183   2.462   4.682  0.6135 -0.6284 -1.4526
31551SOL     OW97607   7.646   5.158   9.713  0.1505  0.1763 -0.5135
31551SOL    HW197608   7.605   5.208   9.784  1.3764  0.0383  0.3181
31551SOL    HW297609   7.583   5.089   9.693 -0.3489  0.4021  0.2203
31552SOL     OW97610   5.180   7.796   8.729  0.0403  0.1072  0.2330
31552SOL    HW197611   5.239   7.748   8.671 -1.2175 -0.2796 -0.7784
31552SOL    HW297612   5.158   7.733   8.798 -1.0100 -0.5707 -0.6804
31553SOL     OW97613   5.705   3.702   0.862  0.6773 -0.2351  0.1311
31553SOL    HW197614   5.631   3.722   0.805  1.7894  0.3044 -1.1717
31553SOL    HW297615   5.753   3.784   0.870  1.3807 -0.6732  0.6078
31554SOL     OW97616  10.043   8.462   8.015  0.0698 -0.1147 -0.3248
31554SOL    HW197617  10.095   8.422   7.945 -0.5256  1.1181 -1.5002
31554SOL    HW297618  10.108   8.508   8.069  0.4819 -0.7303 -0.2755
31555SOL     OW97619   2.845  10.087   5.593 -0.8305  0.0536  0.0614
31555SOL    HW197620   2.841  10.179   5.621  1.5301  0.0047  0.7732
31555SOL    HW297621   2.876  10.040   5.670  2.2813 -0.6413 -1.4396
31556SOL     OW97622   5.347   6.051   9.985 -0.4226  0.0135  0.2499
31556SOL    HW197623   5.369   5.960   9.967  1.2646  0.0509  1.8428
31556SOL    HW297624   5.349   6.094   9.899 -0.1972 -1.2248 -0.3769
31557SOL     OW97625   9.119   1.428   3.325  0.3706  0.1437 -0.6053
31557SOL    HW197626   9.090   1.397   3.411  2.5036  0.0170  0.1302
31557SOL    HW297627   9.112   1.523   3.330 -2.2666  0.0655 -1.3923
31558SOL     OW97628   6.611   2.616  10.426  1.2920 -0.0914  0.3068
31558SOL    HW197629   6.590   2.574  10.343 -0.8340 -0.0282  0.7768
31558SOL    HW297630   6.629   2.707  10.403 -0.8309  0.3036  0.0422
31559SOL     OW97631   7.212   2.175   2.286 -0.0810 -0.7048  0.6540
31559SOL    HW197632   7.230   2.106   2.223  0.5460 -0.9644  1.1136
31559SOL    HW297633   7.293   2.184   2.336  0.1597  0.9860  0.0206
31560SOL     OW97634   0.476   9.337   8.784  0.0548 -0.1531  0.0286
31560SOL    HW197635   0.556   9.290   8.761  0.2752 -0.3408  1.1259
31560SOL    HW297636   0.437   9.360   8.700  1.6300  0.5758 -0.5504
31561SOL     OW97637   5.673   3.754   7.216 -0.1486 -0.2644  0.3810
31561SOL    HW197638   5.627   3.754   7.300  1.3141 -0.4436  1.2120
31561SOL    HW297639   5.672   3.663   7.188 -1.5307 -0.0528 -0.3278
31562SOL     OW97640   9.021   2.336   1.871 -0.2617 -0.0478 -0.0846
31562SOL    HW197641   8.944   2.321   1.818 -0.2935  1.6266 -0.5791
31562SOL    HW297642   9.002   2.292   1.954 -1.9997  0.7750  0.0054
31563SOL     OW97643   4.371   7.206   4.181 -0.4004  0.3331  0.6301
31563SOL    HW197644   4.435   7.276   4.194  0.7220 -0.4476 -0.4659
31563SOL    HW297645   4.380   7.182   4.089 -0.1870 -1.7722  1.1515
31564SOL     OW97646   4.643   0.764   8.506  0.0269  0.3113 -0.1111
31564SOL    HW197647   4.720   0.718   8.539  0.8338  1.6518 -0.0683
31564SOL    HW297648   4.582   0.763   8.580  0.7575  0.8988  0.5141
31565SOL     OW97649   9.841   9.826   1.839  0.1718 -0.3235 -0.0746
31565SOL    HW197650   9.900   9.880   1.891 -0.9982 -0.1306  1.0908
31565SOL    HW297651   9.868   9.843   1.748 -0.5080  2.7237  0.1674
31566SOL     OW97652   3.106   6.043   9.222 -0.2530 -0.1515  0.2127
31566SOL    HW197653   3.096   6.025   9.129  1.3600 -1.1745  0.2001
31566SOL    HW297654   3.110   6.138   9.227 -1.7174 -0.0179 -0.5830
31567SOL     OW97655   9.489  10.260   0.788  0.5628 -0.3995  0.0425
31567SOL    HW197656   9.570  10.254   0.838  1.4747  2.0658 -0.9503
31567SOL    HW297657   9.421  10.227   0.847  1.5938  2.0995  2.8922
31568SOL     OW97658   7.051  10.312   5.500 -0.3314  0.6891 -0.4088
31568SOL    HW197659   7.076  10.293   5.410  1.2575  2.2993 -0.3878
31568SOL    HW297660   6.957  10.331   5.496 -0.5778 -0.6155 -1.4534
31569SOL     OW97661  10.619   6.705   5.373  0.2221  0.1006  0.3883
31569SOL    HW197662  10.680   6.658   5.316 -0.4047 -0.1291 -0.1095
31569SOL    HW297663  10.588   6.639   5.435 -0.6084 -0.1503 -0.2693
31570SOL     OW97664   7.724   4.766   8.363 -0.0430 -0.1699  0.5578
31570SOL    HW197665   7.647   4.815   8.393  0.3406  1.0237 -0.3631
31570SOL    HW297666   7.799   4.819   8.390  0.3323  0.8946 -2.2302
31571SOL     OW97667   7.348   8.171   7.355  0.1590 -0.0732  0.8315
31571SOL    HW197668   7.429   8.220   7.360  0.7906 -1.1054  1.1503
31571SOL    HW297669   7.280   8.236   7.337  1.3864  0.5203 -2.2425
31572SOL     OW97670   2.576   6.372   0.207  0.1030  0.5930 -0.2674
31572SOL    HW197671   2.636   6.444   0.224  0.9126 -0.1610  0.1391
31572SOL    HW297672   2.582   6.317   0.284 -1.4894  0.7372  0.0031
31573SOL     OW97673   4.538   5.611   0.255  0.2563  0.1949 -0.4258
31573SOL    HW197674   4.522   5.553   0.181  1.4174  0.2910 -0.7651
31573SOL    HW297675   4.633   5.615   0.263  0.1812  1.4579  0.0583
31574SOL     OW97676   6.921   4.654   0.484  0.0949  0.4327 -0.1417
31574SOL    HW197677   6.981   4.604   0.429 -0.0002  1.5910 -1.3307
31574SOL    HW297678   6.942   4.746   0.467 -1.4886  0.8491 -0.0080
31575SOL     OW97679   8.362   1.669   9.226  0.1624 -0.6958  0.2771
31575SOL    HW197680   8.393   1.586   9.263 -0.2493 -0.0421  2.1878
31575SOL    HW297681   8.292   1.697   9.284  0.1318  0.8877 -0.4592
31576SOL     OW97682   2.811   0.913   7.038  0.2348 -0.0399 -0.0826
31576SOL    HW197683   2.744   0.852   7.068  0.1645 -0.2265 -0.6098
31576SOL    HW297684   2.894   0.873   7.065  0.1555 -0.0337  0.1675
31577SOL     OW97685   1.289   3.703   5.830 -0.0266 -0.2741 -0.6887
31577SOL    HW197686   1.294   3.722   5.924 -0.6867 -2.3637 -0.1836
31577SOL    HW297687   1.200   3.729   5.806 -0.3303 -0.9989 -0.3952
31578SOL     OW97688   2.942   1.634   5.660  0.4817 -0.1027 -0.1634
31578SOL    HW197689   2.902   1.598   5.581  0.4246 -1.2268  0.3624
31578SOL    HW297690   3.035   1.644   5.637 -0.0096  2.5405 -1.3966
31579SOL     OW97691   7.365   7.351   3.478  0.0061 -0.0867  0.0146
31579SOL    HW197692   7.427   7.350   3.405 -0.8027  3.0948 -0.8989
31579SOL    HW297693   7.283   7.321   3.439  0.0620 -0.4799  0.1965
31580SOL     OW97694   3.209   0.115   2.600  0.6829  0.2851 -0.2052
31580SOL    HW197695   3.161   0.164   2.667  2.3399  1.7165  0.0273
31580SOL    HW297696   3.152   0.042   2.578 -0.7136  0.8044  1.4358
31581SOL     OW97697   9.504   3.820   4.022  0.1677 -0.4203 -0.4279
31581SOL    HW197698   9.565   3.878   3.976 -1.0002 -0.4270 -2.0821
31581SOL    HW297699   9.534   3.732   4.000  1.6574 -0.4999  1.6991
31582SOL     OW97700  10.253   4.007   7.194  0.6131  0.4333 -0.2346
31582SOL    HW197701  10.275   4.011   7.286  2.7502  0.0884 -0.6793
31582SOL    HW297702  10.232   3.915   7.178  2.9891 -0.1148 -0.5949
31583SOL     OW97703   7.127   8.349   3.218 -0.3194 -0.0353 -0.2066
31583SOL    HW197704   7.153   8.257   3.223 -0.6968 -0.2998 -2.3656
31583SOL    HW297705   7.034   8.348   3.240 -0.3553 -0.1825 -0.3633
31584SOL     OW97706   7.108   1.693   8.607 -0.6854 -0.7182 -0.0643
31584SOL    HW197707   7.162   1.766   8.577 -1.6940  0.4240  0.7674
31584SOL    HW297708   7.021   1.731   8.617 -1.6160 -2.4658 -1.1934
31585SOL     OW97709   4.958   1.984   3.195 -0.1681 -0.0679  0.1643
31585SOL    HW197710   4.971   2.079   3.193  0.1027 -0.1087 -0.0407
31585SOL    HW297711   4.888   1.968   3.132 -0.5464  0.0455  0.5483
31586SOL     OW97712   2.626   4.726   4.277 -0.3097 -0.0856 -0.1495
31586SOL    HW197713   2.710   4.692   4.308 -0.2378  0.0900 -0.1492
31586SOL    HW297714   2.593   4.658   4.219 -0.0585 -0.0545 -0.3312
31587SOL     OW97715   3.832   6.986   9.114 -0.6143  0.3028 -0.0544
31587SOL    HW197716   3.763   7.015   9.053  0.2498 -0.4482 -1.4374
31587SOL    HW297717   3.868   6.907   9.074  0.2531  0.0013  1.2592
31588SOL     OW97718   0.178   1.350   1.594 -0.1130 -0.8735 -0.0435
31588SOL    HW197719   0.110   1.414   1.615 -1.5995 -1.8795 -1.5115
31588SOL    HW297720   0.213   1.380   1.510  0.0783 -1.2814 -0.1092
31589SOL     OW97721   0.639   7.063   5.012  0.1334  0.2806 -0.5343
31589SOL    HW197722   0.629   7.066   5.107 -1.5553 -0.4909 -0.6475
31589SOL    HW297723   0.625   6.971   4.989  1.5741  0.2573 -1.4529
31590SOL     OW97724   5.959   9.659   8.268 -0.7635 -0.5133  0.0570
31590SOL    HW197725   5.896   9.642   8.338 -1.4608  0.8468 -0.1981
31590SOL    HW297726   5.911   9.639   8.188 -0.2415 -1.2547 -0.0786
31591SOL     OW97727   4.672   8.954   1.188  0.5525  0.0498  0.3256
31591SOL    HW197728   4.647   9.039   1.153  2.0062  0.5268  0.3547
31591SOL    HW297729   4.621   8.944   1.268 -0.0903  0.6023 -0.0138
31592SOL     OW97730   8.323   8.520   5.432 -0.1627 -0.2637 -0.5925
31592SOL    HW197731   8.265   8.574   5.379 -0.2433  2.5832  2.0736
31592SOL    HW297732   8.264   8.464   5.483 -0.3766  0.1051 -0.4282
31593SOL     OW97733   6.068   8.350   3.774 -0.2911  0.3702 -0.5172
31593SOL    HW197734   6.077   8.276   3.715 -0.3457 -0.0322 -0.0317
31593SOL    HW297735   5.996   8.326   3.833  0.2392  0.4289  0.1778
31594SOL     OW97736  10.077   8.138   9.170  0.2246 -0.3498 -0.6842
31594SOL    HW197737  10.094   8.091   9.251 -2.3365  0.0497  0.1935
31594SOL    HW297738  10.129   8.218   9.178 -1.0685  0.3765  1.3045
31595SOL     OW97739   5.385   6.314   5.365 -0.3335  0.3484 -0.3620
31595SOL    HW197740   5.461   6.268   5.330  0.9911  0.3806  2.2187
31595SOL    HW297741   5.326   6.245   5.395 -1.3872  0.3247 -2.3209
31596SOL     OW97742   6.275   2.621   6.932  0.0636 -0.0246  0.2827
31596SOL    HW197743   6.349   2.636   6.989 -0.2598 -0.0682  0.7177
31596SOL    HW297744   6.269   2.701   6.879  1.1599 -0.5118 -0.6088
31597SOL     OW97745   9.186   5.267   2.853  0.0747  0.3448 -0.4097
31597SOL    HW197746   9.219   5.348   2.891  1.2142  0.9626 -2.5569
31597SOL    HW297747   9.095   5.286   2.831 -0.1412  0.4779  0.5407
31598SOL     OW97748   1.224   5.666   9.249 -0.6695  0.0816 -0.8643
31598SOL    HW197749   1.255   5.699   9.165 -0.6247 -1.4586 -1.4923
31598SOL    HW297750   1.264   5.580   9.257  0.7748  0.9012  1.6049
31599SOL     OW97751   0.094   7.435   4.212 -0.4953 -0.0680  0.0379
31599SOL    HW197752   0.155   7.396   4.275 -0.5861 -1.1747 -0.5341
31599SOL    HW297753   0.058   7.512   4.257  1.1423  0.4773  0.4696
31600SOL     OW97754   0.671   2.978  10.329 -0.4041 -0.1817 -0.4223
31600SOL    HW197755   0.755   3.017  10.352 -0.8311  1.0861 -0.9458
31600SOL    HW297756   0.681   2.885  10.351  0.6209  0.2099  0.8774
31601SOL     OW97757   0.710   1.677   4.500  0.1212  0.4383 -0.5323
31601SOL    HW197758   0.791   1.627   4.489 -0.2763  0.1067 -2.2284
31601SOL    HW297759   0.643   1.612   4.521  0.2401  0.6918  0.6947
31602SOL     OW97760   0.056   8.582   4.332 -0.4701  0.3438  0.4027
31602SOL    HW197761  -0.023   8.610   4.377  0.6713  0.8946  2.1961
31602SOL    HW297762   0.121   8.649   4.355  0.1133  0.9262 -2.4786
31603SOL     OW97763   5.492   6.767   7.740  0.2221 -0.2181 -0.2888
31603SOL    HW197764   5.457   6.822   7.670  0.5301 -1.0040 -1.0796
31603SOL    HW297765   5.563   6.718   7.699  0.5963 -0.4916  0.6519
31604SOL     OW97766   7.657   6.126   7.296 -0.0006 -0.3461  0.4565
31604SOL    HW197767   7.660   6.039   7.258 -1.6996  0.8899 -2.8664
31604SOL    HW297768   7.712   6.180   7.238  1.5405  0.7751  2.7786
31605SOL     OW97769   0.598   1.590   6.973 -0.5045  0.5118  0.3974
31605SOL    HW197770   0.554   1.524   6.920 -1.2451  0.3365  1.2064
31605SOL    HW297771   0.690   1.567   6.968 -0.6924 -0.2245  0.1772
31606SOL     OW97772   1.160   0.459   4.945 -0.1535 -0.0443 -0.1143
31606SOL    HW197773   1.191   0.406   4.872 -0.1799  0.5110 -0.5240
31606SOL    HW297774   1.102   0.524   4.906  0.0886  0.4644  0.3608
31607SOL     OW97775   4.138   7.282   2.718 -0.1369 -0.6305  0.4302
31607SOL    HW197776   4.184   7.304   2.636 -1.7203 -0.3983 -0.4365
31607SOL    HW297777   4.085   7.358   2.737 -1.6135 -1.5979  0.3393
31608SOL     OW97778   7.086   3.453   7.537  0.3307  0.0954  0.1303
31608SOL    HW197779   7.105   3.449   7.443  1.4234 -2.5893  0.3966
31608SOL    HW297780   7.140   3.526   7.569 -0.8013  1.7016 -1.4053
31609SOL     OW97781   0.307   0.804   7.897 -0.3197 -0.3418  0.1552
31609SOL    HW197782   0.223   0.831   7.859 -0.9336 -1.5470  0.5966
31609SOL    HW297783   0.372   0.827   7.831 -0.7746  2.0510  0.4428
31610SOL     OW97784   7.943   3.557   3.477 -0.0759  0.1545  0.8161
31610SOL    HW197785   7.883   3.485   3.493  1.2899 -1.4062 -0.7351
31610SOL    HW297786   7.888   3.628   3.444 -1.3461 -0.3839  1.7270
31611SOL     OW97787   4.618   5.423   9.698 -0.6244 -0.1608 -0.2639
31611SOL    HW197788   4.590   5.499   9.749  1.3300  0.4555 -0.0180
31611SOL    HW297789   4.630   5.354   9.763  1.7850  0.6012  0.1900
31612SOL     OW97790   4.416   1.248   1.365  0.3843  0.1223  0.1240
31612SOL    HW197791   4.333   1.283   1.333  0.7014  1.3477  0.6024
31612SOL    HW297792   4.449   1.196   1.292 -1.5254 -1.7178  0.4729
31613SOL     OW97793   7.811   3.479   1.417  0.0046  0.2376  0.0949
31613SOL    HW197794   7.748   3.524   1.362 -0.9846 -0.1635  0.8639
31613SOL    HW297795   7.884   3.458   1.359  0.0235  1.8822 -0.5052
31614SOL     OW97796   8.370  10.493   2.093 -0.3984  0.1280  0.1168
31614SOL    HW197797   8.306  10.449   2.150  0.2787  0.7842  1.4328
31614SOL    HW297798   8.454  10.456   2.119 -0.2305 -0.9691 -1.8327
31615SOL     OW97799   6.067   0.826   6.693 -0.5524  0.2897  0.2524
31615SOL    HW197800   6.018   0.835   6.775 -1.5280  0.2882 -0.3147
31615SOL    HW297801   6.069   0.732   6.675 -0.2312  0.2797  0.3397
31616SOL     OW97802   1.505   0.687   5.696  0.1440 -0.0911  0.6434
31616SOL    HW197803   1.443   0.725   5.758 -0.4253 -2.7947  1.8818
31616SOL    HW297804   1.591   0.706   5.734  0.4041  4.4067 -1.4995
31617SOL     OW97805   6.154   8.937  10.196 -0.1277  0.0796 -0.1853
31617SOL    HW197806   6.125   8.871  10.259  0.4869  1.0539  1.1662
31617SOL    HW297807   6.109   9.017  10.223  0.7096  0.6778 -0.5286
31618SOL     OW97808   0.118   8.358   5.922 -0.1207  0.1311 -0.0425
31618SOL    HW197809   0.047   8.296   5.902  0.7479 -0.8072 -0.3238
31618SOL    HW297810   0.073   8.440   5.940 -1.3501 -0.6885  0.8165
31619SOL     OW97811  10.419   9.675   4.239 -0.0928  0.0917 -0.2972
31619SOL    HW197812  10.399   9.710   4.326  1.4877  1.4990 -0.4438
31619SOL    HW297813  10.378   9.735   4.178  1.0612  0.6775 -0.5281
31620SOL     OW97814   2.370   2.557   7.648  0.2950 -0.2848  0.1758
31620SOL    HW197815   2.397   2.476   7.605 -0.0079 -0.9590  1.1977
31620SOL    HW297816   2.412   2.554   7.734  0.4265  0.7381  0.1584
31621SOL     OW97817   9.361   3.927   8.731  0.0037  0.5632  0.4697
31621SOL    HW197818   9.325   3.979   8.659 -1.0972 -1.3231 -0.4012
31621SOL    HW297819   9.312   3.957   8.808  0.5546  1.9463  0.3212
31622SOL     OW97820   6.462   9.303   6.824 -0.1189  0.6325 -0.5617
31622SOL    HW197821   6.541   9.268   6.865 -1.3751  0.0409  1.5303
31622SOL    HW297822   6.435   9.236   6.761  0.1748  0.1111 -0.1384
31623SOL     OW97823   2.294  10.408   1.309  0.5854 -0.1166 -0.0393
31623SOL    HW197824   2.239  10.389   1.233 -1.7110 -0.2999  1.5731
31623SOL    HW297825   2.382  10.384   1.281 -0.4254 -1.7587 -2.0969
31624SOL     OW97826   5.966   2.708   5.256  0.4133  0.3021  0.3321
31624SOL    HW197827   5.995   2.723   5.346  0.7594  0.2970  0.2221
31624SOL    HW297828   6.012   2.774   5.204 -1.3173  1.6588  0.4142
31625SOL     OW97829   9.937  10.245   6.569  0.1617 -0.0209  0.2166
31625SOL    HW197830   9.957  10.323   6.518  0.7626  0.9969  1.9388
31625SOL    HW297831  10.019  10.222   6.612 -0.1088 -1.3828  0.0633
31626SOL     OW97832   1.464   4.717   4.201  0.4423 -0.2044 -0.1824
31626SOL    HW197833   1.546   4.758   4.229  1.7349 -1.4178 -1.9646
31626SOL    HW297834   1.486   4.671   4.120 -1.3967 -2.6894  0.5971
31627SOL     OW97835   2.639   1.864   2.372  0.0135 -0.6880  0.0816
31627SOL    HW197836   2.558   1.877   2.421  0.8874 -1.3748  1.7757
31627SOL    HW297837   2.703   1.839   2.438  1.8808  0.8281 -1.0532
31628SOL     OW97838   9.323   6.944   1.338  0.0961 -1.0995  0.4159
31628SOL    HW197839   9.245   6.891   1.321  0.6038 -1.7374 -0.0452
31628SOL    HW297840   9.391   6.903   1.284  0.3545  0.4575 -0.5055
31629SOL     OW97841  10.676   3.387   2.177 -0.1229 -0.4910 -0.1414
31629SOL    HW197842  10.608   3.366   2.113  1.0074  1.8737 -2.3035
31629SOL    HW297843  10.731   3.309   2.179 -0.4778 -0.8278 -1.7172
31630SOL     OW97844   6.426   6.220   3.931  0.1643  0.1540 -0.5762
31630SOL    HW197845   6.466   6.296   3.889  0.6039 -0.5058 -1.3839
31630SOL    HW297846   6.435   6.150   3.866 -0.4861 -0.5119  0.0444
31631SOL     OW97847  10.267  10.644   2.961  0.2694 -0.7488 -0.6066
31631SOL    HW197848  10.314  10.693   2.894 -0.1804 -0.2711 -0.5758
31631SOL    HW297849  10.224  10.711   3.014  2.2150 -0.9530  1.4057
31632SOL     OW97850   3.189   0.472   4.146  0.2259  0.2204  0.4107
31632SOL    HW197851   3.278   0.461   4.111 -0.0444 -1.5635  0.1430
31632SOL    HW297852   3.189   0.419   4.226 -0.6133  0.1463  0.3654
31633SOL     OW97853   7.859  10.594   1.212  0.4998 -0.3934  0.5387
31633SOL    HW197854   7.772  10.585   1.251  0.6540  0.9696  1.2509
31633SOL    HW297855   7.911  10.526   1.254  0.2347 -0.0236  1.4872
31634SOL     OW97856   1.415   7.746   4.346 -0.2457 -0.4861  0.1532
31634SOL    HW197857   1.386   7.767   4.435  0.9704 -1.9021  0.9340
31634SOL    HW297858   1.485   7.682   4.359  1.3773  0.8123 -1.7300
31635SOL     OW97859   1.947   0.857   6.684 -0.1451 -0.5262 -0.5643
31635SOL    HW197860   1.861   0.865   6.643  0.3959  1.8493 -1.3874
31635SOL    HW297861   1.934   0.795   6.756 -1.8906 -2.3222 -2.3018
31636SOL     OW97862   9.095   2.428  10.674  0.4759  0.1208  0.2788
31636SOL    HW197863   9.143   2.398  10.752 -0.8469  0.2235  1.1710
31636SOL    HW297864   9.149   2.498  10.638  1.8881 -0.9710  0.1854
31637SOL     OW97865   0.725   3.377   3.579  0.5636 -0.6517 -0.4295
31637SOL    HW197866   0.736   3.333   3.663  2.7153 -0.9153 -0.7874
31637SOL    HW297867   0.720   3.305   3.515 -1.3091 -0.4624 -0.5576
31638SOL     OW97868   8.874   3.943   5.872 -0.1151  0.3067 -0.1507
31638SOL    HW197869   8.850   3.990   5.952  0.0964 -0.2544  0.2546
31638SOL    HW297870   8.827   3.987   5.802  0.9875  1.8737  0.0436
31639SOL     OW97871   8.279   8.771  10.220  0.0272  0.4461 -0.1048
31639SOL    HW197872   8.307   8.705  10.156  0.8475  2.9863 -2.5751
31639SOL    HW297873   8.345   8.768  10.289 -0.6691 -2.1066  0.5645
31640SOL     OW97874   1.858   6.495   8.366 -0.2072 -0.0776 -0.4060
31640SOL    HW197875   1.816   6.427   8.313 -0.1117 -0.8456  0.4761
31640SOL    HW297876   1.786   6.540   8.409 -0.2188 -0.3575 -0.1271
31641SOL     OW97877  10.328   7.904   0.831 -0.4262 -0.0515  0.2291
31641SOL    HW197878  10.381   7.973   0.871  0.6028 -1.1090  0.7463
31641SOL    HW297879  10.370   7.823   0.858 -1.2440 -0.8770 -0.8785
31642SOL     OW97880   0.445   4.763   3.256  0.1535 -0.2374 -0.0944
31642SOL    HW197881   0.521   4.809   3.293 -0.6848  0.6460  0.5931
31642SOL    HW297882   0.370   4.820   3.276 -0.5148 -0.2810 -2.1483
31643SOL     OW97883   2.033   6.988   8.919  0.7338  0.5275 -0.2803
31643SOL    HW197884   2.099   6.919   8.924  1.5593  1.3312 -0.0501
31643SOL    HW297885   2.079   7.068   8.943 -0.3467  1.0847 -0.0131
31644SOL     OW97886   9.057   2.476   6.002  0.6372 -0.0881  0.3470
31644SOL    HW197887   9.027   2.564   5.977 -0.1463 -0.5662 -0.4712
31644SOL    HW297888   9.151   2.486   6.017  0.7565  0.6912 -0.7524
31645SOL     OW97889   4.596   4.120   8.684 -0.6473 -0.3962  0.9215
31645SOL    HW197890   4.501   4.117   8.674 -0.6405  0.2096  0.6476
31645SOL    HW297891   4.616   4.212   8.700 -0.2924 -0.7763  2.9374
31646SOL     OW97892   9.617   4.253   0.071  0.1913 -0.2583 -0.6006
31646SOL    HW197893   9.570   4.180   0.111  0.1934 -1.9875 -3.4586
31646SOL    HW297894   9.661   4.296   0.144 -3.9595  0.1559  1.9380
31647SOL     OW97895  10.044   5.399   0.920  0.0185  0.5534  0.3731
31647SOL    HW197896  10.068   5.407   1.012  1.2721 -0.2760  0.1329
31647SOL    HW297897  10.092   5.470   0.877  0.4552  0.1432  0.1802
31648SOL     OW97898   0.694   6.671   8.408 -0.1582 -0.5397 -0.0677
31648SOL    HW197899   0.786   6.656   8.430 -0.3317 -0.2041  0.9566
31648SOL    HW297900   0.672   6.752   8.453 -1.0377 -0.7827 -0.0481
31649SOL     OW97901   7.522   5.801   4.655 -0.7270  0.0862 -0.2336
31649SOL    HW197902   7.487   5.854   4.727 -0.3435  1.2466 -0.8841
31649SOL    HW297903   7.503   5.851   4.576  0.7333 -0.1320 -0.7672
31650SOL     OW97904   1.640   4.539   8.473  0.4047 -0.1996  0.3049
31650SOL    HW197905   1.626   4.511   8.564  0.0666 -0.6128  0.1312
31650SOL    HW297906   1.574   4.491   8.423  1.3899 -0.9316 -0.3250
31651SOL     OW97907   5.338   9.157   9.901 -0.3048 -0.3599 -0.3247
31651SOL    HW197908   5.291   9.111   9.970 -0.0399  1.6937  1.3349
31651SOL    HW297909   5.361   9.089   9.837 -1.0472 -2.2363  1.3152
31652SOL     OW97910   0.899   6.189   7.028 -0.4351 -0.0256 -0.9235
31652SOL    HW197911   0.910   6.283   7.018 -0.7334  0.0148 -0.8702
31652SOL    HW297912   0.900   6.174   7.122  2.0084 -0.3646 -0.9377
31653SOL     OW97913   1.226   3.900   2.375 -0.1623  0.7440 -0.7947
31653SOL    HW197914   1.187   3.931   2.456 -0.3725  1.0765 -1.0183
31653SOL    HW297915   1.249   3.809   2.392 -2.6198 -0.0200 -1.1876
31654SOL     OW97916   7.237  10.246   0.167 -0.2346  0.1024 -0.1793
31654SOL    HW197917   7.196  10.190   0.233 -1.1390 -0.0124 -0.8209
31654SOL    HW297918   7.236  10.194   0.087  0.7337  0.2900 -0.3250
31655SOL     OW97919   8.984   8.068   3.436 -0.3169 -0.1442 -0.0380
31655SOL    HW197920   8.945   8.035   3.355  1.7116 -0.2335 -1.0539
31655SOL    HW297921   9.062   8.116   3.408  0.3914 -0.0661  1.8658
31656SOL     OW97922   8.405   1.170   3.271  0.1813 -0.4884  0.2465
31656SOL    HW197923   8.435   1.232   3.205 -0.6110  0.3680  0.6651
31656SOL    HW297924   8.365   1.099   3.220  0.2173 -0.1817 -0.2167
31657SOL     OW97925   7.211   6.278   1.705 -0.2823  0.3517 -0.2821
31657SOL    HW197926   7.141   6.230   1.660  1.6254 -2.2312 -0.6831
31657SOL    HW297927   7.265   6.211   1.745  0.8861  2.3646  1.8007
31658SOL     OW97928   0.423   2.810   5.876 -0.0826 -0.4717 -0.3320
31658SOL    HW197929   0.450   2.735   5.822 -0.1011 -0.3079 -0.5710
31658SOL    HW297930   0.349   2.847   5.829  1.6041  1.3790 -1.7424
31659SOL     OW97931   5.043   5.058   1.458  0.1797  0.1988 -0.0919
31659SOL    HW197932   4.986   5.134   1.474 -0.2020  0.1758 -1.2378
31659SOL    HW297933   4.990   4.983   1.484 -0.2301  0.1947 -0.9191
31660SOL     OW97934   4.967   4.971   4.163  0.2261 -0.1982  0.0653
31660SOL    HW197935   4.934   4.986   4.252  0.3585 -0.0274  0.0864
31660SOL    HW297936   4.901   5.009   4.106 -0.5072 -1.4659  0.0384
31661SOL     OW97937   1.727   7.087   0.108 -0.2110 -0.1457 -0.1066
31661SOL    HW197938   1.787   7.157   0.085  0.0933 -0.7377 -1.1760
31661SOL    HW297939   1.640   7.124   0.093 -0.0924  0.3788  0.4652
31662SOL     OW97940   1.157   8.713   8.947  0.3934 -0.1886 -0.5162
31662SOL    HW197941   1.198   8.799   8.957  1.4112 -0.8801  1.9392
31662SOL    HW297942   1.230   8.653   8.933 -0.3447 -0.6623 -2.8578
31663SOL     OW97943   6.021   8.871   2.939  0.1861 -0.1335 -0.0535
31663SOL    HW197944   6.029   8.952   2.889 -3.5011 -1.0653 -2.4603
31663SOL    HW297945   5.947   8.886   2.997  1.2657 -0.8867  1.6057
31664SOL     OW97946   5.329  10.362   4.745 -0.1949  0.3451 -0.1160
31664SOL    HW197947   5.348  10.411   4.665  0.1885  0.7001  0.1908
31664SOL    HW297948   5.237  10.380   4.763 -0.0104  1.0762  0.0869
31665SOL     OW97949  10.074   4.308   7.886  0.4591  0.0634 -0.7322
31665SOL    HW197950  10.024   4.390   7.894 -0.1695 -0.3257 -0.5765
31665SOL    HW297951  10.028   4.247   7.944  0.5743 -0.5660 -1.2940
31666SOL     OW97952   8.653   8.025   2.247  0.0400  0.4717  0.2903
31666SOL    HW197953   8.616   8.083   2.181 -0.6979 -0.6735 -0.3520
31666SOL    HW297954   8.610   7.941   2.231  0.4990 -0.0565  1.6807
31667SOL     OW97955   8.520   3.719   6.236  0.4034  0.1757 -0.7196
31667SOL    HW197956   8.452   3.670   6.189 -0.6208  1.5170 -0.6977
31667SOL    HW297957   8.522   3.804   6.194  1.1600  0.6034  0.1378
31668SOL     OW97958  10.600   0.285   0.259  0.1140 -0.5196  0.4647
31668SOL    HW197959  10.673   0.231   0.289  0.3059 -0.5763 -0.0758
31668SOL    HW297960  10.521   0.240   0.289  0.3161  0.0746  1.9333
31669SOL     OW97961   9.357  10.468   6.679 -0.1764  0.3145 -0.6389
31669SOL    HW197962   9.270  10.431   6.695  0.4793 -1.0993 -0.2208
31669SOL    HW297963   9.341  10.542   6.620 -1.7476  0.6334  0.1340
31670SOL     OW97964   1.842   1.492   9.971  0.8514  0.4823 -0.2185
31670SOL    HW197965   1.858   1.570  10.024  1.3327  0.6630 -0.6210
31670SOL    HW297966   1.778   1.442  10.021  1.8295  0.2908  0.8952
31671SOL     OW97967   3.217   8.660   6.344 -1.0081  0.7891  0.3917
31671SOL    HW197968   3.310   8.643   6.329 -0.9948  0.9088  0.3399
31671SOL    HW297969   3.179   8.573   6.358 -0.2873  0.8622  3.8896
31672SOL     OW97970   9.175   0.220   9.698  0.1512  0.0625  0.1997
31672SOL    HW197971   9.252   0.168   9.672 -0.1495 -0.1757 -0.2417
31672SOL    HW297972   9.200   0.261   9.780  0.4818 -0.6117  0.4476
31673SOL     OW97973   0.600   6.039   9.290 -1.1098  0.2138  0.1995
31673SOL    HW197974   0.505   6.053   9.286 -1.0467  0.3719 -1.3357
31673SOL    HW297975   0.614   5.995   9.373 -2.6205 -0.4052  0.1598
31674SOL     OW97976   0.523   3.768   5.570 -0.4661  0.2111 -0.1775
31674SOL    HW197977   0.555   3.829   5.636 -1.0149  1.5697 -1.1280
31674SOL    HW297978   0.451   3.814   5.527 -0.1372 -0.6174 -1.7139
31675SOL     OW97979   0.015   1.645   6.641 -0.1358 -0.6008 -0.0228
31675SOL    HW197980   0.038   1.704   6.569 -0.1509 -0.7082 -0.1147
31675SOL    HW297981   0.097   1.632   6.688 -0.3571  0.4485  0.7011
31676SOL     OW97982   2.692   5.384   8.306 -0.5010 -0.3274 -0.3796
31676SOL    HW197983   2.660   5.444   8.373  2.1431  0.9440 -0.1408
31676SOL    HW297984   2.706   5.302   8.352  0.5510  0.3158  0.5041
31677SOL     OW97985   0.581   3.872   9.578 -0.2587 -0.2569 -0.3507
31677SOL    HW197986   0.669   3.839   9.594  0.3150  1.1288 -0.4775
31677SOL    HW297987   0.560   3.924   9.656  0.1898  1.6831 -1.4489
31678SOL     OW97988   0.330   7.341   6.623  0.0717  0.0064  0.5353
31678SOL    HW197989   0.372   7.263   6.588  0.8832  1.0567 -0.9337
31678SOL    HW297990   0.236   7.326   6.609 -0.0427 -1.8118  2.7118
31679SOL     OW97991   6.189   2.165   4.143 -0.4166 -0.2218  0.7075
31679SOL    HW197992   6.228   2.123   4.220 -0.1587  1.5710  1.6178
31679SOL    HW297993   6.232   2.123   4.068  0.5213 -0.8756  1.5926
31680SOL     OW97994   1.746   8.646   4.142  0.1497  0.1797 -0.6646
31680SOL    HW197995   1.772   8.695   4.065  0.5217  3.8458  1.5675
31680SOL    HW297996   1.828   8.618   4.182  0.0712  0.3164 -0.4038
31681SOL     OW97997   1.196   4.751   8.210 -0.3772  0.5991 -0.0014
31681SOL    HW197998   1.261   4.793   8.266  1.9288  0.2128 -2.1805
31681SOL    HW297999   1.227   4.660   8.203 -0.3034  0.7470 -2.1790
31682SOL     OW98000   1.438   2.079   8.147 -0.2759  0.1859  0.3159
31682SOL    HW198001   1.415   2.049   8.060 -0.0945  0.6342  0.1098
31682SOL    HW298002   1.392   2.162   8.157 -0.0271  0.3008  0.5163
31683SOL     OW98003   1.781   5.056   4.871  0.2782 -0.0055 -0.3260
31683SOL    HW198004   1.845   5.117   4.908  0.6045  0.5647 -1.7786
31683SOL    HW298005   1.732   5.025   4.947  0.7122  1.3715  0.5601
31684SOL     OW98006   0.500   7.098   6.314  0.5667 -0.4849 -0.0926
31684SOL    HW198007   0.414   7.123   6.280  1.0819  3.0078  0.7335
31684SOL    HW298008   0.486   7.086   6.408  0.9828  0.2242  0.0654
31685SOL     OW98009   8.791   9.842   0.298 -0.2264 -0.4050 -0.1416
31685SOL    HW198010   8.841   9.924   0.298  0.4668 -0.8233 -0.1006
31685SOL    HW298011   8.814   9.801   0.381  0.1465 -1.0693 -0.5645
31686SOL     OW98012   1.993   7.430   9.010  0.1017  0.0492 -0.1508
31686SOL    HW198013   1.913   7.380   9.025 -0.0446  0.7341  1.6732
31686SOL    HW298014   2.040   7.381   8.944 -1.5149 -0.7338 -0.7878
31687SOL     OW98015   0.586   3.090   2.099 -0.5468 -0.0021  0.3930
31687SOL    HW198016   0.595   3.123   2.010  2.7657 -3.3872 -0.8121
31687SOL    HW298017   0.532   3.011   2.089  0.6140 -0.9247  1.1511
31688SOL     OW98018   1.889   2.045   9.020 -0.3036  0.4599  0.2634
31688SOL    HW198019   1.923   2.040   9.109  1.5934 -0.0185 -0.4510
31688SOL    HW298020   1.794   2.033   9.031 -0.4008  2.4087  2.3778
31689SOL     OW98021   6.369   7.935   7.133 -0.3389 -0.3652  0.1993
31689SOL    HW198022   6.447   7.990   7.142 -0.2402 -0.5064  0.2134
31689SOL    HW298023   6.359   7.924   7.038 -0.1048 -0.6812  0.2098
31690SOL     OW98024   7.283   1.527   2.590 -0.1726  0.6508 -0.6672
31690SOL    HW198025   7.233   1.448   2.574  2.2693 -0.9077 -1.1171
31690SOL    HW298026   7.295   1.530   2.685  0.2955  0.0900 -0.7060
31691SOL     OW98027   5.920   0.407  10.029  0.1812  0.1397  0.7636
31691SOL    HW198028   5.904   0.479  10.090  2.8849  0.6403  0.9847
31691SOL    HW298029   5.978   0.445   9.963 -0.0082 -1.3125 -0.2743
31692SOL     OW98030   1.195   6.682   5.204  0.3727 -0.1056 -0.1131
31692SOL    HW198031   1.281   6.722   5.187 -0.3587  1.1787 -0.9140
31692SOL    HW298032   1.182   6.621   5.132  0.4878 -0.0954 -0.1430
31693SOL     OW98033   9.182   4.055   4.348 -0.1553  0.3494  0.5174
31693SOL    HW198034   9.234   4.022   4.422  0.3128  1.0700  0.5232
31693SOL    HW298035   9.148   4.139   4.378  0.5674  0.9536 -0.3016
31694SOL     OW98036   0.801   1.106   4.419  0.3428  0.7507 -0.5736
31694SOL    HW198037   0.765   1.027   4.461  2.5059 -1.0111 -1.8053
31694SOL    HW298038   0.814   1.080   4.328  2.6221  1.9957 -0.6598
31695SOL     OW98039   0.214   7.482   7.442 -0.8158  0.0314 -0.0329
31695SOL    HW198040   0.183   7.405   7.395 -0.8136 -0.3597  0.5870
31695SOL    HW298041   0.273   7.526   7.380 -2.2963  0.5972 -1.0925
31696SOL     OW98042   6.609   0.368   5.604 -0.8439 -0.0817  0.1126
31696SOL    HW198043   6.535   0.430   5.600  1.4853  2.9442 -0.1426
31696SOL    HW298044   6.619   0.350   5.697 -2.7066 -1.7191  0.0603
31697SOL     OW98045   0.591   3.742   3.880 -0.4716 -0.1944 -0.0736
31697SOL    HW198046   0.626   3.810   3.937  0.3577 -1.2054  0.6769
31697SOL    HW298047   0.565   3.788   3.800  0.2943  0.9581  0.3152
31698SOL     OW98048   0.361   8.874   7.442  0.3201  0.2706  0.6968
31698SOL    HW198049   0.324   8.850   7.527 -2.1695 -0.2557 -0.4413
31698SOL    HW298050   0.417   8.801   7.418 -0.3293 -0.3770  1.1249
31699SOL     OW98051   4.221   7.041   8.209 -0.4704 -0.6273  0.2254
31699SOL    HW198052   4.129   7.062   8.226 -0.6878  1.5479 -2.8133
31699SOL    HW298053   4.221   7.005   8.121  1.5862 -0.7225  0.2282
31700SOL     OW98054   7.639   8.958   4.021  0.1588  0.3009  0.2045
31700SOL    HW198055   7.676   9.040   3.990  2.2978 -0.8766 -0.6155
31700SOL    HW298056   7.711   8.914   4.066 -1.3506 -0.5005  1.9658
31701SOL     OW98057   3.254   8.648   2.797 -0.4044  0.1546 -0.6006
31701SOL    HW198058   3.214   8.586   2.857 -2.1964  0.4056 -1.4775
31701SOL    HW298059   3.347   8.625   2.797 -0.7549 -1.3936  0.3934
31702SOL     OW98060   1.025  10.414   0.800 -0.0104 -0.4199  0.4590
31702SOL    HW198061   1.116  10.424   0.827 -0.1598  1.6535  0.3307
31702SOL    HW298062   1.027  10.348   0.732  1.3228 -0.7670  0.8056
31703SOL     OW98063   4.403   1.727   6.757 -0.2548  0.7079  0.5670
31703SOL    HW198064   4.497   1.709   6.763 -0.3125 -0.0124 -0.4310
31703SOL    HW298065   4.393   1.815   6.795  0.7587  0.6312  1.0462
31704SOL     OW98066   1.623   0.817   2.292 -0.2744 -0.3881 -0.4004
31704SOL    HW198067   1.691   0.865   2.339  0.1596  1.0898 -2.3883
31704SOL    HW298068   1.658   0.729   2.282  1.2702  0.2684 -1.1292
31705SOL     OW98069   6.512   4.894   0.326  0.3435  0.1978  0.0452
31705SOL    HW198070   6.603   4.922   0.317  0.8839 -1.6057 -0.5508
31705SOL    HW298071   6.488   4.862   0.239 -0.2563 -0.9742  0.6117
31706SOL     OW98072   9.035   4.046   2.413  0.1642 -0.2899 -0.5482
31706SOL    HW198073   9.076   3.961   2.431  0.5503 -0.6864 -2.9123
31706SOL    HW298074   9.018   4.084   2.499  0.3916 -2.5671  0.5633
31707SOL     OW98075  10.547   4.655   6.992  0.6957  0.1998 -0.3364
31707SOL    HW198076  10.513   4.572   7.026  1.7738 -0.5053 -0.9111
31707SOL    HW298077  10.476   4.717   7.006  0.0211 -0.7148  0.5122
31708SOL     OW98078   8.895   6.054   7.984  0.5630 -0.1359  0.2243
31708SOL    HW198079   8.867   6.128   8.037  0.0142 -0.1853  0.0058
31708SOL    HW298080   8.932   5.992   8.047 -0.3077 -0.2995  0.5904
31709SOL     OW98081   4.649   9.870   0.313  0.0724  0.0107 -0.2779
31709SOL    HW198082   4.670   9.938   0.249  0.9478 -0.5512 -0.6210
31709SOL    HW298083   4.704   9.796   0.287 -0.7370 -0.7718  0.1816
31710SOL     OW98084   2.734  10.100  10.131 -0.2900 -0.3302  0.2660
31710SOL    HW198085   2.756  10.009  10.113 -0.2264  0.1097 -2.2158
31710SOL    HW298086   2.704  10.135  10.047 -1.6006  1.5951  1.4365
31711SOL     OW98087   8.640   1.293  10.173 -0.5057 -1.0015  0.0524
31711SOL    HW198088   8.615   1.207  10.138 -1.8555 -0.1568 -1.1818
31711SOL    HW298089   8.591   1.300  10.255  0.2249 -1.7110  0.5631
31712SOL     OW98090   3.253   6.519   4.621 -0.4289  0.4382 -0.0246
31712SOL    HW198091   3.254   6.470   4.704  0.7873  0.7464  0.1617
31712SOL    HW298092   3.188   6.474   4.568 -0.0610 -0.7774  0.5051
31713SOL     OW98093   7.794   5.043   3.764  0.1316  0.8123  0.2004
31713SOL    HW198094   7.812   5.114   3.826 -0.5631  0.7118  0.5299
31713SOL    HW298095   7.701   5.024   3.777  0.4687 -0.6383  0.6244
31714SOL     OW98096   6.898   8.384   5.494  0.2647  0.4315  0.8127
31714SOL    HW198097   6.884   8.428   5.578 -0.7163  0.6178  0.5528
31714SOL    HW298098   6.882   8.291   5.513 -1.0780  0.6027  0.5905
31715SOL     OW98099   7.917   0.979   7.437 -0.0581 -0.4661 -0.3039
31715SOL    HW198100   7.997   0.930   7.415  0.5963  0.6572 -0.4842
31715SOL    HW298101   7.924   1.060   7.387 -1.3834 -0.4031 -0.4080
31716SOL     OW98102   5.360   4.646   1.926  0.1551  0.0066 -0.8858
31716SOL    HW198103   5.417   4.572   1.943 -0.2412  0.2555  1.9620
31716SOL    HW298104   5.271   4.610   1.932 -0.0610  0.7422  1.1962
31717SOL     OW98105   2.198  10.225   5.851 -0.6172  0.2401  0.5856
31717SOL    HW198106   2.147  10.148   5.827  0.2396  0.0641 -0.7426
31717SOL    HW298107   2.284  10.210   5.813  0.1945  0.9280  2.0510
31718SOL     OW98108   6.552   8.530   4.336  0.1196 -0.5742 -0.0383
31718SOL    HW198109   6.467   8.491   4.356 -0.7280  0.0278 -2.2489
31718SOL    HW298110   6.605   8.458   4.303 -0.1993 -0.5774 -0.5469
31719SOL     OW98111   7.969   5.693   9.597  0.1161 -0.4024  0.1389
31719SOL    HW198112   7.950   5.633   9.525 -0.0271  0.0191 -0.1826
31719SOL    HW298113   7.964   5.780   9.557  0.5057 -0.1848  0.5536
31720SOL     OW98114   6.289   8.784   0.363 -0.5594 -0.1881 -0.4618
31720SOL    HW198115   6.369   8.776   0.311 -0.2804 -1.2859  0.0982
31720SOL    HW298116   6.240   8.855   0.322  0.9007  0.8115 -0.5528
31721SOL     OW98117   9.894   9.507   3.693 -0.1006  0.2661 -0.2529
31721SOL    HW198118   9.822   9.509   3.631 -0.1250 -2.3258 -0.4012
31721SOL    HW298119   9.931   9.419   3.685 -0.2757 -0.3340  3.5542
31722SOL     OW98120   8.793   5.422   9.163  0.4419  0.0189 -0.5389
31722SOL    HW198121   8.844   5.414   9.082 -0.4189 -2.5719 -0.9029
31722SOL    HW298122   8.717   5.474   9.138  0.1581 -0.8051 -1.4139
31723SOL     OW98123   7.214   7.911   1.472  0.3283 -0.9803 -0.7712
31723SOL    HW198124   7.281   7.944   1.532 -0.2341 -0.3396 -0.4849
31723SOL    HW298125   7.171   7.990   1.439 -0.7623 -1.4006 -0.3969
31724SOL     OW98126   9.461  10.586   3.886 -0.1334  0.2765 -0.0256
31724SOL    HW198127   9.432  10.508   3.933 -1.0897  0.3096 -0.5248
31724SOL    HW298128   9.385  10.613   3.835 -0.2691  2.3232  1.1389
31725SOL     OW98129   1.953   5.377   3.607  0.3224 -0.0860 -0.3440
31725SOL    HW198130   1.957   5.412   3.696 -2.5841 -0.9822  0.2424
31725SOL    HW298131   1.892   5.304   3.613 -0.3997  0.1856 -3.1881
31726SOL     OW98132   3.279   1.841   0.506  0.3032  0.3179 -0.0712
31726SOL    HW198133   3.340   1.769   0.521 -1.3283 -1.6498 -2.0924
31726SOL    HW298134   3.281   1.853   0.411  0.0676  2.5822  0.1707
31727SOL     OW98135   2.986   1.978   8.503 -0.3195 -0.3426  0.3761
31727SOL    HW198136   2.992   2.061   8.456  0.5149 -0.8821 -0.5158
31727SOL    HW298137   3.077   1.958   8.526 -0.4926 -1.0914  0.4281
31728SOL     OW98138   1.951   7.959   4.511 -0.1288 -0.5996  0.3679
31728SOL    HW198139   1.959   7.868   4.484  0.3374 -0.8691  1.3565
31728SOL    HW298140   1.880   7.959   4.576  0.1580 -0.3328  0.6861
31729SOL     OW98141   2.874   8.445   2.534  0.2598  0.3071  0.0352
31729SOL    HW198142   2.901   8.527   2.576 -0.1493 -0.0114  0.9298
31729SOL    HW298143   2.808   8.408   2.593  0.7104 -0.8567 -0.1689
31730SOL     OW98144   1.146   9.647   0.310 -0.3906 -0.1899  0.0157
31730SOL    HW198145   1.089   9.711   0.353  1.3880  0.8864  0.9003
31730SOL    HW298146   1.098   9.621   0.232 -1.6223  1.4782  0.1568
31731SOL     OW98147   8.630   1.165   3.557  0.0596  0.3686  0.1113
31731SOL    HW198148   8.552   1.215   3.532 -1.4152 -1.6979  0.2806
31731SOL    HW298149   8.637   1.178   3.651  0.5794  1.4125 -0.0605
31732SOL     OW98150   6.586   9.914   3.300 -0.2518 -0.6150  0.0464
31732SOL    HW198151   6.513   9.860   3.329  0.3452 -1.3100  0.2826
31732SOL    HW298152   6.595   9.895   3.206 -0.7216 -0.1148 -0.0994
31733SOL     OW98153   1.094   7.192   0.569  0.1536  0.2995  0.1691
31733SOL    HW198154   1.144   7.266   0.535 -3.0852  2.0442 -1.2947
31733SOL    HW298155   1.084   7.210   0.663  2.1483 -0.0953  0.4869
31734SOL     OW98156   3.265   3.593   3.052 -0.0307 -0.4576  0.1902
31734SOL    HW198157   3.182   3.580   3.007  0.3465  2.3396 -1.5444
31734SOL    HW298158   3.317   3.515   3.032 -1.2316 -0.9550 -1.0681
31735SOL     OW98159   4.134   0.024   8.595  0.7038 -0.1340 -0.2134
31735SOL    HW198160   4.185  -0.051   8.624  1.7757 -0.2144 -2.1144
31735SOL    HW298161   4.075   0.044   8.668  0.9806 -2.2732  0.6452
31736SOL     OW98162   1.009   0.669   4.845  0.2373 -0.2099 -0.3087
31736SOL    HW198163   0.991   0.671   4.751 -0.2176 -0.9880 -0.2484
31736SOL    HW298164   0.944   0.728   4.883  1.0177  0.8304 -0.5630
31737SOL     OW98165   7.502   3.667   0.297 -0.3534  0.0085  0.0426
31737SOL    HW198166   7.551   3.635   0.372  0.5021  0.9252 -0.1096
31737SOL    HW298167   7.412   3.635   0.311  0.2591 -1.6891  0.3230
31738SOL     OW98168   6.130   2.632   6.250 -0.5193 -0.8448 -0.6203
31738SOL    HW198169   6.220   2.665   6.252 -0.7546 -0.1390 -1.2232
31738SOL    HW298170   6.101   2.647   6.160 -2.0750  1.2282  0.1566
31739SOL     OW98171   2.520   0.389   9.410  0.0843 -0.0634  0.2280
31739SOL    HW198172   2.573   0.382   9.489  0.5350 -1.3450 -0.1518
31739SOL    HW298173   2.528   0.481   9.383  0.6898  0.1650  1.1416
31740SOL     OW98174   9.155   2.815   6.240  0.5194  0.0455 -0.9495
31740SOL    HW198175   9.217   2.790   6.172  2.6514 -1.0172  1.2369
31740SOL    HW298176   9.079   2.758   6.224  3.5677 -5.3734  1.3132
31741SOL     OW98177   2.058   6.255   6.237 -0.4884  0.4288  0.2496
31741SOL    HW198178   1.980   6.248   6.182 -0.7574 -1.6568  0.7713
31741SOL    HW298179   2.023   6.255   6.327  0.0552  0.9694  0.4653
31742SOL     OW98180   8.525   2.748   8.246 -0.6561 -0.3818  0.3597
31742SOL    HW198181   8.486   2.829   8.277 -0.1653  0.5650 -1.3614
31742SOL    HW298182   8.504   2.683   8.313 -2.6053  0.7619  0.9206
31743SOL     OW98183   3.194   2.519   7.424 -0.1411 -0.2903  0.2273
31743SOL    HW198184   3.152   2.544   7.507 -0.4606  0.9682 -0.2858
31743SOL    HW298185   3.263   2.583   7.412  0.0935 -0.6460 -0.3404
31744SOL     OW98186   0.393   4.877   2.601  0.0098 -0.3707 -0.1319
31744SOL    HW198187   0.445   4.841   2.530  0.3481  0.5110 -0.3420
31744SOL    HW298188   0.357   4.959   2.566  0.5431  0.3096  0.8408
31745SOL     OW98189   7.747   1.777   6.396  0.1215 -0.0979 -0.4536
31745SOL    HW198190   7.800   1.705   6.362  0.5040 -0.8724  1.6025
31745SOL    HW298191   7.810   1.848   6.411  0.3850 -0.5393  0.6745
31746SOL     OW98192   6.105   8.697   8.221 -0.0437 -0.4166  0.1842
31746SOL    HW198193   6.083   8.782   8.258  2.0941  0.6578 -0.8038
31746SOL    HW298194   6.124   8.641   8.296  0.1899  0.4927  0.8155
31747SOL     OW98195   1.499   8.708   9.894  0.3771 -0.1080  0.0066
31747SOL    HW198196   1.485   8.650   9.819  0.9662  0.0054 -0.1924
31747SOL    HW298197   1.534   8.651   9.962  0.0265 -0.1719  0.1387
31748SOL     OW98198   6.646   7.851   4.082  0.5588 -0.0891  0.4050
31748SOL    HW198199   6.588   7.842   4.157  0.2805  0.1373  0.2234
31748SOL    HW298200   6.587   7.872   4.009  0.8185 -0.3612  0.1150
31749SOL     OW98201   0.801   5.835   2.729 -0.7282  0.1512  0.4418
31749SOL    HW198202   0.747   5.875   2.797  0.3481  0.3506  1.2076
31749SOL    HW298203   0.888   5.826   2.769 -0.0039  0.4893 -0.9815
31750SOL     OW98204   3.586   8.601   8.897  0.1773 -0.2108  0.6696
31750SOL    HW198205   3.540   8.553   8.966 -0.9128 -1.3050 -0.7489
31750SOL    HW298206   3.629   8.532   8.846 -0.4566  0.4046 -0.7314
31751SOL     OW98207   6.927   3.453   7.193 -0.1820  0.0243 -0.3129
31751SOL    HW198208   6.944   3.361   7.211  0.3061 -0.3474 -2.4039
31751SOL    HW298209   6.998   3.500   7.238 -0.2074 -0.6284  0.4273
31752SOL     OW98210   4.925   2.524   4.489  0.0598  0.3514  0.2168
31752SOL    HW198211   4.882   2.609   4.483  0.2869  0.3953 -1.2417
31752SOL    HW298212   4.973   2.516   4.406 -0.0644 -1.2463  0.2728
31753SOL     OW98213   4.008   2.431   9.126 -0.0505  0.8986 -0.5769
31753SOL    HW198214   4.005   2.448   9.032  0.2764 -0.5977 -0.8888
31753SOL    HW298215   4.049   2.345   9.133  3.0141  2.3511  1.1213
31754SOL     OW98216   0.193   7.217   7.390 -0.0121 -0.4211 -0.2052
31754SOL    HW198217   0.173   7.195   7.481 -1.6320  1.5763  0.0114
31754SOL    HW298218   0.148   7.150   7.338 -1.6612  0.1111  0.4651
31755SOL     OW98219   4.225   1.900   6.609  0.3135 -0.6899  0.2991
31755SOL    HW198220   4.287   1.973   6.600 -1.1512  0.3764 -3.0665
31755SOL    HW298221   4.144   1.941   6.640  0.6017 -1.7084  2.5807
31756SOL     OW98222   1.588   9.470   3.681  0.4267  0.1553 -0.5127
31756SOL    HW198223   1.666   9.496   3.632  0.7406  0.6382  0.2226
31756SOL    HW298224   1.593   9.374   3.685  1.1141  0.1914 -0.2734
31757SOL     OW98225   9.798   2.550   5.324  0.0856 -0.5487 -0.2061
31757SOL    HW198226   9.869   2.506   5.277  0.2636 -2.1497  1.4453
31757SOL    HW298227   9.719   2.526   5.276  0.3890 -1.0927 -0.4461
31758SOL     OW98228   0.326   6.926   6.724  0.4188 -0.2269 -0.2313
31758SOL    HW198229   0.313   6.842   6.769 -1.7195  2.0218  3.9656
31758SOL    HW298230   0.238   6.960   6.709  1.1976  1.9368 -0.3240
31759SOL     OW98231  10.185   5.382   4.759 -0.1470  0.1329 -0.1178
31759SOL    HW198232  10.178   5.324   4.684 -0.6693 -1.5229  1.1569
31759SOL    HW298233  10.255   5.443   4.737  1.9414 -2.3202 -0.6329
31760SOL     OW98234   2.948   1.093   4.802  0.3140 -0.1482  0.2910
31760SOL    HW198235   2.886   1.143   4.749 -1.2648 -0.6765  1.5610
31760SOL    HW298236   3.004   1.159   4.843 -0.7862  0.4967  0.7813
31761SOL     OW98237   5.606   1.939   2.382  0.4574  0.3555  0.1256
31761SOL    HW198238   5.602   2.034   2.377 -1.1443  0.2690 -1.2943
31761SOL    HW298239   5.577   1.917   2.470  1.9141  1.1770  0.8480
31762SOL     OW98240   0.995   3.676   2.611  0.6227  0.4689 -0.4333
31762SOL    HW198241   0.984   3.609   2.679 -0.8017  1.2484  0.1642
31762SOL    HW298242   1.078   3.655   2.570  0.5701 -1.2259  0.2214
31763SOL     OW98243   3.988   5.135   4.188 -0.0704 -0.1243  0.2478
31763SOL    HW198244   3.950   5.149   4.102  0.0129 -0.0930  0.2158
31763SOL    HW298245   3.994   5.040   4.196 -1.0730 -0.1592  0.6635
31764SOL     OW98246   4.252   5.700   0.275  0.0688 -0.1299 -0.0601
31764SOL    HW198247   4.311   5.775   0.269  0.1799 -0.3389 -1.8866
31764SOL    HW298248   4.305   5.625   0.247 -0.0685 -0.9183  1.6449
31765SOL     OW98249   1.742   2.236   1.739  0.7873  0.0089  0.3985
31765SOL    HW198250   1.685   2.265   1.667  1.2586  1.1445  0.4604
31765SOL    HW298251   1.737   2.140   1.736 -0.2241  0.0590 -0.3146
31766SOL     OW98252   7.875   8.063   4.347 -0.0976  0.3093 -0.6318
31766SOL    HW198253   7.905   8.012   4.423  0.9989  1.0478 -0.5527
31766SOL    HW298254   7.828   7.999   4.293 -0.9053 -0.2319  0.6531
31767SOL     OW98255   5.774   0.486   4.478  0.3053 -0.1517 -0.3943
31767SOL    HW198256   5.835   0.560   4.481 -0.0594  0.1294  1.3121
31767SOL    HW298257   5.727   0.497   4.395 -1.7730  3.2635  1.0176
31768SOL     OW98258   1.826   2.308   7.344  0.7169  0.6486  0.3418
31768SOL    HW198259   1.832   2.402   7.327 -0.2066  0.5642 -0.5202
31768SOL    HW298260   1.756   2.278   7.287  2.3432 -0.9323 -0.9500
31769SOL     OW98261   2.455   8.739   1.459 -0.1498 -0.3052 -0.5571
31769SOL    HW198262   2.455   8.704   1.370  0.0962  3.2980 -2.1464
31769SOL    HW298263   2.538   8.708   1.497  0.3098 -0.9132 -2.0018
31770SOL     OW98264   8.316   1.293   4.943 -0.2222 -0.4021  0.0161
31770SOL    HW198265   8.385   1.235   4.912  1.2928  2.3005 -2.0645
31770SOL    HW298266   8.235   1.242   4.932  1.1401 -2.6592 -0.1091
31771SOL     OW98267   8.402   4.004   2.737 -0.0911  0.5287  0.2700
31771SOL    HW198268   8.371   3.915   2.750  0.7573 -0.1936 -2.0473
31771SOL    HW298269   8.357   4.056   2.803 -2.4741 -1.2098  0.1188
31772SOL     OW98270   6.506   4.332   3.344 -0.2687 -0.2252 -0.3520
31772SOL    HW198271   6.443   4.292   3.404 -1.8799 -0.1561 -1.9033
31772SOL    HW298272   6.542   4.258   3.294 -1.8907 -0.0336 -1.9509
31773SOL     OW98273   0.550   4.628   9.501  0.6244 -0.3347  0.4604
31773SOL    HW198274   0.569   4.557   9.439 -1.2468 -1.9319  1.6053
31773SOL    HW298275   0.516   4.699   9.446  0.4120 -1.1634 -0.5060
31774SOL     OW98276   4.573   3.963  10.133  0.4505 -0.3127  0.0437
31774SOL    HW198277   4.537   3.875  10.140 -0.9514  0.1597 -0.6979
31774SOL    HW298278   4.667   3.950  10.122  0.0907 -1.8267 -1.7918
31775SOL     OW98279   2.003   2.580   9.172 -0.2001 -0.4676 -0.3028
31775SOL    HW198280   2.046   2.585   9.257  1.3751 -1.0775 -1.0301
31775SOL    HW298281   1.946   2.504   9.179 -1.8696  0.7953  0.9286
31776SOL     OW98282   6.631  10.275   2.107 -0.2422  0.4838 -0.4062
31776SOL    HW198283   6.601  10.282   2.198  0.8891  1.4744 -0.0870
31776SOL    HW298284   6.696  10.206   2.109 -0.9398 -0.1909 -0.6764
31777SOL     OW98285   4.648   8.601   6.437  0.3230  0.3203  0.0881
31777SOL    HW198286   4.717   8.643   6.489 -1.2086  2.1912  0.7523
31777SOL    HW298287   4.666   8.627   6.347  2.0696 -1.6017 -0.1829
31778SOL     OW98288   9.866   3.511   9.453 -0.1775  0.1378 -0.5058
31778SOL    HW198289   9.904   3.483   9.537  0.2458 -1.4453 -1.1854
31778SOL    HW298290   9.773   3.517   9.470 -0.1281 -0.4658  0.0175
31779SOL     OW98291   1.638   2.030   7.768 -0.2387  0.4855  0.1811
31779SOL    HW198292   1.672   2.090   7.702  1.9125  0.1231  0.8674
31779SOL    HW298293   1.710   1.969   7.784 -1.5766 -0.9402  1.0976
31780SOL     OW98294   1.676   4.402  10.367 -0.5241  0.3379  0.4563
31780SOL    HW198295   1.581   4.406  10.354 -0.8694 -2.8028  1.3162
31780SOL    HW298296   1.687   4.399  10.462  0.6612  2.7176  0.4736
31781SOL     OW98297   1.032   4.130   1.962  0.2724 -0.6136  0.5930
31781SOL    HW198298   1.002   4.139   2.052  0.4563 -0.0595  0.5999
31781SOL    HW298299   1.114   4.179   1.959  0.0344 -0.2457  0.0073
31782SOL     OW98300   1.345  10.001   9.917  0.2279 -0.5700  0.1192
31782SOL    HW198301   1.362  10.037   9.830 -1.7282 -1.4404 -0.6585
31782SOL    HW298302   1.359  10.076   9.976  2.1299 -0.1047 -0.8220
31783SOL     OW98303   6.804  10.263   2.354  0.1821  0.3338 -0.1510
31783SOL    HW198304   6.838  10.351   2.361  0.4537  0.1792  0.5198
31783SOL    HW298305   6.880  10.209   2.333  0.5399 -0.1130  2.0260
31784SOL     OW98306   9.267   1.819   1.022  0.3812 -0.2285 -0.3346
31784SOL    HW198307   9.245   1.884   1.088 -0.0186 -0.0201 -0.6632
31784SOL    HW298308   9.257   1.734   1.066 -2.8588 -0.2639 -0.8938
31785SOL     OW98309   4.091   6.297   4.785  0.0202 -0.7020  0.0254
31785SOL    HW198310   4.139   6.293   4.703  2.3303  0.9418  1.1870
31785SOL    HW298311   4.128   6.372   4.832 -1.8814 -0.9656  2.1766
31786SOL     OW98312   4.623  10.559   2.541 -0.3779 -0.1028  0.4398
31786SOL    HW198313   4.553  10.592   2.484  0.2187 -0.3197 -0.4349
31786SOL    HW298314   4.619  10.464   2.532  0.1100 -0.1110  0.2790
31787SOL     OW98315   0.990   5.956   0.200 -0.1463  0.1981  0.0547
31787SOL    HW198316   0.918   5.925   0.255 -0.2572 -1.0593 -0.7568
31787SOL    HW298317   1.033   5.876   0.170  3.3429  0.8455  2.6894
31788SOL     OW98318   5.056   3.174   9.310  0.1360 -0.1862 -0.4077
31788SOL    HW198319   5.037   3.260   9.348 -3.0829 -0.8834 -0.1304
31788SOL    HW298320   5.069   3.192   9.217  1.1449  0.7460 -0.1138
31789SOL     OW98321   6.145   0.190   3.375 -0.5357 -0.1029 -0.0665
31789SOL    HW198322   6.101   0.150   3.300  0.2225 -0.6340 -0.2332
31789SOL    HW298323   6.096   0.158   3.452  1.2553 -3.0826 -0.0158
31790SOL     OW98324   6.632   0.640  10.517  0.4322  0.0334 -0.0317
31790SOL    HW198325   6.568   0.711  10.510  0.0564 -0.2489  0.5112
31790SOL    HW298326   6.584   0.568  10.558  1.5299  0.3747  1.9818
31791SOL     OW98327   9.638   4.748  10.477  0.1119 -0.2471 -0.5150
31791SOL    HW198328   9.618   4.683  10.545  1.1971  1.0313  1.1037
31791SOL    HW298329   9.727   4.726  10.448 -0.1226 -0.4247 -1.1186
31792SOL     OW98330   2.724   0.506   8.147  0.7696 -0.0725  0.5031
31792SOL    HW198331   2.782   0.534   8.217  1.0255 -0.1469  0.3222
31792SOL    HW298332   2.758   0.549   8.068 -0.3038  1.0923  0.6369
31793SOL     OW98333   8.940   1.382   2.820  0.2769  0.0238 -0.5362
31793SOL    HW198334   8.937   1.420   2.732 -1.4243 -0.5977 -0.7891
31793SOL    HW298335   8.870   1.317   2.820  0.5814 -0.3428  1.1269
31794SOL     OW98336   0.592   8.274  10.648 -0.1062  0.2191  0.0396
31794SOL    HW198337   0.659   8.332  10.613  1.5300 -0.6492  1.5861
31794SOL    HW298338   0.581   8.206  10.581  2.4276 -1.0092  0.7637
31795SOL     OW98339   0.610   3.195   3.102 -0.0148 -0.5439  0.2299
31795SOL    HW198340   0.580   3.268   3.156 -0.3388 -0.8000  0.4037
31795SOL    HW298341   0.534   3.136   3.099  0.3409 -1.0100  0.3375
31796SOL     OW98342   3.153   7.515   0.440  0.2681  0.4378 -0.3962
31796SOL    HW198343   3.185   7.430   0.407 -0.7605  0.4465 -1.5221
31796SOL    HW298344   3.202   7.530   0.520  2.0391 -0.1968 -1.3094
31797SOL     OW98345   9.058   5.856   6.151 -0.0108  0.1413 -0.1732
31797SOL    HW198346   9.050   5.761   6.162 -1.2358  0.1371 -0.8893
31797SOL    HW298347   8.997   5.893   6.215 -0.5569  0.3904 -0.8239
31798SOL     OW98348   4.203   2.343   8.691 -0.1840 -0.2949  0.2332
31798SOL    HW198349   4.263   2.343   8.616  0.1397 -0.9752  0.4927
31798SOL    HW298350   4.132   2.285   8.664 -0.8224  0.6319 -0.1375
31799SOL     OW98351   7.228   3.353   7.053 -0.2050 -0.0055 -0.7424
31799SOL    HW198352   7.164   3.399   6.999 -2.6599 -2.1169  0.1496
31799SOL    HW298353   7.175   3.299   7.112  2.3762 -2.9064 -0.8137
31800SOL     OW98354   3.095   4.621   6.241  0.1260 -0.1971  0.3955
31800SOL    HW198355   3.034   4.676   6.291  1.1540 -0.2389  1.7670
31800SOL    HW298356   3.053   4.535   6.239 -0.4760  0.0938  0.1403
31801SOL     OW98357   7.482   2.013   9.863 -0.7075  0.0066  0.1397
31801SOL    HW198358   7.558   2.072   9.858 -1.9045  2.0346  3.0333
31801SOL    HW298359   7.519   1.928   9.886  0.7579  0.6444  0.2780
31802SOL     OW98360   4.185   3.490  10.420  0.3596  0.4396 -0.2874
31802SOL    HW198361   4.178   3.441  10.338 -0.3258  0.2180 -0.1067
31802SOL    HW298362   4.250   3.442  10.471  1.6313  1.2111 -1.1192
31803SOL     OW98363   0.120   3.405  10.079 -0.0218  0.6896  0.0764
31803SOL    HW198364   0.034   3.437  10.053 -0.2609 -0.5967 -0.8097
31803SOL    HW298365   0.102   3.329  10.135  0.5306  0.8841  0.5272
31804SOL     OW98366   2.227   7.998   7.190 -0.4063  0.3878 -0.2194
31804SOL    HW198367   2.226   7.979   7.284  1.0556  0.8214 -0.0803
31804SOL    HW298368   2.193   7.919   7.148 -0.8491  0.1053  0.6684
31805SOL     OW98369   5.741   6.593   7.948 -0.5856  0.1292  0.2070
31805SOL    HW198370   5.706   6.575   8.035  1.0451 -1.3423  0.6312
31805SOL    HW298371   5.835   6.576   7.956 -0.1439  1.5437 -1.4527
31806SOL     OW98372   7.450   5.648   6.935 -0.4760  0.3887 -0.5134
31806SOL    HW198373   7.362   5.630   6.966 -0.7923  1.3674 -0.7972
31806SOL    HW298374   7.504   5.651   7.014 -1.0748  1.7743 -0.1137
31807SOL     OW98375   2.393   6.698   0.758  0.0262 -0.4899 -0.2701
31807SOL    HW198376   2.320   6.660   0.807 -0.8893  0.4902 -0.7998
31807SOL    HW298377   2.399   6.788   0.791  0.4564 -0.3218 -0.7941
31808SOL     OW98378   5.776   1.506   7.521  0.5460  0.0538 -0.3580
31808SOL    HW198379   5.724   1.550   7.453  0.2665  1.7402  0.8852
31808SOL    HW298380   5.864   1.501   7.483  0.1874  0.0738 -1.2239
31809SOL     OW98381   6.747   9.961   4.184  0.5584  0.6555 -0.0433
31809SOL    HW198382   6.776  10.052   4.175 -0.5462  0.9547 -0.8090
31809SOL    HW298383   6.819   9.909   4.148  0.6800  1.3063 -0.7692
31810SOL     OW98384   1.477  10.392   3.688  0.0836 -0.5189 -0.4006
31810SOL    HW198385   1.453  10.484   3.693 -0.0347 -0.4675 -1.6693
31810SOL    HW298386   1.428  10.350   3.758  1.7738  0.6955  1.6297
31811SOL     OW98387   0.998   9.853   8.316  0.0561 -0.0506  0.9915
31811SOL    HW198388   1.081   9.891   8.287 -0.4415  0.6458  0.4466
31811SOL    HW298389   0.931   9.914   8.284 -0.6843 -0.7503  1.1701
31812SOL     OW98390   8.933   4.312   8.737 -0.2238  0.2523 -0.5847
31812SOL    HW198391   8.855   4.354   8.772 -0.5838  0.4165 -1.5520
31812SOL    HW298392   8.967   4.260   8.809 -0.2957  1.4745  0.3548
31813SOL     OW98393   3.780   3.375   2.635  0.0405 -0.1741  0.1488
31813SOL    HW198394   3.790   3.361   2.729  2.1664 -3.0538 -0.3782
31813SOL    HW298395   3.844   3.443   2.614  0.7975 -0.7482  0.5566
31814SOL     OW98396   8.241   1.880   1.659 -0.0392 -0.2497 -0.4817
31814SOL    HW198397   8.282   1.874   1.573 -0.1896 -1.6737 -0.4786
31814SOL    HW298398   8.147   1.887   1.641 -0.0068  0.3770 -0.4377
31815SOL     OW98399  10.118   6.190   7.235 -0.3201 -0.1238  0.9381
31815SOL    HW198400  10.202   6.146   7.247 -1.1819 -2.0663  0.2518
31815SOL    HW298401  10.119   6.218   7.144 -0.9980 -1.5514  0.4610
31816SOL     OW98402   2.952   2.505   7.653  0.2627  0.1369  0.2684
31816SOL    HW198403   2.891   2.492   7.581  1.9938  0.8384 -1.4097
31816SOL    HW298404   2.992   2.591   7.636  0.9633  0.1769  1.8918
31817SOL     OW98405  10.148   4.247   5.709  0.7348  0.1592  0.1095
31817SOL    HW198406  10.217   4.230   5.773 -0.3653 -0.2767  1.2210
31817SOL    HW298407  10.066   4.242   5.760 -0.1948 -0.5690 -1.3842
31818SOL     OW98408  10.209   4.902   4.064  0.1962 -0.1135 -0.1682
31818SOL    HW198409  10.287   4.849   4.044 -0.3795 -0.8801 -0.4338
31818SOL    HW298410  10.216   4.977   4.005  0.8228 -0.0994 -0.0770
31819SOL     OW98411   6.921   8.961   3.175 -0.5178 -0.1700 -0.4235
31819SOL    HW198412   6.914   8.865   3.175 -1.3620 -0.1660  1.6805
31819SOL    HW298413   6.918   8.985   3.268 -0.2209  1.9002 -0.9071
31820SOL     OW98414   5.181   7.874   6.786  0.2204  0.5159  0.3879
31820SOL    HW198415   5.104   7.844   6.834  0.4137  0.3987  0.6289
31820SOL    HW298416   5.213   7.796   6.740 -0.3219  0.7680 -0.4305
31821SOL     OW98417   6.700   5.814   1.457  0.4695  0.2552  0.3639
31821SOL    HW198418   6.629   5.783   1.400 -0.1022 -0.6873  1.5610
31821SOL    HW298419   6.780   5.789   1.411  0.0213 -0.2628 -0.1566
31822SOL     OW98420   3.681   6.346   5.412  0.5931  0.2583  0.1238
31822SOL    HW198421   3.649   6.298   5.488  0.7406  1.3632  0.8950
31822SOL    HW298422   3.775   6.330   5.412  0.5691  0.1089  0.0531
31823SOL     OW98423   6.356   3.824  10.090  0.1651  0.5651  0.3221
31823SOL    HW198424   6.287   3.891  10.084 -0.1716  0.3386  1.4074
31823SOL    HW298425   6.347   3.773  10.010  0.5610  1.9409 -0.6291
31824SOL     OW98426   6.355   2.278  10.038  0.3552 -0.8026 -0.3340
31824SOL    HW198427   6.401   2.244  10.114 -0.5369 -0.0426  0.5721
31824SOL    HW298428   6.331   2.200   9.988  1.3750 -1.2814 -0.1010
31825SOL     OW98429   7.783   6.975   3.120  0.3364  0.2983 -0.1116
31825SOL    HW198430   7.860   7.010   3.166  0.5004 -1.5363  1.1164
31825SOL    HW298431   7.812   6.890   3.086 -1.4012 -0.9242  1.3099
31826SOL     OW98432   9.366   0.635   4.139 -0.3497 -0.1744  0.1272
31826SOL    HW198433   9.420   0.667   4.066 -1.6073 -1.8205 -1.6333
31826SOL    HW298434   9.428   0.623   4.211  1.5422 -1.2502 -1.5703
31827SOL     OW98435   7.698   9.059   1.775 -0.7593 -0.6692 -0.1054
31827SOL    HW198436   7.625   9.118   1.793  2.1657  2.3984  3.1514
31827SOL    HW298437   7.719   9.075   1.683 -1.2146  2.1384  0.1764
31828SOL     OW98438   5.244   7.072   6.839  0.0874  0.1748 -0.5721
31828SOL    HW198439   5.194   7.000   6.802 -1.3960  0.6065  0.4799
31828SOL    HW298440   5.191   7.150   6.821  1.9158  1.1290 -2.1947
31829SOL     OW98441   7.616   4.792   1.474 -0.4770  0.0942 -0.5764
31829SOL    HW198442   7.673   4.721   1.446 -0.8121  0.0380 -1.1315
31829SOL    HW298443   7.589   4.834   1.393 -1.9756 -0.4591 -0.3867
31830SOL     OW98444   2.414   2.692   4.554 -0.0706 -0.1768 -0.0271
31830SOL    HW198445   2.464   2.672   4.633  1.2334 -1.5233 -1.1291
31830SOL    HW298446   2.401   2.786   4.556  3.8513  0.5177 -0.3633
31831SOL     OW98447   4.911   5.180   8.566 -0.4073 -0.1642  0.5133
31831SOL    HW198448   4.824   5.177   8.525 -0.0258 -0.9969 -0.2565
31831SOL    HW298449   4.893   5.203   8.657 -1.4409 -0.3979  0.3843
31832SOL     OW98450   6.775   6.497   5.386 -0.0357  0.1677  0.5505
31832SOL    HW198451   6.851   6.444   5.410  0.2177  0.5764  0.6434
31832SOL    HW298452   6.701   6.437   5.395  0.0461  0.2995  2.3287
31833SOL     OW98453   3.115   0.835   3.736 -0.0126  0.0375  0.3531
31833SOL    HW198454   3.182   0.847   3.804 -0.4657  1.4348  0.5930
31833SOL    HW298455   3.156   0.870   3.656 -1.3406  3.6983  1.0543
31834SOL     OW98456   8.376   1.969   8.021  0.6710 -0.3999 -0.0192
31834SOL    HW198457   8.366   2.050   7.971 -0.2549 -0.3878  0.1631
31834SOL    HW298458   8.468   1.967   8.045  0.5250  1.0754  0.7651
31835SOL     OW98459   6.311   7.901   4.521 -0.0247 -0.0988 -0.4563
31835SOL    HW198460   6.316   7.840   4.595  0.4575 -1.7302 -1.7591
31835SOL    HW298461   6.217   7.910   4.504 -0.1742  0.7248  0.6464
31836SOL     OW98462   2.113   2.717   3.344  0.0557 -0.0840 -0.1501
31836SOL    HW198463   2.167   2.756   3.276 -0.0245  1.2945  0.5395
31836SOL    HW298464   2.036   2.683   3.297 -0.1265  1.0799 -0.7382
31837SOL     OW98465   3.179   4.268   7.080 -0.4077  0.0007  0.2015
31837SOL    HW198466   3.084   4.257   7.074 -0.5296  0.6627  0.8776
31837SOL    HW298467   3.204   4.218   7.158 -0.3351  0.6141  0.5770
31838SOL     OW98468   1.353   6.560   1.853  0.0557  0.4804 -0.6806
31838SOL    HW198469   1.348   6.508   1.773  2.1627  0.9911 -1.2011
31838SOL    HW298470   1.344   6.651   1.823  1.3418  0.7085 -0.4529
31839SOL     OW98471   2.256   3.972   2.386  0.4955 -0.4468  0.2103
31839SOL    HW198472   2.304   3.891   2.367 -0.1294 -0.7600 -0.0741
31839SOL    HW298473   2.165   3.944   2.395  0.3738  0.1290  0.8203
31840SOL     OW98474  10.274   8.887   2.350 -0.3983 -0.0526  0.4862
31840SOL    HW198475  10.195   8.921   2.308 -0.3580  0.3690  0.7530
31840SOL    HW298476  10.299   8.813   2.295 -1.2479 -0.4941  0.6701
31841SOL     OW98477   1.371   5.396   4.461  0.9116  0.5445 -0.1791
31841SOL    HW198478   1.341   5.368   4.375 -0.8521 -1.0384  0.8552
31841SOL    HW298479   1.359   5.491   4.461  1.6293  0.6710 -1.8897
31842SOL     OW98480   2.091   6.656   9.408  0.2876 -0.0713  0.4758
31842SOL    HW198481   2.121   6.687   9.493 -0.6670  0.3197  0.6783
31842SOL    HW298482   1.996   6.665   9.411  0.3418  1.8673 -1.3603
31843SOL     OW98483   7.452   9.921   7.260 -0.0337  0.1253 -0.6549
31843SOL    HW198484   7.386   9.854   7.242 -0.3358  0.1568  0.2553
31843SOL    HW298485   7.423   9.997   7.211 -0.3673 -0.0333 -0.7061
31844SOL     OW98486   0.209   0.285   2.205 -0.0055  0.2086 -0.0772
31844SOL    HW198487   0.164   0.345   2.146 -0.0475  0.1594 -0.0952
31844SOL    HW298488   0.140   0.234   2.246 -0.0112  0.6152  0.4261
31845SOL     OW98489   8.473   3.295   8.574 -0.2416 -0.8970  0.0892
31845SOL    HW198490   8.411   3.361   8.542  1.1025  1.2527  1.6426
31845SOL    HW298491   8.419   3.231   8.620 -1.3699  1.1865  1.8600
31846SOL     OW98492   8.648   2.627   4.146  0.4110  0.5251 -0.4282
31846SOL    HW198493   8.584   2.684   4.188  1.1894  1.5129 -0.5499
31846SOL    HW298494   8.651   2.657   4.055 -0.3604 -0.7992 -0.9267
31847SOL     OW98495   4.105  10.060   4.581 -0.5305 -0.7904 -0.3349
31847SOL    HW198496   4.055  10.085   4.504 -0.8936 -1.0834 -0.1962
31847SOL    HW298497   4.077   9.970   4.600 -0.6835 -0.6089  0.3219
31848SOL     OW98498   9.710   3.589   5.548  0.3004  0.2231  0.1552
31848SOL    HW198499   9.657   3.510   5.551 -0.4798  0.7333  2.9875
31848SOL    HW298500   9.742   3.593   5.458 -0.0971 -2.9694 -0.2682
31849SOL     OW98501   9.632   3.416   9.777 -0.2552 -0.1935  0.1730
31849SOL    HW198502   9.689   3.414   9.700 -1.1639  0.4158 -0.5458
31849SOL    HW298503   9.621   3.324   9.802  1.2094 -0.3055  0.4753
31850SOL     OW98504   7.486   2.961   4.491 -0.8446  0.1542 -0.1621
31850SOL    HW198505   7.567   2.976   4.441 -0.4901  1.1944  0.6899
31850SOL    HW298506   7.505   2.883   4.543 -0.5213  0.1772 -0.2414
31851SOL     OW98507   4.112   5.523   1.173  0.2125 -0.4729 -0.1264
31851SOL    HW198508   4.197   5.502   1.213 -0.7479  1.5907  3.4896
31851SOL    HW298509   4.119   5.616   1.150 -1.2645  0.0040  1.1243
31852SOL     OW98510   9.420   3.519   5.939 -0.5065 -0.2235 -0.3396
31852SOL    HW198511   9.459   3.594   5.893  0.1831 -0.7956 -0.7092
31852SOL    HW298512   9.386   3.556   6.020  0.8714  0.3115  0.0303
31853SOL     OW98513   9.947   5.526   8.549 -0.2955 -0.0397 -0.1433
31853SOL    HW198514   9.988   5.506   8.465  2.2174 -2.1568  1.4299
31853SOL    HW298515  10.006   5.589   8.590 -1.4377  0.8833  0.1150
31854SOL     OW98516   5.992   1.369   0.019 -0.0329 -0.4015 -0.1417
31854SOL    HW198517   5.947   1.285   0.022  0.7999 -0.8470  0.0953
31854SOL    HW298518   5.930   1.431   0.060 -0.0995 -1.1532  0.9448
31855SOL     OW98519   2.377  10.528   6.070 -0.4777  0.0696  0.0534
31855SOL    HW198520   2.369  10.435   6.090 -2.2850 -0.0557 -1.0201
31855SOL    HW298521   2.471  10.546   6.074 -0.1282 -1.7074  0.5984
31856SOL     OW98522   3.628   4.668   9.916  0.6891 -0.0534  0.0194
31856SOL    HW198523   3.715   4.707   9.914  1.1347 -1.0433 -0.7511
31856SOL    HW298524   3.644   4.576   9.938 -0.0181 -0.5687 -1.4732
31857SOL     OW98525   7.919   4.834   6.964 -0.4670 -0.3379 -0.3635
31857SOL    HW198526   7.876   4.914   6.935 -1.7625 -1.1115 -0.6733
31857SOL    HW298527   7.947   4.791   6.883 -0.0191 -0.3242 -0.2156
31858SOL     OW98528   0.853   0.311   4.058 -0.4004  0.0767 -0.1774
31858SOL    HW198529   0.931   0.360   4.086 -1.0728  0.8483  0.4010
31858SOL    HW298530   0.819   0.362   3.985  0.5408 -1.1555 -1.5207
31859SOL     OW98531   9.392   4.799   5.586 -0.0115 -0.1035  0.2351
31859SOL    HW198532   9.448   4.858   5.636  0.1059 -1.1528  1.4011
31859SOL    HW298533   9.378   4.844   5.503  1.2551  0.8971  0.5232
31860SOL     OW98534   5.183   4.940   9.146  0.1632 -0.0279  0.2569
31860SOL    HW198535   5.218   4.857   9.179 -0.0677 -0.1333  0.2365
31860SOL    HW298536   5.100   4.917   9.105  0.4470  0.1035 -0.4081
31861SOL     OW98537   0.910  10.285   4.021  0.1306  0.2967 -0.3803
31861SOL    HW198538   0.899  10.330   4.105  1.1834 -0.7927  0.3778
31861SOL    HW298539   1.002  10.298   3.999  0.5368 -1.6026 -0.0202
31862SOL     OW98540   1.805   8.240   7.813  0.3761  0.0536 -0.1818
31862SOL    HW198541   1.808   8.177   7.741 -0.8397  2.3510 -2.3920
31862SOL    HW298542   1.896   8.268   7.824  1.3185 -3.2725  2.1759
31863SOL     OW98543   9.815   0.794   0.887 -0.0009  0.0832 -0.4152
31863SOL    HW198544   9.759   0.721   0.914 -0.7339  1.9628  4.0962
31863SOL    HW298545   9.885   0.796   0.952  0.5050  2.8306 -0.9115
31864SOL     OW98546  10.229   1.255   3.833 -0.3923  0.2905 -0.0014
31864SOL    HW198547  10.292   1.250   3.762  2.3999  0.1649  2.2939
31864SOL    HW298548  10.168   1.183   3.817  1.3495 -1.0017 -1.1728
31865SOL     OW98549   0.693  10.186   1.841 -0.7605  0.5420  0.4835
31865SOL    HW198550   0.667  10.128   1.769  3.2101 -1.1856  0.1803
31865SOL    HW298551   0.691  10.274   1.804  1.5540 -0.3294 -2.0235
31866SOL     OW98552  10.025   0.880   4.255 -0.2702  0.3093  0.2136
31866SOL    HW198553  10.035   0.856   4.347 -0.0243  1.6559  0.5571
31866SOL    HW298554   9.937   0.917   4.249 -1.7511 -3.0199 -0.8791
31867SOL     OW98555   1.453   3.989   4.222  0.1005 -0.1250  0.0235
31867SOL    HW198556   1.486   4.074   4.194 -2.2298  1.6797  2.3217
31867SOL    HW298557   1.527   3.930   4.213  2.6917  2.7456  0.9870
31868SOL     OW98558   2.303   0.031   6.252  0.0157 -0.2196 -0.6050
31868SOL    HW198559   2.294   0.106   6.194  2.7687  0.1229 -0.7148
31868SOL    HW298560   2.338  -0.039   6.197 -0.1892 -0.8217  0.0142
31869SOL     OW98561   1.081   0.397   4.341 -0.0779  0.0007  0.5607
31869SOL    HW198562   1.122   0.418   4.425 -0.1645  0.0767  0.5841
31869SOL    HW298563   1.002   0.451   4.339  0.4136  0.7159  0.0038
31870SOL     OW98564   7.809   7.795   9.481  0.0437 -0.0292  0.4048
31870SOL    HW198565   7.748   7.854   9.524 -1.9781 -1.2739 -0.6012
31870SOL    HW298566   7.841   7.844   9.405 -1.5439 -0.1535 -0.3759
31871SOL     OW98567   9.173   4.957   9.704 -0.3336  0.5265  0.4950
31871SOL    HW198568   9.095   4.999   9.668 -0.7834 -1.3206 -0.8468
31871SOL    HW298569   9.143   4.914   9.784 -1.0894 -1.3507 -0.7408
31872SOL     OW98570   6.662   7.016   8.975 -0.5692  0.0379 -0.0657
31872SOL    HW198571   6.722   6.973   9.037  0.4636  2.1172  0.4656
31872SOL    HW298572   6.713   7.026   8.895 -0.9244 -0.0537 -0.3059
31873SOL     OW98573   2.931   5.978   1.087  0.1074 -1.1783  0.2579
31873SOL    HW198574   2.940   6.057   1.033 -0.8985 -1.8240 -0.9119
31873SOL    HW298575   2.853   5.993   1.140  2.7120  0.7702  3.9921
31874SOL     OW98576   1.688   4.953   0.355 -0.2507  0.0224  0.1087
31874SOL    HW198577   1.776   4.963   0.391 -0.9625 -0.1332  2.0264
31874SOL    HW298578   1.664   5.041   0.326 -0.0895  0.4214  1.1550
31875SOL     OW98579   3.155   0.631   4.956 -0.3808  0.8203  0.3702
31875SOL    HW198580   3.084   0.567   4.941  0.1696  0.4779 -0.8950
31875SOL    HW298581   3.110   0.715   4.960 -0.8161  0.6814 -1.0684
31876SOL     OW98582   4.860   9.597   0.688 -0.1832 -0.2241 -0.3521
31876SOL    HW198583   4.924   9.560   0.627  0.0727  1.3575 -1.0885
31876SOL    HW298584   4.780   9.548   0.671 -0.0202 -0.0450 -1.7353
31877SOL     OW98585   7.008   7.951   5.863  0.0444 -0.0286 -0.2622
31877SOL    HW198586   7.037   7.905   5.941 -1.0907 -1.5856 -0.7178
31877SOL    HW298587   7.041   7.898   5.790 -0.3959  0.4434 -0.8142
31878SOL     OW98588   9.738   1.297   1.238 -0.6298 -0.3756  0.4801
31878SOL    HW198589   9.799   1.353   1.190  0.7774 -0.3858  2.1698
31878SOL    HW298590   9.692   1.248   1.169 -0.2482  1.1562 -0.9243
31879SOL     OW98591   9.539   2.268   4.726  0.3034 -0.0345  0.3009
31879SOL    HW198592   9.576   2.324   4.794  0.7682  1.3767 -1.0757
31879SOL    HW298593   9.564   2.310   4.644 -0.3591 -1.6270 -0.7561
31880SOL     OW98594   8.620   8.227   5.799 -0.1777 -0.0030  0.3272
31880SOL    HW198595   8.555   8.293   5.778 -0.8204 -0.8807 -0.5510
31880SOL    HW298596   8.701   8.260   5.761 -0.6634 -0.0806 -0.8272
31881SOL     OW98597   8.050   2.609   9.504 -0.5188  0.0560  0.0632
31881SOL    HW198598   7.970   2.573   9.465 -0.9098 -0.1870  1.0482
31881SOL    HW298599   8.022   2.691   9.545  0.1535  0.9709 -1.2408
31882SOL     OW98600   7.617   5.744   3.643  0.6870 -0.2311  0.6227
31882SOL    HW198601   7.602   5.817   3.582 -0.2086 -0.2678  0.7841
31882SOL    HW298602   7.663   5.679   3.590  0.4385 -0.0269  0.1422
31883SOL     OW98603   3.708   4.440   8.073  0.4206  0.5228  0.0050
31883SOL    HW198604   3.702   4.383   8.150 -1.3438 -0.7781 -1.0190
31883SOL    HW298605   3.778   4.501   8.094  0.2857 -0.0633  2.4608
31884SOL     OW98606   7.846   8.357   7.311  0.1562 -0.2111  0.0449
31884SOL    HW198607   7.889   8.443   7.311 -0.1363 -0.0601 -0.7140
31884SOL    HW298608   7.906   8.300   7.359  0.5355  0.3237  0.2125
31885SOL     OW98609   6.458   6.042   5.443 -0.6212  0.1387  0.0261
31885SOL    HW198610   6.520   6.066   5.374 -1.5726  2.6141 -0.0647
31885SOL    HW298611   6.392   5.990   5.398 -0.0954 -0.1298 -0.4527
31886SOL     OW98612   6.071   0.487   4.588 -0.0014 -0.1851  0.1335
31886SOL    HW198613   6.114   0.536   4.518  0.2734 -0.3834  0.1614
31886SOL    HW298614   6.001   0.438   4.544 -1.3747  1.4802  0.3306
31887SOL     OW98615   0.859   3.961   5.623 -0.6029  0.3716  0.2892
31887SOL    HW198616   0.848   3.968   5.528 -0.6457 -2.1611  0.0523
31887SOL    HW298617   0.769   3.964   5.658 -0.6761 -0.0079  0.1337
31888SOL     OW98618   7.383   8.714   5.808  0.0961  0.2611  0.0009
31888SOL    HW198619   7.355   8.797   5.847 -0.1352  0.2461 -0.1293
31888SOL    HW298620   7.339   8.647   5.860 -1.3438  0.2713 -1.1180
31889SOL     OW98621   1.640   3.502   6.886  0.0016 -0.1536  0.1574
31889SOL    HW198622   1.634   3.433   6.952  0.3376  0.4038  0.7837
31889SOL    HW298623   1.551   3.535   6.878 -0.4807 -1.7119 -1.3152
31890SOL     OW98624   8.172   8.388   0.520 -0.0265 -0.2763 -0.1526
31890SOL    HW198625   8.237   8.378   0.590  0.1545 -0.9644 -0.4058
31890SOL    HW298626   8.218   8.437   0.452 -0.2707  0.5802  0.2899
31891SOL     OW98627   1.516  10.524   9.369 -0.1939 -0.4025  0.2708
31891SOL    HW198628   1.545  10.555   9.284 -0.4963 -0.7201  0.0486
31891SOL    HW298629   1.572  10.448   9.387 -0.5546 -0.7162  0.0677
31892SOL     OW98630   7.926   8.784   5.766 -0.4271 -0.6473  0.3951
31892SOL    HW198631   7.936   8.857   5.827 -2.4956 -0.0721  0.1181
31892SOL    HW298632   7.845   8.740   5.794 -1.4707 -0.3402 -1.9031
31893SOL     OW98633   5.282   2.295   0.684  0.1574  0.0876  0.1526
31893SOL    HW198634   5.228   2.259   0.754 -0.2862 -0.7659 -0.6124
31893SOL    HW298635   5.231   2.280   0.604  1.0831  0.1663 -0.4731
31894SOL     OW98636   2.740   9.621   0.727 -0.5029  0.5303 -0.0884
31894SOL    HW198637   2.728   9.690   0.662 -0.7334  0.9655  0.4140
31894SOL    HW298638   2.767   9.545   0.675  2.2162  1.6225 -0.4075
31895SOL     OW98639   9.284   1.069   1.385 -0.9144  0.2217  0.0934
31895SOL    HW198640   9.291   1.120   1.305  1.5999  0.3217  0.3209
31895SOL    HW298641   9.295   0.978   1.358 -0.6547  0.2040  0.2563
31896SOL     OW98642  10.135   4.881   0.344  0.4532  0.8019 -0.2664
31896SOL    HW198643  10.204   4.945   0.357  1.9428 -0.7595 -0.0648
31896SOL    HW298644  10.181   4.801   0.317 -1.1030 -0.7423  1.3108
31897SOL     OW98645   4.300   2.839   7.778 -0.1591  0.6858 -0.4760
31897SOL    HW198646   4.341   2.817   7.861  2.0898  0.4594 -1.5716
31897SOL    HW298647   4.213   2.871   7.802 -0.0832 -0.6027  1.8404
31898SOL     OW98648   1.484   6.007   2.917 -0.6766 -0.0963  0.1268
31898SOL    HW198649   1.557   5.960   2.957  1.3171  0.2655 -2.7775
31898SOL    HW298650   1.503   6.006   2.823 -2.6219  3.0572 -0.4437
31899SOL     OW98651   7.217   3.003   5.475  0.2590  0.2834  0.4697
31899SOL    HW198652   7.183   3.091   5.460  1.5132  0.7211  0.1166
31899SOL    HW298653   7.152   2.962   5.533  1.1411  2.4146  3.1724
31900SOL     OW98654   7.735   9.061   9.947  0.1286 -0.2502  0.3369
31900SOL    HW198655   7.683   9.046  10.027  0.9268 -0.8412  0.7531
31900SOL    HW298656   7.825   9.070   9.978  0.3316  0.4328 -0.4167
31901SOL     OW98657   9.320   5.097   1.859 -0.0667  0.2882  0.6764
31901SOL    HW198658   9.288   5.181   1.890 -0.3161  0.5219 -0.2062
31901SOL    HW298659   9.334   5.046   1.939  0.8034  1.4113  1.2633
31902SOL     OW98660   1.224   4.329   1.171  0.5021 -0.0981 -0.0222
31902SOL    HW198661   1.212   4.243   1.212  0.2980  0.0592  0.2552
31902SOL    HW298662   1.261   4.383   1.241 -2.5294  0.9626  0.8884
31903SOL     OW98663   5.368   8.094   9.385 -0.1999  0.2350 -0.0577
31903SOL    HW198664   5.329   8.012   9.355 -0.3847  0.4801 -0.4987
31903SOL    HW298665   5.311   8.123   9.456  1.0267 -1.0694  1.5423
31904SOL     OW98666   3.235   9.934   4.005 -0.2066 -0.0109 -0.5065
31904SOL    HW198667   3.292   9.861   3.982 -0.3907 -0.1462 -0.5340
31904SOL    HW298668   3.294  10.003   4.036 -0.1552 -1.1113  2.1142
31905SOL     OW98669   6.522  10.051   4.911  0.0273 -0.0145 -0.6869
31905SOL    HW198670   6.505  10.125   4.852 -2.8198 -0.9230 -1.1558
31905SOL    HW298671   6.488  10.081   4.996 -0.2925 -0.4323 -0.6660
31906SOL     OW98672   5.781   7.871   0.159 -0.6064  0.6819  0.2658
31906SOL    HW198673   5.740   7.891   0.075 -3.1028  1.3427  1.5424
31906SOL    HW298674   5.752   7.781   0.179  0.2806  0.3876  0.2686
31907SOL     OW98675   7.223   9.107   8.275  0.1340 -0.1372  0.0190
31907SOL    HW198676   7.260   9.105   8.363 -0.1472  0.8383  0.1729
31907SOL    HW298677   7.138   9.151   8.285 -1.0662 -2.2381 -0.3392
31908SOL     OW98678   3.775   6.575  10.626  0.0262 -0.0161  0.0783
31908SOL    HW198679   3.756   6.528  10.545 -1.7176 -0.4473  0.6689
31908SOL    HW298680   3.791   6.665  10.599 -3.3762  0.5140 -0.6280
31909SOL     OW98681   3.377   2.323   4.025  0.0938 -0.0349 -0.5571
31909SOL    HW198682   3.442   2.347   4.091 -0.9484  0.8140  0.1980
31909SOL    HW298683   3.300   2.299   4.076 -0.1055 -1.3715 -1.4228
31910SOL     OW98684   1.654   6.173   1.231  0.4126  0.2563 -0.0486
31910SOL    HW198685   1.673   6.192   1.323  1.5744 -0.5844 -0.0958
31910SOL    HW298686   1.595   6.243   1.204 -0.4340  0.1710  1.5024
31911SOL     OW98687   2.126   9.737   8.596 -0.8122 -0.0087  0.3106
31911SOL    HW198688   2.058   9.693   8.544 -1.4316 -0.8565  1.7956
31911SOL    HW298689   2.207   9.715   8.551 -1.1837 -2.0248  0.5224
31912SOL     OW98690   4.533   8.056   5.592 -0.1386 -0.0384  0.3379
31912SOL    HW198691   4.543   7.990   5.523  0.7581  0.0404  0.3792
31912SOL    HW298692   4.504   8.135   5.545  0.1575 -0.0734  0.0886
31913SOL     OW98693   7.425   2.816   2.384  0.1501  0.0642  0.4761
31913SOL    HW198694   7.440   2.803   2.290 -1.4271  0.9268  0.0766
31913SOL    HW298695   7.354   2.756   2.405  0.2712  0.1193  1.0357
31914SOL     OW98696   8.517   6.543   6.695  0.0915  0.2556 -0.3060
31914SOL    HW198697   8.510   6.637   6.676  1.6750  0.3288 -0.6622
31914SOL    HW298698   8.610   6.524   6.687 -0.1538 -1.2750  0.1845
31915SOL     OW98699   5.629   8.476   0.203 -0.0703 -0.1954  0.1907
31915SOL    HW198700   5.611   8.480   0.109  2.6236 -0.0929 -0.4040
31915SOL    HW298701   5.714   8.431   0.209  0.4590  0.9595  2.4658
31916SOL     OW98702   0.718   8.176  10.150 -0.0022 -0.4296 -0.6190
31916SOL    HW198703   0.696   8.245  10.212  0.8607 -0.0508 -0.7303
31916SOL    HW298704   0.638   8.165  10.098 -0.2421  0.2780 -0.4060
31917SOL     OW98705   1.646   7.997   2.408 -0.3149  0.5434 -0.0792
31917SOL    HW198706   1.740   7.980   2.400 -0.5281 -0.5275 -0.4148
31917SOL    HW298707   1.641   8.070   2.471  0.6879 -0.0651  0.7500
31918SOL     OW98708   8.554  10.518   2.992  0.1787  0.2719 -0.3468
31918SOL    HW198709   8.618  10.517   3.063 -0.1356 -0.4605 -0.0630
31918SOL    HW298710   8.605  10.538   2.914  0.5284  1.0771  0.0823
31919SOL     OW98711   4.377   1.550   1.571 -0.7099  0.4249  0.6479
31919SOL    HW198712   4.285   1.542   1.598 -0.1625 -2.2813  2.1176
31919SOL    HW298713   4.421   1.589   1.647 -0.3042 -0.3904  0.8406
31920SOL     OW98714   9.332   1.074   8.238 -0.5108  0.4716 -0.0357
31920SOL    HW198715   9.417   1.088   8.281 -0.5186 -0.0634  0.1552
31920SOL    HW298716   9.344   0.994   8.187 -0.5568  1.0066 -0.9134
31921SOL     OW98717   7.540   5.585   3.297 -0.9229 -0.4208 -0.5254
31921SOL    HW198718   7.598   5.558   3.225  1.0432  0.0879  0.7740
31921SOL    HW298719   7.588   5.562   3.376 -1.1578  2.6118  0.6434
31922SOL     OW98720   7.746   1.384   6.627 -0.2266 -0.1039  0.1295
31922SOL    HW198721   7.776   1.446   6.694  0.8286  1.0984 -1.3828
31922SOL    HW298722   7.682   1.433   6.576  0.7628 -0.1650 -1.2089
31923SOL     OW98723   0.628   4.912   1.912  0.0449  0.1267 -0.0078
31923SOL    HW198724   0.686   4.836   1.914  1.3264  1.0460 -0.7502
31923SOL    HW298725   0.554   4.886   1.966 -0.0212 -2.0011 -1.0092
31924SOL     OW98726   3.083   0.555   9.433 -0.1043 -0.4109  0.0846
31924SOL    HW198727   3.024   0.482   9.413  0.8950 -1.5343  1.0440
31924SOL    HW298728   3.049   0.628   9.382 -0.2589 -1.9235 -2.1227
31925SOL     OW98729   1.892   7.610   0.842 -0.1512  0.2211 -0.2638
31925SOL    HW198730   1.954   7.592   0.913 -1.4049 -0.3083  0.7414
31925SOL    HW298731   1.941   7.592   0.762  0.7931 -0.8410  0.5163
31926SOL     OW98732   7.861   8.840   4.173  0.2286 -0.3953 -0.0576
31926SOL    HW198733   7.944   8.795   4.185  1.2039  1.3862  0.2727
31926SOL    HW298734   7.818   8.834   4.258  1.5812  1.5437  0.8464
31927SOL     OW98735  10.510   8.092   7.282 -0.3286 -0.1674  0.1492
31927SOL    HW198736  10.465   8.164   7.239 -0.8603 -0.7889 -0.3503
31927SOL    HW298737  10.600   8.124   7.295 -0.2984  0.2324 -0.9440
31928SOL     OW98738   2.213   8.702   8.713 -0.3991  0.4121 -0.0199
31928SOL    HW198739   2.183   8.688   8.803  1.0683 -1.9325  0.1968
31928SOL    HW298740   2.297   8.747   8.721 -1.0363  1.7048 -0.3370
31929SOL     OW98741   3.580   1.813   2.527 -0.1647 -0.1010  0.2844
31929SOL    HW198742   3.537   1.828   2.611  0.0834 -1.1527  0.6100
31929SOL    HW298743   3.523   1.854   2.463 -1.4146 -1.0452  0.7624
31930SOL     OW98744   3.430   2.674   7.421  0.3581  0.4881 -0.1031
31930SOL    HW198745   3.511   2.623   7.412  0.0998  0.1495 -0.5292
31930SOL    HW298746   3.450   2.739   7.489  0.1755 -1.2212  1.6755
31931SOL     OW98747   7.065   0.111   6.306 -0.1076  0.1163  0.2395
31931SOL    HW198748   7.136   0.048   6.318 -0.5316 -0.2925  0.6158
31931SOL    HW298749   7.092   0.163   6.230  0.4499 -0.2285  0.1952
31932SOL     OW98750   9.821   7.171   5.784 -0.0746 -0.4320  0.1164
31932SOL    HW198751   9.822   7.150   5.690 -0.7434 -2.3963  0.4916
31932SOL    HW298752   9.849   7.090   5.827  1.3571  0.7792  1.6028
31933SOL     OW98753   7.125   4.493   8.285 -0.1227 -0.3372  0.1163
31933SOL    HW198754   7.062   4.420   8.290  0.0494 -0.6600 -1.7510
31933SOL    HW298755   7.105   4.546   8.362 -1.0002 -1.7639  0.9298
31934SOL     OW98756   2.897   6.283  10.240 -0.5285 -0.1933  0.1334
31934SOL    HW198757   2.991   6.266  10.251 -0.8259 -1.4445  0.9921
31934SOL    HW298758   2.858   6.259  10.324 -1.7316 -0.5879 -0.5093
31935SOL     OW98759  10.278   4.200   7.717 -0.2710 -0.1050  0.0720
31935SOL    HW198760  10.212   4.235   7.776 -1.6293 -0.1766 -1.3341
31935SOL    HW298761  10.344   4.162   7.774 -1.5624 -0.2424  1.5231
31936SOL     OW98762   1.930   2.696   1.120  0.0905  0.0047  0.2466
31936SOL    HW198763   1.897   2.682   1.031 -0.1363  0.3606  0.2696
31936SOL    HW298764   2.025   2.691   1.111  0.0366 -1.4569  0.2564
31937SOL     OW98765   5.846   1.931   9.591  0.1250  0.1302 -0.4879
31937SOL    HW198766   5.822   1.839   9.598 -0.1419  0.1428 -1.1470
31937SOL    HW298767   5.767   1.979   9.618 -0.0612  0.1653 -1.0802
31938SOL     OW98768   4.932   7.820   0.353 -0.1163 -0.1241  0.5021
31938SOL    HW198769   4.849   7.858   0.382 -0.0895  0.3799 -0.0682
31938SOL    HW298770   4.998   7.855   0.414 -0.2018  0.1260  0.4499
31939SOL     OW98771   1.946   3.467   7.253 -0.1960  0.3892  0.3719
31939SOL    HW198772   1.972   3.432   7.168 -1.7884 -1.2555  0.4884
31939SOL    HW298773   2.013   3.434   7.313  0.4338  0.7967 -0.0897
31940SOL     OW98774   9.444   5.733   7.807  0.1350 -0.7759  0.4282
31940SOL    HW198775   9.491   5.784   7.872  0.0852  1.1357 -0.9458
31940SOL    HW298776   9.497   5.740   7.728 -1.9817  0.8449 -0.9829
31941SOL     OW98777   3.685   8.368   8.792 -0.5832 -0.1807  0.2157
31941SOL    HW198778   3.667   8.274   8.802 -0.3090 -0.1169  1.5050
31941SOL    HW298779   3.766   8.382   8.840 -0.8822  0.8020  0.4553
31942SOL     OW98780   1.920   0.291   9.063 -0.1612  0.7296  0.4145
31942SOL    HW198781   1.867   0.371   9.065 -0.5905  0.5420 -1.5194
31942SOL    HW298782   2.006   0.319   9.097  0.1759  2.4312 -1.6016
31943SOL     OW98783   3.480   2.292   8.270  0.2221  0.5040 -0.7655
31943SOL    HW198784   3.573   2.310   8.281  0.1171  0.5829  0.0892
31943SOL    HW298785   3.436   2.363   8.317 -0.2499  0.0939 -0.5767
31944SOL     OW98786   0.674   0.602  10.273  0.1810  0.4435 -0.8222
31944SOL    HW198787   0.624   0.571  10.198 -0.5370  1.4807 -0.7841
31944SOL    HW298788   0.683   0.525  10.330  2.4506 -0.9285 -2.8215
31945SOL     OW98789   4.486   3.004   7.572  0.0922  0.2897 -0.1978
31945SOL    HW198790   4.486   3.092   7.610 -1.9689  0.4213 -0.4100
31945SOL    HW298791   4.414   2.959   7.616  0.3564 -0.9032 -0.9609
31946SOL     OW98792  10.101   4.996   6.564  0.3772  0.8354  0.6598
31946SOL    HW198793  10.087   4.947   6.482 -0.3850  1.3827  0.4464
31946SOL    HW298794  10.086   5.087   6.539 -0.6432  0.9406  1.5701
31947SOL     OW98795   4.102   4.610   3.127  0.4715 -0.2598  0.8557
31947SOL    HW198796   4.055   4.692   3.114  1.1872  0.0168 -0.0476
31947SOL    HW298797   4.080   4.557   3.051  1.6931 -0.0765  0.3533
31948SOL     OW98798   8.193   0.364   4.825 -0.5135 -0.3840 -0.0789
31948SOL    HW198799   8.218   0.447   4.784  0.4551 -0.3845  0.4758
31948SOL    HW298800   8.274   0.314   4.828 -0.6354 -0.5248  1.4801
31949SOL     OW98801   9.426   1.491  10.514 -0.6849  0.1981 -0.3926
31949SOL    HW198802   9.490   1.425  10.543 -0.6560  0.0735 -0.7374
31949SOL    HW298803   9.342   1.458  10.546 -0.4634  0.9216  1.0500
31950SOL     OW98804   1.957   3.433   4.653  0.7659 -0.1619 -0.2015
31950SOL    HW198805   1.968   3.415   4.560  2.3516 -0.2962 -0.0087
31950SOL    HW298806   1.875   3.388   4.677  1.0070 -1.1919 -1.2379
31951SOL     OW98807   5.621   0.835   6.058 -0.6938  0.6697 -0.0457
31951SOL    HW198808   5.661   0.906   6.008 -0.2127  0.7401  0.4240
31951SOL    HW298809   5.629   0.758   6.002  1.7133  0.2808  0.6930
31952SOL     OW98810  10.652   9.358   9.818  0.1116  0.3853 -0.4581
31952SOL    HW198811  10.679   9.266   9.815  1.9689  0.8699  0.1287
31952SOL    HW298812  10.665   9.389   9.728 -0.1516  0.1675 -0.5714
31953SOL     OW98813   9.131   0.962  10.665 -0.3117 -0.6288  0.4711
31953SOL    HW198814   9.151   0.878  10.707 -0.0575 -0.1221  1.4099
31953SOL    HW298815   9.199   0.973  10.599  0.7012 -0.3974  1.5045
31954SOL     OW98816   9.784   0.524   5.666  0.1877  0.6432 -0.1087
31954SOL    HW198817   9.810   0.544   5.756 -0.4448  2.1361 -0.2168
31954SOL    HW298818   9.857   0.555   5.613  0.3007  0.3236 -0.1380
31955SOL     OW98819   6.669   0.553   8.563 -0.1127  0.3305  0.7783
31955SOL    HW198820   6.601   0.598   8.513 -1.5037 -4.2845 -2.0625
31955SOL    HW298821   6.745   0.554   8.505 -0.1927 -0.9103  0.6307
31956SOL     OW98822   1.975   6.849   7.720 -0.0953 -0.0188 -0.1992
31956SOL    HW198823   2.044   6.784   7.736  0.2514  0.7394  1.6029
31956SOL    HW298824   1.978   6.906   7.796 -1.7994  0.8751 -0.7607
31957SOL     OW98825   3.919   9.060   2.294 -0.1400 -0.4200 -0.2048
31957SOL    HW198826   3.996   9.039   2.347 -1.0814 -0.9523  0.9824
31957SOL    HW298827   3.883   8.975   2.270  0.1894 -0.1853 -1.6169
31958SOL     OW98828   8.458   9.059   2.495  0.8313 -0.1319  0.2401
31958SOL    HW198829   8.528   9.088   2.554  0.3608 -0.5101  1.0010
31958SOL    HW298830   8.440   9.135   2.440  1.2970  0.2194  0.5635
31959SOL     OW98831   5.143   2.711   3.272  0.2358  0.3541 -0.0243
31959SOL    HW198832   5.070   2.717   3.334  0.2505 -1.5669  0.2238
31959SOL    HW298833   5.221   2.720   3.327  0.2435  1.8176 -0.2176
31960SOL     OW98834   6.926   3.020   0.805 -0.0811  0.1822 -0.6253
31960SOL    HW198835   6.919   3.111   0.833 -0.1323 -0.5006  1.8170
31960SOL    HW298836   6.837   2.996   0.779  0.2263  1.2274 -2.8053
31961SOL     OW98837   2.015   5.798   1.886  0.2257  0.3554 -0.5471
31961SOL    HW198838   2.108   5.778   1.872  0.3973  1.3383 -0.8981
31961SOL    HW298839   1.971   5.714   1.878  0.6931  0.3048 -3.8366
31962SOL     OW98840   3.268   8.553   7.931 -0.9652  0.0919 -0.0398
31962SOL    HW198841   3.196   8.590   7.982  0.1551  1.1465  0.8417
31962SOL    HW298842   3.270   8.461   7.955 -1.6546  0.1799  0.3728
31963SOL     OW98843   0.440   6.253   0.845 -0.0339  0.0310 -0.8107
31963SOL    HW198844   0.494   6.183   0.882  0.5763  0.3296 -1.1294
31963SOL    HW298845   0.502   6.311   0.800 -0.3338  1.6054  0.7063
31964SOL     OW98846   4.390   1.887   2.968 -0.4242  0.0040  0.1107
31964SOL    HW198847   4.314   1.846   2.926  0.3978 -1.2847 -0.1868
31964SOL    HW298848   4.465   1.848   2.924  0.4250  1.0400  0.6007
31965SOL     OW98849   3.882   4.705  10.270  0.2344  0.5908 -0.1920
31965SOL    HW198850   3.933   4.784  10.251 -0.2729  0.8233 -0.6053
31965SOL    HW298851   3.944   4.646  10.312  1.0413  0.5871 -1.3433
31966SOL     OW98852   1.076   2.434   7.902  0.2281  0.3061  0.1489
31966SOL    HW198853   1.025   2.352   7.897  0.3829  0.2124  0.1059
31966SOL    HW298854   1.014   2.498   7.937 -0.5085  0.6706 -1.7294
31967SOL     OW98855   4.044   4.560   9.715 -0.3124  0.6138 -0.3393
31967SOL    HW198856   4.014   4.510   9.792 -0.4182 -0.6205 -1.1488
31967SOL    HW298857   3.966   4.607   9.686 -1.3064 -1.7843 -1.8236
31968SOL     OW98858   3.542   6.325   1.497  0.1479 -0.0148  0.0549
31968SOL    HW198859   3.546   6.229   1.503 -0.3021 -0.0139  0.3514
31968SOL    HW298860   3.489   6.352   1.571  0.8099  0.5193  0.3495
31969SOL     OW98861   4.312  10.095   9.240 -0.1407  0.4502 -0.8551
31969SOL    HW198862   4.289  10.141   9.321  0.1816  0.0794 -0.5510
31969SOL    HW298863   4.309  10.163   9.172  0.5375  0.9659 -0.3800
31970SOL     OW98864   4.755   0.894   7.431  1.2725 -0.1475  0.7677
31970SOL    HW198865   4.838   0.919   7.390  0.3880  2.0849  0.1766
31970SOL    HW298866   4.718   0.827   7.374  2.0543 -0.2061  0.3201
31971SOL     OW98867   8.654   5.386   0.190 -1.2138  0.1892 -0.3605
31971SOL    HW198868   8.674   5.372   0.098 -0.8525 -3.5699  0.1396
31971SOL    HW298869   8.740   5.397   0.232 -1.2076 -0.4704 -0.1904
31972SOL     OW98870   2.937   7.508   2.837  0.0178  0.1169  0.3839
31972SOL    HW198871   2.878   7.563   2.889 -0.2641 -0.5383  0.7764
31972SOL    HW298872   3.014   7.497   2.893  0.6815  1.2563 -0.2696
31973SOL     OW98873   5.726  10.647   9.031 -0.3273 -0.1684  0.0716
31973SOL    HW198874   5.634  10.622   9.043 -0.4970 -0.0266 -0.8981
31973SOL    HW298875   5.754  10.601   8.953  0.1061  0.6532 -0.2729
31974SOL     OW98876   0.845   2.904   2.156 -0.0548  0.1898  0.8597
31974SOL    HW198877   0.763   2.859   2.138 -1.3291  2.9930 -1.1765
31974SOL    HW298878   0.886   2.913   2.070  0.2777  2.5002  1.2014
31975SOL     OW98879   7.975   8.934   9.576  0.4016 -0.2622 -0.2469
31975SOL    HW198880   7.962   9.000   9.509  1.4975  3.8866  3.1514
31975SOL    HW298881   8.068   8.909   9.568 -0.0219 -1.5301 -1.5529
31976SOL     OW98882   8.053   3.383   8.004  0.0333 -0.1949 -0.3517
31976SOL    HW198883   8.142   3.387   8.037  0.6498 -0.0882 -1.9327
31976SOL    HW298884   8.006   3.327   8.066  0.4512  1.9230  2.0617
31977SOL     OW98885   5.279   3.623   2.261  0.5184 -0.2780 -0.3413
31977SOL    HW198886   5.362   3.627   2.213  1.0096  0.0952  0.5373
31977SOL    HW298887   5.288   3.688   2.330 -0.7878  0.2770 -0.6635
31978SOL     OW98888   8.517   9.533   2.039 -0.1308 -0.8763 -0.0197
31978SOL    HW198889   8.524   9.589   1.961 -0.9491 -2.4385 -1.2713
31978SOL    HW298890   8.485   9.450   2.006  1.3869 -2.2409  1.7263
31979SOL     OW98891   4.426   3.878   7.899  0.1968 -0.0058 -0.1176
31979SOL    HW198892   4.345   3.922   7.924 -0.1520 -0.9180  0.4081
31979SOL    HW298893   4.420   3.791   7.939 -0.0972 -1.3624 -2.8735
31980SOL     OW98894   2.898   5.332   1.098 -0.6124 -0.0015 -0.3080
31980SOL    HW198895   2.904   5.238   1.116  1.7254  0.2449  0.5509
31980SOL    HW298896   2.825   5.362   1.151 -0.2727 -1.0583  0.8215
31981SOL     OW98897   6.672   8.821   5.093 -0.1073  0.0823 -0.3318
31981SOL    HW198898   6.643   8.812   5.183 -0.5675 -1.3291 -0.6046
31981SOL    HW298899   6.758   8.863   5.100 -0.1020 -0.0762  0.7546
31982SOL     OW98900   6.650   0.816   4.727  0.2882 -0.2570  0.0572
31982SOL    HW198901   6.585   0.747   4.721  0.0610 -0.0740  0.3715
31982SOL    HW298902   6.621   0.882   4.664 -0.0012 -0.0372  0.4198
31983SOL     OW98903   2.008   5.845   8.359  0.0490 -0.7714  0.1773
31983SOL    HW198904   1.928   5.795   8.342 -1.1740  1.5489 -1.5611
31983SOL    HW298905   1.988   5.897   8.437 -1.5891  2.2101 -2.0013
31984SOL     OW98906   8.384   0.685   9.745 -0.4271 -0.1068 -0.3297
31984SOL    HW198907   8.411   0.761   9.694 -3.8334  1.2057 -0.4051
31984SOL    HW298908   8.425   0.610   9.701  1.3294  1.4507 -1.4910
31985SOL     OW98909   5.837  10.503   5.476 -0.1111  0.2600  0.0115
31985SOL    HW198910   5.877  10.570   5.421  0.6670  0.0429  0.3059
31985SOL    HW298911   5.744  10.505   5.453  0.0844  0.6977 -0.7493
31986SOL     OW98912   3.323   2.003   1.572 -0.1669  0.1821 -0.1306
31986SOL    HW198913   3.249   2.047   1.530  0.4131  1.7079  0.3849
31986SOL    HW298914   3.310   2.018   1.665  0.6236  0.1973 -0.0214
31987SOL     OW98915   1.592   4.149   2.058  0.1250 -0.1894  0.1495
31987SOL    HW198916   1.547   4.124   1.977 -0.8199 -0.1229  0.6341
31987SOL    HW298917   1.547   4.099   2.126  1.0247 -0.3753  0.6122
31988SOL     OW98918   9.686   8.311   2.503 -0.2573  0.2774 -0.0864
31988SOL    HW198919   9.749   8.367   2.549 -1.5192  0.7122  1.1912
31988SOL    HW298920   9.650   8.254   2.572 -0.5654 -0.6124 -0.9658
31989SOL     OW98921   8.621   0.225   3.991  0.4098  0.2364 -0.4062
31989SOL    HW198922   8.627   0.278   3.911 -0.6578 -0.9549 -1.3092
31989SOL    HW298923   8.638   0.288   4.062  0.1486  1.5831 -1.4846
31990SOL     OW98924   9.659   8.473   7.249  0.9098  0.3530 -0.1881
31990SOL    HW198925   9.582   8.502   7.200  1.0928 -0.7613 -1.2026
31990SOL    HW298926   9.732   8.522   7.210  1.1026 -0.7795 -1.3165
31991SOL     OW98927   8.251   1.440   4.748 -0.2904  0.0589  0.0558
31991SOL    HW198928   8.276   1.414   4.836  0.0491 -0.9646 -0.3332
31991SOL    HW298929   8.164   1.403   4.735 -0.2506  0.0218 -0.1120
31992SOL     OW98930   8.598   9.426   7.982 -0.1180  0.3770  0.3433
31992SOL    HW198931   8.534   9.368   7.940 -0.3009  0.9630 -0.1947
31992SOL    HW298932   8.546   9.482   8.039 -0.1824  1.3738 -0.6780
31993SOL     OW98933   1.367   3.548   2.741 -0.4558  0.1341  0.0379
31993SOL    HW198934   1.352   3.567   2.649  2.7638  1.6267 -0.3221
31993SOL    HW298935   1.280   3.529   2.776 -1.9263  0.5469 -3.0409
31994SOL     OW98936  10.640   7.428   3.967  0.3624  0.1220  0.0190
31994SOL    HW198937  10.638   7.332   3.960 -2.8035  0.0643  0.1072
31994SOL    HW298938  10.708   7.446   4.031  1.0927 -2.0682 -0.0478
31995SOL     OW98939   1.695   5.085   2.971 -0.0672 -0.2903  0.2991
31995SOL    HW198940   1.651   5.156   3.017 -0.4920 -0.6649  0.4756
31995SOL    HW298941   1.665   5.005   3.014  1.0158 -0.5424  0.6140
31996SOL     OW98942   5.547   0.165   9.783  0.0268  0.0263  0.4057
31996SOL    HW198943   5.539   0.207   9.869 -1.6605  0.3178  0.1448
31996SOL    HW298944   5.622   0.208   9.742 -0.5809  1.5772  0.8320
31997SOL     OW98945   2.746   3.845   0.309 -0.2200  0.2836  0.3989
31997SOL    HW198946   2.689   3.902   0.361  1.2944  2.0060  0.2665
31997SOL    HW298947   2.691   3.770   0.287 -2.9151  2.4968 -0.9612
31998SOL     OW98948   9.848   8.312   8.178 -0.0496  0.2352 -0.1588
31998SOL    HW198949   9.924   8.349   8.133  0.1012 -0.5901 -0.5991
31998SOL    HW298950   9.871   8.221   8.195 -1.0174 -0.0976 -0.5147
31999SOL     OW98951   0.813   1.969   0.447  0.2635 -0.4045 -0.2030
31999SOL    HW198952   0.774   2.002   0.366 -0.0153  1.7862  0.7438
31999SOL    HW298953   0.900   2.009   0.450  0.7589 -1.4561  0.0111
32000SOL     OW98954   8.371   3.104   3.190 -0.0803  1.2493  0.4715
32000SOL    HW198955   8.282   3.076   3.208  0.1396  0.7316  0.7574
32000SOL    HW298956   8.370   3.129   3.097 -0.2403  0.1253  0.1569
32001SOL     OW98957   4.570   0.523   0.296  0.2095 -0.0893 -0.1245
32001SOL    HW198958   4.627   0.551   0.367  0.3300  0.0853 -0.2898
32001SOL    HW298959   4.623   0.462   0.245 -0.0223 -0.5539  0.1842
32002SOL     OW98960   0.679   5.871   3.680 -0.1440 -0.0050  0.4644
32002SOL    HW198961   0.726   5.909   3.606  0.5517 -2.4539 -0.4525
32002SOL    HW298962   0.606   5.823   3.641  0.5312 -1.7818  1.2277
32003SOL     OW98963   9.052   5.316   4.323  0.8349 -0.0774 -0.1026
32003SOL    HW198964   9.099   5.321   4.407 -0.4358  0.5049  0.6029
32003SOL    HW298965   9.038   5.408   4.298 -0.6511 -0.2117  0.1385
32004SOL     OW98966  10.353   7.109  10.113 -0.2550 -0.4633 -0.2055
32004SOL    HW198967  10.302   7.041  10.158  1.6207 -3.4035 -2.2320
32004SOL    HW298968  10.315   7.114  10.026  1.7506 -1.4816 -1.1984
32005SOL     OW98969   3.576  10.645   8.249  0.1331  0.3075 -0.4735
32005SOL    HW198970   3.590  10.599   8.166 -2.2761  0.5000 -1.0544
32005SOL    HW298971   3.602  10.582   8.316  1.5666 -0.0598 -1.3387
32006SOL     OW98972   3.346   9.087   6.913 -0.0374  0.7570 -0.2095
32006SOL    HW198973   3.305   9.010   6.874  0.9913 -0.1415  0.3996
32006SOL    HW298974   3.356   9.064   7.006  0.3361  1.5979 -0.0357
32007SOL     OW98975   3.308   7.516   2.660  0.6374  1.1578  0.6120
32007SOL    HW198976   3.345   7.429   2.646 -0.5969  0.7661 -0.4825
32007SOL    HW298977   3.377   7.576   2.632  0.1985  0.4450 -2.3882
32008SOL     OW98978   8.376   0.350   1.817 -0.1571  0.4988  0.2271
32008SOL    HW198979   8.304   0.413   1.810 -1.1541 -0.7469 -1.8895
32008SOL    HW298980   8.335   0.271   1.852 -0.0782 -0.4494 -1.6583
32009SOL     OW98981   5.219   0.776   2.452 -0.4343 -0.1291 -0.1783
32009SOL    HW198982   5.189   0.857   2.492  0.0564 -0.7713  1.5646
32009SOL    HW298983   5.199   0.708   2.516  0.8673 -1.1255 -0.7784
32010SOL     OW98984   4.120   2.534   0.930 -0.6701 -0.1145 -0.0581
32010SOL    HW198985   4.119   2.621   0.891 -0.8176 -0.4930 -0.9028
32010SOL    HW298986   4.028   2.516   0.951 -1.0795 -1.2342 -2.5393
32011SOL     OW98987   4.108   7.789   6.158  0.4382  0.7168 -0.5838
32011SOL    HW198988   4.190   7.768   6.202  1.2869  1.2782 -1.8260
32011SOL    HW298989   4.134   7.822   6.072 -1.1620 -0.5724 -1.6306
32012SOL     OW98990   2.342   6.062   2.904 -0.2433 -0.1859  0.1406
32012SOL    HW198991   2.433   6.034   2.911 -0.2578 -0.1392  0.5400
32012SOL    HW298992   2.298   6.019   2.978 -0.4791  0.0419  0.1343
32013SOL     OW98993   1.637   6.762   2.313  0.5830  0.4531 -0.0470
32013SOL    HW198994   1.550   6.724   2.323  0.5162  0.4016 -0.7908
32013SOL    HW298995   1.681   6.705   2.250  0.4783  1.5970 -1.1786
32014SOL     OW98996   8.522   2.280   8.054  0.1938 -0.1477 -0.5395
32014SOL    HW198997   8.497   2.236   8.136  1.1779  1.3479  0.6328
32014SOL    HW298998   8.612   2.309   8.070 -0.4794  2.5003 -1.1133
32015SOL     OW98999   7.848  10.322   1.705 -0.1543 -0.1316 -0.2127
32015SOL    HW199000   7.826  10.327   1.612 -0.7349  0.9035 -0.0389
32015SOL    HW299001   7.939  10.351   1.710 -0.6987  1.7660 -0.2795
32016SOL     OW99002   0.804  10.615   2.934  0.1382  0.0424  0.5240
32016SOL    HW199003   0.801  10.521   2.917  4.5621 -0.0313 -1.3024
32016SOL    HW299004   0.868  10.624   3.006  0.6760  1.6521 -0.1043
32017SOL     OW99005   4.512   6.807   5.302  0.0756 -0.4412 -0.0922
32017SOL    HW199006   4.443   6.771   5.358 -0.3984 -1.7484 -1.4501
32017SOL    HW299007   4.594   6.782   5.346 -0.2745 -0.1214  0.7783
32018SOL     OW99008   8.521   9.614   2.401 -0.4304  0.2284 -0.1537
32018SOL    HW199009   8.506   9.669   2.324  2.5360 -2.6030 -3.0881
32018SOL    HW299010   8.612   9.633   2.426  0.5343 -2.7034 -0.9747
32019SOL     OW99011  10.008   4.610   6.872  0.2587 -0.4383 -0.1677
32019SOL    HW199012  10.023   4.675   6.940  1.0453 -1.5367  0.7408
32019SOL    HW299013   9.966   4.659   6.801  2.4175  1.4442 -0.2455
32020SOL     OW99014  10.076   9.329   7.443  0.5047  0.2055  0.0006
32020SOL    HW199015  10.114   9.393   7.383 -0.1944 -1.0127 -1.8416
32020SOL    HW299016   9.983   9.351   7.445 -0.0807 -1.6514 -2.0249
32021SOL     OW99017  10.622   7.911   5.238 -0.3335  0.0405 -0.1625
32021SOL    HW199018  10.539   7.872   5.210 -0.8815  1.3806 -0.5263
32021SOL    HW299019  10.643   7.868   5.320 -1.5849 -0.0957  0.1063
32022SOL     OW99020   5.169   7.907   1.294 -0.4499  0.4815  0.2808
32022SOL    HW199021   5.146   7.933   1.205 -1.0696  0.5736  0.4653
32022SOL    HW299022   5.190   7.814   1.287 -1.5541  0.2250  0.2233
32023SOL     OW99023   7.311   6.152   1.230  0.2664  0.1657  0.6493
32023SOL    HW199024   7.359   6.083   1.184 -0.4451 -0.0886  0.2766
32023SOL    HW299025   7.242   6.178   1.168  1.5137  2.3780  0.0738
32024SOL     OW99026   3.080   7.460   8.866 -0.9254  0.0354  0.5332
32024SOL    HW199027   2.998   7.437   8.909 -0.8576  1.7607  1.6723
32024SOL    HW299028   3.093   7.552   8.886  0.5032  0.2139 -0.9660
32025SOL     OW99029   5.009   5.059   8.302 -0.2741  0.9832  0.3326
32025SOL    HW199030   4.975   5.132   8.354 -3.0048  0.5726 -0.7426
32025SOL    HW299031   5.046   5.100   8.224 -0.1476  1.3233  0.5689
32026SOL     OW99032   9.108   9.373   5.060 -0.2818 -0.1575  0.2241
32026SOL    HW199033   9.191   9.419   5.070  0.8598 -2.2831  1.2493
32026SOL    HW299034   9.095   9.366   4.965  1.6572 -1.2956 -0.0056
32027SOL     OW99035   4.058   4.019   2.384  0.0358 -0.3250  0.5227
32027SOL    HW199036   4.028   3.982   2.467 -0.3754  1.2224  1.0857
32027SOL    HW299037   4.152   4.003   2.383  0.1193  0.0682  1.5083
32028SOL     OW99038   9.729   3.768   6.633  0.4880 -0.1052 -0.0805
32028SOL    HW199039   9.807   3.817   6.660  1.3101 -0.2476 -2.0193
32028SOL    HW299040   9.757   3.677   6.628  0.0266 -0.2464 -0.2140
32029SOL     OW99041   3.950   4.443   4.197  0.0633  0.0658  0.0810
32029SOL    HW199042   3.880   4.499   4.229  2.0780  3.5043 -0.9798
32029SOL    HW299043   3.961   4.468   4.105  0.5960 -2.7216 -0.7103
32030SOL     OW99044   7.964   2.975   5.895  0.2877 -0.3527 -0.2486
32030SOL    HW199045   7.949   3.008   5.807  0.6211  1.1125  0.2162
32030SOL    HW299046   7.931   3.044   5.953  1.7387 -0.4479  0.7624
32031SOL     OW99047   5.308   4.945   1.452 -0.0417 -0.1375 -0.3097
32031SOL    HW199048   5.296   5.026   1.403 -2.8355 -0.4727 -0.3375
32031SOL    HW299049   5.250   4.953   1.527  1.8633 -0.9297  1.3410
32032SOL     OW99050  10.509   3.223   3.106 -0.3771  0.3491 -0.4041
32032SOL    HW199051  10.528   3.316   3.119  0.2220  0.0318  1.1593
32032SOL    HW299052  10.415   3.215   3.125 -0.4503  0.6339 -0.6305
32033SOL     OW99053   1.630   3.284   6.462  0.1922  0.0081  0.0163
32033SOL    HW199054   1.562   3.217   6.456 -0.0491  0.3870 -2.1135
32033SOL    HW299055   1.708   3.244   6.424  0.7656  0.0861  1.0806
32034SOL     OW99056   5.865   4.490   3.832  0.2116  0.1346  0.2779
32034SOL    HW199057   5.953   4.522   3.810 -0.0848  0.3062 -0.6892
32034SOL    HW299058   5.829   4.557   3.890  0.1572  0.8429 -0.5450
32035SOL     OW99059   0.484   7.764   4.612 -0.2264  0.1448 -0.3306
32035SOL    HW199060   0.452   7.676   4.594 -1.1720  0.4518 -0.1968
32035SOL    HW299061   0.472   7.811   4.529 -1.4795  0.6468  0.1096
32036SOL     OW99062   1.011   6.054   4.443  0.1501 -0.0208 -0.0105
32036SOL    HW199063   0.953   5.985   4.409  0.5361 -0.0920 -0.5452
32036SOL    HW299064   1.083   6.057   4.380  1.1459 -0.4919  1.0687
32037SOL     OW99065   6.743   0.834   3.296  0.0921 -0.0557  0.5342
32037SOL    HW199066   6.712   0.791   3.216 -0.3945  0.1105  0.6282
32037SOL    HW299067   6.838   0.835   3.287  0.0147  0.5800 -0.3723
32038SOL     OW99068   5.528   1.288   6.593 -0.0578 -0.2436 -0.4449
32038SOL    HW199069   5.458   1.224   6.590 -0.3059  0.0472 -1.0086
32038SOL    HW299070   5.553   1.301   6.501 -0.3208  0.8022 -0.3804
32039SOL     OW99071   0.010   8.023   6.689 -0.6635 -0.5033  0.2743
32039SOL    HW199072   0.090   7.997   6.642 -1.0171  0.9940 -1.2570
32039SOL    HW299073   0.000   7.958   6.758  1.3747 -1.2542 -0.0806
32040SOL     OW99074  10.540   6.860   7.761  0.0749  0.2601 -0.1988
32040SOL    HW199075  10.571   6.908   7.838  0.5183  0.8921 -0.7613
32040SOL    HW299076  10.595   6.782   7.759  0.5012  0.5551 -0.2306
32041SOL     OW99077   1.411   1.205   8.481  0.3657  0.6449  0.3158
32041SOL    HW199078   1.354   1.131   8.459  0.1253  0.6189  0.9809
32041SOL    HW299079   1.396   1.269   8.411  0.3797  0.1727 -0.1232
32042SOL     OW99080   4.934   0.734   3.669  0.2220  0.8403  0.6519
32042SOL    HW199081   5.020   0.694   3.658 -0.5941 -1.1705  1.1817
32042SOL    HW299082   4.909   0.762   3.580  0.6418 -0.2541  0.1773
32043SOL     OW99083   3.551   5.276   0.744 -0.3066  0.2182  0.4466
32043SOL    HW199084   3.537   5.182   0.754  2.4145 -0.3357 -0.2726
32043SOL    HW299085   3.642   5.285   0.717 -1.0754  2.9565 -1.7457
32044SOL     OW99086   0.124   3.486   1.155  0.3214  0.0393 -0.2291
32044SOL    HW199087   0.068   3.457   1.227  0.5865 -0.1223 -0.0863
32044SOL    HW299088   0.063   3.519   1.089  0.0963  0.4942  0.2011
32045SOL     OW99089   8.986   7.400   1.473 -0.1010 -0.1460 -0.0567
32045SOL    HW199090   9.020   7.474   1.423 -1.6741  0.8935  0.3547
32045SOL    HW299091   8.916   7.364   1.418 -0.5048 -0.2358  0.5054
32046SOL     OW99092   4.088   0.837   3.979 -0.2663 -0.5399  0.3941
32046SOL    HW199093   4.070   0.747   3.952 -1.3953 -0.1023 -0.3733
32046SOL    HW299094   4.123   0.880   3.901  0.0691 -0.2440  0.6979
32047SOL     OW99095  10.438   1.667   9.254  0.4825 -0.5042  0.0291
32047SOL    HW199096  10.518   1.618   9.275  1.1146 -0.6059 -2.2672
32047SOL    HW299097  10.467   1.731   9.188 -1.1863 -0.0041 -0.2562
32048SOL     OW99098   3.374   6.928   4.438  0.2763 -0.0763 -0.4032
32048SOL    HW199099   3.311   6.916   4.510 -1.0938 -0.6367 -1.6384
32048SOL    HW299100   3.344   6.868   4.370  2.0611 -0.2037 -1.1270
32049SOL     OW99101   7.777   8.959   4.807 -0.2369  0.0352  0.1485
32049SOL    HW199102   7.766   9.026   4.740 -3.0268 -1.5370 -1.1493
32049SOL    HW299103   7.810   8.883   4.760  0.8949 -0.1473  1.1976
32050SOL     OW99104   5.306   0.050   2.670  0.1631  0.1618  0.7588
32050SOL    HW199105   5.324   0.134   2.627 -1.3625 -0.1703 -0.6423
32050SOL    HW299106   5.211   0.040   2.664  0.2381 -1.3001  1.6276
32051SOL     OW99107   1.099   4.126  10.073 -0.7443  0.0553 -0.2994
32051SOL    HW199108   1.114   4.207  10.024 -1.4240 -0.3773 -1.2450
32051SOL    HW299109   1.187   4.097  10.097 -0.2908 -0.2680 -2.1938
32052SOL     OW99110   3.970   3.990   5.452 -0.2568 -0.4099 -0.5355
32052SOL    HW199111   3.996   3.901   5.430  0.1848 -0.1506 -1.0923
32052SOL    HW299112   4.026   4.014   5.526  0.8476  0.0100 -1.4841
32053SOL     OW99113   4.406   1.541   0.661  0.3412 -0.1424  0.3189
32053SOL    HW199114   4.473   1.552   0.593 -0.4363 -1.1010 -0.6288
32053SOL    HW299115   4.420   1.453   0.694 -0.5318 -0.3984  0.0182
32054SOL     OW99116   4.078   1.767   4.931  0.1877 -0.1560 -0.4691
32054SOL    HW199117   4.050   1.747   4.842  1.6135  0.0662 -0.9989
32054SOL    HW299118   4.153   1.826   4.920 -0.8783  1.5648  0.9194
32055SOL     OW99119   4.580   7.103   4.407  0.2398 -0.1715 -0.3087
32055SOL    HW199120   4.588   7.012   4.377  1.5551  0.0840 -0.8284
32055SOL    HW299121   4.599   7.155   4.329  0.8938  0.5322  0.2994
32056SOL     OW99122   3.999   5.763   5.749  0.0030 -0.2430  0.6570
32056SOL    HW199123   3.904   5.766   5.760  0.0152 -0.7092  0.9123
32056SOL    HW299124   4.019   5.670   5.744  0.3257 -0.1241 -0.4874
32057SOL     OW99125   7.536   2.377   0.342 -0.2810  0.1900 -0.1575
32057SOL    HW199126   7.498   2.452   0.296 -0.3669  1.5521  1.9957
32057SOL    HW299127   7.538   2.404   0.434  0.8976 -1.9648  0.5121
32058SOL     OW99128   1.237   1.553   1.496  0.0917 -0.3868  0.1790
32058SOL    HW199129   1.183   1.493   1.548 -0.6710  0.4870  0.4087
32058SOL    HW299130   1.227   1.638   1.538 -1.9951  0.7633 -2.3675
32059SOL     OW99131   2.673   1.243  10.256 -0.0623  0.7268 -0.0457
32059SOL    HW199132   2.726   1.185  10.202 -0.0901  1.6190 -1.0498
32059SOL    HW299133   2.617   1.290  10.195 -1.2436  0.6000  0.9026
32060SOL     OW99134   4.700   2.017   9.915  0.3966 -0.5894 -0.8533
32060SOL    HW199135   4.749   1.986   9.838  1.2897 -0.8913 -0.1814
32060SOL    HW299136   4.735   1.965   9.987 -1.1840 -1.0776 -0.3892
32061SOL     OW99137   1.293   2.130   9.960 -0.1924  0.6694 -0.7650
32061SOL    HW199138   1.197   2.136   9.957 -0.3350 -0.2504  0.7884
32061SOL    HW299139   1.317   2.188  10.032  0.2469 -0.4058 -0.0181
32062SOL     OW99140   1.929   3.294   9.465 -0.6373 -0.2155  0.4607
32062SOL    HW199141   1.843   3.326   9.491 -1.7995 -1.7418 -1.2323
32062SOL    HW299142   1.911   3.214   9.416  1.5332  0.6588 -2.0320
32063SOL     OW99143   5.478   0.456   1.544  0.2398 -0.0697 -0.2403
32063SOL    HW199144   5.499   0.475   1.635  0.4080  0.2658 -0.3454
32063SOL    HW299145   5.563   0.462   1.499  0.6995 -3.1340  0.0415
32064SOL     OW99146   8.158   8.152   1.917 -0.1128  0.1861  0.4396
32064SOL    HW199147   8.152   8.197   2.001 -1.6868 -0.6752  0.8363
32064SOL    HW299148   8.080   8.179   1.869 -0.1811 -0.7292 -0.0023
32065SOL     OW99149   5.283   4.058   3.184 -0.3141 -0.0175  0.5476
32065SOL    HW199150   5.226   3.983   3.201 -0.0184 -0.2918  0.3361
32065SOL    HW299151   5.223   4.131   3.168 -0.6527 -0.6523 -1.3126
32066SOL     OW99152   0.865   4.987   8.691 -0.0138  0.7665  0.2676
32066SOL    HW199153   0.846   4.953   8.603 -1.3330  2.1586 -0.0390
32066SOL    HW299154   0.949   4.947   8.715 -0.3588 -0.8307 -0.9808
32067SOL     OW99155   0.718   3.369   6.910  0.1988  0.5208 -0.0671
32067SOL    HW199156   0.791   3.315   6.879 -0.3406  0.6464 -1.6438
32067SOL    HW299157   0.673   3.397   6.830 -0.8945  1.4072  0.8235
32068SOL     OW99158   9.109   6.315   1.824  0.0459  0.0339  0.1468
32068SOL    HW199159   9.192   6.315   1.777  0.4602 -1.4744  0.8281
32068SOL    HW299160   9.057   6.247   1.780 -1.1129  1.4328 -0.7152
32069SOL     OW99161   1.328   5.393   6.377 -0.5484 -0.6865 -0.1677
32069SOL    HW199162   1.336   5.374   6.284 -1.0266 -1.5963 -0.0374
32069SOL    HW299163   1.239   5.427   6.387 -1.1755 -2.3532  0.2148
32070SOL     OW99164   7.560  10.201   0.251 -0.2084  0.4056  0.2287
32070SOL    HW199165   7.540  10.134   0.185 -0.4862 -0.3364  1.0396
32070SOL    HW299166   7.513  10.171   0.329 -0.8610  1.8956  0.4280
32071SOL     OW99167   1.344   2.301   8.710 -0.1152  0.3844  0.1107
32071SOL    HW199168   1.388   2.303   8.625 -1.4219  2.2023 -0.5720
32071SOL    HW299169   1.413   2.318   8.773  0.4109  1.9361 -0.8312
32072SOL     OW99170   8.158   4.834   6.448 -0.1639  0.6191  0.0695
32072SOL    HW199171   8.241   4.863   6.486 -0.1482  1.5830 -0.6642
32072SOL    HW299172   8.180   4.758   6.394  0.3404  1.2382 -0.5987
32073SOL     OW99173   2.316   2.791   7.498 -0.0291 -0.1424 -0.6800
32073SOL    HW199174   2.327   2.711   7.550  1.0423  0.4516  0.0438
32073SOL    HW299175   2.370   2.856   7.543 -0.6435  0.9107 -1.4328
32074SOL     OW99176   7.433   6.063  10.115  0.0500  0.3662  0.3318
32074SOL    HW199177   7.462   6.084  10.027  2.4581  0.2595  1.0365
32074SOL    HW299178   7.400   5.974  10.109  0.1239  0.3884 -0.4624
32075SOL     OW99179   5.281   0.471   3.308  0.1557 -0.5022 -0.5154
32075SOL    HW199180   5.237   0.386   3.315 -1.7829  0.4687 -0.1474
32075SOL    HW299181   5.319   0.472   3.220 -1.6395 -0.9487 -1.3458
32076SOL     OW99182   0.959   6.554   9.693  0.0826  0.2485  0.6642
32076SOL    HW199183   1.002   6.515   9.769 -1.0176 -0.7140  0.8138
32076SOL    HW299184   0.970   6.491   9.623 -2.1891 -0.6724  1.0541
32077SOL     OW99185   2.955   0.725   1.170  0.1489 -0.0343 -0.3427
32077SOL    HW199186   3.035   0.681   1.142  0.1031 -1.1221  1.1029
32077SOL    HW299187   2.983   0.781   1.243 -0.3885 -0.4330  0.1793
32078SOL     OW99188   0.956   8.982   0.864 -0.0384  0.0241  0.0354
32078SOL    HW199189   0.897   9.010   0.795  0.3646 -1.7269 -1.0930
32078SOL    HW299190   0.899   8.960   0.938 -0.8587 -1.5348 -0.9920
32079SOL     OW99191   6.461   0.160   1.600 -0.0030 -0.1784 -0.2476
32079SOL    HW199192   6.555   0.149   1.613 -0.0072 -0.9807 -0.7700
32079SOL    HW299193   6.444   0.116   1.516 -0.6399  1.0331 -0.7760
32080SOL     OW99194   1.349   0.235   9.509 -0.1272 -0.0985  0.3215
32080SOL    HW199195   1.331   0.142   9.496 -0.1931 -0.5608  3.0675
32080SOL    HW299196   1.287   0.280   9.452 -1.2273 -1.7321  0.1675
32081SOL     OW99197   0.583   4.905  10.087 -0.2218  0.0043  0.5208
32081SOL    HW199198   0.549   4.962  10.156 -1.2726 -0.2360  0.2211
32081SOL    HW299199   0.626   4.965  10.025  0.2889  0.2702  1.1273
32082SOL     OW99200   4.279   3.997   4.774  0.2258 -0.4096 -0.4570
32082SOL    HW199201   4.299   3.905   4.759 -0.1570 -0.3135 -1.6621
32082SOL    HW299202   4.279   4.007   4.869 -0.7351 -1.8754 -0.2796
32083SOL     OW99203   1.809   0.599   1.847 -0.3975  0.8261  0.7714
32083SOL    HW199204   1.896   0.561   1.831 -0.1381  1.1194  1.4458
32083SOL    HW299205   1.800   0.667   1.780 -1.7066 -1.6540 -1.7989
32084SOL     OW99206   2.478   7.275   3.042  0.2910 -0.4209  0.0395
32084SOL    HW199207   2.489   7.326   3.122  0.4122  3.1992 -2.1139
32084SOL    HW299208   2.387   7.245   3.045  0.1786  0.0134  1.2978
32085SOL     OW99209   7.825  10.100   3.816 -0.1813  0.2087  0.3578
32085SOL    HW199210   7.798  10.146   3.895 -0.0532  0.3782  0.3035
32085SOL    HW299211   7.748  10.051   3.789 -0.6954  1.3114 -0.2528
32086SOL     OW99212   1.255   7.620   4.956 -0.6352  0.1055 -0.3850
32086SOL    HW199213   1.313   7.695   4.944 -1.4688  0.7662 -0.3388
32086SOL    HW299214   1.309   7.555   5.000 -0.1879  1.0576  0.4991
32087SOL     OW99215   9.678   4.730   3.425 -0.1262  0.0486  0.2860
32087SOL    HW199216   9.722   4.657   3.382  2.0383  1.3425  0.1379
32087SOL    HW299217   9.679   4.800   3.360 -0.7425  0.7054  0.9625
32088SOL     OW99218   9.438   9.265   1.877  0.1757  0.7720  0.7229
32088SOL    HW199219   9.392   9.344   1.905  0.6927  1.2213  0.3376
32088SOL    HW299220   9.530   9.282   1.899  0.3179  0.3593  0.4623
32089SOL     OW99221   9.312   0.550   1.927  0.3892  0.1790  0.0430
32089SOL    HW199222   9.225   0.528   1.958  0.9748 -1.3416  0.7153
32089SOL    HW299223   9.310   0.531   1.833  0.1300 -0.3020  0.1448
32090SOL     OW99224   6.649   6.269   3.189 -0.1529  0.3250 -0.0632
32090SOL    HW199225   6.634   6.268   3.283 -1.0497  0.0955 -0.1912
32090SOL    HW299226   6.684   6.182   3.169 -1.6318 -0.2835 -0.1621
32091SOL     OW99227   8.365   6.341   7.589  0.3962  0.2622  0.3454
32091SOL    HW199228   8.398   6.392   7.663 -0.2976  0.6582  0.3884
32091SOL    HW299229   8.421   6.264   7.586  0.1989  0.0584  1.5134
32092SOL     OW99230   9.554  10.039   0.538  0.0193  0.6087 -0.2289
32092SOL    HW199231   9.558   9.944   0.526 -1.9584  0.3500  0.6762
32092SOL    HW299232   9.513  10.050   0.624 -0.3133  2.2764 -0.5669
32093SOL     OW99233   0.796  10.510   2.448  0.7637 -0.0765  0.1080
32093SOL    HW199234   0.787  10.574   2.378 -0.9137 -0.8154 -0.4218
32093SOL    HW299235   0.778  10.558   2.528 -1.9200 -0.0653 -0.3903
32094SOL     OW99236   8.252   6.344   8.647 -0.6051  0.0018  0.2813
32094SOL    HW199237   8.289   6.431   8.667 -0.7970 -0.1802  1.5316
32094SOL    HW299238   8.205   6.357   8.565  0.7427  0.6699 -0.4346
32095SOL     OW99239   5.352   7.270   2.122 -0.5891 -0.0637  0.3850
32095SOL    HW199240   5.448   7.270   2.121 -0.5780 -1.1801  0.3943
32095SOL    HW299241   5.327   7.266   2.030 -0.5925 -1.3847  0.4216
32096SOL     OW99242   6.394   9.102   4.967 -0.7454  0.4561 -0.1206
32096SOL    HW199243   6.446   9.150   5.032 -1.2841  1.8457 -0.6569
32096SOL    HW299244   6.450   9.030   4.938  1.7482  2.9411 -2.0550
32097SOL     OW99245   1.398   4.850   2.826 -0.2502  0.2650  0.1349
32097SOL    HW199246   1.351   4.875   2.746  0.4057  0.9289 -0.0561
32097SOL    HW299247   1.365   4.910   2.893 -3.8412 -2.8256  1.4673
32098SOL     OW99248   5.456   5.210   9.327  0.1341 -0.0269  0.4488
32098SOL    HW199249   5.484   5.295   9.360 -1.1005 -0.1116  1.8387
32098SOL    HW299250   5.362   5.207   9.344 -0.7364  0.0314 -3.5289
32099SOL     OW99251   8.676   3.455   2.229  0.4127  0.1289 -0.3888
32099SOL    HW199252   8.712   3.490   2.310 -1.0176 -0.2789  0.4614
32099SOL    HW299253   8.589   3.495   2.222 -0.0662 -0.9742 -0.9449
32100SOL     OW99254   9.372   1.940   4.975  0.1227 -0.1399  0.3676
32100SOL    HW199255   9.385   1.923   4.882 -0.4038 -1.6739  0.5537
32100SOL    HW299256   9.452   1.986   5.002  1.8622 -2.6435 -0.1301
32101SOL     OW99257   2.996   2.245   0.532 -0.1116  0.1098  0.2033
32101SOL    HW199258   2.938   2.315   0.503 -0.4865 -0.4968 -0.5165
32101SOL    HW299259   3.083   2.271   0.502 -0.5517 -0.7380 -1.9616
32102SOL     OW99260   0.011   2.815   0.642  0.3060  0.3285 -0.6619
32102SOL    HW199261   0.003   2.735   0.591 -0.3680  0.1217 -0.2373
32102SOL    HW299262   0.099   2.810   0.681  0.3033 -0.1521 -0.7151
32103SOL     OW99263   7.255   3.192   3.642  0.4008  0.1717 -0.6637
32103SOL    HW199264   7.251   3.156   3.731 -1.3318 -1.5811 -1.3581
32103SOL    HW299265   7.164   3.191   3.613  1.0098  0.0124 -2.6960
32104SOL     OW99266   1.832   7.856   7.139 -0.3612  0.2825 -0.3770
32104SOL    HW199267   1.816   7.778   7.086  1.9298 -0.7131  0.2746
32104SOL    HW299268   1.775   7.846   7.215  0.0414 -0.8848 -0.2098
32105SOL     OW99269  10.575   1.924   4.573  0.1424 -0.3441 -0.0391
32105SOL    HW199270  10.584   1.841   4.526  0.2100  0.2912 -1.1913
32105SOL    HW299271  10.661   1.965   4.566 -0.2573  0.4187 -0.6809
32106SOL     OW99272   4.791   4.648   2.467  0.4627  0.0278  0.2842
32106SOL    HW199273   4.732   4.705   2.418 -1.4419 -0.2184  2.1347
32106SOL    HW299274   4.864   4.705   2.491  1.3086  0.2194 -2.4772
32107SOL     OW99275   6.639   3.189   5.632  0.0970  0.3992 -0.6624
32107SOL    HW199276   6.551   3.174   5.665  0.1758  0.7348 -0.3031
32107SOL    HW299277   6.696   3.182   5.708  0.5551 -1.2422 -1.1011
32108SOL     OW99278   9.866   8.777   0.472  0.0350 -0.0474  0.1284
32108SOL    HW199279   9.908   8.841   0.415 -1.3956 -0.4422 -1.4353
32108SOL    HW299280   9.778   8.812   0.487 -0.6652 -1.4783 -0.5067
32109SOL     OW99281   5.154   1.278   0.195  0.4106 -0.7094  0.0444
32109SOL    HW199282   5.119   1.223   0.265  0.4972 -0.1332  0.5545
32109SOL    HW299283   5.161   1.365   0.235  0.1691 -0.3044 -0.7803
32110SOL     OW99284   7.844   1.787   1.597 -0.5895  0.0296  0.0841
32110SOL    HW199285   7.839   1.776   1.502  0.3888  0.6887 -0.0572
32110SOL    HW299286   7.882   1.705   1.629  0.3830  0.3374 -0.2487
32111SOL     OW99287   5.886   2.768  10.684  0.4252  0.0659 -0.6832
32111SOL    HW199288   5.893   2.676  10.710 -0.8302 -0.1595 -1.0731
32111SOL    HW299289   5.912   2.817  10.762  1.8721 -0.6061 -0.7189
32112SOL     OW99290   2.476   0.315   9.136  0.0129  0.2890 -0.4294
32112SOL    HW199291   2.493   0.324   9.229 -0.7062  0.6561 -0.3330
32112SOL    HW299292   2.561   0.335   9.095  0.4009 -0.1385  0.1443
32113SOL     OW99293   9.431   9.987   8.705 -0.3092 -0.3270  0.0828
32113SOL    HW199294   9.441   9.942   8.789  1.1779 -3.4169 -1.5732
32113SOL    HW299295   9.385   9.924   8.650  0.8316  0.6432 -2.0819
32114SOL     OW99296   8.327   0.775   4.082  0.0339 -0.3502  0.2819
32114SOL    HW199297   8.256   0.735   4.032  0.6022 -0.4159 -0.4722
32114SOL    HW299298   8.400   0.714   4.076 -0.0081 -0.5656  1.5474
32115SOL     OW99299   6.854   3.812   5.628  0.4845 -0.2284  0.4001
32115SOL    HW199300   6.839   3.721   5.602 -2.0735  0.4019 -0.6525
32115SOL    HW299301   6.800   3.824   5.707 -0.7806  0.8427 -0.5855
32116SOL     OW99302   2.457   4.246   0.879  0.2534  0.3062  0.6273
32116SOL    HW199303   2.436   4.153   0.873  1.0132  0.0943  1.1949
32116SOL    HW299304   2.460   4.264   0.973 -1.1150  1.1984  0.5347
32117SOL     OW99305   4.780   2.173   3.891 -0.1487  0.2808 -0.5314
32117SOL    HW199306   4.767   2.078   3.890  0.1310  0.2408 -0.4579
32117SOL    HW299307   4.701   2.207   3.932 -0.0952  0.0508 -0.2300
32118SOL     OW99308   6.220   9.187   3.933  0.2704  0.2681 -0.2847
32118SOL    HW199309   6.166   9.189   4.013  0.2990  1.1541 -0.2680
32118SOL    HW299310   6.197   9.269   3.888 -0.5657 -0.7354 -1.7406
32119SOL     OW99311   4.561   5.804   8.643  0.1476  0.5128 -0.2042
32119SOL    HW199312   4.539   5.788   8.551 -0.4376 -3.4624  0.4343
32119SOL    HW299313   4.656   5.794   8.647 -0.0234 -1.6608 -0.1427
32120SOL     OW99314   6.938   7.509   0.937  0.0912  0.0373 -0.1970
32120SOL    HW199315   6.959   7.485   0.847  0.1330  0.2428 -0.2431
32120SOL    HW299316   6.963   7.601   0.944 -2.0764  0.7115 -0.6588
32121SOL     OW99317   1.632   5.176   7.144  0.1221  0.5310 -0.2198
32121SOL    HW199318   1.696   5.248   7.139 -0.5565  1.2257  0.6563
32121SOL    HW299319   1.571   5.204   7.213 -0.3616 -0.7291 -0.1198
32122SOL     OW99320   4.653   2.206   6.808 -0.2833 -0.6602  0.2042
32122SOL    HW199321   4.579   2.251   6.766 -0.8818 -0.7237  1.1610
32122SOL    HW299322   4.727   2.266   6.796 -0.9833  0.4486  1.1210
32123SOL     OW99323   7.363  10.568   9.233 -0.5494 -0.1528  0.2163
32123SOL    HW199324   7.376  10.496   9.295  0.2898  0.8417  1.2365
32123SOL    HW299325   7.373  10.647   9.286  0.4638  0.7420 -1.2316
32124SOL     OW99326   0.952   8.023   2.587 -0.0452 -0.9367 -0.1572
32124SOL    HW199327   0.991   7.983   2.509 -1.1281 -2.2519 -0.0508
32124SOL    HW299328   0.882   7.964   2.612  1.3813 -1.5089  2.8843
32125SOL     OW99329   0.310   4.648   8.929 -0.5218 -0.6789 -0.3435
32125SOL    HW199330   0.308   4.556   8.904 -1.9672 -0.2068 -2.1424
32125SOL    HW299331   0.222   4.666   8.962 -0.1546  0.0075  0.3102
32126SOL     OW99332   2.389   4.967   8.955 -0.1124  0.2061 -0.0984
32126SOL    HW199333   2.391   5.057   8.922  0.5043  0.2017 -0.0869
32126SOL    HW299334   2.460   4.963   9.018  0.7806 -0.6719 -1.1113
32127SOL     OW99335   1.062   9.056   1.766 -0.3357  0.0117 -0.0019
32127SOL    HW199336   1.132   9.022   1.822 -0.9442 -2.6802 -0.7358
32127SOL    HW299337   0.983   9.050   1.820 -0.4823  0.1066 -0.2059
32128SOL     OW99338   7.164   3.193   9.094  0.0750 -0.4251  0.3399
32128SOL    HW199339   7.240   3.219   9.043 -1.1985 -0.5179 -1.7098
32128SOL    HW299340   7.108   3.148   9.032 -1.1484 -1.3970  2.0695
32129SOL     OW99341   0.580   8.259   2.666  0.1600  0.4674  0.2620
32129SOL    HW199342   0.552   8.175   2.702  1.2773  0.1101  0.3459
32129SOL    HW299343   0.504   8.292   2.619 -1.6229  1.2262  3.3766
32130SOL     OW99344  10.189   8.413   4.044  0.3147  0.1638  0.0234
32130SOL    HW199345  10.230   8.382   3.964  0.2633 -2.7198  0.9996
32130SOL    HW299346  10.096   8.419   4.023  0.0652 -2.1211  0.1991
32131SOL     OW99347   6.986   9.189   2.321  0.1253  0.5635 -0.2590
32131SOL    HW199348   7.070   9.231   2.338  1.4987 -1.4751 -1.5488
32131SOL    HW299349   6.965   9.145   2.403  0.0195  1.5532  0.2521
32132SOL     OW99350   1.135   4.923   7.570 -0.7906  0.1531  0.2002
32132SOL    HW199351   1.046   4.957   7.581 -0.7288  0.7885 -1.0020
32132SOL    HW299352   1.192   4.996   7.596 -0.5407 -0.8137  2.6719
32133SOL     OW99353   9.822   3.872   4.013 -0.3921 -0.5194 -0.3921
32133SOL    HW199354   9.786   3.865   4.101  0.3140  0.8726  0.0333
32133SOL    HW299355   9.763   3.933   3.968  0.4724  0.4988 -0.1861
32134SOL     OW99356   5.634   6.458   5.572 -0.1567 -0.0993  0.1826
32134SOL    HW199357   5.652   6.460   5.666 -0.5960 -2.9088  0.4168
32134SOL    HW299358   5.539   6.460   5.565 -0.1479 -0.6080 -0.1496
32135SOL     OW99359   1.931   9.926   8.862  0.4284 -0.6541 -0.4704
32135SOL    HW199360   1.945   9.940   8.769  2.2242  0.2656 -0.1091
32135SOL    HW299361   1.967  10.004   8.904 -2.5234  0.1247  0.9159
32136SOL     OW99362  10.538   4.838   3.079  0.1693 -0.0038  0.0809
32136SOL    HW199363  10.613   4.886   3.114  0.0097  0.4056 -0.1303
32136SOL    HW299364  10.576   4.780   3.012  0.1092  1.4909 -1.3172
32137SOL     OW99365   1.790  10.099   3.722 -0.2720 -0.0100 -0.1230
32137SOL    HW199366   1.850  10.023   3.724 -0.5633 -0.3553 -2.1834
32137SOL    HW299367   1.746  10.092   3.637 -1.2019  1.8156  0.1698
32138SOL     OW99368   5.026   0.316   8.774 -0.3390 -0.1583  0.5162
32138SOL    HW199369   5.107   0.331   8.822  0.2466 -1.2556 -0.0818
32138SOL    HW299370   5.004   0.224   8.790 -0.1363 -0.5621 -1.2277
32139SOL     OW99371   6.224   3.713   1.915  0.0095  0.2789  0.3018
32139SOL    HW199372   6.234   3.685   2.006  0.8974 -0.4507 -0.0020
32139SOL    HW299373   6.285   3.657   1.866 -0.3490  0.7600 -0.7214
32140SOL     OW99374   5.119   1.668   5.406  0.3750 -0.3563 -0.0004
32140SOL    HW199375   5.026   1.668   5.428  0.8461  1.4978  2.3822
32140SOL    HW299376   5.132   1.752   5.360  1.0653  0.0129  0.8403
32141SOL     OW99377   5.496   8.254   5.529  0.4735 -0.0159 -0.1072
32141SOL    HW199378   5.516   8.164   5.506  1.1491  0.1507 -0.1809
32141SOL    HW299379   5.532   8.265   5.617  1.5162  0.5348 -0.5798
32142SOL     OW99380   6.126   4.076   0.299 -0.3727 -0.1638 -0.1349
32142SOL    HW199381   6.068   4.152   0.290 -1.2234 -0.5441  1.7426
32142SOL    HW299382   6.079   4.016   0.357  1.2835 -1.1324  0.2716
32143SOL     OW99383   7.130   2.223   1.611 -0.2192 -0.4923 -0.1162
32143SOL    HW199384   7.150   2.305   1.656  1.2082  0.7144 -2.7178
32143SOL    HW299385   7.196   2.162   1.645  1.6351  0.7231 -1.3156
32144SOL     OW99386   7.502   6.866   2.463  0.3113  0.4622 -0.3125
32144SOL    HW199387   7.537   6.866   2.552  3.0383 -0.7662 -1.2675
32144SOL    HW299388   7.494   6.959   2.441  0.7477  0.7828  0.8041
32145SOL     OW99389  10.134   2.284   0.572  0.1827  0.1895 -0.0737
32145SOL    HW199390  10.220   2.241   0.579 -2.1954 -5.1199  2.2907
32145SOL    HW299391  10.132   2.346   0.645  2.1323  0.8804 -0.5480
32146SOL     OW99392   6.654   5.750   3.574  0.0182  0.5841  0.3860
32146SOL    HW199393   6.618   5.777   3.489  1.4905 -0.8624 -0.7683
32146SOL    HW299394   6.696   5.828   3.608  0.4049  0.9104 -0.7855
32147SOL     OW99395   5.687   4.021  10.011 -0.2111 -0.2230 -0.1017
32147SOL    HW199396   5.773   4.037  10.049 -1.0607  2.5570  0.9220
32147SOL    HW299397   5.648   3.954  10.067  0.0478  0.9632  1.5837
32148SOL     OW99398   4.584   5.159   9.848 -0.4301 -0.2416  0.2652
32148SOL    HW199399   4.568   5.098   9.776 -0.7332  0.4263 -0.2404
32148SOL    HW299400   4.521   5.135   9.915 -1.3599  0.2709 -0.4089
32149SOL     OW99401   4.208   4.274   5.506 -0.1441  0.2620  0.5106
32149SOL    HW199402   4.131   4.218   5.494 -0.0297  0.1777  0.1881
32149SOL    HW299403   4.216   4.282   5.601 -1.3278  1.3296  0.5543
32150SOL     OW99404  10.014   7.675  10.487 -0.2849 -0.2047  0.4553
32150SOL    HW199405   9.955   7.716  10.550 -0.5041  1.1768 -0.6121
32150SOL    HW299406  10.097   7.723  10.497 -0.1681 -0.3134  0.0475
32151SOL     OW99407   9.858   0.325   4.042 -0.3619  0.0400 -0.0628
32151SOL    HW199408   9.838   0.363   4.128  1.0831 -1.5268  1.0385
32151SOL    HW299409   9.934   0.373   4.011 -0.1908 -0.1452  0.0677
32152SOL     OW99410   5.034   8.023   5.113  0.6365 -0.5339  0.5337
32152SOL    HW199411   5.029   7.936   5.153  1.3090 -0.1588  1.4647
32152SOL    HW299412   5.127   8.047   5.121  0.3510  0.4926  0.7765
32153SOL     OW99413   3.680   4.082   4.952 -0.1612 -0.0653 -0.0625
32153SOL    HW199414   3.763   4.126   4.974  0.4202 -1.5545  0.8726
32153SOL    HW299415   3.638   4.067   5.037 -1.2706  0.3991 -0.5063
32154SOL     OW99416   3.593   1.623   6.182  0.2232 -0.1908 -0.1502
32154SOL    HW199417   3.586   1.535   6.147 -2.1627 -0.7589  1.5501
32154SOL    HW299418   3.642   1.613   6.264  0.1735  0.1104 -0.0808
32155SOL     OW99419   1.676  10.488   7.262  0.4416 -0.3585 -0.0005
32155SOL    HW199420   1.681  10.418   7.327  0.0858 -1.3326 -0.9843
32155SOL    HW299421   1.589  10.527   7.275  0.8100  0.1992  0.8348
32156SOL     OW99422   0.843   0.223   6.588  0.2297  0.0343  0.7558
32156SOL    HW199423   0.904   0.217   6.514  1.5974 -0.1396  1.8681
32156SOL    HW299424   0.848   0.314   6.615 -0.3760  0.1286  0.5545
32157SOL     OW99425   9.183   7.900   5.502  0.2608  0.1644  0.3462
32157SOL    HW199426   9.242   7.892   5.577  0.1527  1.5723  0.6141
32157SOL    HW299427   9.240   7.925   5.429  0.1275  0.6027  0.3897
32158SOL     OW99428   0.053   0.105   2.347  0.1759  0.1248 -0.1530
32158SOL    HW199429   0.065   0.010   2.352  2.0414  0.3117 -0.6201
32158SOL    HW299430  -0.027   0.122   2.397 -0.1250 -1.6688  0.0233
32159SOL     OW99431   7.594   6.936   3.596  0.4731  0.0816  0.1736
32159SOL    HW199432   7.586   6.977   3.509  0.2444 -1.7431 -0.7059
32159SOL    HW299433   7.688   6.931   3.611  0.5115  0.5220  0.0949
32160SOL     OW99434   7.313   8.091   6.096 -0.2248  0.0589  0.3010
32160SOL    HW199435   7.356   8.101   6.011 -0.1818 -2.6141 -0.0786
32160SOL    HW299436   7.340   8.169   6.145 -2.0688  2.9350 -2.7770
32161SOL     OW99437   3.716   9.602   1.358 -0.5101  0.0710  0.0757
32161SOL    HW199438   3.764   9.607   1.275 -0.8533 -0.6659 -0.1747
32161SOL    HW299439   3.639   9.548   1.338  0.1563 -1.3647  1.2272
32162SOL     OW99440   6.288   8.737   5.363  0.2966 -0.5074 -0.2009
32162SOL    HW199441   6.328   8.684   5.294 -0.9076 -0.4653 -0.9571
32162SOL    HW299442   6.211   8.688   5.389  0.6719 -0.4648  1.0624
32163SOL     OW99443   9.682   4.517   6.889  0.2020 -0.2934 -0.2526
32163SOL    HW199444   9.704   4.577   6.818 -0.3970 -1.5383 -1.5524
32163SOL    HW299445   9.600   4.551   6.925  0.8211  0.6818  0.2684
32164SOL     OW99446   2.013   9.106  10.628  0.2661  0.0407 -0.2321
32164SOL    HW199447   2.034   9.168  10.698  0.9302 -0.5843  0.1346
32164SOL    HW299448   1.965   9.036  10.672  0.9805 -0.5179 -0.3375
32165SOL     OW99449   2.078   7.275   0.638 -0.0703  1.0093 -0.7441
32165SOL    HW199450   2.104   7.185   0.616 -1.0393  0.1105  1.5203
32165SOL    HW299451   2.005   7.294   0.579 -1.2688 -0.5467  0.1554
32166SOL     OW99452   6.548  10.446   4.018 -0.2298  0.3719 -0.0933
32166SOL    HW199453   6.491  10.492   3.957  0.3564  1.4184  0.1149
32166SOL    HW299454   6.614  10.512   4.043  0.1883 -0.3647  0.8000
32167SOL     OW99455   1.431   6.203   7.672  0.3698 -0.2804  0.7784
32167SOL    HW199456   1.502   6.251   7.630 -0.9753  0.3519 -0.8762
32167SOL    HW299457   1.377   6.170   7.600 -2.2077  1.1159  1.9218
32168SOL     OW99458   3.966   4.411  10.637  0.1985 -0.2306  0.0225
32168SOL    HW199459   3.889   4.376  10.682 -0.1501  0.9811  0.4332
32168SOL    HW299460   3.982   4.495  10.681 -0.3755  1.2161 -2.3263
32169SOL     OW99461   6.143   5.427   8.062 -0.0971  0.0165 -0.2823
32169SOL    HW199462   6.177   5.337   8.058 -0.0942  0.0242 -0.4671
32169SOL    HW299463   6.200   5.476   8.003 -0.6837 -0.0574 -0.9336
32170SOL     OW99464   9.798   3.030   9.994  0.5058  0.2642 -0.2633
32170SOL    HW199465   9.715   3.073   9.977  0.6597 -0.3289 -2.9875
32170SOL    HW299466   9.791   2.998  10.085 -1.4730  1.7657  0.1645
32171SOL     OW99467   5.158   5.406   7.827 -0.1092 -0.5465  0.1842
32171SOL    HW199468   5.251   5.423   7.844 -0.3974 -0.4851  1.9050
32171SOL    HW299469   5.122   5.490   7.801  0.1084 -0.3388  0.5502
32172SOL     OW99470   3.322   3.668   0.712 -0.3349 -0.2632 -0.7331
32172SOL    HW199471   3.280   3.673   0.798 -1.7297  0.7747 -1.4385
32172SOL    HW299472   3.412   3.696   0.729 -0.4649 -0.4881  0.4573
32173SOL     OW99473   7.999   6.043   3.844 -0.6198 -0.5807  0.0419
32173SOL    HW199474   8.092   6.039   3.825 -0.3653  1.2057  0.6963
32173SOL    HW299475   7.983   5.970   3.903  0.2696 -1.1533 -0.4113
32174SOL     OW99476   4.046   5.177   0.168 -0.3356 -0.7351  0.2659
32174SOL    HW199477   4.036   5.241   0.098  0.8569  0.2516  0.9695
32174SOL    HW299478   4.094   5.105   0.127  0.4912 -0.0952  0.0922
32175SOL     OW99479   5.683   1.727   3.653  0.7329  0.5579  0.8342
32175SOL    HW199480   5.733   1.671   3.713 -0.1927  1.2499  2.3053
32175SOL    HW299481   5.664   1.671   3.578 -0.3531 -1.1897  2.3460
32176SOL     OW99482   2.571   9.790   1.592  0.1481  0.1289  0.5162
32176SOL    HW199483   2.487   9.790   1.637  0.1384  0.0810  0.4989
32176SOL    HW299484   2.630   9.745   1.653  0.2072  0.3345  0.6117
32177SOL     OW99485   5.889   8.576   8.749  0.5663 -0.4804 -0.0951
32177SOL    HW199486   5.892   8.481   8.764 -4.0898 -0.9191 -0.4678
32177SOL    HW299487   5.862   8.584   8.658 -1.9849  1.0273  0.7163
32178SOL     OW99488   0.085   6.428   9.112 -0.1877 -0.0577 -0.4534
32178SOL    HW199489   0.059   6.494   9.048 -0.6722 -0.2731 -0.4783
32178SOL    HW299490   0.003   6.393   9.147  0.0601  0.8749  1.1441
32179SOL     OW99491   4.603   3.410   9.406 -0.0216 -0.3400 -0.5343
32179SOL    HW199492   4.524   3.444   9.364  0.4342 -0.2872 -1.3690
32179SOL    HW299493   4.615   3.323   9.369 -0.6582 -1.0707  0.9054
32180SOL     OW99494  10.318   1.495   2.809 -0.3558 -0.3015 -0.3441
32180SOL    HW199495  10.397   1.518   2.858 -0.5873 -0.3377  0.0525
32180SOL    HW299496  10.344   1.501   2.717 -0.2589  1.0054 -0.2463
32181SOL     OW99497   9.791   1.894   3.130  0.2052  0.0314 -0.5463
32181SOL    HW199498   9.857   1.854   3.074  0.3537 -0.7494  0.1680
32181SOL    HW299499   9.782   1.983   3.096  0.0857 -0.4962 -1.9794
32182SOL     OW99500   8.377   0.658   6.579 -0.4456 -0.0902 -0.1510
32182SOL    HW199501   8.354   0.570   6.608 -1.2939  0.5489  1.1818
32182SOL    HW299502   8.295   0.696   6.548 -0.1431  0.3300 -0.4537
32183SOL     OW99503   2.470   3.967   0.882 -0.0425  0.1335 -0.8786
32183SOL    HW199504   2.467   3.890   0.938 -0.8236  0.0096 -1.0835
32183SOL    HW299505   2.389   3.963   0.831 -1.0078  2.0393  0.3760
32184SOL     OW99506   8.812   1.260   4.034 -0.4051 -0.0535 -0.1234
32184SOL    HW199507   8.807   1.243   4.128  0.4222  0.2740 -0.0187
32184SOL    HW299508   8.900   1.234   4.009 -0.6430 -0.2054 -0.8310
32185SOL     OW99509   9.813   2.631   3.489  0.0449  0.4592 -0.0899
32185SOL    HW199510   9.901   2.594   3.492  0.2530  0.7708 -1.5557
32185SOL    HW299511   9.756   2.556   3.471  0.0684  0.3617  0.2200
32186SOL     OW99512   1.241   3.035   0.842  0.9213 -0.3401  0.3498
32186SOL    HW199513   1.178   3.058   0.774  1.6633 -3.7753 -1.7694
32186SOL    HW299514   1.188   3.004   0.915  0.1300 -0.7424 -0.3824
32187SOL     OW99515   4.701   3.512   0.716  0.1659  0.1648  0.0028
32187SOL    HW199516   4.630   3.477   0.770 -0.5738  0.1576 -0.9279
32187SOL    HW299517   4.695   3.462   0.634  1.7499 -0.3588  0.1915
32188SOL     OW99518   5.043   6.463   5.382 -0.1577 -0.4681  0.0950
32188SOL    HW199519   5.086   6.383   5.413 -1.4356 -1.0298  0.5158
32188SOL    HW299520   5.014   6.508   5.461  0.6747  0.4958 -0.1389
32189SOL     OW99521   9.377   5.962   4.278  0.5687 -0.3745  0.5138
32189SOL    HW199522   9.469   5.984   4.264  0.4180  0.5894  0.9773
32189SOL    HW299523   9.370   5.947   4.372 -0.0951  1.3605  0.7798
32190SOL     OW99524   8.394  10.483  10.264 -0.2517  0.0382 -0.4547
32190SOL    HW199525   8.439  10.400  10.251 -0.7197 -0.0444 -1.6322
32190SOL    HW299526   8.330  10.464  10.333  0.0252 -0.4225 -0.3194
32191SOL     OW99527   6.025  10.598   9.770  0.1697 -0.0184  0.4155
32191SOL    HW199528   5.987  10.533   9.711  0.3044 -0.2322  0.5640
32191SOL    HW299529   6.118  10.599   9.749 -0.0495  1.1940 -0.6120
32192SOL     OW99530   5.903   8.729  10.132  0.1009  0.3727 -0.2024
32192SOL    HW199531   5.822   8.683  10.114 -0.2182  0.3385  1.1865
32192SOL    HW299532   5.881   8.822  10.123 -0.1166  0.3641  0.2073
32193SOL     OW99533   0.592   0.177   9.654  0.6030  0.5664 -0.0426
32193SOL    HW199534   0.635   0.244   9.601  1.1636 -0.6150 -1.1248
32193SOL    HW299535   0.664   0.131   9.697  0.5712 -1.6743 -2.1690
32194SOL     OW99536   2.956  10.550   6.368 -0.1337 -0.4005 -0.0777
32194SOL    HW199537   3.007  10.511   6.297 -0.8216  0.0947 -0.8452
32194SOL    HW299538   3.016  10.548   6.443  0.5766 -0.9772 -0.6414
32195SOL     OW99539   2.223   1.531   8.491  0.7881  0.3467 -0.3200
32195SOL    HW199540   2.316   1.510   8.499  0.3356 -2.2607 -1.0953
32195SOL    HW299541   2.185   1.501   8.573 -0.0638 -3.4588 -1.9153
32196SOL     OW99542   2.091   0.483   5.112 -0.0402 -0.1875  0.2286
32196SOL    HW199543   2.069   0.562   5.064  2.2596 -0.5045 -1.5483
32196SOL    HW299544   2.157   0.440   5.058 -0.2263 -2.6531  1.7897
32197SOL     OW99545   0.917  10.422   7.203 -0.7037 -0.1969  0.2008
32197SOL    HW199546   1.001  10.400   7.243 -0.4143 -0.7892 -0.7119
32197SOL    HW299547   0.874  10.338   7.190 -1.2321  0.0664  0.2133
32198SOL     OW99548   3.032   1.575   7.364 -0.3287  0.4840  0.0072
32198SOL    HW199549   3.018   1.483   7.384  1.6125  0.2161  0.2809
32198SOL    HW299550   3.111   1.599   7.411 -0.6936  2.2677 -0.1941
32199SOL     OW99551   2.256   9.140   2.683 -0.5026 -0.3806 -0.5292
32199SOL    HW199552   2.344   9.106   2.696 -0.3179 -0.8846 -2.6213
32199SOL    HW299553   2.267   9.234   2.675 -0.0234 -0.5020 -1.4599
32200SOL     OW99554   6.617  10.532   1.704 -0.5150 -0.0283 -0.0858
32200SOL    HW199555   6.584  10.507   1.617 -1.8868  1.8268 -0.1558
32200SOL    HW299556   6.625  10.448   1.750  1.5818 -1.2155 -2.3769
32201SOL     OW99557   5.630   7.950  10.380  0.2175  0.2953 -0.3135
32201SOL    HW199558   5.624   7.946  10.475 -1.2785 -0.9083 -0.4261
32201SOL    HW299559   5.723   7.966  10.362  0.7846 -0.9384  1.3131
32202SOL     OW99560   8.256   0.963   1.612  0.6652 -0.4153 -0.2625
32202SOL    HW199561   8.241   0.963   1.707  2.9531  0.7091  0.1727
32202SOL    HW299562   8.193   1.025   1.577  1.0291  0.5861  0.7964
32203SOL     OW99563   5.541  10.633   9.386 -0.6348 -0.5452 -0.2740
32203SOL    HW199564   5.520  10.551   9.342 -0.1343 -1.2615  0.7760
32203SOL    HW299565   5.456  10.676   9.398 -0.8572 -0.7096 -1.1887
32204SOL     OW99566   3.889   3.344   9.741 -0.2341 -0.0667  0.1645
32204SOL    HW199567   3.844   3.271   9.698  1.6190 -0.4585 -1.2714
32204SOL    HW299568   3.827   3.376   9.806 -2.4300 -0.7258 -1.4936
32205SOL     OW99569   5.230   8.475   3.446 -0.0238 -0.4984  0.0466
32205SOL    HW199570   5.300   8.424   3.406  0.6874 -0.1294  0.7928
32205SOL    HW299571   5.273   8.554   3.478 -0.7159 -0.4203  0.8218
32206SOL     OW99572   7.979   8.896   8.616  0.2386 -0.2755  0.4037
32206SOL    HW199573   7.897   8.946   8.623  0.4236  0.3649 -1.3870
32206SOL    HW299574   8.047   8.957   8.641  0.3437 -0.0890 -0.3248
32207SOL     OW99575   5.422   6.993   8.390  0.3917 -0.1017  0.1767
32207SOL    HW199576   5.341   7.038   8.417 -0.0515 -1.9710  2.2680
32207SOL    HW299577   5.483   7.009   8.462  1.2035 -0.4112 -0.4371
32208SOL     OW99578   9.456   9.815  10.024 -0.5948 -0.6826 -0.1865
32208SOL    HW199579   9.366   9.817  10.058 -0.5505 -0.5181 -0.0752
32208SOL    HW299580   9.460   9.735   9.972 -0.6178 -1.0240  0.3301
32209SOL     OW99581   4.501   6.856   3.993  0.1711 -0.1838 -0.3990
32209SOL    HW199582   4.479   6.948   3.982 -0.2680 -0.3390 -0.8643
32209SOL    HW299583   4.583   6.845   3.945 -0.3226 -0.2582 -1.2490
32210SOL     OW99584   1.921   7.702   8.130  0.3002 -0.4874 -0.1697
32210SOL    HW199585   1.987   7.768   8.148 -0.1452  0.0448 -0.4524
32210SOL    HW299586   1.866   7.741   8.061  0.8483 -1.7027 -1.3329
32211SOL     OW99587   0.050   3.864   0.513  0.1251 -0.0634 -0.2961
32211SOL    HW199588   0.121   3.927   0.502 -0.1427  0.3189  0.1464
32211SOL    HW299589  -0.017   3.891   0.450 -0.6176  1.0003  0.9132
32212SOL     OW99590   7.051   5.869   4.336 -0.1860 -0.1883 -0.3179
32212SOL    HW199591   7.138   5.829   4.329 -0.0903 -0.1824  0.6666
32212SOL    HW299592   7.067   5.952   4.383 -0.6806 -0.0521 -0.3891
32213SOL     OW99593   4.077   0.647   5.739  0.4720  0.1162  0.4305
32213SOL    HW199594   4.141   0.578   5.720  1.4951  0.9829  0.6974
32213SOL    HW299595   4.046   0.675   5.653 -1.9913 -2.4787  0.3073
32214SOL     OW99596  10.095   9.363   2.323  0.7027  0.2002 -0.2073
32214SOL    HW199597  10.001   9.364   2.302  1.0341  0.0253 -1.8248
32214SOL    HW299598  10.137   9.326   2.245  2.0322 -0.7455  0.9084
32215SOL     OW99599   5.269   4.486   9.402 -0.0379  0.6395  0.4196
32215SOL    HW199600   5.219   4.505   9.322  0.6942 -1.0206 -0.4848
32215SOL    HW299601   5.241   4.398   9.427 -0.1424  1.0801  1.9347
32216SOL     OW99602   4.422   3.776   8.216 -0.0746 -0.8958  0.2720
32216SOL    HW199603   4.341   3.794   8.169 -2.7738  0.6451  4.8852
32216SOL    HW299604   4.454   3.862   8.242  1.9471 -1.6130  0.3524
32217SOL     OW99605   5.372   3.063   2.554  0.4490 -0.2128 -0.3696
32217SOL    HW199606   5.460   3.096   2.535 -0.0495  0.9453 -0.7820
32217SOL    HW299607   5.339   3.121   2.623  0.1153 -0.8119 -0.0192
32218SOL     OW99608   7.095   6.042   2.714  0.1205 -0.0786 -0.1959
32218SOL    HW199609   7.031   6.062   2.782 -0.2677 -2.2282  0.1650
32218SOL    HW299610   7.045   6.041   2.633  0.5109  2.1025 -0.5289
32219SOL     OW99611   0.707   3.728   8.337  0.3384  0.3631  0.4071
32219SOL    HW199612   0.641   3.741   8.269  0.9559 -0.8792 -0.4446
32219SOL    HW299613   0.681   3.789   8.406 -0.6105  1.2610 -0.6982
32220SOL     OW99614   7.963   6.595  10.180 -0.0227 -0.2753  0.2568
32220SOL    HW199615   8.008   6.550  10.109 -0.4010 -0.3406  0.0582
32220SOL    HW299616   8.032   6.613  10.244  0.5468  0.7393 -0.5967
32221SOL     OW99617   4.484  10.492   5.187  0.0114  0.0793 -0.4785
32221SOL    HW199618   4.503  10.405   5.220 -0.6884  0.5297  1.2187
32221SOL    HW299619   4.412  10.480   5.125  1.3143 -0.7799 -1.8822
32222SOL     OW99620   2.622   2.611   6.745 -0.1948 -0.0424 -0.4433
32222SOL    HW199621   2.716   2.597   6.759 -0.3372 -1.5835 -0.7771
32222SOL    HW299622   2.583   2.525   6.761 -1.3680  0.2196 -1.6976
32223SOL     OW99623   3.751   0.541   0.895 -0.3892 -0.3635 -0.0783
32223SOL    HW199624   3.769   0.475   0.963 -0.3955  0.1529  0.4297
32223SOL    HW299625   3.816   0.523   0.827  0.2366 -0.2920  0.4902
32224SOL     OW99626   1.867   1.115   8.589 -0.2934 -0.0703 -0.0116
32224SOL    HW199627   1.844   1.024   8.607 -1.0164  0.1273  0.0945
32224SOL    HW299628   1.824   1.135   8.506  0.5506 -0.0747 -0.4495
32225SOL     OW99629   2.839   1.714   7.494 -0.3337 -0.3422  0.0966
32225SOL    HW199630   2.895   1.649   7.452  2.3720  1.1041  1.2734
32225SOL    HW299631   2.835   1.687   7.586  0.7963  1.0832  0.5938
32226SOL     OW99632   5.682   5.469   2.265 -0.4038  0.1368 -0.6272
32226SOL    HW199633   5.775   5.489   2.257 -0.3315 -0.1083 -0.4069
32226SOL    HW299634   5.642   5.511   2.189  0.0067 -0.5116 -1.2210
32227SOL     OW99635   5.936   3.038   8.564 -0.2833 -0.1040 -0.4545
32227SOL    HW199636   5.997   2.992   8.623 -0.9683  0.3486  0.6373
32227SOL    HW299637   5.891   3.100   8.621 -0.5409  0.7789 -1.5942
32228SOL     OW99638   3.250   7.396   0.684  0.1960 -0.4600 -0.0613
32228SOL    HW199639   3.289   7.308   0.679  0.4229 -0.4181  0.8565
32228SOL    HW299640   3.245   7.415   0.778 -0.3244  0.3032 -0.2375
32229SOL     OW99641   4.072   8.981   1.304 -0.0549 -0.1196  0.3571
32229SOL    HW199642   4.111   8.965   1.219  1.6948  1.2401  0.8468
32229SOL    HW299643   3.977   8.971   1.290  0.2816 -1.0713 -1.4390
32230SOL     OW99644   7.969   0.677   3.156  0.8645  0.3067  0.8316
32230SOL    HW199645   8.021   0.698   3.078  0.3415  1.2736  0.7285
32230SOL    HW299646   7.976   0.755   3.211 -0.0252  0.2384  1.0595
32231SOL     OW99647   3.700   4.086   0.171  0.0043 -0.2640 -0.1095
32231SOL    HW199648   3.767   4.138   0.216 -2.2104  0.5708  2.4910
32231SOL    HW299649   3.685   4.011   0.229 -1.5309 -0.2358 -0.4363
32232SOL     OW99650   9.724   9.812   8.891  0.3776 -0.2022  0.1708
32232SOL    HW199651   9.641   9.788   8.851 -1.0489  1.1008  2.1177
32232SOL    HW299652   9.765   9.729   8.914 -1.4615 -0.8986  1.1407
32233SOL     OW99653   2.355   4.089   6.028 -0.0145 -0.1091  0.0243
32233SOL    HW199654   2.410   4.038   6.087 -1.8237 -0.2990  1.6370
32233SOL    HW299655   2.417   4.140   5.975  1.7370 -1.7190  0.4264
32234SOL     OW99656   2.852   6.159   5.219 -0.1697 -0.0480  0.0387
32234SOL    HW199657   2.930   6.105   5.203 -0.5129 -0.8080  0.8841
32234SOL    HW299658   2.886   6.239   5.257  0.2233 -0.2921  0.2131
32235SOL     OW99659   8.089   3.292   6.434 -0.0460  0.4355  0.6853
32235SOL    HW199660   7.994   3.305   6.423  0.0261  0.6227  0.2767
32235SOL    HW299661   8.120   3.370   6.479 -0.6462 -1.1097  4.1623
32236SOL     OW99662   9.151   6.012   8.829  0.5962 -0.1109 -0.5946
32236SOL    HW199663   9.167   5.929   8.874 -0.7616  0.2864  0.6953
32236SOL    HW299664   9.154   6.077   8.899 -1.8944  0.4992 -0.9897
32237SOL     OW99665  10.557   7.807   0.511  0.0203  0.6921 -0.1478
32237SOL    HW199666  10.532   7.743   0.578 -2.0792 -1.2507 -2.5847
32237SOL    HW299667  10.481   7.865   0.503 -0.0899  0.3965 -1.3790
32238SOL     OW99668   3.275   8.270   7.931 -0.1293 -0.0552 -0.0241
32238SOL    HW199669   3.190   8.229   7.948  0.1167  0.0422  1.5792
32238SOL    HW299670   3.328   8.200   7.894 -0.5303 -0.4536  0.1466
32239SOL     OW99671   1.721   2.243   7.624 -0.1739 -0.0255 -0.0504
32239SOL    HW199672   1.752   2.310   7.684  1.4534 -1.2407  0.5358
32239SOL    HW299673   1.708   2.289   7.541 -0.8251  1.3382  0.7823
32240SOL     OW99674   5.469   6.026   6.763  0.2118  0.7259 -0.4135
32240SOL    HW199675   5.495   5.947   6.716 -0.3854  1.6272 -2.4203
32240SOL    HW299676   5.373   6.022   6.765  0.1865  1.2878 -0.3805
32241SOL     OW99677   0.653   3.359  10.307 -0.3397  0.5115  0.2414
32241SOL    HW199678   0.741   3.324  10.323 -0.7925 -0.4736  0.6743
32241SOL    HW299679   0.599   3.318  10.375 -1.1882  0.8732 -0.2095
32242SOL     OW99680   5.372   6.645   6.126 -0.0817 -0.0057  0.1842
32242SOL    HW199681   5.465   6.661   6.142  0.1698 -0.7515 -0.4296
32242SOL    HW299682   5.369   6.558   6.085 -1.0680 -0.0813  0.3707
32243SOL     OW99683   4.311   4.641   9.784 -0.3388 -0.1324 -0.1069
32243SOL    HW199684   4.289   4.733   9.798  0.5163  0.0128  0.3663
32243SOL    HW299685   4.233   4.604   9.743 -1.1049  0.5513  0.6757
32244SOL     OW99686   8.482   7.020   6.426 -0.2253  0.0791  0.4351
32244SOL    HW199687   8.569   6.981   6.416 -1.2136 -1.7888 -1.8908
32244SOL    HW299688   8.482   7.096   6.369 -0.1717 -0.0634  0.2444
32245SOL     OW99689   0.210   3.436   7.172  0.0673  0.8638 -0.3992
32245SOL    HW199690   0.296   3.466   7.143  0.2122  1.0497  0.2101
32245SOL    HW299691   0.222   3.343   7.191  0.3799  1.0845  0.5634
32246SOL     OW99692   4.949   3.942   1.177  0.1375 -0.0101  0.6024
32246SOL    HW199693   4.984   3.853   1.184  0.3611 -0.1763 -1.8148
32246SOL    HW299694   4.874   3.934   1.117  2.0785  1.8306 -2.3094
32247SOL     OW99695   6.716   3.988   8.584 -0.1417  0.2043  0.0666
32247SOL    HW199696   6.710   3.947   8.670 -1.4172 -2.4060 -1.1469
32247SOL    HW299697   6.625   4.004   8.559  0.2161  0.9849 -0.7737
32248SOL     OW99698   7.158   1.093   0.995  0.5198  0.5142 -0.3448
32248SOL    HW199699   7.213   1.100   1.073 -1.1347  1.3834  0.8250
32248SOL    HW299700   7.129   1.183   0.979  0.2789  0.2347 -1.5548
32249SOL     OW99701  10.213   3.224   0.353  0.4622  0.1728 -0.2370
32249SOL    HW199702  10.222   3.136   0.390  1.4830  1.0301  1.6947
32249SOL    HW299703  10.291   3.234   0.297  0.4525 -0.0766 -0.2972
32250SOL     OW99704   5.483   6.081   0.269  0.3940  0.5428 -0.4948
32250SOL    HW199705   5.497   6.119   0.356  1.0595 -0.5489 -0.1013
32250SOL    HW299706   5.405   6.125   0.236 -0.2166  0.5684  0.9065
32251SOL     OW99707   0.740   7.011   2.809 -0.1980  0.3224 -0.3086
32251SOL    HW199708   0.716   6.990   2.899 -0.6066 -0.4233 -0.5854
32251SOL    HW299709   0.657   7.028   2.765 -0.0228  0.3877 -0.6197
32252SOL     OW99710   0.639   2.828   9.327  0.4241  0.7251 -0.2494
32252SOL    HW199711   0.663   2.737   9.312 -0.6111  0.0260  1.9194
32252SOL    HW299712   0.567   2.824   9.390 -1.4023  2.9472 -1.9956
32253SOL     OW99713   7.921   7.444   9.164  0.2801  0.6785  0.4562
32253SOL    HW199714   8.000   7.433   9.218 -0.3246 -0.5622  1.1298
32253SOL    HW299715   7.954   7.456   9.075  1.2306 -0.3417  0.6482
32254SOL     OW99716   1.799   2.885   2.742  0.1135  0.1981  0.1374
32254SOL    HW199717   1.708   2.858   2.726  0.1812 -0.8251  1.2829
32254SOL    HW299718   1.793   2.958   2.804  0.0427  0.8571 -0.6345
32255SOL     OW99719   7.265   1.024   6.052 -0.5270 -0.0188 -0.0997
32255SOL    HW199720   7.256   1.119   6.060 -0.5548  0.1388 -1.6931
32255SOL    HW299721   7.349   1.004   6.093  0.8362  1.1020 -2.2010
32256SOL     OW99722   0.417   5.958   9.634 -0.2435 -0.5727 -0.1494
32256SOL    HW199723   0.497   5.984   9.679 -0.6852 -0.5050  0.6032
32256SOL    HW299724   0.412   6.017   9.559 -0.3643  0.4108  0.6200
32257SOL     OW99725   7.480   5.494   7.926 -0.3623  0.6267 -0.7807
32257SOL    HW199726   7.413   5.485   7.994  0.8317  0.3302  0.4142
32257SOL    HW299727   7.517   5.581   7.939 -0.6025  0.8462 -1.5234
32258SOL     OW99728   3.396   7.975   9.673 -0.6830  0.1397 -0.3776
32258SOL    HW199729   3.401   7.901   9.734 -0.3829  1.1298  0.8458
32258SOL    HW299730   3.471   8.030   9.696 -0.8328  0.7684 -1.3493
32259SOL     OW99731   8.282   5.410   8.527 -0.3845 -0.1682  0.1609
32259SOL    HW199732   8.237   5.495   8.529  0.5560  0.4376 -1.7383
32259SOL    HW299733   8.219   5.348   8.564 -1.8691  1.0290 -0.2533
32260SOL     OW99734   8.612   5.118   2.868  0.4078  0.1770  0.5222
32260SOL    HW199735   8.558   5.196   2.862 -0.7150 -0.6441 -0.3944
32260SOL    HW299736   8.664   5.131   2.948  0.2718  1.8503  0.3650
32261SOL     OW99737   7.108  10.198   8.412  0.3795  0.0817  0.0681
32261SOL    HW199738   7.118  10.105   8.435 -0.6378 -0.5511 -1.8072
32261SOL    HW299739   7.014  10.209   8.400  0.4227  1.5548  0.8691
32262SOL     OW99740   3.973   5.405   4.259 -0.4634 -0.1089 -0.3516
32262SOL    HW199741   3.936   5.448   4.182  0.0861 -0.8922 -1.0765
32262SOL    HW299742   4.010   5.323   4.225  0.0636 -0.3242  0.6977
32263SOL     OW99743   4.888   2.617   8.454 -0.5885  0.4768  0.4448
32263SOL    HW199744   4.811   2.641   8.402  0.4571  0.8439 -0.9907
32263SOL    HW299745   4.916   2.533   8.418  0.8161  1.2746 -0.3931
32264SOL     OW99746   3.060   2.108   2.062  0.1866 -0.2841  0.1910
32264SOL    HW199747   3.057   2.202   2.045 -0.1368 -0.4719 -0.8779
32264SOL    HW299748   3.018   2.069   1.985 -1.2278 -1.2123  1.3752
32265SOL     OW99749   0.054   7.417   3.583  0.4850 -0.2747 -0.3672
32265SOL    HW199750   0.001   7.359   3.637 -0.2994  0.4397 -0.3558
32265SOL    HW299751   0.017   7.409   3.495 -0.4169  1.0855 -0.1466
32266SOL     OW99752   1.366   4.934   9.489 -0.0716 -0.3679 -0.4016
32266SOL    HW199753   1.332   4.950   9.401 -0.7410  0.7029  0.0272
32266SOL    HW299754   1.320   4.856   9.519 -0.4819 -0.2328 -0.6762
32267SOL     OW99755   2.158   1.832   1.037  0.0405  0.0290 -0.4982
32267SOL    HW199756   2.210   1.765   1.082 -0.8760 -0.6665 -0.4462
32267SOL    HW299757   2.093   1.860   1.102  0.5749  1.1860 -0.4261
32268SOL     OW99758   8.447  10.220  10.622  0.0374 -0.1912 -0.0088
32268SOL    HW199759   8.443  10.169  10.703  1.6901 -1.9826 -0.9742
32268SOL    HW299760   8.357  10.218  10.588 -0.5395  0.0604  1.4290
32269SOL     OW99761   4.452   9.175   0.336  0.0359  0.2966  0.2901
32269SOL    HW199762   4.450   9.162   0.241  0.1256  1.2407  0.1474
32269SOL    HW299763   4.518   9.113   0.368  0.3626  0.3253 -0.3223
32270SOL     OW99764   0.762   4.068   4.172  0.3414  0.6966 -0.3205
32270SOL    HW199765   0.703   4.057   4.246  0.1606 -2.4598 -0.7959
32270SOL    HW299766   0.712   4.038   4.096  2.1604 -1.0560 -0.8978
32271SOL     OW99767   2.419   5.853   9.095  0.5157 -0.0091 -0.2165
32271SOL    HW199768   2.421   5.876   9.188 -0.9387 -0.4242 -0.0515
32271SOL    HW299769   2.440   5.760   9.092  0.5700  0.0058 -0.2986
32272SOL     OW99770   6.900   3.641   0.065 -0.6827 -0.0798  0.2157
32272SOL    HW199771   6.995   3.649   0.075 -0.8259  0.1465  1.5517
32272SOL    HW299772   6.876   3.566   0.120 -0.9774 -1.9282 -2.2231
32273SOL     OW99773   4.907   4.746   5.318  0.0074  0.2413 -0.1237
32273SOL    HW199774   4.834   4.807   5.331 -0.0147  0.3724 -0.8475
32273SOL    HW299775   4.980   4.802   5.292 -0.2056 -0.1010 -1.5221
32274SOL     OW99776   6.165   8.263   1.213  0.2314  0.1756  0.4518
32274SOL    HW199777   6.113   8.323   1.160  0.1051  1.0981  1.5876
32274SOL    HW299778   6.255   8.280   1.188  0.0452 -1.4235 -1.5220
32275SOL     OW99779   3.438   6.214   1.206  0.2480  0.0228  0.8434
32275SOL    HW199780   3.507   6.234   1.269  1.2919  0.7240 -0.4644
32275SOL    HW299781   3.443   6.286   1.142  1.4703 -2.3323 -1.8944
32276SOL     OW99782   4.029   5.711   2.886  0.0351  0.1033  0.3016
32276SOL    HW199783   3.969   5.657   2.937  0.0553  2.1557  2.6988
32276SOL    HW299784   4.114   5.700   2.929  0.8209 -0.5277 -1.2948
32277SOL     OW99785   4.939   0.102   5.305 -0.0538  0.1629  0.7184
32277SOL    HW199786   4.979   0.060   5.229 -0.7461 -1.0699  1.0107
32277SOL    HW299787   4.845   0.090   5.292 -0.3973  2.8097  0.1543
32278SOL     OW99788   5.260   3.451   3.132 -0.4196 -0.2800 -0.1392
32278SOL    HW199789   5.183   3.451   3.074 -0.9805 -2.8634  0.4600
32278SOL    HW299790   5.226   3.479   3.217 -0.0454  1.3811 -0.5011
32279SOL     OW99791   3.512   9.272   5.901 -0.4167 -0.0325 -0.7763
32279SOL    HW199792   3.468   9.318   5.973  0.3934 -0.9748  0.3686
32279SOL    HW299793   3.487   9.181   5.912  0.4563 -0.3295 -1.1158
32280SOL     OW99794   9.872   7.783   2.499 -0.1968  0.0977  0.4729
32280SOL    HW199795   9.866   7.878   2.487  2.8457  0.4132  0.4823
32280SOL    HW299796   9.841   7.746   2.416 -1.2469  1.0938  0.4041
32281SOL     OW99797   1.815   0.389   8.527  0.0867 -0.3503 -0.1316
32281SOL    HW199798   1.798   0.399   8.621  0.6914 -1.3297  0.0953
32281SOL    HW299799   1.848   0.475   8.500 -1.3982  0.3737  0.2360
32282SOL     OW99800   3.220   7.150   1.705  0.4429 -0.1286 -0.0337
32282SOL    HW199801   3.304   7.153   1.752  1.0000 -0.5861 -0.9781
32282SOL    HW299802   3.222   7.226   1.648  0.6039 -0.6091 -0.6840
32283SOL     OW99803   4.806   5.438   1.202  0.3103  0.1942 -0.2917
32283SOL    HW199804   4.781   5.530   1.209  1.1610  0.3314  1.4916
32283SOL    HW299805   4.896   5.435   1.234 -0.7755 -1.6922  2.9550
32284SOL     OW99806   8.239   2.862   4.800 -0.0003 -0.2441 -0.7336
32284SOL    HW199807   8.173   2.931   4.788 -0.4723 -0.7175 -0.8976
32284SOL    HW299808   8.323   2.909   4.798 -0.3377  0.4020 -0.2525
32285SOL     OW99809   7.136   1.544   0.479 -0.1392 -0.4315 -0.5393
32285SOL    HW199810   7.220   1.591   0.479  0.7771 -1.9469  0.8625
32285SOL    HW299811   7.072   1.610   0.506  0.9874  0.2290  0.6750
32286SOL     OW99812   0.053   3.965  10.526  0.4893 -0.2731  0.2346
32286SOL    HW199813  -0.033   3.938  10.560  1.2408 -0.7306  1.8555
32286SOL    HW299814   0.088   3.886  10.483 -0.5916  0.3880 -2.0430
32287SOL     OW99815   1.755   9.352   9.754 -0.5653  0.2058 -0.0777
32287SOL    HW199816   1.820   9.281   9.761 -1.2163 -0.4906 -0.8897
32287SOL    HW299817   1.776   9.395   9.672 -1.0008  0.1072 -0.2417
32288SOL     OW99818   9.644   5.892   5.737 -0.3135  0.1480 -0.0870
32288SOL    HW199819   9.615   5.895   5.829  0.6465  1.6443  0.2024
32288SOL    HW299820   9.637   5.983   5.707 -2.0309 -0.5488 -1.9972
32289SOL     OW99821   4.443   8.650  10.107  0.5195  0.5343 -0.0869
32289SOL    HW199822   4.464   8.737  10.140 -1.3554  0.7931  0.5427
32289SOL    HW299823   4.524   8.600  10.117  1.2889  1.8710  0.6350
32290SOL     OW99824   5.867   3.280   2.838 -0.2014 -0.0630 -0.3514
32290SOL    HW199825   5.818   3.198   2.842 -1.4364  0.6301 -0.6331
32290SOL    HW299826   5.949   3.262   2.883 -1.6740 -0.6252  2.2747
32291SOL     OW99827   4.647   2.898   2.772  0.3624  0.0372 -0.0021
32291SOL    HW199828   4.574   2.857   2.819  0.1862  1.1940  0.7785
32291SOL    HW299829   4.605   2.947   2.701  0.5123 -0.5409 -0.4938
32292SOL     OW99830   6.419   6.163   6.219 -0.4000 -0.1133  0.3719
32292SOL    HW199831   6.348   6.180   6.281 -0.9068 -0.2260 -0.1699
32292SOL    HW299832   6.438   6.070   6.228 -0.0151  0.0085  0.8353
32293SOL     OW99833   5.162   1.957   4.210  0.1103  0.0672  0.5052
32293SOL    HW199834   5.108   2.006   4.272  0.4486  0.5247  0.4436
32293SOL    HW299835   5.241   1.936   4.259  0.4998  0.6736  0.1546
32294SOL     OW99836   3.960   8.669   1.282 -0.1455 -0.3633  0.1811
32294SOL    HW199837   3.913   8.587   1.295  0.9729 -1.1486 -0.5968
32294SOL    HW299838   4.026   8.649   1.216  0.3129  1.0991  0.1639
32295SOL     OW99839   5.564   2.224   6.091  0.2331 -0.7210 -0.3608
32295SOL    HW199840   5.535   2.204   6.180  0.2399 -2.2364 -0.6854
32295SOL    HW299841   5.490   2.271   6.052  0.4291  0.4297  0.5789
32296SOL     OW99842   9.459  10.687   6.986  0.1177  0.5882 -0.1014
32296SOL    HW199843   9.449  10.777   7.018 -0.5871  0.1943  0.8483
32296SOL    HW299844   9.370  10.654   6.979  0.3088  0.3183 -1.5575
32297SOL     OW99845   8.632   9.202   8.846 -0.2020 -0.3813 -0.4293
32297SOL    HW199846   8.559   9.240   8.797  1.5247  1.8151 -1.4826
32297SOL    HW299847   8.628   9.243   8.932 -1.0031 -1.3466  0.0095
32298SOL     OW99848   5.568   6.989   3.449 -0.8098  0.1575  0.1011
32298SOL    HW199849   5.600   6.931   3.518  1.2255  1.1405  0.0713
32298SOL    HW299850   5.477   6.962   3.434  0.2670 -3.6332 -0.5956
32299SOL     OW99851  10.222   2.875   9.626 -0.9719 -0.2465 -0.5857
32299SOL    HW199852  10.129   2.854   9.631 -1.1140  0.2812 -1.0070
32299SOL    HW299853  10.234   2.913   9.539 -0.4388  0.0835 -0.3733
32300SOL     OW99854   2.177   3.658   7.113 -0.3118  0.0753 -0.1600
32300SOL    HW199855   2.152   3.750   7.120  0.8054  0.3315  0.7838
32300SOL    HW299856   2.128   3.615   7.183 -0.1627  0.1080 -0.0354
32301SOL     OW99857   0.476   1.424   3.400 -0.4794 -0.0644 -0.0825
32301SOL    HW199858   0.433   1.509   3.398 -1.0310 -0.3360 -0.0286
32301SOL    HW299859   0.472   1.394   3.309  0.2332  0.2179 -0.2116
32302SOL     OW99860   1.272   0.433   7.975 -0.3059 -0.1471 -0.2511
32302SOL    HW199861   1.332   0.360   7.987  0.6412  0.5277 -0.8163
32302SOL    HW299862   1.296   0.472   7.891  0.1508  1.6760  0.6600
32303SOL     OW99863   3.311  10.532   9.780 -0.4317 -0.2302 -0.1579
32303SOL    HW199864   3.282  10.602   9.839 -0.4151  0.2692 -0.7405
32303SOL    HW299865   3.405  10.524   9.797 -0.7740 -1.5426  1.4066
32304SOL     OW99866   4.722   1.907   3.036  0.6232  0.2259 -0.5114
32304SOL    HW199867   4.675   1.897   2.953  2.0037 -0.1653 -1.2754
32304SOL    HW299868   4.755   1.819   3.056 -0.0484  0.2240  0.6905
32305SOL     OW99869   2.365   4.706   4.387 -0.1659 -0.4010 -0.5302
32305SOL    HW199870   2.428   4.739   4.323 -2.0934  1.5638 -1.5142
32305SOL    HW299871   2.353   4.614   4.362  2.0271 -0.7605 -0.4796
32306SOL     OW99872   6.183   0.643   6.399 -0.0094 -0.2171  0.2218
32306SOL    HW199873   6.133   0.588   6.338 -0.2412 -1.4097  1.4272
32306SOL    HW299874   6.136   0.726   6.401 -0.4760 -0.4494 -0.5938
32307SOL     OW99875   4.603   1.646   5.872  0.0000  0.2835 -0.2862
32307SOL    HW199876   4.564   1.733   5.863  0.6670  0.6117 -0.0602
32307SOL    HW299877   4.683   1.649   5.820 -0.1309 -0.3051 -0.5389
32308SOL     OW99878   9.063   4.100   0.691 -0.1365 -0.1535 -0.5249
32308SOL    HW199879   9.115   4.180   0.696  0.6919 -0.5995 -1.6069
32308SOL    HW299880   9.047   4.087   0.598 -2.3892  0.0725 -0.2052
32309SOL     OW99881   0.846   6.129  10.210  0.6259 -0.3196 -0.3147
32309SOL    HW199882   0.862   6.143  10.303  1.8437 -1.3967 -0.3328
32309SOL    HW299883   0.758   6.091  10.206 -0.7847  2.6589  0.0908
32310SOL     OW99884   0.889   1.273   0.610  0.4067 -0.1588 -0.2955
32310SOL    HW199885   0.886   1.312   0.523  0.2898  0.7755  0.1177
32310SOL    HW299886   0.940   1.334   0.662  0.3399 -0.6302  0.3342
32311SOL     OW99887   9.715  10.379   9.098 -0.6838  0.5158  0.3790
32311SOL    HW199888   9.713  10.370   9.193  1.7526  1.4067  0.5945
32311SOL    HW299889   9.694  10.292   9.065  1.7193 -0.7540  1.8736
32312SOL     OW99890  10.335   3.223   5.635  0.6596 -0.7352 -0.1109
32312SOL    HW199891  10.306   3.302   5.681  1.1085  0.7467 -2.2389
32312SOL    HW299892  10.262   3.203   5.576  1.5646 -0.3891 -1.3735
32313SOL     OW99893   9.773   6.085   7.788 -0.5481 -0.2173  0.2593
32313SOL    HW199894   9.827   6.089   7.867  0.7274 -0.3120 -0.5693
32313SOL    HW299895   9.801   6.004   7.745 -0.0144  0.6638 -1.1060
32314SOL     OW99896   2.091   7.947   7.870  0.0994 -0.1527 -0.2218
32314SOL    HW199897   2.162   7.968   7.810 -0.6401  0.9279 -0.7436
32314SOL    HW299898   2.036   8.025   7.871 -1.0479 -0.9381  0.2220
32315SOL     OW99899   3.123  10.124   3.222  0.3908  0.0739 -0.3276
32315SOL    HW199900   3.092  10.038   3.193  1.2481 -0.7599  1.0895
32315SOL    HW299901   3.065  10.187   3.179 -1.0902 -1.2789 -0.3925
32316SOL     OW99902   0.600  10.402   7.689 -0.8468 -0.2704 -0.0372
32316SOL    HW199903   0.627  10.461   7.619 -0.4092  0.1277  0.4610
32316SOL    HW299904   0.607  10.314   7.650  0.4686 -0.1296 -0.1494
32317SOL     OW99905   0.111   1.714   8.569 -0.5108 -0.1601  0.0252
32317SOL    HW199906   0.091   1.783   8.632 -2.3595  0.2451 -0.9451
32317SOL    HW299907   0.118   1.634   8.622 -3.3596 -0.0790  0.7060
32318SOL     OW99908   9.213   9.231   9.499 -0.7999  0.3987 -0.2910
32318SOL    HW199909   9.246   9.311   9.539  0.0377  0.8240 -1.7595
32318SOL    HW299910   9.130   9.214   9.543 -0.2289  1.1822  1.1433
32319SOL     OW99911  10.545   2.189   9.173  0.2377 -0.6657 -0.8143
32319SOL    HW199912  10.540   2.251   9.246 -2.0042 -0.3916 -1.1266
32319SOL    HW299913  10.570   2.242   9.098 -0.7924 -0.2553 -0.8936
32320SOL     OW99914   8.499   3.397   9.213  0.0732  0.1250 -0.3629
32320SOL    HW199915   8.460   3.312   9.196  1.0062 -0.2486 -0.7373
32320SOL    HW299916   8.446   3.459   9.162  1.1944 -0.6299 -2.6154
32321SOL     OW99917   9.178   4.829   6.790 -0.5360 -0.2860  0.1693
32321SOL    HW199918   9.253   4.878   6.823 -1.3188  0.9978  0.0965
32321SOL    HW299919   9.216   4.750   6.752  0.5525 -1.0121  2.5626
32322SOL     OW99920   9.151   0.337   0.465 -0.3073  0.0773  0.3076
32322SOL    HW199921   9.199   0.361   0.544 -2.4720 -0.5688  1.9199
32322SOL    HW299922   9.079   0.282   0.496 -1.8915  0.6797 -1.9853
32323SOL     OW99923   4.261   9.275   1.637  0.2379 -0.1945 -0.1344
32323SOL    HW199924   4.245   9.189   1.598  1.6143 -0.2960 -0.5279
32323SOL    HW299925   4.355   9.287   1.631  0.6223 -0.3433  3.4574
32324SOL     OW99926   2.701   2.557   1.091  0.5645  0.2503  0.2898
32324SOL    HW199927   2.627   2.584   1.146  0.9926  1.4164  0.3070
32324SOL    HW299928   2.776   2.602   1.128  1.1556 -0.2980 -0.2261
32325SOL     OW99929   6.580   5.904   5.660  0.0450 -0.3367  0.2797
32325SOL    HW199930   6.527   5.943   5.591 -0.8422  1.3959  1.8527
32325SOL    HW299931   6.526   5.832   5.694 -0.5691  0.3128  0.7140
32326SOL     OW99932   1.646   4.916   2.483 -0.2541 -0.0235  0.0193
32326SOL    HW199933   1.553   4.940   2.488 -1.3227 -3.3175 -1.5233
32326SOL    HW299934   1.680   4.936   2.571 -2.1778  1.8648  0.4441
32327SOL     OW99935   8.581   6.339   8.177  0.1229  0.0204 -0.0458
32327SOL    HW199936   8.544   6.278   8.113  0.3194  2.5674 -2.8105
32327SOL    HW299937   8.506   6.366   8.231 -1.1138  1.1726 -2.1998
32328SOL     OW99938   0.137   7.570  10.658 -0.1157 -0.0635  0.3347
32328SOL    HW199939   0.135   7.504  10.727  0.2816 -0.0694  0.3456
32328SOL    HW299940   0.096   7.527  10.583  1.2796 -0.7889 -0.0505
32329SOL     OW99941   7.039   9.273   4.094  0.4088 -0.4083 -0.4900
32329SOL    HW199942   6.958   9.248   4.050 -0.1587  1.3373 -0.5129
32329SOL    HW299943   7.056   9.201   4.155 -0.3604 -1.4789 -1.4902
32330SOL     OW99944   4.491   7.234   1.350  0.0184 -0.5999  0.3437
32330SOL    HW199945   4.412   7.276   1.384  0.0464 -0.5626  0.3616
32330SOL    HW299946   4.508   7.278   1.266 -0.4275 -1.1402 -0.0352
32331SOL     OW99947   6.044   0.464   8.009 -0.2439  1.0033  0.3758
32331SOL    HW199948   6.129   0.454   7.965 -0.2406  0.6273  0.4616
32331SOL    HW299949   5.985   0.495   7.941  0.0457  1.6352  0.4015
32332SOL     OW99950   6.863   3.908  10.605  0.5080  0.0477  0.1972
32332SOL    HW199951   6.901   3.910  10.517  1.5821  0.1016  0.6430
32332SOL    HW299952   6.890   3.823  10.641 -3.3730 -1.9081 -0.9510
32333SOL     OW99953   3.279   5.477   4.590  0.1068  0.4643  0.0314
32333SOL    HW199954   3.338   5.423   4.644 -1.7008 -1.4341  0.2768
32333SOL    HW299955   3.209   5.502   4.651  0.1539  1.8828 -0.4711
32334SOL     OW99956   4.575   1.225   7.354  0.6235 -0.3594  0.0619
32334SOL    HW199957   4.661   1.230   7.311 -0.0404  2.2044 -1.0998
32334SOL    HW299958   4.583   1.282   7.431 -0.4079  1.0000 -0.8039
32335SOL     OW99959   4.788   3.005   1.346 -0.1651 -0.2608  0.0470
32335SOL    HW199960   4.744   2.987   1.429  1.9672 -1.8160  0.9231
32335SOL    HW299961   4.718   3.011   1.282 -1.6848 -2.2940  1.4199
32336SOL     OW99962   2.823   2.368   6.640 -0.0824  0.2357  0.0615
32336SOL    HW199963   2.771   2.352   6.719 -0.7853  0.3672 -0.3699
32336SOL    HW299964   2.764   2.348   6.567  0.0586  1.5729 -0.4567
32337SOL     OW99965   4.409   7.101   0.338 -0.0962  0.3386  0.0754
32337SOL    HW199966   4.466   7.057   0.275  2.9571  2.2766  1.2417
32337SOL    HW299967   4.427   7.058   0.422 -0.8424  0.5575  0.3556
32338SOL     OW99968  10.678   6.572   4.783 -0.2977  0.8548 -1.0709
32338SOL    HW199969  10.712   6.570   4.694 -2.2496  0.4189 -1.8630
32338SOL    HW299970  10.620   6.495   4.788  0.4658  0.3517  0.8741
32339SOL     OW99971   8.918   6.215   2.590 -0.7768  0.0451 -0.2929
32339SOL    HW199972   9.000   6.240   2.547  0.4572  1.0566  2.4102
32339SOL    HW299973   8.883   6.144   2.536  1.2139  0.4411 -2.2288
32340SOL     OW99974   9.583   8.538   9.955  0.4049 -0.0985  0.2033
32340SOL    HW199975   9.652   8.494   9.906  0.5317 -0.1224  0.4035
32340SOL    HW299976   9.627   8.609  10.001  0.3652 -0.3458  0.6321
32341SOL     OW99977   2.306   6.782   1.799 -0.7790  0.0106  0.0579
32341SOL    HW199978   2.368   6.794   1.871 -1.9375  0.8850  0.9564
32341SOL    HW299979   2.262   6.866   1.791 -1.6395 -0.4941 -0.7558
32342SOL     OW99980   5.316   9.299   4.131  0.0254  0.7911 -0.1058
32342SOL    HW199981   5.383   9.241   4.168 -0.2860  1.0418  0.9035
32342SOL    HW299982   5.254   9.312   4.203 -1.5060 -0.0035 -1.2352
32343SOL     OW99983   7.357   9.956   5.098  0.0818 -0.0365 -0.7620
32343SOL    HW199984   7.397   9.874   5.071 -0.7420 -0.9936  0.7939
32343SOL    HW299985   7.426  10.002   5.146 -0.2381 -1.0439  0.6914
32344SOL     OW99986   0.026  10.584   9.091 -0.1768 -0.6695  0.1054
32344SOL    HW199987   0.068  10.500   9.107  1.1263 -0.8458 -3.2997
32344SOL    HW299988   0.095  10.638   9.051 -1.4801  1.3793  0.4242
32345SOL     OW99989   5.127   4.202   9.099  0.1805 -0.3494 -0.1245
32345SOL    HW199990   5.190   4.176   9.166 -1.2975 -1.5070  0.8923
32345SOL    HW299991   5.107   4.121   9.051 -0.1603  0.1001 -0.7623
32346SOL     OW99992   1.955   4.180   9.808 -0.3910  0.4423  0.4050
32346SOL    HW199993   1.951   4.096   9.853  0.2925  1.0377  1.6449
32346SOL    HW299994   1.882   4.230   9.843 -0.4727  0.5587  0.0727
32347SOL     OW99995   2.479   5.257   4.491 -0.4645 -0.2867  0.5570
32347SOL    HW199996   2.433   5.259   4.408  0.0065  1.1835  0.3123
32347SOL    HW299997   2.532   5.337   4.492  1.0982 -1.2726  1.3821
32348SOL     OW99998   0.939   7.736   0.877  0.3623 -0.1288  0.2497
32348SOL    HW199999   0.887   7.780   0.809 -1.6246 -2.6494 -0.0033
32348SOL    HW2    0   0.920   7.787   0.956  0.6361  1.2933 -0.5498
32349SOL     OW    1   7.912   2.549  10.139  0.3848  0.0535 -0.4677
32349SOL    HW1    2   7.821   2.527  10.119 -0.3175  1.6527  0.8261
32349SOL    HW2    3   7.963   2.487  10.087 -1.4311 -0.9734 -1.1078
32350SOL     OW    4   1.620   9.990  10.667 -0.2966  0.4011  0.8984
32350SOL    HW1    5   1.707   9.952  10.672 -0.2530  0.3794  0.0548
32350SOL    HW2    6   1.561   9.915  10.664 -0.3343  0.4150  1.2636
32351SOL     OW    7   7.595   5.993   8.168  0.9621 -0.4487 -0.0339
32351SOL    HW1    8   7.671   6.051   8.167  2.8803 -2.7910  0.1619
32351SOL    HW2    9   7.540   6.023   8.096  2.2710  1.0561 -0.4537
32352SOL     OW   10   4.624   0.067   7.763  0.1897 -1.0910 -0.1554
32352SOL    HW1   11   4.550   0.040   7.709  0.9030 -0.9756 -1.2221
32352SOL    HW2   12   4.660  -0.016   7.796 -0.4554 -1.1421  0.4490
32353SOL     OW   13   7.022   2.606   5.790  0.1387  0.1391 -0.0676
32353SOL    HW1   14   6.950   2.543   5.783  1.8029 -1.7556 -1.5876
32353SOL    HW2   15   7.100   2.552   5.806  1.4056  1.9998  0.4298
32354SOL     OW   16   4.094   7.818   4.221  0.6608  0.2093  0.1368
32354SOL    HW1   17   4.045   7.855   4.149  0.8724 -0.3162 -0.2874
32354SOL    HW2   18   4.119   7.893   4.275  1.6697  0.7680 -1.0568
32355SOL     OW   19   5.920   0.322   8.227 -0.9541  0.2702 -0.1661
32355SOL    HW1   20   5.969   0.342   8.148  0.2663 -0.6041  0.3461
32355SOL    HW2   21   5.836   0.289   8.196 -2.2115  3.8394 -1.0720
32356SOL     OW   22  10.130   1.522   0.523 -1.0733 -0.3753 -0.3215
32356SOL    HW1   23  10.179   1.601   0.503 -1.0104 -0.6902 -1.4617
32356SOL    HW2   24  10.100   1.534   0.613 -0.9313  0.8716 -0.4320
32357SOL     OW   25   4.069   3.423   6.502 -0.4127 -0.1335 -0.1183
32357SOL    HW1   26   4.000   3.377   6.550  1.7741 -3.2973  0.2632
32357SOL    HW2   27   4.139   3.436   6.567 -0.0161  1.7458 -0.8366
32358SOL     OW   28   5.057   8.141   6.996  0.6207  0.0291  0.0125
32358SOL    HW1   29   5.140   8.095   7.004  0.0713 -0.7590  1.5307
32358SOL    HW2   30   5.021   8.143   7.085 -1.1042  0.1030 -0.6358
32359SOL     OW   31   8.034   1.756   8.292  0.3543  0.1308  0.4516
32359SOL    HW1   32   8.125   1.739   8.270 -0.1388 -2.1257 -0.1666
32359SOL    HW2   33   7.990   1.762   8.207 -0.3553 -0.7570  0.7415
32360SOL     OW   34   8.866   5.639   2.343 -0.0340 -0.0661  0.4638
32360SOL    HW1   35   8.937   5.699   2.366  0.6550 -1.2886  1.7354
32360SOL    HW2   36   8.806   5.643   2.418  0.3533 -1.4134  0.8727
32361SOL     OW   37  10.233   4.133   8.842  0.4594  0.5195  0.1992
32361SOL    HW1   38  10.173   4.167   8.776  1.0821  0.6785 -0.2948
32361SOL    HW2   39  10.179   4.118   8.919 -0.1487  0.9656 -0.1383
32362SOL     OW   40   8.113   2.110   5.016  0.2851 -0.0865 -0.1573
32362SOL    HW1   41   8.057   2.091   5.091 -0.5930 -0.7183 -0.9498
32362SOL    HW2   42   8.126   2.205   5.018  0.4826 -0.1323  0.9285
32363SOL     OW   43  10.509   7.004   5.447  0.1285  0.7705 -0.3706
32363SOL    HW1   44  10.437   7.013   5.384 -0.8169 -0.8274  0.4132
32363SOL    HW2   45  10.568   6.941   5.406  0.2893  0.8798 -0.3077
32364SOL     OW   46   8.099   5.504   8.837  0.2866 -1.3179 -0.3012
32364SOL    HW1   47   8.147   5.587   8.836 -1.7948 -0.0464 -0.7591
32364SOL    HW2   48   8.166   5.437   8.849  2.1671  0.3375 -1.1074
32365SOL     OW   49   1.241   5.924  10.597  0.5442  0.2568 -0.7408
32365SOL    HW1   50   1.265   5.833  10.618  2.0843  0.5094 -1.3055
32365SOL    HW2   51   1.171   5.916  10.532  0.4302 -0.5210 -0.5375
32366SOL     OW   52  10.666   6.620   7.704 -0.6678  0.4319 -0.3281
32366SOL    HW1   53  10.623   6.567   7.637 -0.7185 -1.0765  0.8477
32366SOL    HW2   54  10.750   6.644   7.665 -0.5151 -0.7841 -0.7966
32367SOL     OW   55   7.665   4.245   7.493 -0.0194 -0.4939 -0.0683
32367SOL    HW1   56   7.603   4.201   7.552  0.8175  0.7107  1.7963
32367SOL    HW2   57   7.751   4.231   7.533  0.7891 -0.9086 -1.8417
32368SOL     OW   58   2.863   8.012  10.443 -0.3378  0.1965  0.2097
32368SOL    HW1   59   2.868   7.921  10.475 -1.1746  0.5208  1.3124
32368SOL    HW2   60   2.808   8.057  10.507  1.3908  1.8935  0.5930
32369SOL     OW   61   4.397   3.553   6.976  0.1752 -0.5722 -0.1561
32369SOL    HW1   62   4.374   3.470   6.935  0.9302 -1.0858  0.4438
32369SOL    HW2   63   4.449   3.529   7.052  0.2595  0.4460  0.1230
32370SOL     OW   64   0.792   9.287   7.323  0.2733 -0.4782 -0.2485
32370SOL    HW1   65   0.728   9.358   7.319  0.3029 -0.1100  2.9730
32370SOL    HW2   66   0.876   9.329   7.303  0.1925  0.2702  0.9106
32371SOL     OW   67   3.262   4.084   2.867  0.2370  0.1959  0.2847
32371SOL    HW1   68   3.197   4.024   2.830  2.2371 -0.7512 -1.8866
32371SOL    HW2   69   3.339   4.030   2.883  0.6568  1.3338  2.5729
32372SOL     OW   70   5.301   4.374   1.075 -0.0811  0.2870 -0.6644
32372SOL    HW1   71   5.342   4.287   1.072 -1.5729 -0.5689  1.2156
32372SOL    HW2   72   5.370   4.433   1.104  0.4065 -0.7005  0.2367
32373SOL     OW   73   5.366   7.680   5.256 -0.0810 -0.0432 -0.1079
32373SOL    HW1   74   5.461   7.678   5.270 -0.2130  0.6282  0.9604
32373SOL    HW2   75   5.334   7.597   5.291  0.0588 -0.0712 -0.0463
32374SOL     OW   76   2.218   6.418   6.387 -0.2071 -0.0347 -0.1338
32374SOL    HW1   77   2.178   6.368   6.316 -0.6119 -1.4863  1.0647
32374SOL    HW2   78   2.252   6.351   6.447  3.6879  1.0975 -0.8354
32375SOL     OW   79   6.074   9.344   6.564 -0.9847  0.3177  0.2226
32375SOL    HW1   80   6.040   9.281   6.500  1.2385 -0.8998  0.1476
32375SOL    HW2   81   6.145   9.298   6.608 -1.0846  1.8616  2.1470
32376SOL     OW   82   1.758   8.463   5.780 -0.2675  0.5656  0.0385
32376SOL    HW1   83   1.751   8.520   5.703  0.6188  0.5207 -0.0803
32376SOL    HW2   84   1.793   8.381   5.746  0.2455  0.5861  0.5071
32377SOL     OW   85   1.496   3.390   4.944 -0.1889 -0.1200 -0.3863
32377SOL    HW1   86   1.446   3.456   4.896  1.6467 -0.3184 -2.7881
32377SOL    HW2   87   1.453   3.307   4.923 -2.2272  0.1467  2.2750
32378SOL     OW   88   2.546   8.601   4.257 -0.0765 -0.0854  0.1176
32378SOL    HW1   89   2.573   8.558   4.338 -0.7417 -0.9977 -0.1303
32378SOL    HW2   90   2.619   8.659   4.235  0.4329 -0.3933  0.9623
32379SOL     OW   91   0.776   6.305   6.229 -0.1735 -0.2384 -0.0176
32379SOL    HW1   92   0.783   6.283   6.322  1.0222  0.4070  0.0768
32379SOL    HW2   93   0.723   6.235   6.191  1.5317 -2.0155  0.6794
32380SOL     OW   94   0.217   4.202   2.406 -0.4071 -0.1812  0.1483
32380SOL    HW1   95   0.308   4.175   2.419 -0.0794  0.2796 -1.0335
32380SOL    HW2   96   0.213   4.227   2.314 -1.5214  0.6217  0.3978
32381SOL     OW   97   1.072   9.356   7.249  0.3172 -0.4952  0.7033
32381SOL    HW1   98   1.140   9.383   7.187 -0.2626  1.2551  0.7948
32381SOL    HW2   99   1.062   9.430   7.309 -1.7536 -0.6517  0.6348
32382SOL     OW  100   0.721   0.522   0.965  0.1095  0.1123  0.2267
32382SOL    HW1  101   0.795   0.469   0.993 -0.8060 -0.6654  1.3147
32382SOL    HW2  102   0.707   0.498   0.874  1.9489  1.2148 -0.3930
32383SOL     OW  103   7.869   6.927   1.252 -0.2685 -0.1635 -0.4133
32383SOL    HW1  104   7.900   6.849   1.297  0.9644  0.7854  0.4649
32383SOL    HW2  105   7.781   6.905   1.222  0.2119 -2.0082 -0.5412
32384SOL     OW  106   8.709   9.186   7.544 -0.3943  0.1881  0.3040
32384SOL    HW1  107   8.708   9.125   7.617 -2.1981 -1.3912 -0.9412
32384SOL    HW2  108   8.699   9.132   7.466  0.8938  1.8573 -1.1204
32385SOL     OW  109   6.147   3.718   4.049 -0.0199  1.2406  0.4130
32385SOL    HW1  110   6.108   3.631   4.046  0.0679  1.1892  0.7593
32385SOL    HW2  111   6.149   3.741   4.142  2.7039  0.3338  0.6965
32386SOL     OW  112   2.335   1.091  10.073 -0.4601  0.2076 -0.2018
32386SOL    HW1  113   2.369   1.179  10.059 -1.0435  0.8503  2.1002
32386SOL    HW2  114   2.244   1.095  10.043 -0.5499  0.4626  0.0962
32387SOL     OW  115   3.296   9.820   7.493 -0.0689 -0.6364 -0.1521
32387SOL    HW1  116   3.366   9.885   7.500 -0.4723 -0.1029 -1.0370
32387SOL    HW2  117   3.334   9.741   7.531  0.8163 -0.1977 -0.0944
32388SOL     OW  118   7.867   9.779  10.130 -0.6996 -0.3044  0.5044
32388SOL    HW1  119   7.811   9.716  10.176 -0.3485 -1.2198 -0.2811
32388SOL    HW2  120   7.905   9.729  10.058 -0.1813  0.7441  0.0237
32389SOL     OW  121   8.522   2.638   2.793  0.3288  0.4805 -0.4835
32389SOL    HW1  122   8.459   2.704   2.819 -1.3877 -1.7076  1.3487
32389SOL    HW2  123   8.475   2.583   2.729  1.0291 -0.0850 -0.5272
32390SOL     OW  124   4.491   5.424   8.299 -0.4389 -0.3413 -0.1943
32390SOL    HW1  125   4.579   5.445   8.267  0.0862  0.1575  1.4743
32390SOL    HW2  126   4.484   5.329   8.289 -0.7035 -0.1409 -2.6270
32391SOL     OW  127   3.087   1.106   5.212 -0.0735 -0.0825 -0.0197
32391SOL    HW1  128   2.998   1.070   5.217  0.0652 -0.3230  1.0064
32391SOL    HW2  129   3.143   1.030   5.202  0.2119 -0.1903  2.0395
32392SOL     OW  130   7.555   0.805   2.509 -0.3473  0.8049 -0.1777
32392SOL    HW1  131   7.505   0.820   2.589 -0.1460 -1.1752  0.3739
32392SOL    HW2  132   7.558   0.891   2.466 -0.1565  2.0363  2.0997
32393SOL     OW  133   6.194   9.188   9.998 -0.2556  0.4382 -0.1536
32393SOL    HW1  134   6.123   9.144   9.951 -1.1361  0.4296  1.1465
32393SOL    HW2  135   6.165   9.191  10.089 -0.1544  3.4960 -0.1034
32394SOL     OW  136   9.054   8.142   3.097  0.2785  0.0928  0.3133
32394SOL    HW1  137   9.109   8.146   3.175  1.9763 -0.6305 -0.7868
32394SOL    HW2  138   9.065   8.227   3.055 -0.7463  0.5343  0.8987
32395SOL     OW  139   4.823   2.506   9.858 -0.4597  0.3056  0.8001
32395SOL    HW1  140   4.799   2.417   9.887  0.7799  0.1542  1.4300
32395SOL    HW2  141   4.870   2.543   9.933 -1.1312  1.5806  0.6095
32396SOL     OW  142   8.652   7.879   5.845 -0.2764  0.0605  0.0448
32396SOL    HW1  143   8.647   7.975   5.844  0.1127  0.0794 -0.1245
32396SOL    HW2  144   8.687   7.856   5.759 -0.2529 -0.2287  0.1321
32397SOL     OW  145   9.984   3.930   0.266  0.0109  0.2868  0.0608
32397SOL    HW1  146  10.051   3.972   0.321 -1.8191  2.7637  0.6172
32397SOL    HW2  147  10.010   3.950   0.177  0.4814  0.4951  0.2402
32398SOL     OW  148  10.295   6.196   3.174 -0.6686  0.1619 -0.0878
32398SOL    HW1  149  10.239   6.249   3.231  0.3290  0.3160  0.7667
32398SOL    HW2  150  10.264   6.107   3.187 -0.3532  0.1754  0.8260
32399SOL     OW  151   7.977   0.251   2.997  0.3180  0.1257 -0.2183
32399SOL    HW1  152   7.990   0.320   2.932  1.4003  0.8364  0.7143
32399SOL    HW2  153   7.957   0.299   3.078  1.4057 -0.6188  0.5193
32400SOL     OW  154   4.953   2.902   6.654  0.3187  0.0315  0.4827
32400SOL    HW1  155   5.048   2.889   6.661  0.4341  0.4064 -0.2861
32400SOL    HW2  156   4.938   2.989   6.690  0.1982 -0.2158  1.0427
32401SOL     OW  157   6.613   6.069   5.197  0.5464 -0.0434 -0.1481
32401SOL    HW1  158   6.526   6.090   5.164  0.1903  0.2740  0.9332
32401SOL    HW2  159   6.668   6.063   5.119 -0.2775  0.5260 -0.7883
32402SOL     OW  160   6.258   5.857   8.841 -0.2980 -0.0685  0.0450
32402SOL    HW1  161   6.217   5.804   8.909 -1.3411 -0.3247 -0.7500
32402SOL    HW2  162   6.310   5.795   8.790 -4.8737 -1.4856 -3.5859
32403SOL     OW  163   7.522  10.020   9.490 -0.0195 -0.3538 -0.2992
32403SOL    HW1  164   7.513   9.989   9.580  0.7043  2.6540  0.9257
32403SOL    HW2  165   7.593   9.967   9.453 -0.3604 -1.6600  0.8616
32404SOL     OW  166   3.762   0.637   5.533  0.4994  0.4078  0.4296
32404SOL    HW1  167   3.772   0.545   5.558 -1.3591  0.1861  0.5078
32404SOL    HW2  168   3.678   0.663   5.571  0.3118  1.7214 -0.7916
32405SOL     OW  169   4.142   1.908   6.286  0.0663  0.6187  0.6135
32405SOL    HW1  170   4.131   1.965   6.362 -2.6476  0.0427  0.7486
32405SOL    HW2  171   4.208   1.845   6.312 -0.3273  0.8470  2.2581
32406SOL     OW  172   9.323  10.662   1.811 -0.3374  0.3837 -0.2886
32406SOL    HW1  173   9.399  10.639   1.865  1.8245  1.2696 -2.7488
32406SOL    HW2  174   9.297  10.748   1.842 -0.8480 -0.2163  1.0417
32407SOL     OW  175   3.081   4.840  10.677  0.4853 -0.3579 -0.1957
32407SOL    HW1  176   3.170   4.874  10.664  0.4727 -0.6744 -1.1875
32407SOL    HW2  177   3.092   4.769  10.741  0.8482  0.0091  0.1564
32408SOL     OW  178   0.617   7.106   1.684 -0.0842  1.1248  0.7536
32408SOL    HW1  179   0.686   7.127   1.621 -0.0506 -0.4843  0.2113
32408SOL    HW2  180   0.616   7.181   1.745  0.5086  2.2763 -0.5962
32409SOL     OW  181   3.311   1.187   3.775 -0.3601  0.4707 -0.6283
32409SOL    HW1  182   3.264   1.193   3.858  1.0994  1.1751  0.1846
32409SOL    HW2  183   3.244   1.164   3.710 -1.5448  0.0455  0.7113
32410SOL     OW  184   6.457   6.576   5.567  0.9294 -0.1103  0.0007
32410SOL    HW1  185   6.534   6.543   5.521  1.4799  0.1007  0.7368
32410SOL    HW2  186   6.493   6.614   5.648  0.0807  0.2700  0.2046
32411SOL     OW  187   1.014   5.388   7.252 -0.4465  0.0304  0.5192
32411SOL    HW1  188   1.033   5.334   7.175 -0.0020 -0.4927  0.9839
32411SOL    HW2  189   0.974   5.328   7.314  1.0489 -0.0525  1.4596
32412SOL     OW  190   0.979  10.693   3.180  0.5964  0.2515  0.2574
32412SOL    HW1  191   1.045  10.624   3.172  1.0261  0.5342  1.2951
32412SOL    HW2  192   1.016  10.768   3.132  0.8778  0.3016  0.5541
32413SOL     OW  193   5.931  10.040   0.217  0.3666  0.1315  0.1138
32413SOL    HW1  194   5.907   9.947   0.216 -1.9156  0.6541  0.6400
32413SOL    HW2  195   6.020  10.041   0.253  0.2909 -1.8057  0.4884
32414SOL     OW  196   6.057   8.991   7.537 -0.1777 -0.3286 -0.0433
32414SOL    HW1  197   6.070   8.952   7.623  0.2669  1.1216  0.5787
32414SOL    HW2  198   5.975   8.953   7.505 -0.4437 -0.7480  1.0960
32415SOL     OW  199   2.567   4.127   3.444  0.0550 -0.3397 -0.1416
32415SOL    HW1  200   2.563   4.119   3.539 -1.4947 -0.8841 -0.2164
32415SOL    HW2  201   2.660   4.132   3.424  0.6771 -4.0952  1.1125
32416SOL     OW  202   9.439   3.897   8.339 -0.0713  0.2093  0.0396
32416SOL    HW1  203   9.386   3.856   8.408  2.1729  0.0293  1.7503
32416SOL    HW2  204   9.426   3.840   8.263 -0.1370 -1.4434  1.2299
32417SOL     OW  205   6.623   4.887   9.609  0.3808 -0.3836  0.1793
32417SOL    HW1  206   6.558   4.847   9.551  0.4051 -2.0548  1.2500
32417SOL    HW2  207   6.636   4.823   9.679  1.9054  0.6663  0.9167
32418SOL     OW  208   0.943  10.135   1.113  0.0316  0.1517  0.4583
32418SOL    HW1  209   1.013  10.071   1.124  1.1287  1.0072 -1.1335
32418SOL    HW2  210   0.863  10.082   1.112  1.0468 -1.7759 -4.0150
32419SOL     OW  211   1.881   0.456   5.373  0.2485  0.4342  0.0406
32419SOL    HW1  212   1.898   0.372   5.417 -0.0680  0.1545 -0.3671
32419SOL    HW2  213   1.959   0.508   5.392  1.3412 -0.6282 -1.2904
32420SOL     OW  214   5.694   7.184   9.451  0.2179 -0.0798 -0.0485
32420SOL    HW1  215   5.687   7.095   9.418 -0.4064 -0.2142  0.4430
32420SOL    HW2  216   5.625   7.232   9.406  0.7528  0.2425 -0.5502
32421SOL     OW  217   5.182   4.608   8.154 -0.2741  0.4443 -0.2396
32421SOL    HW1  218   5.102   4.660   8.149 -0.4269  0.3499  0.8862
32421SOL    HW2  219   5.178   4.549   8.079  0.5357  2.8667 -2.3338
32422SOL     OW  220   5.794   7.456   7.760 -0.0413  0.3721  0.4204
32422SOL    HW1  221   5.709   7.412   7.763 -0.3806  0.7506 -1.8374
32422SOL    HW2  222   5.773   7.548   7.773  0.0535  0.4235  0.2171
32423SOL     OW  223   9.335   9.770  10.365 -0.5189  0.5097  0.0262
32423SOL    HW1  224   9.308   9.680  10.349 -1.7185  0.9157 -0.3201
32423SOL    HW2  225   9.271   9.823  10.319  0.9193  1.5371 -0.8814
32424SOL     OW  226   5.434   4.326   7.002 -0.5683 -0.2575 -0.3388
32424SOL    HW1  227   5.465   4.265   6.934 -0.1165  1.2290 -1.5183
32424SOL    HW2  228   5.514   4.363   7.040 -0.8372  0.3854 -0.3792
32425SOL     OW  229   9.553   0.871   4.314 -0.2776  0.0046 -0.0525
32425SOL    HW1  230   9.612   0.903   4.247  0.9457 -1.3043  0.3467
32425SOL    HW2  231   9.562   0.776   4.311 -1.1868 -0.1483  1.0880
32426SOL     OW  232   4.200   5.814  10.220 -0.2575  0.5003  0.1912
32426SOL    HW1  233   4.163   5.853  10.299 -0.4040 -0.0097  0.3793
32426SOL    HW2  234   4.124   5.793  10.165 -0.2859 -0.7644  0.6772
32427SOL     OW  235   0.365   5.530   7.491  0.1317 -0.3321 -0.3924
32427SOL    HW1  236   0.366   5.626   7.496 -0.1195 -0.3618  0.3073
32427SOL    HW2  237   0.404   5.502   7.574  0.1421 -0.8414 -0.5681
32428SOL     OW  238   9.229   9.170  10.319 -0.1744 -0.2500  0.4565
32428SOL    HW1  239   9.211   9.263  10.305 -1.1844 -0.2841  1.3481
32428SOL    HW2  240   9.161   9.142  10.381 -0.6604 -1.8646 -0.7383
32429SOL     OW  241   6.231   7.815   3.475  0.3504  0.1998  0.6158
32429SOL    HW1  242   6.215   7.837   3.566  0.2178 -3.5560  1.6418
32429SOL    HW2  243   6.302   7.751   3.477 -0.8233 -1.3386 -1.6962
32430SOL     OW  244   8.915   3.161   3.407 -0.0687  0.3263  0.2229
32430SOL    HW1  245   8.938   3.097   3.474 -0.2964 -0.8961 -0.8356
32430SOL    HW2  246   8.999   3.197   3.378  0.0349  0.7864  1.0800
32431SOL     OW  247   2.170   3.309   1.192  0.7998  0.0823 -0.5157
32431SOL    HW1  248   2.081   3.275   1.186  1.7063 -2.2830 -2.2804
32431SOL    HW2  249   2.219   3.242   1.239  1.4475  2.0260  1.8011
32432SOL     OW  250   4.210   7.482   2.101 -0.4960 -0.3966 -0.1100
32432SOL    HW1  251   4.237   7.526   2.020 -1.2644 -0.8702 -0.6428
32432SOL    HW2  252   4.134   7.430   2.075  0.1774 -1.7566  0.5930
32433SOL     OW  253   7.939   4.460   1.039  0.2781 -0.6038  0.1598
32433SOL    HW1  254   7.975   4.524   1.101 -0.3126  0.2277 -0.3297
32433SOL    HW2  255   7.941   4.505   0.955 -3.7805  0.3649  0.3705
32434SOL     OW  256   7.369   0.711  10.176  0.0111 -0.1870 -0.2402
32434SOL    HW1  257   7.383   0.661  10.256 -0.7415 -1.3471 -0.8141
32434SOL    HW2  258   7.379   0.803  10.203  3.5646 -0.6397  0.4117
32435SOL     OW  259   9.086   1.812  10.076  0.4355 -0.2983 -0.7732
32435SOL    HW1  260   9.039   1.878  10.127 -0.3164 -0.6318 -1.0205
32435SOL    HW2  261   9.043   1.729  10.098  1.5021 -0.7471 -0.3023
32436SOL     OW  262   4.326   7.079   5.865 -0.0835  0.7642  0.5132
32436SOL    HW1  263   4.399   7.123   5.909 -0.4290  1.6879  0.1746
32436SOL    HW2  264   4.255   7.083   5.928 -0.3340  1.3552  0.1991
32437SOL     OW  265   4.492   3.459   5.870  0.1182  0.3781 -0.5637
32437SOL    HW1  266   4.414   3.447   5.815 -0.4534  0.2067  0.2768
32437SOL    HW2  267   4.565   3.462   5.807 -0.5741  0.7125 -1.3696
32438SOL     OW  268   3.083   1.545   6.355  0.4266  0.4359 -0.4039
32438SOL    HW1  269   2.989   1.561   6.365  0.4984  0.3182  0.5983
32438SOL    HW2  270   3.121   1.633   6.347  0.1208  0.4489 -2.2043
32439SOL     OW  271   0.571   0.656   1.153  0.0428 -0.0859  0.3017
32439SOL    HW1  272   0.583   0.603   1.231  0.1334  0.2144  0.4953
32439SOL    HW2  273   0.619   0.610   1.084  2.5526  1.1647  1.0869
32440SOL     OW  274   0.133   5.609   3.494 -0.4601 -0.1328 -0.2178
32440SOL    HW1  275   0.209   5.596   3.437  0.1472  1.2661  0.2360
32440SOL    HW2  276   0.106   5.520   3.519  0.9812 -0.6492 -0.4382
32441SOL     OW  277   4.132   3.609   1.938 -0.5543 -0.1905 -0.0403
32441SOL    HW1  278   4.209   3.586   1.990  0.7019 -0.7306 -2.0454
32441SOL    HW2  279   4.128   3.705   1.944 -0.7205 -0.2594  1.3776
32442SOL     OW  280   9.383   8.623   5.265 -0.7277  0.4457 -0.1837
32442SOL    HW1  281   9.341   8.545   5.229  0.8211 -0.6873  0.3837
32442SOL    HW2  282   9.440   8.654   5.195 -1.2265  0.9936 -0.3527
32443SOL     OW  283   6.258   5.626   9.302 -0.2518  0.0031  0.0078
32443SOL    HW1  284   6.309   5.701   9.273 -0.5365  0.4389  0.6018
32443SOL    HW2  285   6.323   5.562   9.329  0.0076 -0.2383 -1.1350
32444SOL     OW  286   2.500  10.003   3.883  0.6132  0.8960 -0.6276
32444SOL    HW1  287   2.476  10.060   3.956  1.5520 -0.3526  0.7182
32444SOL    HW2  288   2.459  10.043   3.807 -2.1772  1.1459  0.8559
32445SOL     OW  289   2.690   0.379   5.056 -0.3908  0.5206  0.1421
32445SOL    HW1  290   2.729   0.328   4.986  0.1602  2.0102 -0.6844
32445SOL    HW2  291   2.610   0.416   5.018 -2.1526 -1.6603  1.4962
32446SOL     OW  292   3.531   7.743   7.134  0.3469 -0.3117  0.2980
32446SOL    HW1  293   3.533   7.838   7.147  0.7050  0.0479 -2.0032
32446SOL    HW2  294   3.456   7.713   7.186 -0.9547  1.5164 -0.4223
32447SOL     OW  295   0.626   1.006   7.360  0.3372  0.6018  0.1924
32447SOL    HW1  296   0.646   0.922   7.402 -2.9216 -0.3864  0.0108
32447SOL    HW2  297   0.603   1.064   7.432 -1.6493 -0.0182  0.1234
32448SOL     OW  298   7.701   9.647   1.787 -0.2502 -0.2259  0.2955
32448SOL    HW1  299   7.636   9.632   1.718 -1.2517  0.7527  0.9983
32448SOL    HW2  300   7.746   9.563   1.797  0.3468 -0.2325 -1.9582
32449SOL     OW  301   1.909   4.554   8.744 -0.1488 -0.0434 -0.2013
32449SOL    HW1  302   1.842   4.620   8.726  0.4583  0.5022 -0.4877
32449SOL    HW2  303   1.987   4.605   8.766  0.6429 -0.6554 -1.5348
32450SOL     OW  304   2.737   1.287   9.718  0.1588 -0.4794  0.0644
32450SOL    HW1  305   2.773   1.268   9.805 -0.1448 -1.0319  0.0756
32450SOL    HW2  306   2.812   1.319   9.668  0.4016 -0.4489  0.4410
32451SOL     OW  307   2.443  10.535   2.668  0.7559  0.5362 -0.1014
32451SOL    HW1  308   2.513  10.599   2.682 -0.2142  1.1677  2.3016
32451SOL    HW2  309   2.380  10.580   2.611  0.0792  1.7927  1.5685
32452SOL     OW  310   8.011   9.604  10.542 -0.4639  0.2737  0.3779
32452SOL    HW1  311   7.915   9.606  10.541 -0.4698  0.0055 -0.8028
32452SOL    HW2  312   8.033   9.514  10.563 -0.4876  0.1253 -0.2082
32453SOL     OW  313   9.274   8.145   7.143 -0.1420 -0.5013  0.3584
32453SOL    HW1  314   9.288   8.160   7.236  1.1817  0.8143 -0.0196
32453SOL    HW2  315   9.202   8.204   7.120 -0.5522 -0.9174  0.5650
32454SOL     OW  316   8.138   3.184   5.589  0.1716  0.5808 -0.3102
32454SOL    HW1  317   8.169   3.241   5.519  2.7609 -0.7674 -0.3700
32454SOL    HW2  318   8.064   3.137   5.551  0.9431  0.5634 -1.8434
32455SOL     OW  319   3.813   6.299   4.862  0.5205  0.1882  0.6248
32455SOL    HW1  320   3.829   6.391   4.883  0.9222  0.3278 -0.2291
32455SOL    HW2  321   3.899   6.266   4.833  0.1602 -0.1742 -0.0573
32456SOL     OW  322   2.292   2.426   1.503 -0.4440 -0.2708 -0.1688
32456SOL    HW1  323   2.250   2.507   1.476  0.0794 -0.2165 -0.8685
32456SOL    HW2  324   2.302   2.434   1.598 -2.9758 -0.7714  0.2096
32457SOL     OW  325   1.568   4.233   6.186 -0.0770 -0.3068 -0.0421
32457SOL    HW1  326   1.533   4.267   6.268  0.3247 -0.7491  0.3175
32457SOL    HW2  327   1.656   4.203   6.208  0.4308  0.5312 -0.8729
32458SOL     OW  328   5.458   9.025   8.361  0.1626 -0.1227  0.0328
32458SOL    HW1  329   5.447   8.998   8.270 -0.3052 -1.0002  0.3304
32458SOL    HW2  330   5.516   8.959   8.399 -0.4579 -0.3501  0.6114
32459SOL     OW  331   6.143   7.382   3.786 -0.5294 -0.3225 -0.3765
32459SOL    HW1  332   6.141   7.353   3.694  1.5463 -0.6528 -0.3718
32459SOL    HW2  333   6.201   7.319   3.829 -0.2075  0.7508  0.8110
32460SOL     OW  334   6.252   2.555   2.932  0.0115 -0.4149  0.0468
32460SOL    HW1  335   6.256   2.486   2.867  1.8135 -1.1917  0.8967
32460SOL    HW2  336   6.192   2.522   2.999 -1.7596  0.3410 -1.0763
32461SOL     OW  337   6.703   8.667   9.338  0.4395 -0.0302  0.4212
32461SOL    HW1  338   6.645   8.592   9.330  1.4404 -0.7364 -0.4110
32461SOL    HW2  339   6.652   8.741   9.305 -0.4800 -0.3636  1.0602
32462SOL     OW  340   1.452  10.522   2.702  0.1383 -0.2738  0.5576
32462SOL    HW1  341   1.544  10.502   2.687 -0.0251 -1.2050  0.7709
32462SOL    HW2  342   1.423  10.563   2.620  0.8930  0.5997  0.7190
32463SOL     OW  343   5.972   4.562   9.604  0.1771  0.1369  0.5948
32463SOL    HW1  344   5.949   4.521   9.521  0.4930 -0.9052  1.0121
32463SOL    HW2  345   6.063   4.588   9.594 -0.6974  3.2614 -0.6509
32464SOL     OW  346   0.163   6.103   7.963  0.1501  0.4347  0.4287
32464SOL    HW1  347   0.136   6.114   7.872 -0.2491 -0.0542  0.4833
32464SOL    HW2  348   0.178   6.192   7.994 -0.6943  0.6718  0.1812
32465SOL     OW  349   6.856   4.299   2.758 -0.1141 -0.3628  0.2801
32465SOL    HW1  350   6.939   4.338   2.733  0.2684 -0.6790  1.0395
32465SOL    HW2  351   6.790   4.352   2.713  0.4416  0.5393  0.5141
32466SOL     OW  352   3.507   4.439  10.113 -0.2170 -0.3068 -0.3305
32466SOL    HW1  353   3.506   4.418  10.020 -1.9809 -1.6585 -0.0483
32466SOL    HW2  354   3.531   4.357  10.156  0.0027  0.1580  0.4558
32467SOL     OW  355   9.442   7.647   2.242  0.1368  0.2176 -0.3040
32467SOL    HW1  356   9.465   7.565   2.199  0.4646 -0.9789  1.9759
32467SOL    HW2  357   9.386   7.693   2.179  0.6158 -1.3545 -1.9670
32468SOL     OW  358   7.653   5.874   4.349 -0.1492 -0.2104  0.1639
32468SOL    HW1  359   7.740   5.850   4.383 -0.8447 -0.6513  1.7453
32468SOL    HW2  360   7.649   5.833   4.263  1.1861 -0.2434  0.1005
32469SOL     OW  361   9.687  10.510   8.528 -0.4088  0.2461 -0.2259
32469SOL    HW1  362   9.741  10.506   8.607 -0.8802 -1.0784  0.0518
32469SOL    HW2  363   9.675  10.418   8.502 -2.7402  0.4601 -0.1048
32470SOL     OW  364   5.640  10.161   1.528 -0.5466  0.3315  0.4639
32470SOL    HW1  365   5.707  10.144   1.462  0.0344 -2.2182  1.5990
32470SOL    HW2  366   5.562  10.183   1.477  0.3989  0.4348 -1.0011
32471SOL     OW  367   3.923   7.363   7.242  0.3462  0.0301 -0.1328
32471SOL    HW1  368   3.937   7.442   7.190  1.4552 -0.7515 -1.0612
32471SOL    HW2  369   3.850   7.385   7.300 -0.2537  1.2781 -1.3094
32472SOL     OW  370   1.801   3.409   5.779  0.0076 -0.5585 -0.7223
32472SOL    HW1  371   1.751   3.340   5.824  0.2685  0.6673  1.6408
32472SOL    HW2  372   1.785   3.487   5.832  1.1773  0.7958 -2.2787
32473SOL     OW  373   3.565   9.674   6.872  0.2894  0.1203  0.3920
32473SOL    HW1  374   3.638   9.685   6.811 -1.0000  0.5049 -1.1821
32473SOL    HW2  375   3.523   9.760   6.874 -0.5777 -0.3011  0.6332
32474SOL     OW  376   5.141   1.412   2.614 -0.2778 -0.0622  0.3260
32474SOL    HW1  377   5.068   1.351   2.627  1.0226 -1.4238  1.6694
32474SOL    HW2  378   5.209   1.382   2.675  0.6246  2.4466  0.7079
32475SOL     OW  379   1.687   7.444   3.022 -0.1551  0.5968  0.3781
32475SOL    HW1  380   1.768   7.393   3.017 -0.4879  0.0556  0.4852
32475SOL    HW2  381   1.619   7.385   2.990 -0.6369  0.7639  1.0715
32476SOL     OW  382   8.538   8.772   2.446 -0.5286 -0.0328 -0.2179
32476SOL    HW1  383   8.582   8.777   2.531  1.0945  0.2941 -1.0402
32476SOL    HW2  384   8.575   8.844   2.395  0.8042 -1.9717 -2.1862
32477SOL     OW  385   3.681   4.483   0.412 -0.6177  0.5407 -0.3798
32477SOL    HW1  386   3.717   4.492   0.500 -1.2721 -0.6969  0.0308
32477SOL    HW2  387   3.751   4.512   0.354 -0.1382  1.2524  0.5333
32478SOL     OW  388   0.464   5.972   7.084 -0.1893  0.3744  0.0765
32478SOL    HW1  389   0.408   6.045   7.057  0.6366  0.6338 -1.0052
32478SOL    HW2  390   0.515   6.006   7.157  0.1445  0.8552 -0.3809
32479SOL     OW  391   2.529   4.747   6.214  0.1941  0.5171 -0.5225
32479SOL    HW1  392   2.460   4.771   6.276 -0.5962 -0.1051 -1.1365
32479SOL    HW2  393   2.584   4.825   6.209 -0.1159  0.8215  0.4289
32480SOL     OW  394   1.095   7.577   8.406 -0.0359  0.7502 -0.1862
32480SOL    HW1  395   1.048   7.657   8.429  1.9267  2.0092 -0.2588
32480SOL    HW2  396   1.187   7.599   8.422  0.4855 -1.8713  0.8141
32481SOL     OW  397   1.918   7.257   0.884 -0.3881  0.2854  1.1133
32481SOL    HW1  398   1.988   7.262   0.819 -0.6789 -0.5637  0.7186
32481SOL    HW2  399   1.929   7.335   0.938 -1.3469  2.1241 -1.1938
32482SOL     OW  400   6.448   5.135   8.446 -0.0005 -0.1459  0.1390
32482SOL    HW1  401   6.410   5.211   8.401  0.1892 -0.2213 -0.1513
32482SOL    HW2  402   6.372   5.084   8.475 -0.1798 -1.4190 -2.3086
32483SOL     OW  403   5.944   3.144   7.138  0.8915  0.1070 -0.4544
32483SOL    HW1  404   5.985   3.127   7.053  1.1067 -2.5176  0.1141
32483SOL    HW2  405   6.006   3.109   7.202  0.2888  1.1733  0.7669
32484SOL     OW  406   3.263   2.670   6.583  0.4178  0.4174  0.3222
32484SOL    HW1  407   3.260   2.586   6.537  1.8347  1.1343 -1.1943
32484SOL    HW2  408   3.249   2.735   6.514 -0.1579  1.4572  1.3882
32485SOL     OW  409   1.079   0.196   6.400 -0.5332  0.0096  0.2917
32485SOL    HW1  410   1.115   0.211   6.313 -0.3181  0.2450  0.4205
32485SOL    HW2  411   1.113   0.109   6.424  0.2566  0.3835  0.5600
32486SOL     OW  412   4.860   1.600   9.713 -0.4523 -0.0383 -0.4341
32486SOL    HW1  413   4.770   1.631   9.701 -1.6522 -2.2464  1.8412
32486SOL    HW2  414   4.872   1.535   9.644 -1.4845 -1.3382  0.5585
32487SOL     OW  415   6.648   8.475   1.641  0.1131  0.6711  0.1209
32487SOL    HW1  416   6.577   8.420   1.609  0.4398 -1.2745  2.4670
32487SOL    HW2  417   6.698   8.499   1.563  0.0388 -2.5163 -1.0109
32488SOL     OW  418   5.553   0.701   6.308 -0.5930  0.6455 -0.9847
32488SOL    HW1  419   5.536   0.786   6.268  0.2202  1.6598  0.7346
32488SOL    HW2  420   5.643   0.707   6.341 -1.1327 -0.2114  0.7588
32489SOL     OW  421   7.423  10.284   2.690 -0.1633 -0.1089  0.4163
32489SOL    HW1  422   7.434  10.379   2.702 -0.6721 -0.0148  0.1593
32489SOL    HW2  423   7.465  10.265   2.606 -2.0084  0.2747 -0.6390
32490SOL     OW  424  10.651   5.434   5.074 -0.2666  0.0738 -0.1414
32490SOL    HW1  425  10.733   5.438   5.123  0.3604 -1.3715 -1.0038
32490SOL    HW2  426  10.639   5.523   5.039  0.4351  0.5368  0.7566
32491SOL     OW  427   0.268   7.884   9.872  0.3154  0.0891  0.3502
32491SOL    HW1  428   0.254   7.789   9.873 -1.8411  0.3239 -0.7232
32491SOL    HW2  429   0.344   7.898   9.928  1.2747 -2.3494 -0.2225
32492SOL     OW  430   7.915   4.471   8.520  0.2519 -0.2184  0.2680
32492SOL    HW1  431   8.003   4.460   8.557 -0.3537 -0.6022  1.6452
32492SOL    HW2  432   7.906   4.399   8.457  0.6263 -0.6425  0.6936
32493SOL     OW  433   9.717   7.591   6.561 -0.3927 -0.1331 -0.1814
32493SOL    HW1  434   9.677   7.671   6.593  1.6182  1.0554 -0.4409
32493SOL    HW2  435   9.717   7.532   6.636 -0.9920  0.4742  0.3046
32494SOL     OW  436   7.197   3.593   3.050  0.0721  0.0095  0.2357
32494SOL    HW1  437   7.268   3.636   3.002 -0.4963  1.4986  0.6400
32494SOL    HW2  438   7.238   3.558   3.129  0.8410 -1.6213 -0.8550
32495SOL     OW  439   6.998   3.059  10.595  0.0071  0.3519  0.1399
32495SOL    HW1  440   7.039   3.123  10.654 -0.0385  0.9845 -0.4931
32495SOL    HW2  441   6.912   3.097  10.576 -0.8576 -0.9069  1.3711
32496SOL     OW  442   9.144   6.102   6.424 -0.0391 -0.5683 -0.0120
32496SOL    HW1  443   9.169   6.055   6.503  0.8913  0.2442  0.2009
32496SOL    HW2  444   9.057   6.070   6.403  0.4624 -2.1903  0.2610
32497SOL     OW  445   9.250   3.453   5.192  0.6721  0.0528  0.6785
32497SOL    HW1  446   9.345   3.444   5.180  0.5815  1.3367 -1.7071
32497SOL    HW2  447   9.218   3.480   5.106 -2.2236 -2.6324  0.7238
32498SOL     OW  448   7.073   3.701   5.130  0.9062 -0.0189 -0.4631
32498SOL    HW1  449   7.011   3.773   5.142  1.3984  0.5615 -1.2889
32498SOL    HW2  450   7.022   3.632   5.088  0.6400  0.1817 -0.4736
32499SOL     OW  451   5.068   6.302   9.393 -0.5936 -0.0997 -0.4006
32499SOL    HW1  452   5.117   6.372   9.352 -0.7029  0.3239  0.1755
32499SOL    HW2  453   5.099   6.300   9.484 -1.0654 -0.3504 -0.2383
32500SOL     OW  454   4.710   4.694   9.195 -0.3604  0.1101  0.3757
32500SOL    HW1  455   4.699   4.600   9.177 -0.2889  0.1864 -0.0647
32500SOL    HW2  456   4.804   4.705   9.209 -0.3626  0.1293  0.3756
32501SOL     OW  457   5.973   2.994   8.893  0.2242 -0.5681 -0.2199
32501SOL    HW1  458   5.886   2.963   8.917 -0.4884  1.2654 -0.2613
32501SOL    HW2  459   5.956   3.072   8.840  1.8945 -0.5714 -0.8038
32502SOL     OW  460   4.078   3.692   4.917  0.1045 -0.1116  0.5458
32502SOL    HW1  461   4.057   3.601   4.895  1.7536 -0.0565 -1.6381
32502SOL    HW2  462   3.997   3.740   4.903 -0.2946 -0.9746 -0.1933
32503SOL     OW  463   4.249   2.174   0.232 -0.5902  0.4074 -0.6313
32503SOL    HW1  464   4.257   2.223   0.313 -0.1681 -0.7358  0.0483
32503SOL    HW2  465   4.265   2.238   0.163  1.9077  0.8552  0.2695
32504SOL     OW  466   8.991   1.165   0.136 -0.5646  0.2044 -0.4173
32504SOL    HW1  467   9.070   1.129   0.096  0.8132  0.7311  1.7269
32504SOL    HW2  468   8.925   1.095   0.125  0.7594 -1.0925 -0.4210
32505SOL     OW  469   7.286   3.804   3.552 -0.1779 -0.3375 -0.0339
32505SOL    HW1  470   7.219   3.817   3.620  0.3387  0.9448  0.2624
32505SOL    HW2  471   7.338   3.884   3.555  1.7282 -1.5171  0.1328
32506SOL     OW  472   3.682   8.637   6.688 -0.1716 -0.5209  0.4287
32506SOL    HW1  473   3.730   8.581   6.626  2.1495  2.1433 -0.3674
32506SOL    HW2  474   3.736   8.714   6.698 -2.1253  0.6577  3.2639
32507SOL     OW  475   6.546   5.013   5.822  0.3063 -0.5506 -0.0427
32507SOL    HW1  476   6.527   5.041   5.912  1.2024 -0.1103  0.0160
32507SOL    HW2  477   6.498   5.075   5.768  1.4935  0.5524  0.1078
32508SOL     OW  478   6.785   6.788   0.380  0.2572 -0.1582  0.3255
32508SOL    HW1  479   6.778   6.699   0.412 -1.5338 -0.3608 -0.4874
32508SOL    HW2  480   6.839   6.782   0.301  1.4277 -0.2585  1.1206
32509SOL     OW  481   0.876   8.503   9.160 -0.4655 -0.4269 -0.5687
32509SOL    HW1  482   0.919   8.437   9.105  0.4441  0.1183 -0.5386
32509SOL    HW2  483   0.915   8.491   9.247  0.4429  0.7660 -0.7834
32510SOL     OW  484   1.168   9.755   9.604  0.3740  0.3627  0.0196
32510SOL    HW1  485   1.113   9.681   9.632 -0.0157  0.6741  0.0867
32510SOL    HW2  486   1.257   9.723   9.613  0.2009 -0.1963 -0.2049
32511SOL     OW  487   7.179   6.339   1.976  0.2905  0.4325 -0.3672
32511SOL    HW1  488   7.269   6.310   1.991  0.8304  1.5395 -1.3095
32511SOL    HW2  489   7.165   6.324   1.883  0.0163  1.6007 -0.5312
32512SOL     OW  490   5.423   8.882  10.530 -0.1965 -0.2742  0.1593
32512SOL    HW1  491   5.424   8.847  10.441  0.8612  2.1610 -0.8726
32512SOL    HW2  492   5.347   8.941  10.532 -1.2147 -1.5436  1.4647
32513SOL     OW  493   7.927   1.793   7.139 -0.0270 -0.0615  0.2199
32513SOL    HW1  494   7.860   1.860   7.128 -0.6171 -0.7154 -0.2706
32513SOL    HW2  495   7.902   1.724   7.078  1.2704 -0.1827 -0.2210
32514SOL     OW  496   8.276   2.012   0.861 -0.0005  0.3815  0.4402
32514SOL    HW1  497   8.283   1.948   0.931  2.7447 -0.1758 -0.2302
32514SOL    HW2  498   8.240   1.964   0.787 -0.0445  0.1790  0.5939
32515SOL     OW  499   4.172   7.749   9.587 -0.2665 -0.0584 -0.0827
32515SOL    HW1  500   4.202   7.692   9.517  0.8593  1.8780 -1.2645
32515SOL    HW2  501   4.118   7.816   9.543 -1.4125 -0.0777  1.2181
32516SOL     OW  502   1.196   8.114   8.295  0.3310 -0.3183  0.6736
32516SOL    HW1  503   1.192   8.031   8.248  0.7413 -0.5741  1.0703
32516SOL    HW2  504   1.117   8.115   8.348 -0.3151  0.1399 -0.2781
32517SOL     OW  505   7.135   7.326   1.888  0.4162  0.1105  0.1693
32517SOL    HW1  506   7.155   7.417   1.866  2.0063 -0.0619  0.7484
32517SOL    HW2  507   7.216   7.293   1.928 -0.6629 -1.0882  1.4423
32518SOL     OW  508   9.674   9.074   7.688 -0.7783 -0.0574 -0.0389
32518SOL    HW1  509   9.645   9.106   7.603  0.4494 -1.0756 -0.8786
32518SOL    HW2  510   9.752   9.127   7.708 -0.7174 -0.2195  0.1553
32519SOL     OW  511   4.606   7.620   5.113 -0.2180  0.6060 -0.6159
32519SOL    HW1  512   4.683   7.628   5.056 -0.1237 -0.4881 -0.6720
32519SOL    HW2  513   4.609   7.529   5.143 -0.8734  0.8712  0.2769
32520SOL     OW  514   9.111   5.566   8.217  0.0359  0.1629 -0.5144
32520SOL    HW1  515   9.183   5.520   8.173  0.5549 -0.4501  0.9076
32520SOL    HW2  516   9.053   5.495   8.246  0.4473  0.4369  1.0256
32521SOL     OW  517   8.928   7.833   2.465 -0.2004 -0.3360 -0.2243
32521SOL    HW1  518   9.005   7.810   2.414 -0.2632 -0.8813 -0.0886
32521SOL    HW2  519   8.858   7.777   2.430 -0.4112 -0.2054 -0.0190
32522SOL     OW  520   3.874   8.129   4.976 -0.6938 -0.0633  0.1873
32522SOL    HW1  521   3.953   8.107   5.026 -0.6878 -1.4508 -0.3887
32522SOL    HW2  522   3.903   8.200   4.917 -0.0779 -0.0541  0.4889
32523SOL     OW  523   1.838   1.786   8.022 -0.5412 -0.0650 -0.3076
32523SOL    HW1  524   1.913   1.768   8.079 -1.0045 -1.1165 -0.0134
32523SOL    HW2  525   1.877   1.805   7.936  0.1290  0.9149  0.1983
32524SOL     OW  526   1.033   7.330   9.694  0.2845 -0.2783 -0.1650
32524SOL    HW1  527   1.028   7.238   9.668 -0.3746 -0.2286 -0.2186
32524SOL    HW2  528   1.075   7.374   9.620  0.3260 -0.4832 -0.2643
32525SOL     OW  529   2.502   4.471   4.163  0.0208 -0.1637 -0.4831
32525SOL    HW1  530   2.585   4.436   4.131 -0.3874  0.8490 -2.8793
32525SOL    HW2  531   2.435   4.424   4.113 -0.8275 -0.3093  0.7442
32526SOL     OW  532   9.629   3.367   4.182  0.6414 -0.3080 -0.0114
32526SOL    HW1  533   9.541   3.381   4.216  0.9159 -0.3510  0.7340
32526SOL    HW2  534   9.685   3.366   4.260  1.2132 -0.9590 -0.4168
32527SOL     OW  535   2.356   3.937   1.951  0.1021  0.1043 -0.3386
32527SOL    HW1  536   2.264   3.962   1.960  0.3623  1.2625 -0.6721
32527SOL    HW2  537   2.364   3.908   1.860 -0.3942 -2.1647  0.2828
32528SOL     OW  538   8.526   1.725   3.877 -0.2042  0.4369 -0.2061
32528SOL    HW1  539   8.523   1.632   3.854 -2.5277  0.2175  0.6836
32528SOL    HW2  540   8.472   1.768   3.810 -1.6980  0.6727  1.0972
32529SOL     OW  541  10.538   5.313   7.816  0.1451  0.3947 -0.0411
32529SOL    HW1  542  10.481   5.338   7.888  1.1731 -0.5887  1.1438
32529SOL    HW2  543  10.603   5.256   7.855  0.2842 -0.7963 -1.8937
32530SOL     OW  544  10.256   8.622   8.165  0.4680 -0.5764  0.3760
32530SOL    HW1  545  10.264   8.711   8.201  1.4073 -0.4889 -0.0140
32530SOL    HW2  546  10.316   8.622   8.090 -1.7063 -0.6335 -1.4471
32531SOL     OW  547   8.460   7.334   6.671  0.0033  0.0262  0.4043
32531SOL    HW1  548   8.411   7.416   6.664  0.9201  0.5172 -0.5502
32531SOL    HW2  549   8.549   7.360   6.691  0.6477 -0.6157 -1.3997
32532SOL     OW  550   8.339   4.732   7.063  0.0285 -0.5009 -0.0224
32532SOL    HW1  551   8.366   4.647   7.099 -1.3106 -0.1714  1.9376
32532SOL    HW2  552   8.418   4.786   7.070  0.2090 -0.8716  1.1943
32533SOL     OW  553   4.715   5.097   6.277 -0.4020  0.0055 -0.1454
32533SOL    HW1  554   4.645   5.087   6.212 -0.1592 -0.7978 -0.2974
32533SOL    HW2  555   4.680   5.158   6.341 -0.8238  0.4531 -0.7852
32534SOL     OW  556   0.607   5.748   0.390 -0.3873 -0.6667  0.5103
32534SOL    HW1  557   0.641   5.837   0.399  2.9973 -1.3061 -3.0535
32534SOL    HW2  558   0.647   5.700   0.463  0.0287  0.2235  0.8830
32535SOL     OW  559   3.053   8.981   0.237 -0.3144  0.3082 -0.0808
32535SOL    HW1  560   2.961   8.957   0.226  0.0209 -1.1327  0.0996
32535SOL    HW2  561   3.101   8.919   0.182  0.4780  2.1542 -1.5792
32536SOL     OW  562   0.194   7.243   1.077 -0.7007  0.0131  0.0027
32536SOL    HW1  563   0.198   7.150   1.056 -1.6657  0.1443 -0.8227
32536SOL    HW2  564   0.244   7.285   1.007  0.4162  0.0700  0.8123
32537SOL     OW  565   6.624   7.190   1.291  0.2522  0.0105  0.6547
32537SOL    HW1  566   6.669   7.247   1.228 -0.3210  0.6075  0.7703
32537SOL    HW2  567   6.531   7.199   1.268  0.0223  0.3209  1.6493
32538SOL     OW  568   4.963   0.350   5.604  0.0424  0.4364 -0.2104
32538SOL    HW1  569   5.006   0.400   5.534 -1.4098  0.9143 -0.8039
32538SOL    HW2  570   4.899   0.296   5.558 -0.6798  0.4767  0.7209
32539SOL     OW  571   1.705   2.157   2.313 -0.1874 -0.2971  0.4965
32539SOL    HW1  572   1.717   2.062   2.314 -0.0875 -0.2863  0.3841
32539SOL    HW2  573   1.662   2.177   2.396  1.1168 -0.2775  1.1903
32540SOL     OW  574   6.779   6.242   1.625  0.4304 -0.2807  0.2275
32540SOL    HW1  575   6.807   6.197   1.705 -0.1331 -1.8281 -0.4195
32540SOL    HW2  576   6.699   6.196   1.598 -0.5320  1.5110 -0.1307
32541SOL     OW  577  10.270   6.673   1.170 -0.1347 -0.4794 -0.0635
32541SOL    HW1  578  10.223   6.727   1.233  0.5381 -1.1363  1.0185
32541SOL    HW2  579  10.201   6.632   1.117 -0.7331 -0.5171  0.7343
32542SOL     OW  580   3.169   6.224   5.857  0.3128  0.4244 -0.4184
32542SOL    HW1  581   3.090   6.191   5.815  0.4517 -0.2472 -0.1658
32542SOL    HW2  582   3.154   6.318   5.866 -1.2345  0.0793  1.2254
32543SOL     OW  583   9.283   4.140   3.279 -0.3448  0.2644 -0.2855
32543SOL    HW1  584   9.358   4.183   3.240  0.0145  1.8321  1.9533
32543SOL    HW2  585   9.311   4.119   3.368 -1.8849 -1.0322 -0.0527
32544SOL     OW  586   5.497  10.123   1.762  0.0381 -0.5658 -0.8586
32544SOL    HW1  587   5.526  10.069   1.835 -0.6905  1.9070  1.4244
32544SOL    HW2  588   5.572  10.126   1.703  1.4892 -0.9469  0.8683
32545SOL     OW  589  10.572   8.414   7.275 -0.3012 -0.2646 -0.2546
32545SOL    HW1  590  10.537   8.458   7.353 -0.8326  1.3683 -1.3584
32545SOL    HW2  591  10.664   8.440   7.272 -0.3644 -0.0597 -0.3652
32546SOL     OW  592   9.623   3.944   8.787 -0.8971  0.3526 -0.2462
32546SOL    HW1  593   9.645   3.975   8.874 -0.2542  1.3061 -0.7290
32546SOL    HW2  594   9.527   3.940   8.786 -0.9603  1.5053  0.1215
32547SOL     OW  595   1.432   3.024   3.111 -0.1754  0.9486 -0.4459
32547SOL    HW1  596   1.453   3.009   3.203  1.3431 -0.1701 -0.9474
32547SOL    HW2  597   1.489   3.097   3.086  0.3716  0.3984 -0.8233
32548SOL     OW  598   6.517   5.083   9.771  0.0490  0.0715 -0.6178
32548SOL    HW1  599   6.560   5.058   9.852 -1.9763  0.0198  0.5200
32548SOL    HW2  600   6.519   5.004   9.717 -0.7323 -0.6720  0.4018
32549SOL     OW  601   2.374   0.043   3.136 -0.0047  0.6349  0.1374
32549SOL    HW1  602   2.377  -0.051   3.119 -1.2876  0.8277 -1.4879
32549SOL    HW2  603   2.313   0.077   3.070  0.4556  2.6139  0.6630
32550SOL     OW  604   6.635   9.532   9.464 -0.2315 -0.6418 -0.5168
32550SOL    HW1  605   6.551   9.561   9.498 -1.5345 -0.9377 -3.2455
32550SOL    HW2  606   6.664   9.603   9.407  1.5251 -0.4522  0.5189
32551SOL     OW  607   2.648  10.217   4.474  1.0132 -0.5381  0.9604
32551SOL    HW1  608   2.709  10.187   4.541  0.5612 -1.2187  1.0745
32551SOL    HW2  609   2.576  10.256   4.523  1.1811 -0.0646  0.8352
32552SOL     OW  610   0.382   4.434  10.407  0.7237  0.4264  0.0442
32552SOL    HW1  611   0.349   4.520  10.381  1.1413 -0.0701 -2.3726
32552SOL    HW2  612   0.387   4.385  10.325  2.0463 -1.3787  1.1443
32553SOL     OW  613   5.106   8.076   0.249  0.0612  0.1190  0.5122
32553SOL    HW1  614   5.152   7.992   0.255 -2.1411 -1.1249  1.3466
32553SOL    HW2  615   5.015   8.052   0.231 -0.1866  2.4780 -2.1620
32554SOL     OW  616   8.971   4.927   3.868 -0.5746  0.4756 -0.0988
32554SOL    HW1  617   8.936   4.885   3.946 -0.7339  0.2667 -0.2831
32554SOL    HW2  618   9.006   5.011   3.900  1.7382 -0.6907  0.6693
32555SOL     OW  619   8.469   4.092   5.266  0.4202  0.2360 -0.0958
32555SOL    HW1  620   8.460   4.173   5.316 -1.0302 -0.1849  0.3865
32555SOL    HW2  621   8.386   4.084   5.218 -1.2181 -2.8008  2.7828
32556SOL     OW  622   3.143  10.308   3.966  0.5674  0.5927 -0.0418
32556SOL    HW1  623   3.145  10.225   3.918 -1.8452 -0.1418  0.9592
32556SOL    HW2  624   3.127  10.374   3.898 -2.7471 -0.4109 -0.4075
32557SOL     OW  625   9.725   8.985   4.733 -0.0587 -0.1778  0.2668
32557SOL    HW1  626   9.673   9.064   4.748 -0.9403 -0.7321  0.1592
32557SOL    HW2  627   9.672   8.932   4.675  0.8938 -0.4981 -0.3279
32558SOL     OW  628  10.322  10.491   9.884 -0.4189 -0.1411  0.9244
32558SOL    HW1  629  10.284  10.570   9.924 -0.8297  0.4016 -0.4825
32558SOL    HW2  630  10.254  10.461   9.824  1.4701  1.1084 -2.0266
32559SOL     OW  631   0.497   3.860  10.598  0.0186 -0.3895 -0.3750
32559SOL    HW1  632   0.499   3.903  10.683  1.3436 -0.8519 -0.1472
32559SOL    HW2  633   0.506   3.932  10.535  0.7559 -0.1765 -0.0484
32560SOL     OW  634   7.327   2.537   4.373  0.3161  0.1346  0.0300
32560SOL    HW1  635   7.382   2.585   4.435  1.2166  0.1239 -0.7332
32560SOL    HW2  636   7.237   2.562   4.395  0.7581  2.2783 -0.4219
32561SOL     OW  637   7.309   6.866   7.817 -0.0717  0.6208 -0.3801
32561SOL    HW1  638   7.320   6.915   7.736  0.6674 -0.2272 -0.8110
32561SOL    HW2  639   7.370   6.906   7.878  2.2855 -1.1718 -1.4158
32562SOL     OW  640   3.513   1.046   9.028 -0.7910  0.2094 -0.1549
32562SOL    HW1  641   3.424   1.077   9.049 -0.0473  1.2003  1.7171
32562SOL    HW2  642   3.571   1.105   9.076  0.8975 -0.6064 -1.1108
32563SOL     OW  643   7.094   9.402   2.804  0.2778 -0.7030 -0.1677
32563SOL    HW1  644   7.016   9.456   2.819  1.2847  1.0575 -0.9500
32563SOL    HW2  645   7.150   9.421   2.879  1.1099  0.2826 -1.0023
32564SOL     OW  646  10.217   5.480  10.545  0.0940  0.4267 -0.1736
32564SOL    HW1  647  10.245   5.445  10.460 -0.5350 -0.2019 -0.1349
32564SOL    HW2  648  10.222   5.575  10.535  0.9401  0.3434 -0.5985
32565SOL     OW  649  10.582   8.115   6.200  0.2728  0.1614  0.3943
32565SOL    HW1  650  10.597   8.151   6.288  0.8896 -0.0955  0.3961
32565SOL    HW2  651  10.640   8.040   6.195 -0.7680 -0.6587  0.2661
32566SOL     OW  652   8.349   3.191   6.392 -0.3390 -0.0509  0.4082
32566SOL    HW1  653   8.368   3.285   6.386  0.1654 -0.2389 -3.9922
32566SOL    HW2  654   8.253   3.187   6.400 -0.2847  0.7928  1.8254
32567SOL     OW  655   1.969   1.966   9.299  0.0485  0.1730  0.5748
32567SOL    HW1  656   1.945   1.877   9.322 -0.5271 -0.4610 -2.0723
32567SOL    HW2  657   2.055   1.979   9.339 -0.5221 -0.9787  2.2776
32568SOL     OW  658   6.388   9.676   6.230  0.7544 -0.0409  0.0889
32568SOL    HW1  659   6.477   9.660   6.260  0.2052  0.5637  2.2397
32568SOL    HW2  660   6.335   9.678   6.310 -1.0079  0.7739 -1.0128
32569SOL     OW  661   7.900  10.179   0.119 -0.2820 -0.1828  0.1180
32569SOL    HW1  662   7.951  10.201   0.196  1.0893  1.4894 -1.2028
32569SOL    HW2  663   7.839  10.252   0.108  0.0881 -0.0067 -0.8343
32570SOL     OW  664  10.278   9.858   9.988  0.3469  0.6432  0.1248
32570SOL    HW1  665  10.255   9.941   9.946 -0.3946  0.3948  0.0150
32570SOL    HW2  666  10.200   9.834  10.039  1.2052  0.9227  1.6495
32571SOL     OW  667   1.450   9.302   5.236  0.0883  0.7930  0.1099
32571SOL    HW1  668   1.424   9.217   5.200 -0.4947  0.5931  0.9894
32571SOL    HW2  669   1.427   9.365   5.168  0.8752  0.2218 -0.7130
32572SOL     OW  670   4.762   3.309   6.600  0.0750 -0.2505 -0.2454
32572SOL    HW1  671   4.691   3.373   6.600  0.3188  0.0684  1.4447
32572SOL    HW2  672   4.834   3.353   6.557  0.3271  0.7735  1.1457
32573SOL     OW  673   1.911   1.692   9.445 -0.4047 -0.3228 -0.1030
32573SOL    HW1  674   1.994   1.692   9.493 -0.4137 -1.2261 -0.0784
32573SOL    HW2  675   1.853   1.745   9.500 -0.2544 -0.8909  0.6311
32574SOL     OW  676   2.374  10.470   7.386  0.0225 -0.1121 -0.3245
32574SOL    HW1  677   2.439  10.432   7.327  0.0293 -1.2543  0.3959
32574SOL    HW2  678   2.426  10.518   7.451  0.0625  0.2318 -0.6035
32575SOL     OW  679   0.466   3.669   6.247  0.8200 -0.5054 -0.0397
32575SOL    HW1  680   0.494   3.723   6.321  0.0633 -1.2685  0.8381
32575SOL    HW2  681   0.377   3.699   6.228  0.7066 -0.8738 -0.0950
32576SOL     OW  682   2.290   7.782   4.744  0.2594 -0.5690 -0.2439
32576SOL    HW1  683   2.326   7.726   4.676  1.1364  0.6827 -0.8381
32576SOL    HW2  684   2.197   7.759   4.747  0.1676 -0.5478 -1.9758
32577SOL     OW  685   7.866   4.664   3.985  0.0977 -0.0244 -0.0928
32577SOL    HW1  686   7.871   4.747   4.031  0.4200 -0.3042  0.3798
32577SOL    HW2  687   7.919   4.676   3.906 -0.0774  0.3001 -0.1621
32578SOL     OW  688  10.156   2.192   5.901 -0.0970  0.1572  0.2509
32578SOL    HW1  689  10.180   2.159   5.815 -0.9363 -0.6637  0.3084
32578SOL    HW2  690  10.194   2.128   5.962 -1.0002 -0.2549  0.4016
32579SOL     OW  691   9.086   1.194   3.989 -0.1447 -0.2703  0.2178
32579SOL    HW1  692   9.089   1.125   4.055 -2.5997 -0.5875  0.1046
32579SOL    HW2  693   9.127   1.269   4.031  0.8129 -1.2190  1.0606
32580SOL     OW  694   8.454   7.879   6.707 -0.1474  0.0710 -0.2737
32580SOL    HW1  695   8.383   7.902   6.766 -0.8916 -1.4025 -0.5564
32580SOL    HW2  696   8.523   7.845   6.764 -0.9437 -1.5449 -0.2156
32581SOL     OW  697   8.115   6.836   8.673 -0.4864  1.0053  0.2385
32581SOL    HW1  698   8.207   6.860   8.675 -0.6351  1.5197  0.9897
32581SOL    HW2  699   8.089   6.829   8.765 -1.1763  0.8060  0.0363
32582SOL     OW  700   5.229  10.055   0.832  0.3076 -0.2691  0.1840
32582SOL    HW1  701   5.275  10.043   0.749 -1.7085 -0.4737 -0.9779
32582SOL    HW2  702   5.225  10.150   0.844 -0.1525 -0.2049 -0.4314
32583SOL     OW  703   9.432   0.717   8.626  0.4795  0.0829 -0.2078
32583SOL    HW1  704   9.511   0.672   8.657  1.0639 -0.3568 -2.1888
32583SOL    HW2  705   9.423   0.689   8.534 -1.5537  0.7270 -0.2531
32584SOL     OW  706   1.806   9.168   8.015 -0.3261  0.0340  0.6072
32584SOL    HW1  707   1.896   9.136   8.006 -0.4480 -0.5842  1.4515
32584SOL    HW2  708   1.755   9.112   7.956 -0.2439 -0.0012  0.5693
32585SOL     OW  709   4.953   1.245   6.592  0.1750  0.0594  0.0492
32585SOL    HW1  710   4.958   1.151   6.575 -1.9622 -0.2559  0.8268
32585SOL    HW2  711   4.996   1.286   6.517  0.1855 -1.5134 -0.8274
32586SOL     OW  712   8.435   5.515   7.278 -0.0910 -0.3753 -0.3562
32586SOL    HW1  713   8.483   5.451   7.331 -1.8943 -0.8524  0.8006
32586SOL    HW2  714   8.412   5.584   7.339 -1.0499 -0.2708 -0.8180
32587SOL     OW  715   5.880   6.736   0.072 -0.3379 -0.1029 -0.1368
32587SOL    HW1  716   5.913   6.700  -0.011 -0.2245  1.1326 -0.6527
32587SOL    HW2  717   5.785   6.732   0.063 -0.3346 -0.7180  0.0240
32588SOL     OW  718   3.978   7.000  10.256 -0.7595  0.5031  0.0102
32588SOL    HW1  719   3.935   7.050  10.326 -0.6638  2.4995 -1.2755
32588SOL    HW2  720   3.927   6.919  10.250 -0.8971  0.3663  2.2148
32589SOL     OW  721   7.571   0.665   5.086  0.2821  0.2183 -0.4017
32589SOL    HW1  722   7.582   0.601   5.156 -2.1879 -0.9375 -0.9426
32589SOL    HW2  723   7.567   0.613   5.006  0.1916  1.2361 -1.0808
32590SOL     OW  724   6.426   3.324   0.268 -0.1863 -0.4733 -0.0859
32590SOL    HW1  725   6.438   3.231   0.289  1.1819 -0.6586 -1.5052
32590SOL    HW2  726   6.397   3.324   0.177 -0.7061  0.4959  0.0712
32591SOL     OW  727   7.130   5.108   5.518  0.3415  0.3260 -0.3011
32591SOL    HW1  728   7.070   5.060   5.574  1.1886 -0.3974  0.0066
32591SOL    HW2  729   7.098   5.093   5.429  0.3215 -0.4157 -0.1696
32592SOL     OW  730   1.744   8.790   2.012  0.2066 -0.0899  0.3447
32592SOL    HW1  731   1.703   8.863   1.967 -1.4566 -0.7394  0.7233
32592SOL    HW2  732   1.837   8.796   1.989 -0.3394  0.4320 -1.9811
32593SOL     OW  733   6.054   7.956   0.070 -0.4784 -0.3944 -0.3332
32593SOL    HW1  734   6.036   7.866   0.099  0.2853  0.7486  4.7107
32593SOL    HW2  735   6.000   8.011   0.127  2.6116  2.3806  0.2515
32594SOL     OW  736   2.204   8.754   1.600  0.3757 -0.0239 -0.6204
32594SOL    HW1  737   2.295   8.728   1.583  0.3412  0.2358 -1.2593
32594SOL    HW2  738   2.158   8.734   1.519  0.1732  1.1998 -0.8340
32595SOL     OW  739   9.101   3.614   4.982 -0.2840  0.3434 -0.1350
32595SOL    HW1  740   9.012   3.584   4.998  0.5575 -1.3465  1.8034
32595SOL    HW2  741   9.095   3.709   4.989 -1.9190  0.2696 -0.0235
32596SOL     OW  742   1.224   8.712   3.622 -0.0870  0.3005 -0.3983
32596SOL    HW1  743   1.236   8.748   3.710 -1.0014  0.6171 -0.3894
32596SOL    HW2  744   1.302   8.659   3.607  0.6948  1.2738  0.0878
32597SOL     OW  745   9.225   9.458   4.606 -0.1331  0.1068  0.0623
32597SOL    HW1  746   9.292   9.486   4.543 -1.5275 -1.1657 -2.1146
32597SOL    HW2  747   9.143   9.492   4.571 -0.8474  0.5381  1.9998
32598SOL     OW  748   4.590   4.126  10.442  0.1101  0.9846 -0.3214
32598SOL    HW1  749   4.569   4.043  10.485  1.4614  1.1444  0.7179
32598SOL    HW2  750   4.590   4.105  10.349 -1.8407  0.3799 -0.2350
32599SOL     OW  751   9.464   8.997   5.496 -0.0195  0.3125 -0.3932
32599SOL    HW1  752   9.551   8.960   5.483 -0.0775  0.5761 -1.7011
32599SOL    HW2  753   9.424   8.996   5.408 -0.5041  2.2046 -0.2467
32600SOL     OW  754   1.027   7.945   1.397  0.1924  0.2756  0.1093
32600SOL    HW1  755   1.024   7.849   1.392  0.3859  0.2235  0.8602
32600SOL    HW2  756   1.059   7.972   1.311  1.7319 -0.4324  0.4201
32601SOL     OW  757   5.407   5.516   7.639 -0.4222  0.1318  0.0109
32601SOL    HW1  758   5.366   5.583   7.585  2.0923  1.7781  0.0001
32601SOL    HW2  759   5.397   5.435   7.589 -1.3498  0.9509 -1.1659
32602SOL     OW  760   6.107  10.456   1.235 -0.3059  0.1074 -0.4042
32602SOL    HW1  761   6.023  10.497   1.254 -0.5438 -0.2269 -0.7175
32602SOL    HW2  762   6.105  10.439   1.141 -0.3436 -0.9129 -0.2265
32603SOL     OW  763  10.420   5.976   9.004  0.2220 -0.0572 -0.1775
32603SOL    HW1  764  10.347   6.030   9.036  2.0896  2.1854  0.6754
32603SOL    HW2  765  10.487   5.985   9.072  1.1506 -2.4464 -0.6795
32604SOL     OW  766   3.273   4.834   4.944  0.1925  0.1554  0.3262
32604SOL    HW1  767   3.250   4.876   5.027 -3.2483 -0.2413 -0.2713
32604SOL    HW2  768   3.321   4.755   4.969  0.4619  0.7722  1.8488
32605SOL     OW  769  10.118   0.205  10.570  0.0456  0.5011 -0.5536
32605SOL    HW1  770  10.135   0.114  10.594  1.2222  0.5165 -1.2649
32605SOL    HW2  771  10.193   0.254  10.603 -0.9971  1.3816  0.6115
32606SOL     OW  772   6.340   0.150   4.747  0.0039 -0.1951 -0.0391
32606SOL    HW1  773   6.349   0.080   4.812 -0.0420 -0.8867 -0.7740
32606SOL    HW2  774   6.293   0.219   4.794  2.5563  0.5720  1.5972
32607SOL     OW  775   4.479   3.152   4.781  0.0401  0.3679 -0.2123
32607SOL    HW1  776   4.477   3.124   4.689 -1.7691 -2.2742  0.5478
32607SOL    HW2  777   4.399   3.117   4.819 -1.3896  4.8715  1.5118
32608SOL     OW  778   1.970   3.683   4.848 -0.1309 -0.5669 -0.5971
32608SOL    HW1  779   1.914   3.708   4.774 -1.5035 -1.7408 -0.0022
32608SOL    HW2  780   1.911   3.639   4.908  0.7778  1.0605  1.6220
32609SOL     OW  781   6.089   9.854   3.841 -0.7916  0.1669  0.2633
32609SOL    HW1  782   6.090   9.932   3.896 -0.2274  0.5189 -0.2363
32609SOL    HW2  783   6.060   9.885   3.755 -1.8160 -0.4037  0.3738
32610SOL     OW  784   1.237   1.138   7.306  0.0408 -0.2459 -0.1902
32610SOL    HW1  785   1.192   1.080   7.244 -0.8777  2.4460 -2.1987
32610SOL    HW2  786   1.319   1.162   7.263  0.8317 -0.6576  1.0070
32611SOL     OW  787   2.382   1.285  10.485  0.2531  0.1838  0.5505
32611SOL    HW1  788   2.310   1.347  10.483 -1.1654 -1.3515  1.3487
32611SOL    HW2  789   2.351   1.211  10.431  2.1760  0.4208 -0.9914
32612SOL     OW  790   5.353   7.299   2.835 -0.2509 -0.2193  0.0775
32612SOL    HW1  791   5.331   7.221   2.887 -0.4335  0.6699  1.3770
32612SOL    HW2  792   5.449   7.298   2.832 -0.2621 -0.7662 -0.3665
32613SOL     OW  793  10.107   6.395   7.697  0.0387 -0.2061 -0.7406
32613SOL    HW1  794  10.109   6.309   7.654  1.2041 -0.5813  0.0035
32613SOL    HW2  795  10.052   6.382   7.774  1.1584 -0.6272  0.0102
32614SOL     OW  796  10.605   8.851   9.292 -0.3535  0.4360  0.0653
32614SOL    HW1  797  10.595   8.758   9.271  0.8503  0.2330  0.3005
32614SOL    HW2  798  10.697   8.870   9.272 -1.0884  2.1513 -2.1475
32615SOL     OW  799   7.117   5.444   8.351  0.1936 -0.2969  0.0570
32615SOL    HW1  800   7.027   5.476   8.355  0.2327  0.0578 -1.2459
32615SOL    HW2  801   7.164   5.496   8.415 -0.6831 -1.0792  1.3779
32616SOL     OW  802   1.951   6.775  10.553 -0.2251  0.3272 -0.1568
32616SOL    HW1  803   1.876   6.716  10.547 -0.1381  0.2018 -0.0513
32616SOL    HW2  804   2.002   6.740  10.627  0.6288 -0.4077 -1.0573
32617SOL     OW  805   9.738  10.229   3.300 -0.6488  0.1728 -0.0925
32617SOL    HW1  806   9.675  10.287   3.342  0.7254  0.1521  2.1411
32617SOL    HW2  807   9.816  10.283   3.288 -0.0567 -0.6364  0.0692
32618SOL     OW  808   5.400   8.311   1.358  0.5597  0.7918 -0.2556
32618SOL    HW1  809   5.409   8.224   1.396  1.3480  1.8161  2.0488
32618SOL    HW2  810   5.305   8.324   1.351  0.4323 -0.1721 -0.5062
32619SOL     OW  811   0.962   7.576   2.488 -0.1351  0.4028 -0.2871
32619SOL    HW1  812   1.052   7.548   2.507 -0.5906 -1.0675 -0.1863
32619SOL    HW2  813   0.972   7.641   2.418  0.9012 -1.5214 -2.0465
32620SOL     OW  814   4.293   1.294   7.965 -0.2439  0.3386 -0.2520
32620SOL    HW1  815   4.272   1.387   7.970  2.4351  1.0024  0.1228
32620SOL    HW2  816   4.375   1.291   7.916  0.4179 -1.6899  0.8645
32621SOL     OW  817   7.210   5.948   4.734 -0.4311  0.6767 -0.6051
32621SOL    HW1  818   7.199   6.042   4.719  1.5977  1.0405 -0.0194
32621SOL    HW2  819   7.287   5.941   4.790 -1.2159 -1.2937  0.3234
32622SOL     OW  820   1.571   4.726  10.242 -0.3999  0.2345 -0.0100
32622SOL    HW1  821   1.615   4.648  10.208  1.4371  0.9607  0.5709
32622SOL    HW2  822   1.492   4.734  10.188 -0.2605 -1.5939 -0.5647
32623SOL     OW  823   7.737   1.890   9.206 -0.2255 -0.1693 -0.4360
32623SOL    HW1  824   7.665   1.927   9.155 -1.0889 -1.5622 -0.3083
32623SOL    HW2  825   7.699   1.876   9.293  0.5912  0.2533 -0.0021
32624SOL     OW  826   5.436   8.699   2.068  0.4022  0.2198 -0.0094
32624SOL    HW1  827   5.522   8.674   2.034 -0.0762 -0.9502 -0.3705
32624SOL    HW2  828   5.402   8.619   2.108 -0.0965  0.9379  1.0550
32625SOL     OW  829   9.990   0.006   6.398 -0.0939 -0.2273  0.4301
32625SOL    HW1  830   9.900   0.011   6.432 -0.5194  0.5066 -0.7248
32625SOL    HW2  831  10.005  -0.087   6.382 -0.6217 -0.3651  0.7185
32626SOL     OW  832   3.143  10.586   2.256  0.3531 -0.1215  0.2868
32626SOL    HW1  833   3.127  10.494   2.275 -0.0300 -0.1649 -0.2345
32626SOL    HW2  834   3.233  10.601   2.284  1.5772 -1.4677 -2.5625
32627SOL     OW  835   9.665   1.645  10.258 -0.8808  0.3745 -0.4668
32627SOL    HW1  836   9.579   1.635  10.217 -0.9405  0.8861 -0.4647
32627SOL    HW2  837   9.648   1.692  10.339 -0.3547  2.4654 -1.5050
32628SOL     OW  838   3.795   0.605   5.944  0.4414  0.4312  0.2326
32628SOL    HW1  839   3.868   0.662   5.965  2.0292  0.1857 -3.7512
32628SOL    HW2  840   3.835   0.522   5.917 -1.6091 -1.2544  1.9391
32629SOL     OW  841   7.683   6.929   5.670  0.4629  0.2949 -0.1555
32629SOL    HW1  842   7.611   6.944   5.731  0.6099  0.7105 -0.0811
32629SOL    HW2  843   7.730   7.012   5.667  0.5272  0.2446 -0.7513
32630SOL     OW  844   5.972   9.702   1.482 -0.5808 -0.6188  0.5968
32630SOL    HW1  845   6.014   9.693   1.396 -1.6088 -1.9980  0.1990
32630SOL    HW2  846   5.999   9.624   1.531 -0.4297 -0.1075  1.3417
32631SOL     OW  847   5.338   0.176   5.734 -0.6426  0.1149 -0.0002
32631SOL    HW1  848   5.422   0.132   5.719  0.3534  1.6132  0.9072
32631SOL    HW2  849   5.315   0.215   5.650  0.0146  0.4023 -0.0500
32632SOL     OW  850   7.279   8.083   8.962  0.0672  0.1259  0.0079
32632SOL    HW1  851   7.248   8.145   8.896  2.1104 -0.4662 -1.6018
32632SOL    HW2  852   7.368   8.062   8.936  0.6286 -0.9020  2.4457
32633SOL     OW  853   3.264   0.397   5.022 -0.1456 -0.1938  0.2258
32633SOL    HW1  854   3.290   0.408   5.113  0.8360  2.2085 -0.2503
32633SOL    HW2  855   3.207   0.472   5.004 -0.3886 -0.6649 -1.1083
32634SOL     OW  856   1.390   6.804   1.527 -0.2135 -0.1427  0.0180
32634SOL    HW1  857   1.433   6.806   1.612 -0.5568 -1.2782  0.2322
32634SOL    HW2  858   1.307   6.758   1.542  0.7277 -2.5055 -1.3262
32635SOL     OW  859   3.410   8.495   9.128  0.4655  0.4772 -0.0305
32635SOL    HW1  860   3.367   8.555   9.190  1.6581  1.4358 -0.0790
32635SOL    HW2  861   3.493   8.472   9.171 -0.5569 -2.3679  0.6568
32636SOL     OW  862   0.945   4.954   6.373 -0.3959 -0.2029 -0.4222
32636SOL    HW1  863   0.911   5.007   6.302 -1.2009  0.5562  0.5024
32636SOL    HW2  864   1.035   4.933   6.347 -0.7027 -0.0197 -1.6808
32637SOL     OW  865   4.769   5.392   2.508 -0.0153 -0.0032  0.1105
32637SOL    HW1  866   4.745   5.450   2.436 -0.2139  0.3118  0.4322
32637SOL    HW2  867   4.786   5.450   2.582  0.7393 -0.2808  0.1738
32638SOL     OW  868   9.756   7.353   1.538 -0.0749  0.5050 -0.3003
32638SOL    HW1  869   9.776   7.292   1.467  1.6737  0.5256  0.1250
32638SOL    HW2  870   9.726   7.298   1.610 -0.8398  0.3894 -0.7002
32639SOL     OW  871   2.593   6.406   8.825 -0.4996 -0.3439  0.1772
32639SOL    HW1  872   2.519   6.348   8.802 -0.5315 -1.0394  1.8725
32639SOL    HW2  873   2.573   6.488   8.781 -0.7066 -1.4417 -1.9137
32640SOL     OW  874   7.555   1.187   4.275 -0.2070 -0.0041 -0.5413
32640SOL    HW1  875   7.596   1.274   4.281  1.4053 -0.7421 -0.4336
32640SOL    HW2  876   7.624   1.126   4.301 -0.6178 -1.4905 -2.6940
32641SOL     OW  877   4.885   6.971   1.546  0.4012  0.1009  0.1137
32641SOL    HW1  878   4.861   7.028   1.473 -1.0146 -0.4743  0.1131
32641SOL    HW2  879   4.822   6.991   1.615 -0.3646 -1.6885 -0.0103
32642SOL     OW  880   0.762   8.950   9.141 -0.2950 -0.1209  0.1086
32642SOL    HW1  881   0.839   8.900   9.113  0.9940  2.0001 -0.3665
32642SOL    HW2  882   0.772   8.958   9.236 -1.1720 -1.7247  0.3776
32643SOL     OW  883   5.248   7.775   8.003 -0.1672 -0.1569  0.1328
32643SOL    HW1  884   5.262   7.839   8.073 -1.1581  0.4967 -0.2522
32643SOL    HW2  885   5.197   7.705   8.044 -2.3410  1.0795 -0.3460
32644SOL     OW  886   9.559   0.747   3.953 -0.3109 -0.0532  0.4932
32644SOL    HW1  887   9.579   0.655   3.936  1.0484  0.3746 -0.4078
32644SOL    HW2  888   9.522   0.780   3.871 -1.2573  0.0968  0.9663
32645SOL     OW  889   0.219   7.283   4.468  0.3533 -0.3894 -0.4753
32645SOL    HW1  890   0.245   7.194   4.491 -0.9326 -0.6132  0.2397
32645SOL    HW2  891   0.298   7.335   4.483  0.5259 -1.0694  1.3328
32646SOL     OW  892   4.702   4.895   9.880  0.3021 -0.1092 -0.9072
32646SOL    HW1  893   4.767   4.952   9.921  0.1652 -1.9467  2.1326
32646SOL    HW2  894   4.748   4.811   9.869 -0.6083 -0.5111 -1.8097
32647SOL     OW  895   0.414   3.209   9.013  0.1526  0.0484  0.3492
32647SOL    HW1  896   0.462   3.292   9.007  0.7510 -0.3338 -0.3498
32647SOL    HW2  897   0.468   3.155   9.071  1.9963 -1.2737 -2.3885
32648SOL     OW  898   2.646   6.476   6.893  0.1311 -0.4492  0.3654
32648SOL    HW1  899   2.558   6.508   6.913  0.2304  0.6286 -0.8292
32648SOL    HW2  900   2.698   6.555   6.881  1.2288 -1.0771  0.8375
32649SOL     OW  901   3.748   7.049   2.642  0.5433  0.4899 -0.2345
32649SOL    HW1  902   3.765   7.143   2.629 -0.2350  0.7356  0.4176
32649SOL    HW2  903   3.678   7.030   2.579  2.2479 -0.2171 -2.0109
32650SOL     OW  904  10.089  10.214   3.300 -0.3054 -0.2537  0.3442
32650SOL    HW1  905  10.072  10.139   3.243  1.0616 -0.0257 -0.4181
32650SOL    HW2  906  10.115  10.284   3.240 -0.6134  0.5403  1.1224
32651SOL     OW  907  10.409   6.469   6.645  0.0892  0.5046 -0.2401
32651SOL    HW1  908  10.369   6.451   6.730  1.1418 -0.4249  0.0775
32651SOL    HW2  909  10.503   6.469   6.663  0.2813  2.8253 -0.9301
32652SOL     OW  910   6.220   0.005   4.256 -0.0236  0.4051  0.2697
32652SOL    HW1  911   6.221   0.049   4.171  0.1799 -0.4997 -0.2068
32652SOL    HW2  912   6.241  -0.087   4.236  0.6465  0.3012  1.3596
32653SOL     OW  913   6.756   7.424   2.171 -0.1757  0.1989 -0.1164
32653SOL    HW1  914   6.818   7.394   2.238  1.0310  0.2776 -1.1452
32653SOL    HW2  915   6.812   7.457   2.101 -1.4197  0.8660 -0.8233
32654SOL     OW  916   6.122   6.067   0.028  0.1564 -0.0184  0.2586
32654SOL    HW1  917   6.199   6.010   0.019 -0.0306 -0.2825  0.3309
32654SOL    HW2  918   6.089   6.077  -0.061  0.5007  0.4114  0.1750
32655SOL     OW  919   0.243   5.723   8.812 -0.1833  0.1456 -0.0652
32655SOL    HW1  920   0.261   5.817   8.814 -1.0297  0.3022  0.5942
32655SOL    HW2  921   0.192   5.710   8.732 -0.8561  0.4039  0.3154
32656SOL     OW  922   4.535   5.928   6.388  0.3165  0.4898  0.6362
32656SOL    HW1  923   4.483   5.861   6.343 -0.3715  1.2089  0.3336
32656SOL    HW2  924   4.551   5.892   6.475  0.7320 -0.4527  0.1896
32657SOL     OW  925  10.441   7.528   9.522 -0.4936 -0.2828  0.6949
32657SOL    HW1  926  10.428   7.617   9.552  0.5324  1.0237 -2.3058
32657SOL    HW2  927  10.393   7.524   9.438 -0.8679 -2.6963  0.9388
32658SOL     OW  928   1.060   7.360   1.674 -0.2242 -0.3202 -0.4795
32658SOL    HW1  929   0.995   7.355   1.604  1.2062 -1.6057 -1.7859
32658SOL    HW2  930   1.144   7.372   1.629  0.4060  2.9930  1.1986
32659SOL     OW  931   6.300   4.294   1.029 -0.7200 -0.6728  0.1169
32659SOL    HW1  932   6.389   4.317   1.055 -0.3134 -0.6446 -1.1922
32659SOL    HW2  933   6.310   4.209   0.986 -1.6039 -1.4886  1.4726
32660SOL     OW  934   0.574   9.212   2.952 -0.1321  0.5653  0.2033
32660SOL    HW1  935   0.552   9.151   3.023 -0.0734 -0.5900 -0.7577
32660SOL    HW2  936   0.585   9.297   2.997  0.3421 -0.2180  1.6322
32661SOL     OW  937   6.426   2.828  10.118 -0.3165  0.2451  0.0888
32661SOL    HW1  938   6.502   2.823  10.176 -1.2037  0.3298  1.2999
32661SOL    HW2  939   6.462   2.816  10.030  1.0371 -0.1417  0.6683
32662SOL     OW  940   1.278   4.743   7.396 -0.5714  0.0754  0.3961
32662SOL    HW1  941   1.242   4.803   7.462 -0.9811 -0.6368  0.8403
32662SOL    HW2  942   1.201   4.701   7.359 -0.3355  0.4267 -0.5060
32663SOL     OW  943   8.242   8.354   3.685  0.5978 -0.4944 -0.8893
32663SOL    HW1  944   8.279   8.285   3.740  0.9070  1.0825  1.0291
32663SOL    HW2  945   8.307   8.425   3.689 -0.4799  0.5521 -1.3423
32664SOL     OW  946   4.516   1.830   3.495 -0.0524  0.2114 -0.2103
32664SOL    HW1  947   4.449   1.898   3.486 -0.7074 -0.2256  1.1619
32664SOL    HW2  948   4.538   1.829   3.588  1.0490 -0.4310 -0.4600
32665SOL     OW  949   4.447   8.564   3.156 -0.3163  0.0315 -0.4322
32665SOL    HW1  950   4.364   8.605   3.179 -0.2977 -0.7684  1.1907
32665SOL    HW2  951   4.512   8.610   3.209 -0.1170 -1.1653  0.4059
32666SOL     OW  952   5.848   5.846   5.344 -0.2028 -0.4162 -0.0325
32666SOL    HW1  953   5.779   5.847   5.410 -0.0894  2.9795  0.1893
32666SOL    HW2  954   5.804   5.868   5.262  0.3284 -0.0718 -0.2303
32667SOL     OW  955   0.486   9.162   4.812 -0.4713  0.0951  0.8156
32667SOL    HW1  956   0.456   9.071   4.817 -1.0992  0.3283  1.3852
32667SOL    HW2  957   0.495   9.178   4.718 -1.2975 -0.2548  0.6686
32668SOL     OW  958   4.498   2.497   4.687  0.3848 -0.3514  0.1453
32668SOL    HW1  959   4.438   2.561   4.724  0.3641  0.0671 -0.5794
32668SOL    HW2  960   4.441   2.424   4.660 -0.0101  0.5234 -1.6023
32669SOL     OW  961   7.513   9.693   6.143 -0.3537  0.0379 -0.2249
32669SOL    HW1  962   7.457   9.755   6.190 -0.3335 -0.0990 -0.0197
32669SOL    HW2  963   7.602   9.726   6.156 -0.3530  0.0356 -0.2217
32670SOL     OW  964   9.561   6.431   1.704  0.1260 -0.9392 -0.2091
32670SOL    HW1  965   9.481   6.398   1.746  0.4143  0.2281  1.3466
32670SOL    HW2  966   9.628   6.366   1.727 -0.2462 -1.6441 -1.0718
32671SOL     OW  967   8.180   6.301   5.727  0.0943  0.3180  0.3453
32671SOL    HW1  968   8.142   6.351   5.655 -0.4358  1.2339  1.2310
32671SOL    HW2  969   8.157   6.351   5.806 -1.0761 -1.6885  1.3554
32672SOL     OW  970   0.795   8.546   6.065 -0.8347  0.2082  0.0636
32672SOL    HW1  971   0.792   8.618   6.001 -3.3730 -0.1420 -0.3123
32672SOL    HW2  972   0.818   8.469   6.013  1.5119  0.6103  0.4031
32673SOL     OW  973   3.108   3.817  10.058  0.6441  0.2577  0.0270
32673SOL    HW1  974   3.055   3.744  10.028  0.9503 -0.9345  2.1505
32673SOL    HW2  975   3.165   3.779  10.125  2.4943  1.9881 -0.4676
32674SOL     OW  976   7.872   2.543   7.427 -0.0125  0.0554 -0.0415
32674SOL    HW1  977   7.947   2.592   7.392 -1.1488  0.6981 -1.7295
32674SOL    HW2  978   7.884   2.545   7.521  0.7844  2.3506 -0.1219
32675SOL     OW  979   6.527   9.151   0.275  0.0002  0.0989  0.4846
32675SOL    HW1  980   6.453   9.177   0.330 -1.2815 -0.6021 -0.8442
32675SOL    HW2  981   6.592   9.118   0.337 -1.3600 -0.6085  1.5858
32676SOL     OW  982   0.520   0.867   9.550  0.1334  0.1136  0.3365
32676SOL    HW1  983   0.433   0.829   9.533 -0.4549 -0.0795  3.2854
32676SOL    HW2  984   0.580   0.793   9.548 -0.1855 -0.1600  0.8861
32677SOL     OW  985   9.964   5.732   3.985 -0.4089 -0.1296  0.1822
32677SOL    HW1  986   9.935   5.820   3.961 -0.7195 -0.6558 -1.4984
32677SOL    HW2  987   9.950   5.679   3.906  2.4720 -1.0534  0.1607
32678SOL     OW  988   2.542   1.867   9.320 -0.2774 -0.0941 -0.1503
32678SOL    HW1  989   2.495   1.942   9.284  1.7361  1.4474  0.2673
32678SOL    HW2  990   2.526   1.871   9.414 -0.2748 -0.2597 -0.1427
32679SOL     OW  991  10.562   6.318   2.344 -0.5518  0.1738 -0.0709
32679SOL    HW1  992  10.498   6.304   2.275  0.7499  0.3835 -1.3597
32679SOL    HW2  993  10.642   6.275   2.313  0.7772  2.3309  0.1646
32680SOL     OW  994  10.128   0.066   5.909  0.4532 -0.2292  0.3699
32680SOL    HW1  995  10.139  -0.003   5.974  2.4325 -0.3056  0.0088
32680SOL    HW2  996  10.179   0.139   5.942  0.7117  0.0604 -0.6296
32681SOL     OW  997   2.189   1.731   7.470  0.1825 -0.2848 -0.4963
32681SOL    HW1  998   2.187   1.650   7.521 -0.0112 -0.7070 -1.1565
32681SOL    HW2  999   2.240   1.792   7.524  1.6739 -1.3186 -0.6523
32682SOL     OW 1000   3.233   6.983   7.786 -0.5971  0.3926  0.2547
32682SOL    HW1 1001   3.232   6.975   7.691 -0.3800  0.5002  0.2427
32682SOL    HW2 1002   3.324   6.965   7.811 -0.7439 -0.0371  0.4777
32683SOL     OW 1003   8.490   6.662   1.848 -0.2552 -0.2796  0.5118
32683SOL    HW1 1004   8.439   6.734   1.884  1.4419  1.1653  0.1565
32683SOL    HW2 1005   8.520   6.693   1.762 -0.3336 -1.8286 -0.1229
32684SOL     OW 1006   1.235  10.569   1.688 -0.0906 -0.1126  0.3774
32684SOL    HW1 1007   1.177  10.540   1.758 -0.7131 -1.5656 -0.6856
32684SOL    HW2 1008   1.259  10.489   1.642  2.2180  0.5349  0.3358
32685SOL     OW 1009   3.256   3.489   2.782 -0.3729  0.1438 -0.3589
32685SOL    HW1 1010   3.330   3.432   2.799  0.8324  2.1425  1.6009
32685SOL    HW2 1011   3.219   3.457   2.699  1.5990 -1.9596 -0.5081
32686SOL     OW 1012   0.714   8.539   8.279  0.0633 -0.1371  0.0287
32686SOL    HW1 1013   0.695   8.619   8.328  0.8867 -0.0385  0.2007
32686SOL    HW2 1014   0.637   8.483   8.294 -1.5305  1.3888 -1.7979
32687SOL     OW 1015   4.638   2.567   8.293  0.2900  0.3155  0.0847
32687SOL    HW1 1016   4.607   2.652   8.264  0.2168  0.1925 -0.2011
32687SOL    HW2 1017   4.649   2.517   8.213 -0.4455 -0.2145  0.3071
32688SOL     OW 1018   3.667   5.322   2.519 -0.0167  0.2625  0.1367
32688SOL    HW1 1019   3.591   5.360   2.476 -0.8998 -0.2899  1.1448
32688SOL    HW2 1020   3.685   5.241   2.470 -0.6409 -0.0585  0.4286
32689SOL     OW 1021   1.733   5.113   7.554 -0.2302 -0.0479  0.2899
32689SOL    HW1 1022   1.733   5.203   7.523  0.4055 -0.4201 -0.8581
32689SOL    HW2 1023   1.755   5.119   7.646 -1.1630  1.0301  0.4653
32690SOL     OW 1024   1.167   2.518  10.692  0.1779  0.6740 -0.3441
32690SOL    HW1 1025   1.234   2.571  10.651 -0.6191  2.2597  0.3369
32690SOL    HW2 1026   1.087   2.570  10.685 -0.1442  0.6862  2.5078
32691SOL     OW 1027   3.907   9.034   5.481 -0.2037  0.4565  0.0122
32691SOL    HW1 1028   3.965   8.985   5.423  0.5185  0.7553  0.4656
32691SOL    HW2 1029   3.845   9.077   5.422 -0.7479 -0.8502 -0.4050
32692SOL     OW 1030  10.514   2.411   9.346  0.3412 -0.3702  0.2840
32692SOL    HW1 1031  10.506   2.394   9.440  0.1594 -1.1142  0.1370
32692SOL    HW2 1032  10.528   2.505   9.341  1.3308 -0.4521  1.1190
32693SOL     OW 1033   8.551   4.673   3.727  0.0649 -0.3490 -0.1126
32693SOL    HW1 1034   8.617   4.621   3.774  0.8446 -0.0240 -0.8301
32693SOL    HW2 1035   8.470   4.623   3.737  0.8731 -1.9585 -1.1401
32694SOL     OW 1036   9.430   3.267   6.079 -0.1944  0.1246  0.0497
32694SOL    HW1 1037   9.425   3.352   6.036  1.9365  0.7757  0.9695
32694SOL    HW2 1038   9.446   3.205   6.007 -2.6139  0.2772 -0.7376
32695SOL     OW 1039   1.032   3.812   3.415 -0.7268  0.0166 -0.0241
32695SOL    HW1 1040   0.948   3.837   3.376 -0.7697 -0.1291 -0.0271
32695SOL    HW2 1041   1.040   3.719   3.396 -1.5348 -0.4614  1.7044
32696SOL     OW 1042   8.699   4.144   5.420 -0.4174  0.3437 -0.0733
32696SOL    HW1 1043   8.689   4.215   5.357  3.5300  0.2239 -1.1139
32696SOL    HW2 1044   8.644   4.073   5.386 -0.5233  1.2316 -1.8641
32697SOL     OW 1045   7.096   1.602   0.134 -0.1956 -0.6811  0.2998
32697SOL    HW1 1046   7.170   1.556   0.096 -0.9774 -0.6395 -1.3446
32697SOL    HW2 1047   7.020   1.547   0.115 -0.7471 -0.1613  0.9281
32698SOL     OW 1048   4.005   7.315   2.032  0.2761  0.1765  0.6616
32698SOL    HW1 1049   4.031   7.226   2.055 -0.2108 -0.2947 -0.5126
32698SOL    HW2 1050   3.931   7.334   2.090 -0.3265 -0.6163  0.1712
32699SOL     OW 1051   1.979   0.231   6.404  0.1492 -0.3619 -0.1641
32699SOL    HW1 1052   1.956   0.323   6.411 -2.6941 -1.0168  0.6452
32699SOL    HW2 1053   1.961   0.195   6.491 -0.4912 -1.9678 -0.9046
32700SOL     OW 1054   2.651   5.375   1.992 -0.3926  0.3303 -0.1024
32700SOL    HW1 1055   2.665   5.285   1.965  1.1090  0.0097  1.5778
32700SOL    HW2 1056   2.735   5.418   1.978 -0.0292  0.5574  2.2823
32701SOL     OW 1057   2.932   3.492   3.231 -0.2931  0.1265 -0.1504
32701SOL    HW1 1058   2.952   3.530   3.146  0.6670  1.8493  0.7916
32701SOL    HW2 1059   3.010   3.508   3.284 -1.0231 -0.5065  1.1758
32702SOL     OW 1060   0.467   3.512   4.651 -0.1726 -0.6158  0.2250
32702SOL    HW1 1061   0.481   3.420   4.630  0.0120 -0.4981 -0.1671
32702SOL    HW2 1062   0.419   3.547   4.576 -1.5179 -0.7277  1.0083
32703SOL     OW 1063  10.488   3.034   4.929  0.5242  0.8007 -0.1503
32703SOL    HW1 1064  10.430   3.105   4.900 -0.7068 -0.6849 -1.5550
32703SOL    HW2 1065  10.564   3.042   4.872 -0.7928 -0.5615 -2.2461
32704SOL     OW 1066   3.080   1.202   0.478  0.2558  0.9421  0.4479
32704SOL    HW1 1067   3.014   1.271   0.485 -0.9561 -0.1285  0.1451
32704SOL    HW2 1068   3.029   1.121   0.471  1.6274 -0.0493  1.2964
32705SOL     OW 1069  10.636   3.813   0.908 -0.1771  0.5339  0.1487
32705SOL    HW1 1070  10.685   3.859   0.976 -0.7527  1.2918  0.0614
32705SOL    HW2 1071  10.598   3.737   0.954 -0.0063  0.6649  0.5119
32706SOL     OW 1072   1.851   7.080   1.844  0.4144  0.0730  0.0348
32706SOL    HW1 1073   1.894   7.014   1.899 -1.1780 -1.8321 -0.8605
32706SOL    HW2 1074   1.889   7.066   1.757 -1.9269 -1.7550 -0.8100
32707SOL     OW 1075   0.861   0.020   4.048  0.4458 -0.5234 -0.4367
32707SOL    HW1 1076   0.952  -0.003   4.067  0.1380 -0.5253  1.1321
32707SOL    HW2 1077   0.846   0.101   4.097  0.1946  0.6715 -2.3679
32708SOL     OW 1078   9.278   0.599   7.831  0.6535  0.6546  0.1984
32708SOL    HW1 1079   9.210   0.554   7.780 -0.0965  1.0844  0.7924
32708SOL    HW2 1080   9.245   0.599   7.921  1.7810  0.2511  0.6275
32709SOL     OW 1081   5.589  10.174   2.951  0.0996 -0.2823  0.2460
32709SOL    HW1 1082   5.626  10.227   2.880 -0.1873 -0.1244  0.2140
32709SOL    HW2 1083   5.648  10.187   3.025 -0.0922  0.2583  0.3056
32710SOL     OW 1084   5.332   9.390   8.824 -0.4278  0.2618 -0.3739
32710SOL    HW1 1085   5.384   9.469   8.840 -0.2547 -0.3808  2.8281
32710SOL    HW2 1086   5.242   9.421   8.814 -0.0066  1.0478 -2.1865
32711SOL     OW 1087   4.745   2.265   0.353 -0.0567  0.1713  0.0129
32711SOL    HW1 1088   4.832   2.240   0.323  0.6786  1.4037  1.0246
32711SOL    HW2 1089   4.708   2.316   0.281 -0.4782 -1.3890 -0.9319
32712SOL     OW 1090   9.196   5.055   0.999  0.2890  0.0726 -0.3408
32712SOL    HW1 1091   9.183   4.961   1.014  0.4810  0.2279  0.9121
32712SOL    HW2 1092   9.113   5.095   1.022  0.9722  0.4458  1.7690
32713SOL     OW 1093  10.183   6.177   0.561  0.1699 -0.1171  0.1184
32713SOL    HW1 1094  10.267   6.136   0.579  1.3738  1.8905 -0.6106
32713SOL    HW2 1095  10.119   6.108   0.577  1.9310 -1.6943  0.7393
32714SOL     OW 1096   0.000   6.484   6.662 -0.1425 -0.0444 -0.0779
32714SOL    HW1 1097   0.010   6.389   6.660 -0.3304 -0.0524 -1.5383
32714SOL    HW2 1098   0.073   6.517   6.609 -1.1145  0.5147 -1.1124
32715SOL     OW 1099   5.616   4.024   7.191  0.2140  0.3908  0.2509
32715SOL    HW1 1100   5.654   3.937   7.203 -2.7434 -1.2121 -1.1118
32715SOL    HW2 1101   5.651   4.054   7.107  1.0801  0.4807  0.6300
32716SOL     OW 1102   4.671   1.913   2.324 -0.1509 -0.2663 -0.0436
32716SOL    HW1 1103   4.705   1.849   2.262  2.0627  2.2739 -1.6813
32716SOL    HW2 1104   4.685   1.874   2.410  0.7764 -2.0855 -0.9821
32717SOL     OW 1105   7.874   5.339   6.445 -0.4167 -0.1970  0.1389
32717SOL    HW1 1106   7.875   5.293   6.360 -1.2036 -1.0329  0.5669
32717SOL    HW2 1107   7.829   5.279   6.504  1.5165 -0.3562  1.5786
32718SOL     OW 1108   1.318   6.939   6.396 -0.0510  0.4673  0.9093
32718SOL    HW1 1109   1.412   6.954   6.389  0.0701  0.2919  2.0692
32718SOL    HW2 1110   1.310   6.862   6.452 -0.9043  0.7485  1.1876
32719SOL     OW 1111   7.729   8.950   8.684  0.5749 -0.0761 -0.3708
32719SOL    HW1 1112   7.733   8.857   8.663 -0.3286 -0.0321 -0.7490
32719SOL    HW2 1113   7.707   8.952   8.777  3.2371 -0.2470  0.3698
32720SOL     OW 1114   8.581  10.213   1.330  0.8449 -0.0287 -0.2226
32720SOL    HW1 1115   8.619  10.156   1.396  2.9017 -0.8552 -2.0190
32720SOL    HW2 1116   8.652  10.272   1.305 -0.5741  1.8263 -0.0706
32721SOL     OW 1117   6.872   7.138   0.728 -0.0675 -0.1509  0.3308
32721SOL    HW1 1118   6.926   7.217   0.719 -1.2412  0.7023  0.5106
32721SOL    HW2 1119   6.826   7.150   0.811 -1.6963 -0.0934 -0.5445
32722SOL     OW 1120   1.831   9.958   6.512 -0.6198  0.0756  0.4770
32722SOL    HW1 1121   1.791   9.939   6.597 -0.2350  1.9078  1.1019
32722SOL    HW2 1122   1.839  10.053   6.509 -1.1031  0.1183 -1.8416
32723SOL     OW 1123   0.116   8.790   1.297  0.2394 -0.0373  0.0161
32723SOL    HW1 1124   0.122   8.695   1.306  2.4114  0.0896  0.3839
32723SOL    HW2 1125   0.189   8.814   1.240 -1.5709  1.2485 -1.9338
32724SOL     OW 1126   0.304   1.385   7.918 -0.0547  0.3745 -0.7728
32724SOL    HW1 1127   0.219   1.427   7.927 -0.3917 -0.4019 -0.1933
32724SOL    HW2 1128   0.284   1.295   7.890  0.5753  0.1834 -0.6401
32725SOL     OW 1129   1.928   4.420   3.202  0.3595 -0.3088 -0.0919
32725SOL    HW1 1130   1.867   4.413   3.275  0.6741  0.8643  0.3036
32725SOL    HW2 1131   2.011   4.386   3.236  0.3683 -0.2725 -0.0767
32726SOL     OW 1132   5.556   7.863   6.799 -0.4656  0.0301 -0.7405
32726SOL    HW1 1133   5.512   7.809   6.864  0.1689  1.3592  0.8782
32726SOL    HW2 1134   5.521   7.951   6.813  1.1945  0.7272 -0.7907
32727SOL     OW 1135   2.964   5.533   0.555  0.6995 -0.0114 -0.0974
32727SOL    HW1 1136   2.928   5.585   0.483 -1.3586  1.1673  1.6675
32727SOL    HW2 1137   3.030   5.590   0.595 -0.4748  0.6872  0.9009
32728SOL     OW 1138   6.026   6.142   2.637  0.6861 -0.3938  0.3771
32728SOL    HW1 1139   6.010   6.094   2.717 -0.0722 -0.7125  0.0424
32728SOL    HW2 1140   6.120   6.160   2.638  0.6986 -0.4626  1.2874
32729SOL     OW 1141   4.325   5.907   2.008  0.1123 -0.1342  0.1152
32729SOL    HW1 1142   4.380   5.888   2.085  0.2826 -0.0121  0.0242
32729SOL    HW2 1143   4.376   5.872   1.934 -0.6182 -1.3995  0.1797
32730SOL     OW 1144   1.562   5.577   6.814 -0.2764  0.0089 -0.1918
32730SOL    HW1 1145   1.496   5.646   6.823  0.0059  0.2572 -0.0173
32730SOL    HW2 1146   1.633   5.618   6.764  0.5121  0.2875  1.1189
32731SOL     OW 1147   8.844   2.291   3.312 -0.2521  0.4109 -0.0984
32731SOL    HW1 1148   8.844   2.314   3.405  0.8765  0.5001 -0.1039
32731SOL    HW2 1149   8.862   2.197   3.310  0.4050  0.5321 -0.2352
32732SOL     OW 1150   2.283   9.727   4.019  0.1274 -0.2677 -0.1207
32732SOL    HW1 1151   2.218   9.758   4.083 -1.4302 -0.3873 -1.5591
32732SOL    HW2 1152   2.357   9.787   4.028 -1.5112  1.9558 -0.6350
32733SOL     OW 1153   5.171   6.450   5.898  0.2918  0.1492 -0.5075
32733SOL    HW1 1154   5.244   6.392   5.921 -0.9711 -0.8984  1.1279
32733SOL    HW2 1155   5.213   6.527   5.861  2.0517 -1.9417 -3.2615
32734SOL     OW 1156   3.567   4.747   9.532 -0.2679  0.0682 -0.4583
32734SOL    HW1 1157   3.476   4.774   9.522 -0.6014 -1.2427 -1.3802
32734SOL    HW2 1158   3.608   4.817   9.582 -1.2691  1.7666 -1.8665
32735SOL     OW 1159   2.905   2.009   6.355 -0.1215  0.2693 -0.7408
32735SOL    HW1 1160   2.884   2.008   6.448  1.3442 -1.4332 -0.3705
32735SOL    HW2 1161   2.826   1.976   6.311  0.1616 -1.7040  0.1759
32736SOL     OW 1162   4.796   8.657   3.813  0.3712  0.2023 -0.2437
32736SOL    HW1 1163   4.847   8.661   3.732 -0.0713  2.4592 -0.4770
32736SOL    HW2 1164   4.857   8.624   3.879  1.1372 -0.3343 -1.2062
32737SOL     OW 1165   0.621   3.325   5.837  0.0423  0.0951 -0.2453
32737SOL    HW1 1166   0.619   3.279   5.921  1.2890  0.1656 -0.1540
32737SOL    HW2 1167   0.689   3.281   5.787 -1.2395 -0.4668 -1.5591
32738SOL     OW 1168   7.954   6.443   5.863 -0.5866 -0.0506 -0.3883
32738SOL    HW1 1169   7.918   6.493   5.790 -1.5346 -1.4821 -0.9433
32738SOL    HW2 1170   7.877   6.414   5.912  0.0075  0.2430  0.7573
32739SOL     OW 1171   2.772   7.617   5.734  0.0091  0.1780  0.2157
32739SOL    HW1 1172   2.801   7.558   5.803  0.0381 -1.3504 -1.0545
32739SOL    HW2 1173   2.682   7.590   5.716  0.4011 -0.2716 -1.1656
32740SOL     OW 1174   8.159   5.085   9.776 -0.1073 -0.4298 -0.2104
32740SOL    HW1 1175   8.065   5.074   9.768 -0.1265  0.7316 -2.4498
32740SOL    HW2 1176   8.170   5.143   9.851 -1.3876  1.1870 -1.1955
32741SOL     OW 1177   9.408   4.600   6.995  0.1550  0.5736  0.0198
32741SOL    HW1 1178   9.370   4.566   6.914  0.5783  0.1858 -0.0239
32741SOL    HW2 1179   9.405   4.695   6.986  1.1796  0.5355 -0.9276
32742SOL     OW 1180   2.538   9.959   5.861  0.2870 -0.5738  0.1031
32742SOL    HW1 1181   2.493  10.016   5.798  1.8569  0.9495  0.3029
32742SOL    HW2 1182   2.477   9.950   5.934 -1.0557 -1.3518 -1.0639
32743SOL     OW 1183   0.743   8.100   7.970 -0.7873 -0.2449 -0.4063
32743SOL    HW1 1184   0.781   8.184   7.996 -0.1772 -0.2727 -1.1729
32743SOL    HW2 1185   0.745   8.101   7.874 -3.0931 -0.0944 -0.4920
32744SOL     OW 1186   6.505   8.751   0.676 -0.2209 -0.8364  0.1953
32744SOL    HW1 1187   6.559   8.693   0.729  1.1943 -0.5099 -0.8262
32744SOL    HW2 1188   6.555   8.833   0.672  1.3756 -1.7689 -4.1530
32745SOL     OW 1189   1.921   6.154   4.047 -0.0931 -0.0720  0.9721
32745SOL    HW1 1190   1.991   6.216   4.028 -0.1674 -0.5926 -1.3438
32745SOL    HW2 1191   1.843   6.208   4.061  0.1802  0.4272  0.5987
32746SOL     OW 1192   4.249   9.789   2.693 -0.1808  0.8307 -0.2341
32746SOL    HW1 1193   4.210   9.865   2.737  0.7106  1.4213 -0.4263
32746SOL    HW2 1194   4.302   9.827   2.623  0.8258  0.0715  0.0966
32747SOL     OW 1195   3.055   0.228   3.656  0.2917 -0.0738 -0.5550
32747SOL    HW1 1196   2.975   0.179   3.635  1.1546 -1.4849 -0.6444
32747SOL    HW2 1197   3.083   0.266   3.573 -0.5260  0.8566 -0.4360
32748SOL     OW 1198   8.739   4.548   0.627  0.4810 -0.2506 -0.9007
32748SOL    HW1 1199   8.763   4.514   0.713 -3.4463  1.3668  1.1123
32748SOL    HW2 1200   8.754   4.642   0.633 -0.3033 -0.0497 -1.7697
32749SOL     OW 1201   4.437   0.962  10.268 -0.3878  0.6812  0.1182
32749SOL    HW1 1202   4.526   0.953  10.301 -0.4029  0.5727  0.1277
32749SOL    HW2 1203   4.391   1.011  10.336  0.1449  2.4365 -0.7075
32750SOL     OW 1204   8.230   6.661   6.744  0.8992  0.0978 -0.2214
32750SOL    HW1 1205   8.159   6.673   6.681  1.1536  1.9204 -0.2229
32750SOL    HW2 1206   8.299   6.721   6.714  2.7663 -2.0956 -0.6137
32751SOL     OW 1207   1.691   1.480   4.383 -0.5303  0.3982 -0.0827
32751SOL    HW1 1208   1.748   1.502   4.456 -1.1163  1.5283  0.0564
32751SOL    HW2 1209   1.642   1.560   4.365 -3.1562 -0.9134  0.7664
32752SOL     OW 1210   7.729   7.876   4.164  0.0062  0.3551  0.4932
32752SOL    HW1 1211   7.736   7.883   4.069 -1.0117  1.4658  0.4742
32752SOL    HW2 1212   7.635   7.877   4.182  0.1862  1.7689  1.5887
32753SOL     OW 1213   3.438   9.747   3.911 -0.0907  0.3972 -0.0725
32753SOL    HW1 1214   3.502   9.691   3.868 -0.1635  0.4255 -0.2218
32753SOL    HW2 1215   3.379   9.687   3.956 -1.5841  0.1781 -2.1635
32754SOL     OW 1216   4.821   6.877   4.883  0.4836 -0.2592  0.0093
32754SOL    HW1 1217   4.742   6.840   4.922  0.5222 -0.9475 -0.5425
32754SOL    HW2 1218   4.800   6.970   4.871  0.2705 -0.1552  1.1163
32755SOL     OW 1219   3.344   9.894   9.417 -0.6346 -0.3356  0.1806
32755SOL    HW1 1220   3.334   9.933   9.503 -1.5999 -0.4244  0.1151
32755SOL    HW2 1221   3.437   9.872   9.411  0.5332  3.8742 -0.6078
32756SOL     OW 1222   8.487   8.258   8.440 -0.1817 -0.0741 -0.7150
32756SOL    HW1 1223   8.400   8.231   8.412 -0.0730 -0.5005 -0.6423
32756SOL    HW2 1224   8.526   8.180   8.478  0.5326 -0.0928 -1.4641
32757SOL     OW 1225   6.287   3.871   8.263  0.2590  0.4929 -0.1596
32757SOL    HW1 1226   6.326   3.886   8.177 -0.7041  0.6056 -0.5846
32757SOL    HW2 1227   6.326   3.788   8.292 -0.9981 -0.7139 -1.6749
32758SOL     OW 1228   7.383   1.531   0.884  0.3871 -0.0003 -0.0584
32758SOL    HW1 1229   7.310   1.566   0.935  0.8991 -1.0209  1.4483
32758SOL    HW2 1230   7.394   1.594   0.813 -0.3493  1.5250  1.0969
32759SOL     OW 1231   8.214   9.304   3.124 -0.0693 -0.3309 -0.0450
32759SOL    HW1 1232   8.305   9.278   3.137 -0.2305  0.0412  2.0669
32759SOL    HW2 1233   8.184   9.249   3.051  1.7885 -0.5270 -0.7165
32760SOL     OW 1234   1.735   6.470   1.669 -0.2921  1.1338  0.5476
32760SOL    HW1 1235   1.654   6.420   1.656  0.0418  0.6486  0.2995
32760SOL    HW2 1236   1.730   6.541   1.605  0.0081  0.4259 -0.2842
32761SOL     OW 1237   6.883   7.495   9.366 -0.1034  0.0786  0.5530
32761SOL    HW1 1238   6.889   7.400   9.356  0.2047  0.2330 -0.9401
32761SOL    HW2 1239   6.969   7.521   9.397 -0.2736 -0.1508  1.2334
32762SOL     OW 1240   1.467   9.043   4.196  1.2368 -0.2886  0.4812
32762SOL    HW1 1241   1.479   8.951   4.171  0.9401  0.2469 -1.8920
32762SOL    HW2 1242   1.472   9.043   4.291  2.9970 -2.5114  0.4738
32763SOL     OW 1243   6.658   2.881   6.720  0.6849 -0.0806  0.9869
32763SOL    HW1 1244   6.644   2.972   6.747  1.2295  0.3722 -0.2234
32763SOL    HW2 1245   6.696   2.887   6.633 -1.2347 -1.5067 -0.0105
32764SOL     OW 1246   2.885   6.304   4.230 -0.2811  0.0764 -0.3172
32764SOL    HW1 1247   2.790   6.300   4.221 -0.1789  0.7219 -2.0799
32764SOL    HW2 1248   2.918   6.230   4.179  0.1976  0.8280 -1.1262
32765SOL     OW 1249   2.152   1.204   2.861 -0.0142  0.0127 -0.0711
32765SOL    HW1 1250   2.187   1.256   2.788 -1.9367  1.9596  0.2823
32765SOL    HW2 1251   2.061   1.233   2.869 -0.4949 -1.7805  1.6972
32766SOL     OW 1252   4.728   0.494   4.553 -0.5387 -0.1403  0.0510
32766SOL    HW1 1253   4.737   0.554   4.478  1.8320 -0.7322 -0.2206
32766SOL    HW2 1254   4.707   0.551   4.627  1.2671  1.0324 -0.2755
32767SOL     OW 1255   7.630   0.342   7.815  0.2132  0.0492  0.6105
32767SOL    HW1 1256   7.685   0.315   7.741 -2.4377  1.0700 -1.9579
32767SOL    HW2 1257   7.573   0.267   7.830  0.5331 -0.0331  1.4272
32768SOL     OW 1258   7.128   5.750   0.623  0.4683  0.2303 -0.1557
32768SOL    HW1 1259   7.159   5.822   0.568  1.2498  1.4390  1.7620
32768SOL    HW2 1260   7.189   5.678   0.606  1.5841  1.0705  0.1805
32769SOL     OW 1261   5.028   7.393   4.652  0.3207  0.3377  0.1167
32769SOL    HW1 1262   5.016   7.470   4.595 -0.4954  0.2033  0.0978
32769SOL    HW2 1263   5.095   7.420   4.715 -1.2976  1.7498  1.3004
32770SOL     OW 1264   7.051   3.536   1.558  0.4713 -0.7267  0.2728
32770SOL    HW1 1265   6.973   3.562   1.509 -1.0579 -3.4512  1.0264
32770SOL    HW2 1266   7.046   3.585   1.640 -1.5737 -2.1747  1.0980
32771SOL     OW 1267   4.118   9.774   3.016 -0.4275  0.5840  0.1515
32771SOL    HW1 1268   4.069   9.836   3.070 -0.1439  0.4419  0.5797
32771SOL    HW2 1269   4.167   9.829   2.955 -0.4195  0.7647  0.3199
32772SOL     OW 1270   2.493   6.844   2.813 -0.3178  0.3604  0.7781
32772SOL    HW1 1271   2.398   6.839   2.811 -0.3040  0.2475 -0.2127
32772SOL    HW2 1272   2.513   6.936   2.829 -0.5999  0.4885  0.4110
32773SOL     OW 1273   4.831  10.671   2.303  0.4823 -0.2534  0.1955
32773SOL    HW1 1274   4.846  10.621   2.383  1.8381  0.5758  0.4936
32773SOL    HW2 1275   4.916  10.711   2.284  0.0860 -0.1490 -1.4628
32774SOL     OW 1276   8.774   1.269   3.317 -0.6482  0.0087  0.0312
32774SOL    HW1 1277   8.700   1.288   3.260 -1.1793  1.9411  1.2625
32774SOL    HW2 1278   8.734   1.236   3.397 -0.0422 -0.8280  0.0009
32775SOL     OW 1279   0.214   7.379  10.008  0.0846  0.3422 -0.4055
32775SOL    HW1 1280   0.205   7.287  10.030 -0.7020  0.4972 -0.0587
32775SOL    HW2 1281   0.230   7.423  10.092 -0.6844  0.6581 -0.4152
32776SOL     OW 1282   4.686   8.069   4.052 -1.0280  0.0687  0.3255
32776SOL    HW1 1283   4.768   8.108   4.083 -1.3084 -0.4179  1.7516
32776SOL    HW2 1284   4.712   7.986   4.014 -0.6450  0.7931 -1.0520
32777SOL     OW 1285   2.805   0.112   0.119 -0.4454  0.1264 -0.2495
32777SOL    HW1 1286   2.856   0.032   0.107  0.6263  0.7983 -0.3386
32777SOL    HW2 1287   2.869   0.182   0.110 -1.4638  1.0246 -0.7446
32778SOL     OW 1288   8.563   8.553   0.491  0.3588 -0.1078  0.2081
32778SOL    HW1 1289   8.474   8.575   0.463 -1.4894 -3.1097  2.9184
32778SOL    HW2 1290   8.611   8.636   0.487 -2.2438  1.4582 -2.2234
32779SOL     OW 1291   0.333   7.687   4.244  0.6529 -0.1224  0.0435
32779SOL    HW1 1292   0.420   7.653   4.264  0.9434  0.6043  0.0258
32779SOL    HW2 1293   0.349   7.760   4.184 -0.0226 -0.5169 -0.6322
32780SOL     OW 1294   2.073   9.255   3.023 -0.1811  0.0292  0.0999
32780SOL    HW1 1295   2.002   9.233   2.963  0.6264 -1.5399 -0.3524
32780SOL    HW2 1296   2.076   9.181   3.084  1.0198  0.0830  0.1326
32781SOL     OW 1297   6.221   2.322   5.430 -0.2596 -0.0328  0.3652
32781SOL    HW1 1298   6.235   2.231   5.404 -1.1706 -0.7275  2.1998
32781SOL    HW2 1299   6.222   2.370   5.347  1.7479 -1.4707 -0.5393
32782SOL     OW 1300   8.197   3.860   3.982  0.0976 -0.0343  0.3007
32782SOL    HW1 1301   8.205   3.926   4.050 -1.5368 -0.4556  0.9405
32782SOL    HW2 1302   8.287   3.842   3.955  0.6705  1.1551  1.3542
32783SOL     OW 1303   4.454   0.124   6.839 -0.5154  0.4491 -0.7781
32783SOL    HW1 1304   4.510   0.087   6.907  0.4513  0.0841 -1.7390
32783SOL    HW2 1305   4.367   0.089   6.857 -0.4237  0.8873  0.6400
32784SOL     OW 1306   2.508   6.641   4.396  0.3339 -0.2635  0.0017
32784SOL    HW1 1307   2.459   6.669   4.319  0.6600  1.6103  0.4352
32784SOL    HW2 1308   2.449   6.578   4.439 -1.2992  1.1670 -0.0286
32785SOL     OW 1309   3.199   1.949  10.148  0.0402  0.2097  0.3194
32785SOL    HW1 1310   3.223   1.960  10.056 -0.3427  0.8034  0.2796
32785SOL    HW2 1311   3.229   2.030  10.190 -0.6840  0.3845  0.5180
32786SOL     OW 1312   9.053   3.712   4.654  0.1167 -0.7708  0.2642
32786SOL    HW1 1313   9.101   3.793   4.639  0.8030 -1.2652 -0.2792
32786SOL    HW2 1314   9.119   3.652   4.690 -0.3296 -1.1620  0.4409
32787SOL     OW 1315   4.715   2.185   7.712  0.0257 -0.1115 -0.5465
32787SOL    HW1 1316   4.756   2.271   7.707  1.5464 -0.8427 -1.4617
32787SOL    HW2 1317   4.773   2.128   7.661  0.0321 -2.0634  1.5052
32788SOL     OW 1318   8.288   7.192   1.708  0.1609 -0.2773  0.1326
32788SOL    HW1 1319   8.260   7.255   1.641  1.2221  0.3787  0.2868
32788SOL    HW2 1320   8.375   7.221   1.733  0.1439 -1.0592  1.1543
32789SOL     OW 1321   4.344   2.473   5.635  0.2239  0.0327  0.5854
32789SOL    HW1 1322   4.366   2.434   5.550  0.0066  0.5821  0.2643
32789SOL    HW2 1323   4.341   2.400   5.696 -0.2735 -0.4647 -0.0215
32790SOL     OW 1324   1.879   2.892   9.621 -0.0766  0.5666  0.8543
32790SOL    HW1 1325   1.798   2.901   9.572 -0.7323  0.7412  1.9424
32790SOL    HW2 1326   1.853   2.898   9.713  1.1510  0.5133  1.2291
32791SOL     OW 1327   6.055   9.374   3.563 -0.4452 -0.1680  0.4161
32791SOL    HW1 1328   6.009   9.354   3.644 -0.7861  2.0250  0.8238
32791SOL    HW2 1329   6.117   9.444   3.586 -0.1586  0.1113 -1.0688
32792SOL     OW 1330   6.948   5.438   5.662  0.6996 -0.0635 -0.0082
32792SOL    HW1 1331   6.869   5.456   5.611  1.0097 -0.0590 -0.4904
32792SOL    HW2 1332   6.983   5.357   5.625 -0.9458 -2.0683  2.4518
32793SOL     OW 1333   6.694   7.340   2.831 -0.2527 -0.2786  0.5347
32793SOL    HW1 1334   6.738   7.407   2.884  1.2982 -1.3919  0.7490
32793SOL    HW2 1335   6.707   7.369   2.741  0.5788 -0.3469  0.6179
32794SOL     OW 1336   9.176   2.075   2.281 -0.3706  0.3926  0.2827
32794SOL    HW1 1337   9.262   2.033   2.294  0.2244  1.1639 -0.8916
32794SOL    HW2 1338   9.131   2.016   2.220 -0.2672  0.4992  0.1007
32795SOL     OW 1339   3.577   4.312   8.433 -0.1977  0.5551 -0.6354
32795SOL    HW1 1340   3.572   4.402   8.399  0.6345 -0.1002 -2.6856
32795SOL    HW2 1341   3.494   4.299   8.478 -1.1162  1.7997 -1.8553
32796SOL     OW 1342   8.742   8.077   8.625  0.7264 -0.1036  0.4234
32796SOL    HW1 1343   8.762   8.139   8.695  0.2351 -0.7663  1.1618
32796SOL    HW2 1344   8.795   8.000   8.646 -1.9736 -1.6614  2.0674
32797SOL     OW 1345   9.062   9.898   8.406 -0.3957  0.0355  0.1577
32797SOL    HW1 1346   9.051   9.959   8.333 -0.5085  0.1453  0.2666
32797SOL    HW2 1347   9.011   9.937   8.477 -0.2621 -0.0577  0.3033
32798SOL     OW 1348   0.891   2.969   9.989 -0.1530  0.2517 -0.4601
32798SOL    HW1 1349   0.940   2.891  10.016 -0.3941 -0.0312 -0.8319
32798SOL    HW2 1350   0.799   2.943   9.997 -0.3384  1.4175  2.1866
32799SOL     OW 1351   7.059   9.979   9.751 -0.3978 -0.6473 -0.2118
32799SOL    HW1 1352   7.102  10.060   9.778  0.4252 -0.8710 -0.8329
32799SOL    HW2 1353   6.990   9.965   9.817 -1.8267  1.5509 -1.1450
32800SOL     OW 1354   3.298   8.653   2.195  0.0422  0.8216 -0.5020
32800SOL    HW1 1355   3.234   8.603   2.245 -0.0537  0.9584 -0.4894
32800SOL    HW2 1356   3.270   8.744   2.203  2.0474  1.2981  2.1978
32801SOL     OW 1357   1.582   9.332   0.183  0.2219  0.3280 -0.1506
32801SOL    HW1 1358   1.507   9.329   0.242  0.0343  0.6294 -0.3663
32801SOL    HW2 1359   1.544   9.329   0.095  0.4797  0.1565 -0.2586
32802SOL     OW 1360   6.864   4.270   5.742 -0.4034  0.1532  0.2563
32802SOL    HW1 1361   6.886   4.352   5.785  0.2348  0.0929  0.0547
32802SOL    HW2 1362   6.887   4.283   5.650  1.4252 -0.8329  0.5168
32803SOL     OW 1363   5.671   5.551   7.428  0.3735 -0.3773 -0.1777
32803SOL    HW1 1364   5.665   5.558   7.333  1.7368  2.2731 -0.1579
32803SOL    HW2 1365   5.763   5.567   7.448 -0.2025  0.9612  1.6915
32804SOL     OW 1366   2.352  10.028  10.124 -0.4845  0.5914  0.1808
32804SOL    HW1 1367   2.352   9.939  10.089 -3.4811 -0.0017  1.3830
32804SOL    HW2 1368   2.438  10.062  10.102  1.1955 -2.9228  0.5126
32805SOL     OW 1369   7.039   6.836   9.356  0.1970 -0.1424  0.1304
32805SOL    HW1 1370   7.041   6.904   9.424  1.1950  1.6971 -1.6447
32805SOL    HW2 1371   7.083   6.761   9.396  1.0720  1.0042  1.4243
32806SOL     OW 1372   2.416   7.812   9.682 -0.0556 -0.5566  0.5394
32806SOL    HW1 1373   2.489   7.790   9.741  2.1948  2.5608 -0.8076
32806SOL    HW2 1374   2.458   7.853   9.607 -3.1837  0.1675 -0.9509
32807SOL     OW 1375   2.113   8.227   2.971  0.3381  0.4255  0.1867
32807SOL    HW1 1376   2.055   8.269   2.907 -0.3554  0.2739  0.7092
32807SOL    HW2 1377   2.179   8.183   2.917 -0.9151 -0.7019 -0.4963
32808SOL     OW 1378  10.646   6.232   5.998  0.3570  0.2059 -0.4187
32808SOL    HW1 1379  10.573   6.284   5.962 -0.3167  0.1065  0.7403
32808SOL    HW2 1380  10.706   6.221   5.925 -0.4401  0.9374 -1.2107
32809SOL     OW 1381   5.573   8.065   2.896 -0.3164  0.4136  0.2252
32809SOL    HW1 1382   5.496   8.114   2.868 -0.5476  0.0686  0.2563
32809SOL    HW2 1383   5.622   8.048   2.815  0.1472  1.3333  0.2939
32810SOL     OW 1384   7.929   4.543   7.034  0.2461  0.6283  0.3292
32810SOL    HW1 1385   7.906   4.635   7.038 -0.2262  0.5890 -1.1025
32810SOL    HW2 1386   8.023   4.540   7.053  0.3574  1.4505 -0.0826
32811SOL     OW 1387   8.705   5.916   8.934 -0.0219 -0.1422 -0.2612
32811SOL    HW1 1388   8.695   6.000   8.979 -2.0348  0.2808 -1.3821
32811SOL    HW2 1389   8.731   5.939   8.845  0.7628 -0.7995 -0.2131
32812SOL     OW 1390  10.184   8.376   1.185  0.0301 -0.1261  0.0933
32812SOL    HW1 1391  10.092   8.378   1.209 -0.3414  0.1307 -1.2999
32812SOL    HW2 1392  10.186   8.398   1.092  1.4096 -1.1021 -0.1496
32813SOL     OW 1393   2.706   7.924   0.016 -0.2706 -0.0910  0.3316
32813SOL    HW1 1394   2.619   7.904  -0.019 -0.0357 -0.5811  0.0148
32813SOL    HW2 1395   2.764   7.862  -0.028  0.0396 -0.7299  1.5949
32814SOL     OW 1396   1.211   1.578   9.202  0.2419  0.4837 -0.2705
32814SOL    HW1 1397   1.205   1.533   9.118  0.2496 -1.4102  0.6797
32814SOL    HW2 1398   1.304   1.591   9.217  0.1842  2.1591 -1.1863
32815SOL     OW 1399   9.820   0.967   9.956 -0.7775  0.1988  0.2792
32815SOL    HW1 1400   9.853   1.032   9.894 -1.9448 -0.1631 -0.7583
32815SOL    HW2 1401   9.768   1.017  10.019 -0.0753  0.4962  0.6267
32816SOL     OW 1402   9.052   6.948   0.216 -0.0033 -0.6268  0.0103
32816SOL    HW1 1403   9.129   6.977   0.265  1.8101 -2.7066 -1.4375
32816SOL    HW2 1404   8.988   6.925   0.284  0.2192  1.9803  1.2333
32817SOL     OW 1405   1.202   1.823   6.926 -0.0351 -0.2183 -0.4436
32817SOL    HW1 1406   1.119   1.860   6.958  0.1178 -0.0678 -0.2129
32817SOL    HW2 1407   1.184   1.797   6.836  0.0659  1.1397 -0.8781
32818SOL     OW 1408   9.012   1.577   2.107 -0.4183 -0.3199  0.0905
32818SOL    HW1 1409   9.075   1.583   2.178  2.0819  0.8033 -2.0520
32818SOL    HW2 1410   9.019   1.486   2.076  0.4990 -0.1101 -0.3650
32819SOL     OW 1411   1.930   2.793   1.933  0.0313 -0.0324 -0.0389
32819SOL    HW1 1412   1.938   2.740   1.854 -0.2993  0.6840 -0.5706
32819SOL    HW2 1413   1.983   2.748   1.999 -2.3484 -2.4994  0.3542
32820SOL     OW 1414   3.455   6.375   7.771 -0.0780  0.0867  0.1695
32820SOL    HW1 1415   3.472   6.286   7.739 -0.7348  0.3135 -0.8579
32820SOL    HW2 1416   3.442   6.427   7.692  2.8487  1.6951  0.6213
32821SOL     OW 1417   3.921   7.638   7.158  0.6303 -0.2039  0.0761
32821SOL    HW1 1418   3.942   7.643   7.251 -2.0178  1.3202  0.6963
32821SOL    HW2 1419   3.964   7.715   7.120 -0.2918  0.5564  0.5333
32822SOL     OW 1420  10.656   7.534   8.404  0.2309  0.3962  0.1365
32822SOL    HW1 1421  10.696   7.449   8.420 -0.3076 -0.2218 -1.5686
32822SOL    HW2 1422  10.620   7.527   8.316 -1.1501  1.8844  0.5389
32823SOL     OW 1423   7.398   3.385   7.550 -0.1533 -0.5547  0.1458
32823SOL    HW1 1424   7.381   3.366   7.457 -2.7022 -2.2619  0.8682
32823SOL    HW2 1425   7.354   3.469   7.566 -2.3587 -1.7036  0.4319
32824SOL     OW 1426   2.774   8.161   8.500 -0.5419 -0.2684 -0.4195
32824SOL    HW1 1427   2.811   8.248   8.490  0.5904 -0.7103 -0.2819
32824SOL    HW2 1428   2.679   8.173   8.490 -0.3289  0.8302 -1.2562
32825SOL     OW 1429   4.870   3.784  10.361 -0.0816 -0.1632 -0.4431
32825SOL    HW1 1430   4.840   3.809  10.274  0.9784 -2.2356 -1.4806
32825SOL    HW2 1431   4.828   3.700  10.378  3.9186 -2.6540 -1.5061
32826SOL     OW 1432   9.500   3.979   9.730  0.3020  0.3594 -0.0222
32826SOL    HW1 1433   9.537   4.055   9.775  2.2353 -0.1433 -0.6467
32826SOL    HW2 1434   9.574   3.941   9.682 -0.6708 -1.7210 -0.0078
32827SOL     OW 1435   8.995   5.779   8.097 -0.4151 -0.0148 -0.4378
32827SOL    HW1 1436   8.925   5.743   8.042  0.4239 -0.3844 -1.2882
32827SOL    HW2 1437   9.029   5.703   8.145  0.4235 -0.1257 -1.1870
32828SOL     OW 1438   7.631   6.693   7.713  0.1383  0.1394  0.0252
32828SOL    HW1 1439   7.548   6.648   7.727  1.1013 -1.4593  0.9401
32828SOL    HW2 1440   7.670   6.648   7.638  0.4817  0.4191  0.0344
32829SOL     OW 1441   6.121   7.224   4.103 -0.1589 -0.0586 -0.2785
32829SOL    HW1 1442   6.152   7.209   4.014 -1.3554 -0.4309 -0.6555
32829SOL    HW2 1443   6.032   7.257   4.092 -0.9892 -1.7852  0.7891
32830SOL     OW 1444   6.571   1.960   5.509  0.2345  0.4602 -0.1535
32830SOL    HW1 1445   6.641   1.949   5.445 -0.7335  2.0845 -1.5881
32830SOL    HW2 1446   6.579   2.051   5.538 -2.6625  1.5185 -2.1964
32831SOL     OW 1447   2.581   8.150  10.420  0.0867  0.0940 -0.5436
32831SOL    HW1 1448   2.530   8.115  10.347 -1.3645  0.0906  0.4367
32831SOL    HW2 1449   2.544   8.107  10.497 -0.0789  1.9316  0.4435
32832SOL     OW 1450   6.103   8.724   6.517  0.2419  0.3064 -0.3935
32832SOL    HW1 1451   6.106   8.808   6.562 -0.4674  1.2374 -1.9872
32832SOL    HW2 1452   6.009   8.706   6.507  0.3791 -0.9573  0.4043
32833SOL     OW 1453   6.539   7.975   2.864 -0.1602  0.4207 -0.1683
32833SOL    HW1 1454   6.523   8.018   2.780 -0.9604  0.9806  0.2555
32833SOL    HW2 1455   6.626   8.003   2.889  0.1909  0.0462 -0.9292
32834SOL     OW 1456   7.583   7.281   8.730  0.6491  0.0746  0.0505
32834SOL    HW1 1457   7.585   7.370   8.696  0.3640 -0.3778 -1.2024
32834SOL    HW2 1458   7.665   7.242   8.701 -0.2961 -0.8115 -1.5862
32835SOL     OW 1459   0.697  10.154   6.611 -0.6288 -0.2298  0.7515
32835SOL    HW1 1460   0.621  10.097   6.615  0.1828 -1.4982 -0.6618
32835SOL    HW2 1461   0.693  10.193   6.524  1.0231 -1.4284  0.0722
32836SOL     OW 1462   2.912   4.643  10.545  0.0881 -0.3944 -0.0872
32836SOL    HW1 1463   2.954   4.676  10.625  0.1041  1.1287 -0.6778
32836SOL    HW2 1464   2.969   4.672  10.474  0.0668 -1.7146 -0.6687
32837SOL     OW 1465   8.002   3.936   3.115  0.8580  0.4063 -0.0599
32837SOL    HW1 1466   7.935   3.869   3.107  0.3328  1.0023 -0.7335
32837SOL    HW2 1467   7.993   3.990   3.037 -0.3645  2.7383  1.5737
32838SOL     OW 1468   0.448   0.279   6.736  0.2004  0.0006 -0.2088
32838SOL    HW1 1469   0.485   0.300   6.651  2.7431  0.6350  0.9728
32838SOL    HW2 1470   0.465   0.186   6.748  0.5025  0.0697 -0.0964
32839SOL     OW 1471   6.616   1.421   5.521  0.3320  0.0612 -0.2159
32839SOL    HW1 1472   6.536   1.416   5.468  0.6675  0.2489 -0.7567
32839SOL    HW2 1473   6.586   1.446   5.608 -0.1341  0.9342 -0.6073
32840SOL     OW 1474  10.040  10.338   2.131 -0.3477 -0.1131 -0.3027
32840SOL    HW1 1475  10.094  10.278   2.183  1.3936  1.2577 -0.4239
32840SOL    HW2 1476   9.951  10.303   2.138  0.2454 -1.3962  1.4855
32841SOL     OW 1477   8.080   3.095   4.817  0.5420 -0.2923  0.2848
32841SOL    HW1 1478   8.114   3.152   4.886 -0.3167 -1.0630  1.3804
32841SOL    HW2 1479   7.984   3.102   4.825  0.4181 -0.1525 -1.0442
32842SOL     OW 1480   7.653  10.100   4.738 -0.2980  0.1342 -0.5204
32842SOL    HW1 1481   7.590  10.142   4.680  1.0557  0.0166 -2.1596
32842SOL    HW2 1482   7.642  10.006   4.722 -0.0494  0.0927 -0.4588
32843SOL     OW 1483   6.424   5.854   0.137 -0.1226 -0.4211 -0.0907
32843SOL    HW1 1484   6.491   5.915   0.169  0.0394 -0.4052 -0.4504
32843SOL    HW2 1485   6.391   5.896   0.057 -0.9733 -0.1450  0.3910
32844SOL     OW 1486   8.890  10.284   3.143  0.4159  0.2695  0.0466
32844SOL    HW1 1487   8.908  10.254   3.232 -0.1499  0.0456  0.0889
32844SOL    HW2 1488   8.884  10.379   3.150 -1.1221  0.1561  0.5308
32845SOL     OW 1489   9.482   9.736   4.640  0.5438 -0.6141 -0.2038
32845SOL    HW1 1490   9.515   9.650   4.615  1.2774 -0.3846 -0.0675
32845SOL    HW2 1491   9.476   9.785   4.558 -1.4832 -1.2908 -0.5253
32846SOL     OW 1492   8.135   8.698   0.744  0.6820 -0.4373 -0.7252
32846SOL    HW1 1493   8.087   8.703   0.826  1.9321  0.1309  0.0033
32846SOL    HW2 1494   8.136   8.605   0.722  0.6449 -0.6323  0.0859
32847SOL     OW 1495   3.836   2.317   1.955  0.4113  0.1040  0.0132
32847SOL    HW1 1496   3.895   2.388   1.979  0.8034  0.5428 -2.0477
32847SOL    HW2 1497   3.770   2.358   1.899  0.2906 -1.0327 -0.7129
32848SOL     OW 1498   8.579   2.860   3.951  0.1468 -0.2765  0.6172
32848SOL    HW1 1499   8.522   2.906   3.889  1.0966 -0.5742 -0.5090
32848SOL    HW2 1500   8.625   2.930   3.997  1.5784 -0.0068 -1.0823
32849SOL     OW 1501   1.123   5.018  10.201 -0.1041 -0.1181 -0.2553
32849SOL    HW1 1502   1.044   4.964  10.196  1.0293 -1.9446  0.5817
32849SOL    HW2 1503   1.190   4.959  10.234  1.3790  1.6685  0.0780
32850SOL     OW 1504   7.827   7.635   9.817 -0.5609  0.4278 -0.1751
32850SOL    HW1 1505   7.830   7.613   9.724  0.8107 -1.1265  0.2051
32850SOL    HW2 1506   7.735   7.656   9.834 -0.8060  0.8729 -1.8875
32851SOL     OW 1507   5.204   6.872   3.846  0.1977  0.2494  0.2825
32851SOL    HW1 1508   5.193   6.804   3.912  0.1273  1.0532  1.1264
32851SOL    HW2 1509   5.254   6.830   3.776  3.0098  0.1503  2.1617
32852SOL     OW 1510   4.742   4.665   7.853 -0.6306  0.3100  0.3995
32852SOL    HW1 1511   4.702   4.745   7.820 -0.8317  0.0893  0.0974
32852SOL    HW2 1512   4.734   4.672   7.948  0.8606  1.4162  0.4817
32853SOL     OW 1513   7.601   4.986   1.277 -0.2349 -0.4298 -0.1557
32853SOL    HW1 1514   7.663   5.046   1.317 -0.6359  0.3573 -0.6761
32853SOL    HW2 1515   7.636   4.970   1.189  0.3456 -1.6960  0.2766
32854SOL     OW 1516   1.018   7.326   2.348  0.4276  0.0195 -0.1028
32854SOL    HW1 1517   0.945   7.385   2.368 -0.8925 -1.9532  1.3246
32854SOL    HW2 1518   1.084   7.345   2.415 -0.2324 -0.4506  0.7106
32855SOL     OW 1519   8.865   0.751   7.647  0.4875 -0.2441  0.1022
32855SOL    HW1 1520   8.925   0.797   7.588 -0.2717 -2.4822 -2.6970
32855SOL    HW2 1521   8.922   0.696   7.701  1.1399  0.0391 -0.2842
32856SOL     OW 1522   1.121   1.530   3.253  0.1169 -0.3326 -0.1704
32856SOL    HW1 1523   1.162   1.444   3.262  0.9314  0.1329  0.7281
32856SOL    HW2 1524   1.190   1.586   3.220 -0.2644  0.0965 -0.2536
32857SOL     OW 1525   6.505   3.100   3.255  0.2686  0.5503  0.0679
32857SOL    HW1 1526   6.448   3.035   3.215 -0.8312  1.2875  0.4174
32857SOL    HW2 1527   6.594   3.065   3.242 -0.3090 -1.1926  0.5480
32858SOL     OW 1528   8.123   0.171   6.073 -0.1098  0.2020 -0.1862
32858SOL    HW1 1529   8.183   0.223   6.125  0.0415  1.3496 -1.4660
32858SOL    HW2 1530   8.116   0.088   6.120  1.2344  0.6300  0.8071
32859SOL     OW 1531   3.435   0.134   7.758  0.3889  0.0249 -0.4088
32859SOL    HW1 1532   3.417   0.092   7.674  2.4830  0.4314 -1.1197
32859SOL    HW2 1533   3.446   0.061   7.820  1.0875 -0.3762 -0.9933
32860SOL     OW 1534  10.174   5.975  10.218  0.1342  0.8423  0.3806
32860SOL    HW1 1535  10.130   5.960  10.135 -0.4324  0.2883  0.7727
32860SOL    HW2 1536  10.189   5.888  10.254  1.6550  1.0131  0.2156
32861SOL     OW 1537   3.520   3.251   4.801 -0.7272  0.2992  0.0873
32861SOL    HW1 1538   3.444   3.262   4.744 -0.3792  1.2788 -0.2089
32861SOL    HW2 1539   3.484   3.245   4.889 -1.2024 -0.0747 -0.1340
32862SOL     OW 1540   0.254   1.614   3.328 -0.7964 -0.1919 -0.3044
32862SOL    HW1 1541   0.246   1.584   3.237  0.7240  0.9447 -0.8697
32862SOL    HW2 1542   0.257   1.710   3.321 -1.0277 -0.0776  0.9909
32863SOL     OW 1543   5.132   4.009   8.182 -0.1041  0.4588  0.4196
32863SOL    HW1 1544   5.136   3.914   8.195 -0.3459  0.5708  1.3791
32863SOL    HW2 1545   5.219   4.032   8.151 -0.1210 -0.1117 -0.0713
32864SOL     OW 1546   5.856   8.368   4.383  0.2822  0.1657 -0.7838
32864SOL    HW1 1547   5.880   8.278   4.361 -2.2983 -1.4865  2.2721
32864SOL    HW2 1548   5.884   8.379   4.473 -2.1435  1.2337 -0.0774
32865SOL     OW 1549   3.269   0.909   5.180  0.0920 -0.2769  0.0207
32865SOL    HW1 1550   3.263   0.813   5.184  0.8039 -0.3051  0.6429
32865SOL    HW2 1551   3.300   0.928   5.092  1.6525 -0.7247  0.4511
32866SOL     OW 1552   1.115   7.018   1.838 -0.1966 -0.0330  0.3967
32866SOL    HW1 1553   1.113   7.001   1.744  3.3431  0.8248  0.0173
32866SOL    HW2 1554   1.092   6.934   1.878  0.1955 -0.9883 -1.2745
32867SOL     OW 1555   3.896   0.871   2.423  0.0824 -0.3095  0.4251
32867SOL    HW1 1556   3.855   0.885   2.338 -1.1995  1.0594  1.2054
32867SOL    HW2 1557   3.847   0.798   2.461 -0.0223 -0.2611  0.3846
32868SOL     OW 1558   7.175   0.160   9.343  0.2453  0.0275  0.4134
32868SOL    HW1 1559   7.135   0.074   9.355 -0.8465  0.5225  0.4172
32868SOL    HW2 1560   7.247   0.162   9.406  0.5938 -1.0688  0.0638
32869SOL     OW 1561  10.499   2.981   8.566 -0.2823 -0.5850  0.0030
32869SOL    HW1 1562  10.556   2.947   8.497 -0.9520  1.4053 -1.6297
32869SOL    HW2 1563  10.443   2.907   8.589  1.8178 -2.1224  0.5136
32870SOL     OW 1564   4.023   4.704   0.043 -0.0658 -0.2303 -0.1116
32870SOL    HW1 1565   4.113   4.687   0.072  0.2975 -0.0290 -1.0736
32870SOL    HW2 1566   4.032   4.772  -0.023 -1.2898  2.4250  2.2818
32871SOL     OW 1567   8.592   8.941   5.600  0.1569 -0.4679  0.0736
32871SOL    HW1 1568   8.590   8.973   5.510 -0.1832  2.4309  1.0143
32871SOL    HW2 1569   8.564   8.850   5.593  0.4733 -0.4593 -2.7718
32872SOL     OW 1570   0.107   6.892   9.471 -0.1666  0.3902  0.0105
32872SOL    HW1 1571   0.070   6.979   9.482 -0.2555  0.6211 -1.8967
32872SOL    HW2 1572   0.191   6.906   9.427  0.0405 -0.4534  0.1067
32873SOL     OW 1573   3.043   6.851   5.635 -0.0880 -0.3612 -0.1943
32873SOL    HW1 1574   3.118   6.811   5.591  0.2664 -0.6440  0.6314
32873SOL    HW2 1575   3.035   6.802   5.717  0.7481  1.6237  1.1402
32874SOL     OW 1576   0.221   8.225   5.377  0.3346 -0.3279 -0.1418
32874SOL    HW1 1577   0.242   8.243   5.286  0.2873 -0.3802 -0.1630
32874SOL    HW2 1578   0.130   8.254   5.388  1.1148  2.0702  0.5468
32875SOL     OW 1579   9.482   6.754   4.576 -0.6225 -0.0540  0.4427
32875SOL    HW1 1580   9.454   6.714   4.659  0.2342  0.2851  0.9010
32875SOL    HW2 1581   9.454   6.846   4.583  1.6806  0.6208  1.4549
32876SOL     OW 1582   1.033   7.437   5.857 -0.1417  0.4689 -0.0955
32876SOL    HW1 1583   1.008   7.345   5.866 -0.1820  0.0377 -3.3635
32876SOL    HW2 1584   0.963   7.485   5.903 -2.4220 -1.0527 -1.7167
32877SOL     OW 1585   4.722   3.325   8.089 -0.5193 -0.1897  0.2704
32877SOL    HW1 1586   4.665   3.384   8.138 -0.7947 -0.2870  0.0714
32877SOL    HW2 1587   4.750   3.260   8.153 -0.2206  0.1476  0.4895
32878SOL     OW 1588   5.579   4.236   6.657 -0.4359  0.2878 -0.1612
32878SOL    HW1 1589   5.537   4.150   6.663  0.7604 -0.4310 -1.5395
32878SOL    HW2 1590   5.511   4.293   6.621 -0.8168 -0.3995 -0.5485
32879SOL     OW 1591   6.259   1.251   4.707  0.3961  0.0196  0.3142
32879SOL    HW1 1592   6.254   1.337   4.748  1.0815  0.9860 -1.5025
32879SOL    HW2 1593   6.172   1.237   4.669 -0.2806 -0.9348  2.1161
32880SOL     OW 1594   7.304   1.221   6.753 -0.1650 -0.0458  0.6907
32880SOL    HW1 1595   7.358   1.194   6.679 -0.2745  0.3281  0.4709
32880SOL    HW2 1596   7.237   1.153   6.759 -1.3873  0.9463 -0.8487
32881SOL     OW 1597   5.227   6.268   1.929  0.7837  0.5506  0.1006
32881SOL    HW1 1598   5.244   6.279   2.023 -0.4225  0.3722  0.3499
32881SOL    HW2 1599   5.258   6.350   1.889  1.9434  0.3502  0.5513
32882SOL     OW 1600   5.398   8.229   7.973  0.0131 -0.4035 -0.4881
32882SOL    HW1 1601   5.455   8.275   7.911  1.3455 -0.2056  0.8334
32882SOL    HW2 1602   5.439   8.143   7.984  0.4117 -0.0640  0.8999
32883SOL     OW 1603   1.349   6.978   3.365 -0.1191  0.3298 -0.3303
32883SOL    HW1 1604   1.435   7.018   3.351 -0.1065  0.4648  0.0998
32883SOL    HW2 1605   1.306   7.036   3.429 -0.5209  0.2532 -0.5264
32884SOL     OW 1606   6.747   3.873   9.157 -0.1084 -0.5480 -0.0743
32884SOL    HW1 1607   6.783   3.801   9.210  1.4183 -1.5331 -2.3142
32884SOL    HW2 1608   6.808   3.945   9.172  1.2728 -1.3237 -1.6194
32885SOL     OW 1609   2.996  10.081   9.944  0.6813  0.0543  0.3540
32885SOL    HW1 1610   3.057  10.016   9.978 -0.3691 -1.1350  0.0552
32885SOL    HW2 1611   3.050  10.159   9.929  2.1346 -0.9808 -0.0159
32886SOL     OW 1612   7.306   8.917  10.197  0.1198 -0.1887 -0.1492
32886SOL    HW1 1613   7.219   8.913  10.235 -0.5708  0.8391 -1.5188
32886SOL    HW2 1614   7.365   8.927  10.272 -0.9754 -0.4388  0.7602
32887SOL     OW 1615   8.046   3.096   8.734 -0.9839  0.2151  0.4096
32887SOL    HW1 1616   8.104   3.038   8.684 -0.8279  0.2610  0.5362
32887SOL    HW2 1617   8.069   3.184   8.704  1.0763  0.5085  2.5011
32888SOL     OW 1618   4.007   8.424   3.474  0.5035 -0.3065  0.6560
32888SOL    HW1 1619   4.041   8.429   3.563 -0.8377  0.7153  1.1391
32888SOL    HW2 1620   4.079   8.456   3.419  0.8616  0.3720  1.5031
32889SOL     OW 1621   2.256   3.372   4.277  0.6789  0.5940 -0.4648
32889SOL    HW1 1622   2.331   3.394   4.333  0.0879  1.7824 -0.1029
32889SOL    HW2 1623   2.256   3.440   4.209 -1.9677  2.6595  1.4132
32890SOL     OW 1624   4.428   9.830   3.427 -0.9654 -0.1573 -0.3190
32890SOL    HW1 1625   4.378   9.852   3.506 -1.7377  1.4140 -1.1954
32890SOL    HW2 1626   4.385   9.880   3.358 -0.5305 -1.7887 -1.8178
32891SOL     OW 1627   2.997   4.176   8.533  0.2118 -0.7760 -0.1384
32891SOL    HW1 1628   2.925   4.122   8.501 -0.1490  0.1335 -0.8947
32891SOL    HW2 1629   2.978   4.189   8.626 -0.8146 -0.2199 -0.4165
32892SOL     OW 1630   9.727   3.815   8.576 -0.4259 -0.4201  1.0036
32892SOL    HW1 1631   9.662   3.866   8.623  0.5530  0.9186  0.9731
32892SOL    HW2 1632   9.806   3.819   8.631  0.5592  0.6583 -0.4013
32893SOL     OW 1633   5.706   9.779   1.468  0.2049 -0.9659 -0.6854
32893SOL    HW1 1634   5.800   9.764   1.474  0.5833  1.5455  2.1807
32893SOL    HW2 1635   5.697   9.840   1.394  0.9622 -0.5272 -0.4301
32894SOL     OW 1636   9.778   5.466   3.994 -0.2472  0.1683 -0.4220
32894SOL    HW1 1637   9.704   5.519   4.025 -1.1751 -0.2505 -1.8369
32894SOL    HW2 1638   9.854   5.524   4.003 -0.6916  0.5575  1.2051
32895SOL     OW 1639   1.429   2.561   1.646 -0.0012  0.2475  0.2042
32895SOL    HW1 1640   1.434   2.493   1.712  3.3562 -0.9171 -1.0529
32895SOL    HW2 1641   1.398   2.638   1.693  0.7691 -0.9139  2.7716
32896SOL     OW 1642   7.648   1.473   7.314  0.7586 -0.3337  0.3155
32896SOL    HW1 1643   7.717   1.539   7.321  1.6039 -1.2950  1.3706
32896SOL    HW2 1644   7.667   1.426   7.233 -0.0632  0.9062 -0.6433
32897SOL     OW 1645   1.015   6.438   6.479  0.6780  0.1839  0.1644
32897SOL    HW1 1646   0.980   6.498   6.544  2.8948 -0.0768  1.7050
32897SOL    HW2 1647   1.055   6.495   6.413 -2.0536  0.4666 -1.3766
32898SOL     OW 1648   3.891   9.702   6.333  0.2009  0.4787 -0.1044
32898SOL    HW1 1649   3.881   9.735   6.243  0.6897 -1.3957 -0.8828
32898SOL    HW2 1650   3.983   9.679   6.340  0.3637  1.4116  1.2016
32899SOL     OW 1651   8.577   9.227   1.988 -0.2258 -0.1847  0.4590
32899SOL    HW1 1652   8.558   9.138   1.957 -0.9958  0.3344 -0.6032
32899SOL    HW2 1653   8.656   9.253   1.942 -0.5176  0.0205  0.0727
32900SOL     OW 1654   1.996   9.124   2.583  0.0545 -0.5076 -0.5302
32900SOL    HW1 1655   1.945   9.078   2.516 -0.4745  0.4932 -0.8468
32900SOL    HW2 1656   2.086   9.095   2.570 -0.5549 -3.4221  0.9477
32901SOL     OW 1657   3.679   8.705   5.885  0.0737 -0.0912 -0.0252
32901SOL    HW1 1658   3.773   8.700   5.899  0.1437  2.2688  0.9021
32901SOL    HW2 1659   3.669   8.710   5.790  1.0317  0.9794 -0.0940
32902SOL     OW 1660   5.727   3.784   4.987  0.7675 -0.0872 -0.6644
32902SOL    HW1 1661   5.651   3.729   5.006 -1.4547  2.6681 -0.8630
32902SOL    HW2 1662   5.765   3.803   5.072  2.0211 -2.3389 -0.6310
32903SOL     OW 1663  10.002   5.254   0.568  0.6633 -0.2405 -0.3128
32903SOL    HW1 1664  10.030   5.253   0.477 -1.8263 -1.5056 -1.1478
32903SOL    HW2 1665   9.956   5.172   0.580 -1.2996  1.0119  1.3341
32904SOL     OW 1666   4.367   0.333   5.807 -0.3834  0.4802 -0.0368
32904SOL    HW1 1667   4.456   0.314   5.837 -0.6975 -1.0610 -0.0168
32904SOL    HW2 1668   4.369   0.427   5.785  1.7041  0.1347 -1.6104
32905SOL     OW 1669   6.387  10.134   2.607 -0.0231 -0.1719 -0.1096
32905SOL    HW1 1670   6.321  10.071   2.578  1.1183 -0.4226 -2.4043
32905SOL    HW2 1671   6.433  10.089   2.678 -2.2025 -0.0054  1.5160
32906SOL     OW 1672   9.140   1.437   4.129 -0.3202 -0.3373 -0.2732
32906SOL    HW1 1673   9.102   1.389   4.203 -0.8191  0.8879  0.3154
32906SOL    HW2 1674   9.180   1.514   4.170 -0.9326  0.5589 -1.3054
32907SOL     OW 1675   9.700   8.287  10.516 -0.4039  0.3368 -0.2034
32907SOL    HW1 1676   9.689   8.340  10.595 -0.8152 -1.0068  0.6829
32907SOL    HW2 1677   9.619   8.301  10.466  0.5268  2.4726 -1.2486
32908SOL     OW 1678   7.987   6.225   7.798 -0.0729 -0.8583 -0.5038
32908SOL    HW1 1679   7.900   6.248   7.767 -0.9115 -0.5651  1.8363
32908SOL    HW2 1680   7.989   6.129   7.799 -0.2905 -0.8639 -0.7620
32909SOL     OW 1681   2.882   6.451   9.453  0.0832  0.4071  0.5535
32909SOL    HW1 1682   2.975   6.447   9.474 -0.2378 -0.6035  1.9411
32909SOL    HW2 1683   2.839   6.411   9.529 -1.4755  0.7742 -0.1036
32910SOL     OW 1684   3.312   3.334   7.515 -0.4016  0.6287 -0.4303
32910SOL    HW1 1685   3.391   3.293   7.551 -1.6500 -1.5657  0.0074
32910SOL    HW2 1686   3.337   3.360   7.427  1.0163  0.6557 -0.0554
32911SOL     OW 1687   1.590   5.833  10.499  0.3895  0.3796  0.2030
32911SOL    HW1 1688   1.626   5.915  10.465 -0.3025  0.5496 -0.1493
32911SOL    HW2 1689   1.498   5.835  10.471  0.5677 -0.9102 -0.5559
32912SOL     OW 1690   6.253   4.346   6.334 -0.0824 -0.2756 -0.4219
32912SOL    HW1 1691   6.185   4.369   6.398  1.0532 -0.2969  0.8250
32912SOL    HW2 1692   6.215   4.372   6.250 -0.5865  2.2291  0.4796
32913SOL     OW 1693   4.297   9.077   8.443 -0.1235 -0.7923 -0.0419
32913SOL    HW1 1694   4.270   9.027   8.520 -0.5151  0.5733  0.7281
32913SOL    HW2 1695   4.364   9.137   8.476 -1.4186  0.9085 -0.4012
32914SOL     OW 1696   9.771   8.780   9.607  0.4351  0.1222 -0.1173
32914SOL    HW1 1697   9.772   8.685   9.615 -0.3351 -0.0161 -1.3633
32914SOL    HW2 1698   9.864   8.805   9.606  0.6566 -0.3955  1.9943
32915SOL     OW 1699   8.310   9.950   1.065 -0.2851 -0.1656 -0.7210
32915SOL    HW1 1700   8.301  10.045   1.077 -2.8903 -0.4131 -0.2496
32915SOL    HW2 1701   8.240   9.912   1.118  1.8338 -2.5071  0.6281
32916SOL     OW 1702   1.427   9.136   8.970  0.4897 -0.4535  0.1789
32916SOL    HW1 1703   1.419   9.050   8.929  1.7153 -0.4873 -0.0278
32916SOL    HW2 1704   1.433   9.196   8.895  0.4470 -0.2711  0.3227
32917SOL     OW 1705   8.008   8.934   5.548 -0.6844  0.0724 -0.3218
32917SOL    HW1 1706   7.949   9.009   5.546  0.5545  1.0851 -0.0106
32917SOL    HW2 1707   7.967   8.874   5.611 -0.4849  1.5481  1.2936
32918SOL     OW 1708   0.820   8.884   8.551  0.2721  0.0806  0.1613
32918SOL    HW1 1709   0.833   8.821   8.622 -0.8014 -0.8590 -0.4488
32918SOL    HW2 1710   0.754   8.844   8.495  1.2965  0.6602 -1.5538
32919SOL     OW 1711   7.500   3.971   8.652 -0.0218 -0.2891  0.1473
32919SOL    HW1 1712   7.405   3.963   8.659 -0.1167  0.7495  0.1155
32919SOL    HW2 1713   7.519   3.944   8.562 -0.3697  0.2071 -0.0794
32920SOL     OW 1714   6.032   6.840   7.080  0.3738  0.6501 -0.0326
32920SOL    HW1 1715   6.039   6.790   7.161 -1.5683  0.2696 -0.0683
32920SOL    HW2 1716   5.975   6.787   7.024 -0.8541  2.3540 -0.4692
32921SOL     OW 1717   3.864   4.775   0.535 -0.5130  0.5513 -0.5091
32921SOL    HW1 1718   3.952   4.766   0.572 -0.6338  0.1516 -0.3065
32921SOL    HW2 1719   3.863   4.861   0.494  1.1910 -0.8317 -3.7663
32922SOL     OW 1720   8.945   0.585   6.370 -0.1495  0.4121 -0.1179
32922SOL    HW1 1721   9.009   0.515   6.354 -0.3214  0.0279  0.7605
32922SOL    HW2 1722   8.862   0.539   6.383 -0.6613  0.9205 -1.4506
32923SOL     OW 1723   4.719   5.420   6.220  0.1561 -0.1078 -0.1237
32923SOL    HW1 1724   4.752   5.510   6.222 -1.4712  0.6192 -2.1824
32923SOL    HW2 1725   4.688   5.405   6.309  0.2211  1.4804  0.2090
32924SOL     OW 1726  10.111   8.350   5.209 -0.2806 -0.1277 -0.0808
32924SOL    HW1 1727  10.107   8.254   5.209  1.0290 -0.2048  0.7241
32924SOL    HW2 1728  10.111   8.375   5.301  0.8271  0.5534 -0.2434
32925SOL     OW 1729   6.037  10.467   2.068  0.1353  0.1864  0.1783
32925SOL    HW1 1730   6.091  10.531   2.021  0.1737  0.1145  0.1252
32925SOL    HW2 1731   5.963  10.519   2.101  1.3179  0.7681  2.1352
32926SOL     OW 1732   9.897   4.333   6.965  0.5414  0.3897  0.2281
32926SOL    HW1 1733   9.809   4.322   6.931  1.0065 -1.8354 -0.3636
32926SOL    HW2 1734   9.921   4.423   6.941 -1.1346  0.6611 -0.5452
32927SOL     OW 1735   3.529   0.040   4.009  0.2968  0.0205 -0.2465
32927SOL    HW1 1736   3.489  -0.035   3.965  1.7674 -0.5565 -0.6471
32927SOL    HW2 1737   3.523   0.019   4.102 -0.4103  0.0087 -0.2830
32928SOL     OW 1738   8.414  10.585   0.878 -0.3024 -0.4701 -0.2838
32928SOL    HW1 1739   8.339  10.567   0.936 -0.3479 -0.6384 -0.3936
32928SOL    HW2 1740   8.473  10.638   0.931 -0.5897 -0.1715 -0.2583
32929SOL     OW 1741   4.906   4.667   6.643 -0.4253  0.3850 -0.2745
32929SOL    HW1 1742   4.834   4.632   6.591 -1.1385  0.4245  0.6556
32929SOL    HW2 1743   4.871   4.673   6.732  0.5668  0.8795  0.1039
32930SOL     OW 1744   4.000   3.051   3.491  0.2603 -0.5271 -0.0459
32930SOL    HW1 1745   4.094   3.066   3.488  0.0630  0.7458 -0.6529
32930SOL    HW2 1746   3.963   3.121   3.437 -1.1117 -0.3087  1.1092
32931SOL     OW 1747   6.094   5.104  10.069  0.2266  0.0423  0.3862
32931SOL    HW1 1748   6.033   5.098  10.143  0.7926  2.6594  1.1949
32931SOL    HW2 1749   6.177   5.130  10.109  1.2662 -1.1456 -0.9343
32932SOL     OW 1750  10.687   3.222   4.803  0.2710 -0.0821  0.2396
32932SOL    HW1 1751  10.745   3.275   4.749 -0.1105 -0.7259 -0.8342
32932SOL    HW2 1752  10.703   3.252   4.893  1.6159  0.3520 -0.1241
32933SOL     OW 1753   3.570   1.740   3.089 -0.4856 -0.1289 -0.4690
32933SOL    HW1 1754   3.507   1.811   3.077 -0.8024 -0.2910  0.2128
32933SOL    HW2 1755   3.624   1.768   3.163  0.5910  0.2483 -1.3609
32934SOL     OW 1756   6.773   4.729   9.805  0.0701 -0.4327 -0.1529
32934SOL    HW1 1757   6.813   4.789   9.868 -1.6537  0.0304  0.5479
32934SOL    HW2 1758   6.833   4.655   9.802  2.0517  1.0766 -0.7143
32935SOL     OW 1759   0.817   4.525   7.779  0.6626  0.1651 -0.2161
32935SOL    HW1 1760   0.772   4.477   7.850 -2.0396 -2.2111 -3.2166
32935SOL    HW2 1761   0.820   4.616   7.809 -0.4567 -0.6912  2.8434
32936SOL     OW 1762   4.511   9.710   2.817  0.3539 -0.6247  0.2144
32936SOL    HW1 1763   4.427   9.716   2.771  1.6287  0.0697 -2.1778
32936SOL    HW2 1764   4.497   9.642   2.884 -2.2097 -0.2117  0.1977
32937SOL     OW 1765   5.796   8.942   3.206 -0.2527  0.0306 -0.4928
32937SOL    HW1 1766   5.730   8.883   3.170 -0.2710 -1.0331  1.1510
32937SOL    HW2 1767   5.783   9.025   3.160 -1.2144 -0.8057 -1.8012
32938SOL     OW 1768  10.022   8.416   5.781  0.3696  0.6982 -0.2411
32938SOL    HW1 1769   9.998   8.324   5.796  1.3939  0.5027  0.3121
32938SOL    HW2 1770   9.966   8.466   5.839  0.4557  0.3432  0.1535
32939SOL     OW 1771   2.774   4.370   4.521  0.4557  0.1011 -0.3036
32939SOL    HW1 1772   2.806   4.455   4.491  1.2819  0.5178  1.6153
32939SOL    HW2 1773   2.740   4.387   4.609 -1.4564 -1.1423 -0.7432
32940SOL     OW 1774   8.410   7.018   1.494 -0.5452 -0.1472  0.2958
32940SOL    HW1 1775   8.339   7.079   1.516  0.3046  0.4636  1.4428
32940SOL    HW2 1776   8.484   7.075   1.473 -0.3080 -0.7806 -0.6470
32941SOL     OW 1777   6.811   5.610   9.819  0.3727 -0.1513 -0.0879
32941SOL    HW1 1778   6.895   5.628   9.861  0.4753 -0.2544 -0.2487
32941SOL    HW2 1779   6.832   5.603   9.726  0.3091 -0.9223 -0.0492
32942SOL     OW 1780   5.412   9.092   8.625  0.6384  0.2472 -0.0732
32942SOL    HW1 1781   5.327   9.104   8.668  0.9016  2.2533 -0.0071
32942SOL    HW2 1782   5.392   9.038   8.548 -0.5030 -0.1788  0.4953
32943SOL     OW 1783   8.287   1.064   2.186  0.4997  0.1465  0.2537
32943SOL    HW1 1784   8.261   1.016   2.264  2.5466  2.3225  2.4590
32943SOL    HW2 1785   8.205   1.084   2.141 -0.6343 -2.3091  1.0558
32944SOL     OW 1786   6.756   5.673   0.994  0.1684 -0.1823 -0.3080
32944SOL    HW1 1787   6.825   5.739   1.003 -0.5501  0.5408 -0.0012
32944SOL    HW2 1788   6.696   5.710   0.929 -1.3448  0.4550  1.3844
32945SOL     OW 1789   0.308   8.217   9.262  0.4163 -0.1883  0.0239
32945SOL    HW1 1790   0.324   8.172   9.179 -0.8147 -0.6123 -0.0085
32945SOL    HW2 1791   0.294   8.146   9.325 -2.1299  0.0557 -0.1359
32946SOL     OW 1792   0.792   0.805   7.748  0.8053  0.5053  0.2368
32946SOL    HW1 1793   0.778   0.864   7.822 -0.1665  1.9400 -1.0170
32946SOL    HW2 1794   0.811   0.720   7.787 -1.6386  0.7388  2.1555
32947SOL     OW 1795   0.250   2.803   8.796  0.0426  0.0972 -0.5905
32947SOL    HW1 1796   0.305   2.765   8.864  0.8737  3.6134  0.9410
32947SOL    HW2 1797   0.161   2.800   8.833  0.2882  0.7079  0.0778
32948SOL     OW 1798   1.542  10.053   6.399  0.0251 -0.3380 -0.0375
32948SOL    HW1 1799   1.489  10.044   6.478  0.5488 -0.9720  0.2591
32948SOL    HW2 1800   1.632  10.039   6.430  0.4398  1.3032 -0.4220
32949SOL     OW 1801   8.530   2.440   5.136 -0.4220 -0.3140 -0.0594
32949SOL    HW1 1802   8.452   2.495   5.139  0.6781  1.3282 -0.3393
32949SOL    HW2 1803   8.592   2.489   5.080  1.7327 -0.3045  2.1740
32950SOL     OW 1804   2.485   4.655   7.152 -0.3981  0.4289  0.2072
32950SOL    HW1 1805   2.567   4.702   7.134 -0.5015  1.1001  1.4021
32950SOL    HW2 1806   2.417   4.719   7.132 -0.5329  0.9451  2.1408
32951SOL     OW 1807  10.617   7.270   6.325 -0.3036 -0.3228  0.0309
32951SOL    HW1 1808  10.652   7.183   6.304  1.3244  0.9293 -3.0761
32951SOL    HW2 1809  10.640   7.324   6.249 -1.5407  2.7815  1.6930
32952SOL     OW 1810   0.410   9.703   4.513 -0.1223 -0.2361  0.3126
32952SOL    HW1 1811   0.380   9.639   4.578  0.0008  0.3347  0.9417
32952SOL    HW2 1812   0.337   9.713   4.453 -0.5057 -0.2369  0.7757
32953SOL     OW 1813   9.038   5.774   3.861 -0.2939  0.0462  0.3222
32953SOL    HW1 1814   8.998   5.691   3.889 -1.4799  0.6171  0.4126
32953SOL    HW2 1815   9.038   5.769   3.765  0.5484 -0.4522  0.3355
32954SOL     OW 1816   6.145   7.590   7.796 -0.5617  0.0619  0.7402
32954SOL    HW1 1817   6.237   7.573   7.775 -1.0441 -0.1347 -1.3635
32954SOL    HW2 1818   6.096   7.522   7.750 -1.8708  1.1897  0.3989
32955SOL     OW 1819   2.572   4.901  10.471 -0.1414  0.7892 -0.0103
32955SOL    HW1 1820   2.650   4.883  10.418 -0.2526 -0.6549  0.2687
32955SOL    HW2 1821   2.531   4.816  10.482 -1.1010  1.3505  0.8827
32956SOL     OW 1822   7.311   4.252   3.244  0.1544 -0.2386 -0.0921
32956SOL    HW1 1823   7.297   4.257   3.149 -3.1931  0.6623  0.3324
32956SOL    HW2 1824   7.272   4.168   3.269  1.5225 -0.7403  0.5068
32957SOL     OW 1825   1.902   5.725  10.252  0.0989  0.1762  0.0540
32957SOL    HW1 1826   1.834   5.787  10.223  1.4640  0.7287 -2.1391
32957SOL    HW2 1827   1.925   5.756  10.340 -2.0893  0.2693  0.6638
32958SOL     OW 1828   1.541   1.045   0.385  0.2359 -0.3720 -0.0187
32958SOL    HW1 1829   1.530   1.065   0.292  0.3777 -1.7038 -0.3428
32958SOL    HW2 1830   1.635   1.059   0.401  0.4593 -1.3562 -0.4010
32959SOL     OW 1831   2.122   7.720   3.931  0.8499 -0.2178 -0.4389
32959SOL    HW1 1832   2.049   7.758   3.980  1.3794 -1.0708  1.0871
32959SOL    HW2 1833   2.189   7.788   3.931  1.4913 -0.7826  1.5842
32960SOL     OW 1834   4.335   1.124   9.078 -0.0356 -0.2644  0.2363
32960SOL    HW1 1835   4.254   1.133   9.130  1.0470  0.6389  1.8753
32960SOL    HW2 1836   4.333   1.034   9.046  0.2189 -1.7187  3.7549
32961SOL     OW 1837   1.159   7.820   7.714  0.4753  0.1512 -0.0607
32961SOL    HW1 1838   1.225   7.888   7.697 -1.2065  1.8734 -0.0681
32961SOL    HW2 1839   1.150   7.774   7.631  0.7235  0.7951 -0.4551
32962SOL     OW 1840   4.633  10.458   3.287  0.4188  0.1627  0.1544
32962SOL    HW1 1841   4.568  10.446   3.356  0.4556  3.0180  0.8086
32962SOL    HW2 1842   4.582  10.472   3.208  0.3234 -0.5287  0.0882
32963SOL     OW 1843   6.031   3.683   0.542  0.3523 -0.2994  0.0654
32963SOL    HW1 1844   6.110   3.717   0.499  0.5121  0.3233  0.8456
32963SOL    HW2 1845   6.055   3.675   0.634  0.3942 -2.7395 -0.0837
32964SOL     OW 1846   4.450   7.553   1.587  0.4843 -0.1400  0.2541
32964SOL    HW1 1847   4.422   7.602   1.664 -0.0179  0.6294 -0.3964
32964SOL    HW2 1848   4.373   7.503   1.560  0.8733 -0.9809  0.6688
32965SOL     OW 1849   0.543   9.100   4.510 -0.2255 -0.3772 -0.1193
32965SOL    HW1 1850   0.469   9.109   4.451 -0.5448 -1.7255  0.0229
32965SOL    HW2 1851   0.555   9.005   4.519  1.2082 -0.1887  0.2494
32966SOL     OW 1852   3.965   6.174   3.955 -0.2565 -0.0886  0.6735
32966SOL    HW1 1853   3.901   6.180   3.884  0.8613 -0.5563 -0.4195
32966SOL    HW2 1854   4.035   6.234   3.928  0.3969 -0.6301  1.1341
32967SOL     OW 1855   5.112   1.916   0.524  0.0738 -0.4410  0.4111
32967SOL    HW1 1856   5.096   1.858   0.449  1.4008 -0.5265  0.1630
32967SOL    HW2 1857   5.031   1.913   0.574 -1.4655  0.8674 -1.8157
32968SOL     OW 1858   8.927   5.441   6.452  0.1907  0.2045  0.0374
32968SOL    HW1 1859   8.950   5.348   6.454 -0.8168 -0.1184 -1.7419
32968SOL    HW2 1860   8.832   5.443   6.466  0.1852  0.9577 -0.0445
32969SOL     OW 1861   7.288   8.052   9.504  0.4330  0.5245  0.2768
32969SOL    HW1 1862   7.228   7.978   9.514  0.5141  0.4908  0.5405
32969SOL    HW2 1863   7.298   8.063   9.410 -1.4097  1.6846  0.1710
32970SOL     OW 1864   0.210   9.013   5.370  0.3234 -0.2810 -0.2877
32970SOL    HW1 1865   0.263   9.053   5.302 -0.4705  0.1005 -0.6960
32970SOL    HW2 1866   0.249   8.927   5.384  1.1598  0.0728 -0.4359
32971SOL     OW 1867   3.759   5.594   9.461 -0.3248 -0.3373 -0.5852
32971SOL    HW1 1868   3.847   5.628   9.447 -0.2579  0.7223  1.9196
32971SOL    HW2 1869   3.772   5.506   9.496 -0.2271 -0.1333 -0.0946
32972SOL     OW 1870  10.410   3.165   2.248  0.2030  0.1618  0.1542
32972SOL    HW1 1871  10.417   3.234   2.181 -0.1931  1.0417  1.0002
32972SOL    HW2 1872  10.326   3.122   2.229 -0.5432  1.2637  0.8557
32973SOL     OW 1873   4.106   9.987   2.805 -0.4701  0.4187 -0.3180
32973SOL    HW1 1874   4.016   9.995   2.837  0.2378  2.0386  1.4542
32973SOL    HW2 1875   4.117  10.059   2.743 -0.2082  0.6652  0.0070
32974SOL     OW 1876   7.816   7.059   6.071  0.2232 -0.2093  0.4619
32974SOL    HW1 1877   7.783   6.969   6.063 -1.2565  0.4895 -2.7155
32974SOL    HW2 1878   7.905   7.054   6.035 -0.2323 -0.2549 -0.6974
32975SOL     OW 1879   8.787   9.154   6.685  0.4263  0.5980  0.4782
32975SOL    HW1 1880   8.759   9.083   6.626  1.2055  1.8678 -1.5420
32975SOL    HW2 1881   8.800   9.111   6.769 -3.6574 -0.7941  0.6228
32976SOL     OW 1882   3.619  10.314   7.860  0.5672 -0.1475 -0.8163
32976SOL    HW1 1883   3.629  10.312   7.765  0.9293  0.9931 -0.8258
32976SOL    HW2 1884   3.527  10.290   7.875  0.1221  0.9767 -1.5634
32977SOL     OW 1885   4.383   7.841   8.242 -0.4907 -0.3011 -0.2047
32977SOL    HW1 1886   4.355   7.767   8.188 -0.2185  0.2323 -1.0952
32977SOL    HW2 1887   4.478   7.845   8.230 -0.6367  0.9520 -1.1852
32978SOL     OW 1888  10.066   2.491   7.405 -0.3869  0.1533 -0.3357
32978SOL    HW1 1889  10.058   2.547   7.328  0.3218  0.8683  0.0913
32978SOL    HW2 1890   9.991   2.432   7.400  0.3999 -0.7673 -2.3413
32979SOL     OW 1891   1.292   7.234   7.663  0.3183  0.0657 -0.3135
32979SOL    HW1 1892   1.369   7.177   7.668  0.0068 -0.2499  2.7817
32979SOL    HW2 1893   1.223   7.177   7.628  0.6865 -0.6911  0.1571
32980SOL     OW 1894   0.877   5.229  10.154  0.4064 -0.4990  0.1325
32980SOL    HW1 1895   0.866   5.142  10.190 -1.8882 -0.2589  0.1711
32980SOL    HW2 1896   0.808   5.281  10.195  1.7118  1.3510  0.1104
32981SOL     OW 1897   7.002   2.781   0.114  0.2457  0.6532  0.4574
32981SOL    HW1 1898   7.054   2.811   0.040 -0.2559  0.4025 -0.0035
32981SOL    HW2 1899   7.016   2.848   0.182  2.1643 -0.0518  0.8167
32982SOL     OW 1900   6.244   4.774   6.422  0.6970  0.3921  0.2788
32982SOL    HW1 1901   6.171   4.720   6.391 -0.1430  0.4095  2.1186
32982SOL    HW2 1902   6.203   4.837   6.481  1.7923  2.4236 -1.0009
32983SOL     OW 1903   5.759   4.930  10.566  0.3529  0.3613  0.4601
32983SOL    HW1 1904   5.695   4.929  10.495  1.7827 -2.4817 -0.9438
32983SOL    HW2 1905   5.768   5.022  10.588 -2.8761  1.0450 -0.4430
32984SOL     OW 1906   7.028   9.078  10.023  0.2843 -0.4324  0.0886
32984SOL    HW1 1907   7.032   9.166   9.986 -1.0046  0.0340  0.9569
32984SOL    HW2 1908   7.060   9.088  10.113  0.6613 -0.9697  0.0192
32985SOL     OW 1909   8.757   2.872   5.858 -0.1103  0.1488 -0.0098
32985SOL    HW1 1910   8.802   2.925   5.924  0.3006 -1.6227  1.1978
32985SOL    HW2 1911   8.711   2.936   5.803  0.0420  1.7197  1.6043
32986SOL     OW 1912   0.648   7.998   6.134  0.3626 -0.1845  0.3661
32986SOL    HW1 1913   0.719   7.990   6.070 -0.8801 -2.3616 -0.8415
32986SOL    HW2 1914   0.666   7.930   6.198  1.5736  1.9531  2.4540
32987SOL     OW 1915   2.090   4.075   9.085 -0.1368  0.4809 -0.1956
32987SOL    HW1 1916   2.116   4.166   9.074  1.3922  0.1790  0.5502
32987SOL    HW2 1917   2.153   4.025   9.032 -0.5708 -0.1733 -0.1100
32988SOL     OW 1918   8.523   4.656   4.341 -0.1452  0.3707 -0.0642
32988SOL    HW1 1919   8.485   4.650   4.254 -1.3046  1.7175  0.3106
32988SOL    HW2 1920   8.605   4.606   4.336 -1.3463 -1.5857 -1.2495
32989SOL     OW 1921   8.465   7.587   7.217 -0.1784  0.1200 -0.2061
32989SOL    HW1 1922   8.395   7.653   7.222 -1.0606 -0.8504  0.7929
32989SOL    HW2 1923   8.487   7.584   7.124 -0.0381  1.8750 -0.2736
32990SOL     OW 1924   5.510   4.442   8.807  0.4584 -0.2101 -0.1281
32990SOL    HW1 1925   5.440   4.444   8.872  2.2065 -0.5690  1.8515
32990SOL    HW2 1926   5.465   4.435   8.723 -2.0510  3.2056  0.7259
32991SOL     OW 1927   9.284   0.406   1.322  0.2950 -0.2666 -0.1274
32991SOL    HW1 1928   9.294   0.345   1.249 -0.2823 -0.0865 -0.3604
32991SOL    HW2 1929   9.294   0.352   1.400  0.5790 -0.5179 -0.3365
32992SOL     OW 1930   4.330   7.466   6.616  0.1897 -0.2167 -0.2768
32992SOL    HW1 1931   4.393   7.446   6.685  0.7397  1.6088 -0.2031
32992SOL    HW2 1932   4.248   7.429   6.648  1.1369 -2.6672 -0.3829
32993SOL     OW 1933   0.497   7.150   9.844 -0.0661  0.5035 -0.5742
32993SOL    HW1 1934   0.536   7.236   9.830 -1.0796  1.3944  1.5052
32993SOL    HW2 1935   0.477   7.149   9.938 -1.5862 -1.3517 -0.8670
32994SOL     OW 1936   5.636   8.053  10.667  0.3926 -0.2265 -0.0766
32994SOL    HW1 1937   5.727   8.082  10.661  0.9636 -1.7901  0.4001
32994SOL    HW2 1938   5.585   8.133  10.670  1.3725  0.8562 -4.5196
32995SOL     OW 1939   2.710   4.055   6.551 -0.4434 -0.0647 -0.0022
32995SOL    HW1 1940   2.632   4.010   6.586 -0.3452  0.8232  1.4039
32995SOL    HW2 1941   2.780   3.990   6.557 -0.6104 -0.1823  0.7049
32996SOL     OW 1942   4.339   3.553   9.408  0.7163 -0.3162 -0.2565
32996SOL    HW1 1943   4.275   3.486   9.430 -0.8557  0.5397 -1.9046
32996SOL    HW2 1944   4.350   3.603   9.488 -1.0100 -0.2603 -0.0199
32997SOL     OW 1945  10.669   8.381   7.898 -0.5099 -0.5946 -0.1378
32997SOL    HW1 1946  10.575   8.365   7.910 -0.7504  1.2122  0.8149
32997SOL    HW2 1947  10.684   8.464   7.943  1.5682 -0.8636 -0.2671
32998SOL     OW 1948   4.349   6.050   5.784  0.2947  0.3146  0.1283
32998SOL    HW1 1949   4.386   6.138   5.775 -0.7525  0.5992 -2.1952
32998SOL    HW2 1950   4.279   6.060   5.849  0.6560  1.0221  0.4206
32999SOL     OW 1951   6.312   9.074   2.961  0.4916 -0.2365 -0.6109
32999SOL    HW1 1952   6.325   8.983   2.934 -0.9064 -0.0713 -1.9586
32999SOL    HW2 1953   6.376   9.123   2.912  0.4119 -0.3561 -0.8348
33000SOL     OW 1954   0.052   5.100   7.677 -0.0871 -0.5269 -0.1667
33000SOL    HW1 1955   0.023   5.106   7.769 -0.3440 -0.4676 -0.2503
33000SOL    HW2 1956   0.083   5.188   7.656  0.2543 -0.6168 -0.0454
33001SOL     OW 1957   9.241   6.766   8.686 -0.1023  0.3876  0.3709
33001SOL    HW1 1958   9.290   6.815   8.620  0.3304  0.4366  0.7305
33001SOL    HW2 1959   9.306   6.738   8.750 -0.1882 -1.4085 -0.2613
33002SOL     OW 1960   6.782   9.804   2.760  0.0084 -0.7934  0.0104
33002SOL    HW1 1961   6.768   9.743   2.687 -1.7701  0.1287 -0.4845
33002SOL    HW2 1962   6.772   9.891   2.721  1.2756 -0.1936  0.9418
33003SOL     OW 1963   5.861   2.748   2.446 -0.1848 -0.4476 -0.1116
33003SOL    HW1 1964   5.883   2.700   2.366 -0.7050  0.8952 -1.0855
33003SOL    HW2 1965   5.940   2.796   2.469 -0.5211  0.4487 -0.7712
33004SOL     OW 1966   2.988   3.971   0.243  0.2940  0.2743  0.1160
33004SOL    HW1 1967   3.073   3.927   0.236  0.7343  1.0576  0.4200
33004SOL    HW2 1968   2.930   3.905   0.282  0.6906 -0.3493 -0.3306
33005SOL     OW 1969   7.523   7.091   5.411  0.0674 -0.4009 -0.2083
33005SOL    HW1 1970   7.571   7.153   5.356 -0.9092  0.6523  0.0759
33005SOL    HW2 1971   7.576   7.083   5.490 -0.1263  0.6490  0.0518
33006SOL     OW 1972   0.046   0.853   6.819  0.4647  0.2148  0.2560
33006SOL    HW1 1973   0.121   0.853   6.878  0.6101 -0.0575  0.0738
33006SOL    HW2 1974   0.083   0.833   6.733  0.3007  0.9333  0.0090
33007SOL     OW 1975   7.298   9.575  10.165  0.0341 -0.3336  0.5286
33007SOL    HW1 1976   7.364   9.506  10.164  0.8305  0.3459 -1.7506
33007SOL    HW2 1977   7.338   9.646  10.115 -1.6153  0.9317  0.9336
33008SOL     OW 1978   0.871   9.326   0.315 -0.1291  0.2330 -0.4069
33008SOL    HW1 1979   0.896   9.238   0.288 -2.2368 -1.0158  1.3956
33008SOL    HW2 1980   0.781   9.336   0.283 -0.5375  1.0142  0.9191
33009SOL     OW 1981  10.574   1.778   2.956  0.0100 -0.4072 -0.5124
33009SOL    HW1 1982  10.626   1.858   2.957 -0.1851 -0.2797 -0.5672
33009SOL    HW2 1983  10.638   1.708   2.943  0.2039 -0.2807 -0.2342
33010SOL     OW 1984   6.755   0.037   0.860  0.3978 -0.1455 -0.3728
33010SOL    HW1 1985   6.670   0.017   0.898  0.1628  0.7713 -0.3859
33010SOL    HW2 1986   6.779   0.121   0.899 -0.6513  1.7770 -3.5338
33011SOL     OW 1987   1.179   7.877   9.871  0.1998  0.6313 -0.0149
33011SOL    HW1 1988   1.198   7.918   9.956 -0.9990  0.8488  0.1695
33011SOL    HW2 1989   1.160   7.951   9.813 -1.5899  0.3976  0.2176
33012SOL     OW 1990   2.704   6.904   3.730  0.2693  1.0878  0.2863
33012SOL    HW1 1991   2.754   6.883   3.809  0.1812  0.8225  0.2712
33012SOL    HW2 1992   2.612   6.905   3.759 -0.1204 -2.3773 -0.4731
33013SOL     OW 1993   9.328   8.179   7.411 -0.5214  0.5502 -0.3768
33013SOL    HW1 1994   9.289   8.134   7.486 -1.7170  1.7461 -0.2478
33013SOL    HW2 1995   9.422   8.170   7.425 -0.6910 -1.6632 -0.2381
33014SOL     OW 1996   6.075   5.885   4.288  0.0425  0.1878  0.3649
33014SOL    HW1 1997   6.006   5.849   4.343 -1.4101  0.7746 -0.9899
33014SOL    HW2 1998   6.124   5.808   4.257  0.3812 -0.1921  1.7866
33015SOL     OW 1999   5.920   4.034   1.347 -0.2285 -0.6179 -0.1644
33015SOL    HW1 2000   6.006   4.051   1.310  0.1024 -0.7668  0.5199
33015SOL    HW2 2001   5.914   4.094   1.422 -1.1636  0.1782 -0.8453
33016SOL     OW 2002   0.420   9.493   5.066 -0.4580 -0.1049 -0.5964
33016SOL    HW1 2003   0.374   9.577   5.057 -1.6587 -0.7282 -0.4762
33016SOL    HW2 2004   0.358   9.428   5.032 -0.4269 -1.1814  1.2617
33017SOL     OW 2005   1.479   6.802   1.768  0.1171  0.5736 -0.3857
33017SOL    HW1 2006   1.496   6.875   1.829  0.9943  0.7491 -0.8211
33017SOL    HW2 2007   1.562   6.754   1.766 -0.1257  0.1804 -0.9261
33018SOL     OW 2008  10.039   4.032   8.995  0.7290 -0.4687 -0.4090
33018SOL    HW1 2009  10.045   4.125   9.019  0.1328 -0.7899  1.1488
33018SOL    HW2 2010   9.979   3.995   9.060  0.7122 -1.8917 -1.1944
33019SOL     OW 2011   5.153   7.859   6.004  0.1188 -0.5211 -0.0938
33019SOL    HW1 2012   5.082   7.844   5.942  0.1143  0.6676 -0.3873
33019SOL    HW2 2013   5.111   7.902   6.079  0.6669  1.0640 -0.6664
33020SOL     OW 2014   7.825   6.870   6.616  0.2086 -0.1871 -0.1462
33020SOL    HW1 2015   7.802   6.948   6.566  2.7543  0.1190 -0.9787
33020SOL    HW2 2016   7.844   6.903   6.704 -0.1631 -0.0894 -0.1023
33021SOL     OW 2017   7.311   7.555   0.102  0.1473 -0.3879 -0.1592
33021SOL    HW1 2018   7.326   7.592   0.014 -0.4435 -1.4352 -0.7168
33021SOL    HW2 2019   7.386   7.497   0.116  0.7944  0.5664  0.4954
33022SOL     OW 2020   1.352   4.472   4.281 -0.4621 -0.6062 -0.6780
33022SOL    HW1 2021   1.431   4.428   4.249  0.2650 -0.2347  0.5294
33022SOL    HW2 2022   1.359   4.561   4.248  0.9032  0.1301  1.3452
33023SOL     OW 2023   2.317   8.686   8.382  0.3834 -0.1527  0.1279
33023SOL    HW1 2024   2.297   8.721   8.469  0.4392  2.0653 -0.6707
33023SOL    HW2 2025   2.412   8.678   8.381  0.7075  2.6198 -0.5917
33024SOL     OW 2026   4.033  10.384   6.830 -0.1382 -0.2235  0.2900
33024SOL    HW1 2027   4.111  10.395   6.884 -0.9691 -0.6376  1.6370
33024SOL    HW2 2028   4.006  10.293   6.846 -0.7605 -0.1515 -0.3324
33025SOL     OW 2029   4.136   9.276   0.900 -0.2230  0.3737 -0.4946
33025SOL    HW1 2030   4.069   9.338   0.927 -1.3142 -1.2443  0.7323
33025SOL    HW2 2031   4.116   9.256   0.809 -1.5834 -0.2395 -0.0860
33026SOL     OW 2032   1.401   8.559   0.412  0.0307  0.3402  0.1827
33026SOL    HW1 2033   1.340   8.503   0.461  0.2778 -0.1232 -0.0302
33026SOL    HW2 2034   1.350   8.586   0.335  0.2135 -0.3792 -0.2039
33027SOL     OW 2035   4.857  10.209   8.265 -0.0394 -0.9133  0.2122
33027SOL    HW1 2036   4.793  10.174   8.327  2.9357 -1.7640  3.1340
33027SOL    HW2 2037   4.868  10.301   8.291 -1.8043 -0.0204 -1.9606
33028SOL     OW 2038   3.861   7.536   1.400 -0.4111  0.4378 -0.1952
33028SOL    HW1 2039   3.952   7.505   1.397 -0.4718  0.3504 -2.3593
33028SOL    HW2 2040   3.814   7.466   1.445  0.2677 -0.4647 -0.8471
33029SOL     OW 2041   8.487   5.215   9.313  0.3252  0.2474  0.5809
33029SOL    HW1 2042   8.567   5.237   9.361  0.6124  1.6855 -0.4854
33029SOL    HW2 2043   8.446   5.300   9.296 -0.8013 -0.3921  0.0424
33030SOL     OW 2044   2.563   8.708   3.663  0.0823  0.2916  0.6101
33030SOL    HW1 2045   2.632   8.709   3.597 -0.9644 -0.7410 -0.5521
33030SOL    HW2 2046   2.606   8.681   3.744  0.8406 -1.6235 -0.3791
33031SOL     OW 2047   4.358   7.033   6.906  0.7060 -0.2124  0.0178
33031SOL    HW1 2048   4.384   6.943   6.922 -0.3317 -0.5873 -0.3502
33031SOL    HW2 2049   4.437   7.084   6.925  0.9940 -1.0775  1.2841
33032SOL     OW 2050   7.060   9.406   6.808  0.6945 -0.7214  0.1114
33032SOL    HW1 2051   7.147   9.438   6.786  0.1210  0.4999 -0.4728
33032SOL    HW2 2052   7.031   9.462   6.881 -0.8232  1.1016 -1.7426
33033SOL     OW 2053   6.867   1.626   4.491 -0.0906 -0.2732  0.0559
33033SOL    HW1 2054   6.893   1.562   4.425  1.7624 -1.5598  1.8918
33033SOL    HW2 2055   6.923   1.702   4.476  0.5449 -0.6843  0.2955
33034SOL     OW 2056   6.956   2.905   2.318  0.2166 -0.1610  0.1967
33034SOL    HW1 2057   6.885   2.968   2.325  0.5637  0.4134 -1.1039
33034SOL    HW2 2058   6.913   2.823   2.294 -0.1415 -0.2091  0.9616
33035SOL     OW 2059   2.682   3.036   2.301 -0.5919 -0.5561 -0.4587
33035SOL    HW1 2060   2.766   3.022   2.344 -0.6885 -0.2618 -0.1646
33035SOL    HW2 2061   2.658   2.950   2.266 -0.4085 -0.7523 -0.1051
33036SOL     OW 2062   1.886   6.878  10.269 -0.0781  0.1351  0.0830
33036SOL    HW1 2063   1.940   6.825  10.211  1.3684  1.7865 -0.1637
33036SOL    HW2 2064   1.932   6.876  10.353 -1.5206 -1.2601  0.8888
33037SOL     OW 2065   6.551   5.241   9.273 -0.8140  0.1627 -0.3062
33037SOL    HW1 2066   6.544   5.261   9.366 -1.6694  0.9153 -0.5194
33037SOL    HW2 2067   6.579   5.149   9.270  0.1579  0.4181  0.6838
33038SOL     OW 2068  10.578   8.872   4.415 -0.0926 -0.1203 -0.1386
33038SOL    HW1 2069  10.652   8.930   4.434  0.5357 -0.3377 -1.6797
33038SOL    HW2 2070  10.528   8.918   4.348 -0.9899 -0.2716  0.4234
33039SOL     OW 2071   3.234  10.003   7.148  0.1022 -0.3165 -0.6992
33039SOL    HW1 2072   3.219  10.088   7.107 -2.3634  0.0325  0.7082
33039SOL    HW2 2073   3.273  10.024   7.233 -1.0782 -0.5182 -0.0916
33040SOL     OW 2074   8.524   3.213   5.048  0.0693  0.1686  0.8268
33040SOL    HW1 2075   8.471   3.292   5.055 -0.9942 -0.6396  2.8639
33040SOL    HW2 2076   8.614   3.245   5.035 -0.6741  1.5933 -1.2284
33041SOL     OW 2077   4.769   8.352   3.158  0.3594  0.2807  0.3512
33041SOL    HW1 2078   4.715   8.421   3.195  1.8335  1.4688  0.4136
33041SOL    HW2 2079   4.708   8.292   3.115 -0.8808  3.2058 -2.3670
33042SOL     OW 2080   9.847   9.027   3.575 -0.0965  0.4016 -0.0064
33042SOL    HW1 2081   9.846   8.952   3.635  0.6578  0.1888 -0.2451
33042SOL    HW2 2082   9.777   9.084   3.607  0.8764  0.7327  1.6429
33043SOL     OW 2083   6.098   9.154   5.313  0.4396  0.2902  0.1176
33043SOL    HW1 2084   6.094   9.244   5.282  2.8929  0.2113 -0.6165
33043SOL    HW2 2085   6.143   9.158   5.397  1.9680 -0.3467 -0.6298
33044SOL     OW 2086   0.881   6.317   8.688  0.3336 -0.3467 -0.4090
33044SOL    HW1 2087   0.860   6.350   8.601  0.9217  0.8152 -0.1422
33044SOL    HW2 2088   0.847   6.384   8.748 -0.4590 -1.3434  0.2834
33045SOL     OW 2089   4.679   6.551   9.009 -0.2763  0.0885 -0.1502
33045SOL    HW1 2090   4.597   6.523   8.967  0.0488 -0.8819 -0.1614
33045SOL    HW2 2091   4.746   6.535   8.944 -0.0203  0.5226  0.0010
33046SOL     OW 2092   5.795   8.941   2.217  0.0101  0.4013 -0.4782
33046SOL    HW1 2093   5.802   8.896   2.133  3.5513 -0.9621  0.3485
33046SOL    HW2 2094   5.784   9.033   2.194 -0.1008 -0.0451 -2.4067
33047SOL     OW 2095   8.441   7.776   1.164  0.1334 -0.6895  0.3560
33047SOL    HW1 2096   8.479   7.702   1.117  1.0491  0.0495 -0.0866
33047SOL    HW2 2097   8.424   7.842   1.096  0.0323 -0.2001  0.8469
33048SOL     OW 2098   5.160   9.215   3.045 -0.0005 -0.0035 -0.0524
33048SOL    HW1 2099   5.227   9.221   2.977  0.7720 -3.0852  0.2618
33048SOL    HW2 2100   5.199   9.159   3.112 -2.5421 -1.1576  0.5883
33049SOL     OW 2101   8.780   5.441   1.801 -0.3471 -0.2547  0.2907
33049SOL    HW1 2102   8.767   5.433   1.706 -2.1561  0.3438  0.4558
33049SOL    HW2 2103   8.776   5.535   1.818  0.5590 -0.3150  0.9029
33050SOL     OW 2104   8.468   7.375   6.044 -0.0884 -0.1376  0.3404
33050SOL    HW1 2105   8.423   7.329   5.973  0.1861 -1.4367  0.9914
33050SOL    HW2 2106   8.459   7.468   6.021 -0.4625 -0.5048 -1.1106
33051SOL     OW 2107   4.777   6.284   0.016  0.2893  0.1643 -0.5233
33051SOL    HW1 2108   4.740   6.196   0.021  2.3852 -0.8129 -0.8909
33051SOL    HW2 2109   4.788   6.312   0.107  1.7790 -0.9712 -0.3230
33052SOL     OW 2110   4.772   1.300   7.824 -0.9056 -0.3677 -0.2903
33052SOL    HW1 2111   4.760   1.217   7.778 -0.6493 -0.2475 -0.5807
33052SOL    HW2 2112   4.858   1.331   7.795 -0.0397 -1.0115  1.4112
33053SOL     OW 2113  10.547   9.389   4.474  0.0479  0.4698  0.1426
33053SOL    HW1 2114  10.583   9.417   4.390  0.5135 -0.5669 -0.0105
33053SOL    HW2 2115  10.476   9.451   4.491  0.9039  1.6051 -0.2879
33054SOL     OW 2116   1.476   5.014   3.904 -0.0923 -0.0697 -0.3469
33054SOL    HW1 2117   1.414   4.998   3.975  1.6797  1.0843  1.5555
33054SOL    HW2 2118   1.535   4.939   3.907 -0.8883 -0.7936 -1.6762
33055SOL     OW 2119   6.583   7.784   2.559 -0.4822 -0.0295 -0.2593
33055SOL    HW1 2120   6.526   7.829   2.496 -0.4532  3.7703  2.1197
33055SOL    HW2 2121   6.537   7.793   2.643  1.0111 -1.9560  0.8343
33056SOL     OW 2122   3.575   7.724   5.993 -0.2466 -0.5400 -0.7751
33056SOL    HW1 2123   3.651   7.740   6.049  1.3250 -0.3657 -2.8042
33056SOL    HW2 2124   3.525   7.806   5.997  0.2311 -0.2620 -0.2087
33057SOL     OW 2125   3.924   1.206   3.043  0.3534 -0.6281 -0.2483
33057SOL    HW1 2126   3.880   1.245   3.119  0.1381 -0.5734 -0.4006
33057SOL    HW2 2127   4.011   1.183   3.076 -0.0529 -1.4648  0.2643
33058SOL     OW 2128   6.288   6.263   1.757  0.2907  0.1363 -0.1351
33058SOL    HW1 2129   6.242   6.339   1.793  1.3821  1.6702 -1.8233
33058SOL    HW2 2130   6.349   6.237   1.826  0.7055  1.5390  0.0540
33059SOL     OW 2131   1.026   8.481   4.385 -0.7121 -0.0483 -0.0723
33059SOL    HW1 2132   1.096   8.490   4.321 -1.1370  1.4579 -0.3732
33059SOL    HW2 2133   1.069   8.448   4.464 -0.2022 -2.0812 -1.1298
33060SOL     OW 2134   9.289   4.911   3.633  0.2001 -0.2009  0.1206
33060SOL    HW1 2135   9.380   4.938   3.646  0.1442  0.6211 -1.0256
33060SOL    HW2 2136   9.248   4.985   3.588 -0.2478 -1.7257 -2.1700
33061SOL     OW 2137   2.027   9.787   1.014  0.1043 -0.0981 -0.1650
33061SOL    HW1 2138   2.016   9.872   0.971 -1.1925  0.0954  0.5068
33061SOL    HW2 2139   1.941   9.767   1.050  0.7289 -1.0567  0.8579
33062SOL     OW 2140   6.854   8.285   6.746 -0.4747  0.2613 -1.0791
33062SOL    HW1 2141   6.908   8.215   6.783 -0.4050  1.3889  1.0708
33062SOL    HW2 2142   6.831   8.253   6.658  1.1689 -1.5686 -0.9155
33063SOL     OW 2143   3.511   9.407   1.306  0.1662 -0.1447  0.0796
33063SOL    HW1 2144   3.466   9.407   1.391 -2.2819  0.4280 -1.1093
33063SOL    HW2 2145   3.541   9.317   1.295 -1.0239 -0.6620  0.8212
33064SOL     OW 2146   3.292   3.946   2.086  0.4011 -0.0999  0.2132
33064SOL    HW1 2147   3.337   3.979   2.164 -1.9814  2.0599  0.8017
33064SOL    HW2 2148   3.286   4.022   2.028 -2.8194 -0.0741  0.4003
33065SOL     OW 2149   8.851   5.621   4.151  0.8562  0.2983 -0.1634
33065SOL    HW1 2150   8.776   5.591   4.202  1.5349 -1.2892 -0.0318
33065SOL    HW2 2151   8.818   5.695   4.101 -0.1244  1.2186  1.7451
33066SOL     OW 2152   9.616   9.220   8.931  0.2156  0.5152  0.1955
33066SOL    HW1 2153   9.639   9.162   8.858  0.9382 -0.2409  0.9891
33066SOL    HW2 2154   9.601   9.305   8.891 -0.0007 -0.0180 -0.9029
33067SOL     OW 2155   2.404   5.282   6.063 -0.1024 -0.1251 -0.3147
33067SOL    HW1 2156   2.355   5.219   6.116 -0.3528 -0.2777 -0.7217
33067SOL    HW2 2157   2.477   5.231   6.027  1.6850  0.5677  2.0159
33068SOL     OW 2158   6.501   8.042   0.771  0.2428 -0.1660 -0.4021
33068SOL    HW1 2159   6.521   8.026   0.863  0.3476 -0.6198 -0.5037
33068SOL    HW2 2160   6.435   8.111   0.772 -0.8570 -1.2088  0.0703
33069SOL     OW 2161   2.234   6.699   5.564  0.2980  0.0810  0.3632
33069SOL    HW1 2162   2.156   6.651   5.535  1.3693 -1.6734  0.2379
33069SOL    HW2 2163   2.267   6.742   5.486 -0.7207  1.1234  0.4894
33070SOL     OW 2164   9.675   7.783   8.049  0.1144  0.6302  0.8458
33070SOL    HW1 2165   9.583   7.771   8.070 -0.1847  0.4232 -0.5146
33070SOL    HW2 2166   9.676   7.850   7.980  0.9377  0.3053  0.5278
33071SOL     OW 2167   4.022   7.299   4.778 -0.5717 -0.0103  0.7499
33071SOL    HW1 2168   3.978   7.299   4.863 -1.1958 -0.3281  0.4372
33071SOL    HW2 2169   3.951   7.314   4.715 -0.2674 -0.7464  0.2191
33072SOL     OW 2170   2.235   8.894   1.824  0.6827 -0.0860 -0.0196
33072SOL    HW1 2171   2.319   8.940   1.831  1.1104 -0.8026 -0.2975
33072SOL    HW2 2172   2.231   8.867   1.732  0.1019  0.0193 -0.0260
33073SOL     OW 2173   2.664   3.861   1.976  0.7075  0.3733  0.1369
33073SOL    HW1 2174   2.629   3.902   2.056 -0.5143  0.0778 -0.2203
33073SOL    HW2 2175   2.739   3.915   1.952 -0.0943  1.6348  0.3939
33074SOL     OW 2176   1.343   9.919   8.501  0.1697  0.5248 -0.1283
33074SOL    HW1 2177   1.347   9.986   8.569 -0.7017  0.1528  0.3036
33074SOL    HW2 2178   1.336   9.836   8.549  1.3345  0.0919 -0.6519
33075SOL     OW 2179   7.804   7.165   5.636  0.0054  0.4953 -0.5375
33075SOL    HW1 2180   7.831   7.240   5.688  0.8813 -1.6467  2.3919
33075SOL    HW2 2181   7.871   7.157   5.568  1.8336  0.5239  1.1500
33076SOL     OW 2182   1.039  10.006  10.611  0.0686 -0.2803  0.3501
33076SOL    HW1 2183   1.116  10.019  10.556 -0.0739 -2.0087 -0.2913
33076SOL    HW2 2184   1.072   9.964  10.690 -0.1320 -0.4522  0.3438
33077SOL     OW 2185   4.340   8.696   9.474 -0.2182  0.7379  0.5405
33077SOL    HW1 2186   4.332   8.768   9.537  1.1140  1.2214  0.1908
33077SOL    HW2 2187   4.350   8.618   9.528 -1.5369  0.8175  0.9262
33078SOL     OW 2188   8.086   7.684   6.966 -0.1856  0.4090 -0.2274
33078SOL    HW1 2189   8.007   7.676   6.912  0.0349  0.8506 -0.6196
33078SOL    HW2 2190   8.059   7.652   7.052 -0.8664  0.8011 -0.2862
33079SOL     OW 2191   9.059   7.053   1.462 -0.5461  0.7596 -0.1880
33079SOL    HW1 2192   9.050   6.958   1.452 -0.0661  0.8198 -1.3766
33079SOL    HW2 2193   9.003   7.075   1.536 -0.5768 -0.4662  0.1732
33080SOL     OW 2194   6.086   9.646   0.678 -0.5336  0.6692 -0.4350
33080SOL    HW1 2195   6.099   9.710   0.608  0.3591  0.2085 -0.7128
33080SOL    HW2 2196   6.174   9.628   0.710 -1.0328  2.0498  1.9001
33081SOL     OW 2197   1.172   8.134   9.743  0.3295  0.5139  0.8115
33081SOL    HW1 2198   1.187   8.169   9.831 -0.2509  1.5319  0.5204
33081SOL    HW2 2199   1.121   8.201   9.699  0.4105 -0.0923 -0.2380
33082SOL     OW 2200   2.044   5.896   6.720 -0.3188 -0.0914 -0.0424
33082SOL    HW1 2201   2.038   5.814   6.669  0.2150 -0.1448 -0.0217
33082SOL    HW2 2202   1.991   5.879   6.798  1.6823 -1.3035  1.1376
33083SOL     OW 2203   1.246   5.734   8.949 -0.2479 -0.2944  0.0857
33083SOL    HW1 2204   1.269   5.749   8.858 -0.7785 -0.9685 -0.1636
33083SOL    HW2 2205   1.212   5.819   8.979 -2.5892 -0.7149 -1.1268
33084SOL     OW 2206   9.807   8.345   6.929  0.1963 -0.5373  0.1981
33084SOL    HW1 2207   9.823   8.373   7.019 -2.4776  0.5747  0.4431
33084SOL    HW2 2208   9.772   8.256   6.937 -0.1317 -0.4028  0.3006
33085SOL     OW 2209  10.639   8.296   6.391  0.0961  0.2020  0.2090
33085SOL    HW1 2210  10.682   8.382   6.395  0.4615 -0.0036  0.8597
33085SOL    HW2 2211  10.550   8.312   6.420  0.3843  0.2345  1.1193
33086SOL     OW 2212   4.089   3.269  10.604  0.3988 -0.5246  0.2443
33086SOL    HW1 2213   4.050   3.307  10.525  0.4404 -0.8790  0.0491
33086SOL    HW2 2214   4.023   3.282  10.672 -0.7845 -2.5147 -0.4325
33087SOL     OW 2215   8.969   9.396   3.687  0.9004 -0.2308  0.3345
33087SOL    HW1 2216   9.050   9.432   3.653  0.5513 -0.7663 -1.1054
33087SOL    HW2 2217   8.904   9.412   3.619  0.2186 -1.4864  0.6531
33088SOL     OW 2218   4.161   6.327   4.342 -0.7688 -0.3331 -0.0675
33088SOL    HW1 2219   4.205   6.257   4.391  0.6464 -0.5841 -1.6095
33088SOL    HW2 2220   4.222   6.349   4.271 -1.9756  1.2266 -0.6917
33089SOL     OW 2221   3.458   5.065  10.000  0.0066 -0.0625  0.6059
33089SOL    HW1 2222   3.363   5.059   9.992 -0.0524 -1.3081  1.8882
33089SOL    HW2 2223   3.480   5.007  10.073  1.9048 -0.9981 -0.6203
33090SOL     OW 2224   0.319   6.685  10.005  0.2370 -0.2516 -0.2193
33090SOL    HW1 2225   0.236   6.716  10.041 -0.0895 -0.4398 -0.7873
33090SOL    HW2 2226   0.328   6.595  10.039  0.0797 -0.3216 -0.3612
33091SOL     OW 2227   4.150   8.174   9.406  0.0331 -0.1772 -0.2433
33091SOL    HW1 2228   4.204   8.253   9.416 -0.2812 -0.2127  2.3370
33091SOL    HW2 2229   4.172   8.121   9.482 -2.5683 -0.8551  0.1131
33092SOL     OW 2230  10.578   8.800   3.884  0.1184  0.0711 -0.0032
33092SOL    HW1 2231  10.558   8.729   3.823  2.0491 -0.1269 -0.4606
33092SOL    HW2 2232  10.558   8.880   3.835 -1.6421 -0.0942  0.3624
33093SOL     OW 2233   6.457   3.413   8.085 -0.7828 -0.6772 -0.1060
33093SOL    HW1 2234   6.536   3.446   8.042 -1.8769  1.5719 -0.5660
33093SOL    HW2 2235   6.482   3.402   8.176 -0.0814  0.6097 -0.1250
33094SOL     OW 2236   2.561   0.667   1.004 -0.4546  0.2156  0.1009
33094SOL    HW1 2237   2.577   0.747   1.054 -0.3820  0.7749 -0.7959
33094SOL    HW2 2238   2.466   0.656   1.007 -0.6178  1.1102 -0.8995
33095SOL     OW 2239   1.947   3.642   9.696  0.1516  0.2531  0.3213
33095SOL    HW1 2240   1.990   3.717   9.656  2.0798 -1.4507 -0.9528
33095SOL    HW2 2241   2.002   3.620   9.772 -0.6541  0.3840  0.9580
33096SOL     OW 2242   1.058   3.111   5.716 -0.1409  0.1403  0.6964
33096SOL    HW1 2243   1.079   3.088   5.806 -0.8156  2.6166  1.5395
33096SOL    HW2 2244   1.130   3.072   5.665  1.1895  0.1512  2.4558
33097SOL     OW 2245   5.283   6.791   2.430  0.0159 -0.0440 -0.1977
33097SOL    HW1 2246   5.297   6.837   2.513 -1.2828 -0.6147  0.3671
33097SOL    HW2 2247   5.209   6.837   2.389 -2.3911 -2.4316  1.1058
33098SOL     OW 2248   0.026   6.078   5.185  0.4064 -0.3053  0.2053
33098SOL    HW1 2249   0.093   6.051   5.122 -0.1273  2.2094 -1.5777
33098SOL    HW2 2250  -0.057   6.049   5.147  0.2211 -0.5150  0.7551
33099SOL     OW 2251   6.802   9.512   4.648 -0.1607  0.7151  0.4801
33099SOL    HW1 2252   6.825   9.526   4.740 -1.4459  0.1058  0.9126
33099SOL    HW2 2253   6.754   9.591   4.623  0.7950  1.1931  0.1075
33100SOL     OW 2254   3.594  10.215   7.537 -0.4826  0.5499 -0.2707
33100SOL    HW1 2255   3.522  10.192   7.595 -0.2633  0.6705  0.0496
33100SOL    HW2 2256   3.661  10.150   7.555 -0.8577 -0.1308 -1.2343
33101SOL     OW 2257   4.516   0.813   1.822  0.0276  0.6399  0.6529
33101SOL    HW1 2258   4.519   0.805   1.727  1.7709 -0.5573  0.7705
33101SOL    HW2 2259   4.524   0.907   1.839  0.5561  0.7872 -0.3573
33102SOL     OW 2260  10.284   9.401   5.067 -0.2378  0.0937 -0.2323
33102SOL    HW1 2261  10.280   9.330   5.132 -0.5342  0.5394  0.2495
33102SOL    HW2 2262  10.210   9.458   5.089 -1.1520 -0.4351 -1.8026
33103SOL     OW 2263  10.039   7.628   9.711  0.6146 -0.1520  0.1482
33103SOL    HW1 2264  10.027   7.542   9.672 -0.9036 -0.2132  0.6616
33103SOL    HW2 2265  10.083   7.612   9.794 -0.4027 -0.5588  0.6324
33104SOL     OW 2266   8.050   7.350   6.830 -0.0864 -0.4209  0.2472
33104SOL    HW1 2267   8.072   7.407   6.756  0.5173  1.3888  1.7367
33104SOL    HW2 2268   8.130   7.344   6.881  0.2041 -3.5832 -0.3585
33105SOL     OW 2269   0.322   8.503   3.428  0.0302 -0.2324 -0.6634
33105SOL    HW1 2270   0.365   8.418   3.424 -0.5199 -0.5470 -0.0782
33105SOL    HW2 2271   0.278   8.512   3.343  2.5281  0.8121 -1.9482
33106SOL     OW 2272   0.932   3.847   1.701  0.1249  0.0427  0.2196
33106SOL    HW1 2273   0.838   3.831   1.703  0.0646 -0.1473 -1.9901
33106SOL    HW2 2274   0.971   3.765   1.732 -0.4225 -0.5762 -0.6648
33107SOL     OW 2275   1.007   5.202   9.503 -0.4764 -0.5345  0.4718
33107SOL    HW1 2276   0.954   5.143   9.449 -0.0240 -0.7709  0.2790
33107SOL    HW2 2277   1.057   5.144   9.559 -0.1987 -0.3241  0.4415
33108SOL     OW 2278  10.128   6.603   5.568 -0.0750 -0.4701 -0.1021
33108SOL    HW1 2279  10.203   6.642   5.613  0.0046  0.8162 -1.2900
33108SOL    HW2 2280  10.123   6.514   5.603  0.9577 -0.0408  1.2367
33109SOL     OW 2281   0.590   1.526   5.549 -0.0548 -0.6045 -0.7185
33109SOL    HW1 2282   0.542   1.503   5.469 -1.0657 -3.4100  0.5986
33109SOL    HW2 2283   0.574   1.454   5.609  2.2983  0.4632  1.3745
33110SOL     OW 2284   8.108   5.236   7.530  0.5322 -0.2890  0.0666
33110SOL    HW1 2285   8.189   5.191   7.555 -0.2990 -0.9164  1.8219
33110SOL    HW2 2286   8.045   5.166   7.514 -0.0393  0.2036  0.1102
33111SOL     OW 2287   2.896   3.043   0.651  0.4312  0.4600  0.6988
33111SOL    HW1 2288   2.940   3.112   0.601 -1.6012  0.6901 -0.9024
33111SOL    HW2 2289   2.965   2.979   0.669  1.9509  1.9864  0.5621
33112SOL     OW 2290   2.427   5.368   6.452  0.7289  0.3653  0.0096
33112SOL    HW1 2291   2.341   5.385   6.491 -0.3156 -0.8181 -1.6530
33112SOL    HW2 2292   2.428   5.421   6.372  0.7989 -0.9399 -0.8903
33113SOL     OW 2293   0.293   4.793   1.335  0.4025 -0.2915 -0.7944
33113SOL    HW1 2294   0.316   4.717   1.388  0.1805 -0.3174 -0.7316
33113SOL    HW2 2295   0.355   4.792   1.262  3.8168  2.2712  1.7061
33114SOL     OW 2296   2.487   9.915   0.762 -0.3434  0.0234 -0.0831
33114SOL    HW1 2297   2.405   9.903   0.810  0.1257 -0.6500  0.5677
33114SOL    HW2 2298   2.548   9.950   0.827  0.4193 -1.3083 -0.0483
33115SOL     OW 2299   8.523   5.348   3.479 -0.0294 -0.2172 -0.4263
33115SOL    HW1 2300   8.482   5.425   3.518  0.2470 -0.2299 -0.1056
33115SOL    HW2 2301   8.555   5.378   3.395  0.7916  0.2323  0.0382
33116SOL     OW 2302  10.027   5.768   4.925 -0.0127  0.3535 -0.1719
33116SOL    HW1 2303   9.935   5.792   4.932 -0.8900 -2.6967  0.1647
33116SOL    HW2 2304  10.057   5.760   5.016  0.5912  1.3155 -0.2787
33117SOL     OW 2305   9.504   0.516   2.207 -0.1074 -0.2820  0.1416
33117SOL    HW1 2306   9.563   0.591   2.208 -1.1310  0.5521  0.8494
33117SOL    HW2 2307   9.475   0.509   2.116 -0.7018  0.7774  0.2279
33118SOL     OW 2308   5.802   6.997   7.011 -0.0407 -0.0486 -0.1453
33118SOL    HW1 2309   5.806   7.050   7.091 -2.2240  0.4024 -0.2698
33118SOL    HW2 2310   5.883   6.946   7.012  1.7283  2.5659  0.4883
33119SOL     OW 2311   9.752  10.231   0.070 -0.0219  0.2085  0.6287
33119SOL    HW1 2312   9.804  10.163   0.027 -1.2611 -1.6928  2.0117
33119SOL    HW2 2313   9.720  10.191   0.150 -0.4402  2.5993  1.7609
33120SOL     OW 2314   6.315   5.684   8.551 -0.3290 -0.2460  0.0835
33120SOL    HW1 2315   6.232   5.640   8.567 -0.2341 -1.1907 -1.7120
33120SOL    HW2 2316   6.348   5.644   8.470  0.3511  2.2864 -1.0038
33121SOL     OW 2317   6.466   7.884   3.890 -0.6023  0.1579 -0.0444
33121SOL    HW1 2318   6.482   7.973   3.860  0.3740 -0.2236 -0.7030
33121SOL    HW2 2319   6.374   7.868   3.871 -1.0206  1.3337  0.9166
33122SOL     OW 2320   4.910   8.937   3.038  0.1565  0.8962 -0.8055
33122SOL    HW1 2321   4.868   8.982   3.110  0.5615  0.0645 -0.0220
33122SOL    HW2 2322   4.928   9.005   2.973 -0.8434  1.5348 -0.4285
33123SOL     OW 2323   7.193   6.644   8.772  0.4979 -0.1863  0.6655
33123SOL    HW1 2324   7.166   6.684   8.689  1.8910  2.7079  1.4853
33123SOL    HW2 2325   7.112   6.639   8.823 -0.0452 -0.2223 -0.1677
33124SOL     OW 2326   3.538   4.401   9.854  0.8343  0.3464  0.4276
33124SOL    HW1 2327   3.533   4.314   9.816  1.5237 -0.2619  1.6583
33124SOL    HW2 2328   3.465   4.449   9.814 -1.1520 -1.5316  1.5569
33125SOL     OW 2329  10.011   7.234   8.763 -0.0251  0.2316  0.0139
33125SOL    HW1 2330   9.993   7.293   8.836 -0.5590  2.1610 -1.5979
33125SOL    HW2 2331  10.097   7.262   8.731 -0.2650  0.0913 -0.7574
33126SOL     OW 2332   3.971   6.467   3.119 -0.1928  0.1672  0.1010
33126SOL    HW1 2333   3.913   6.500   3.050 -2.2576  0.2531  1.7817
33126SOL    HW2 2334   4.039   6.535   3.127  0.1171  0.1344 -1.8242
33127SOL     OW 2335   0.117   1.574  10.499  0.0895  0.3773  0.0392
33127SOL    HW1 2336   0.102   1.541  10.411  1.2877 -4.4800  1.3401
33127SOL    HW2 2337   0.060   1.650  10.507  0.4111  1.4376 -5.0143
33128SOL     OW 2338   5.986   6.912   9.417  0.1280 -0.0160  0.3623
33128SOL    HW1 2339   6.046   6.961   9.360 -0.1265 -1.2378 -1.0267
33128SOL    HW2 2340   6.042   6.876   9.486  1.2891 -1.9744 -1.4560
33129SOL     OW 2341   0.543   6.808   8.788  0.4815  0.9349 -0.2180
33129SOL    HW1 2342   0.565   6.853   8.706 -0.6373  2.2883  0.1705
33129SOL    HW2 2343   0.463   6.852   8.818 -0.5112 -1.1518  0.3709
33130SOL     OW 2344   9.943   5.573   1.589  0.0523  0.1883 -0.6262
33130SOL    HW1 2345   9.944   5.595   1.682 -0.3178  1.0541 -0.8176
33130SOL    HW2 2346   9.874   5.507   1.581  1.3758 -1.3286  0.0024
33131SOL     OW 2347   7.503   0.971   9.052  0.3229 -0.1731  0.7970
33131SOL    HW1 2348   7.411   0.981   9.078 -0.5167  0.1104 -1.9653
33131SOL    HW2 2349   7.513   0.878   9.034 -0.0708  0.0596 -0.8302
33132SOL     OW 2350   0.425   8.338   9.006 -0.4075  0.2416  0.0384
33132SOL    HW1 2351   0.348   8.391   8.987 -0.7035  0.7850  2.4460
33132SOL    HW2 2352   0.489   8.401   9.040 -0.6180 -0.7624  2.5633
33133SOL     OW 2353   8.651   2.598   0.638 -0.1536  0.1667  0.3753
33133SOL    HW1 2354   8.639   2.661   0.708 -3.3474  0.0979  0.0448
33133SOL    HW2 2355   8.631   2.513   0.678  0.5582 -0.1973 -0.0255
33134SOL     OW 2356   4.770   2.535   4.774  0.5288  0.1708 -0.1925
33134SOL    HW1 2357   4.826   2.540   4.696 -1.2591  2.5805 -1.4423
33134SOL    HW2 2358   4.682   2.519   4.739 -0.1075 -0.1729  1.4773
33135SOL     OW 2359   3.914   0.766   9.681 -0.4126 -0.3154 -0.0011
33135SOL    HW1 2360   3.968   0.713   9.623  0.2823  0.9793 -0.5735
33135SOL    HW2 2361   3.923   0.855   9.648  1.2225  0.7582  2.9459
33136SOL     OW 2362   9.974   2.623   4.635  0.7168 -0.2526  0.3705
33136SOL    HW1 2363   9.998   2.701   4.585 -1.7656  0.1367 -0.3442
33136SOL    HW2 2364   9.942   2.561   4.569 -0.6000 -0.5318  1.2247
33137SOL     OW 2365   8.945   3.383   2.473 -0.0653 -0.2657  1.0034
33137SOL    HW1 2366   8.856   3.382   2.508 -1.0421 -1.8200 -1.2411
33137SOL    HW2 2367   8.995   3.325   2.531 -0.7520 -0.1657  1.7031
33138SOL     OW 2368   1.615   2.837   8.861 -0.8259  0.1917  0.4263
33138SOL    HW1 2369   1.667   2.917   8.869 -0.8090  0.4744 -1.9067
33138SOL    HW2 2370   1.630   2.790   8.944  1.3994  1.2826  0.7093
33139SOL     OW 2371   7.109   8.130   6.892 -0.5027 -0.6261 -0.0306
33139SOL    HW1 2372   7.106   8.049   6.841  1.5511 -0.6575 -0.1942
33139SOL    HW2 2373   7.184   8.178   6.856  0.3924 -0.1939  2.2566
33140SOL     OW 2374   9.419  10.114   7.987 -0.1110  0.6741 -0.0114
33140SOL    HW1 2375   9.513  10.130   7.987  0.3088 -1.4745 -0.7361
33140SOL    HW2 2376   9.401  10.080   8.075  0.1751 -0.7698 -0.4953
33141SOL     OW 2377   6.994   6.175   0.559  0.3732  0.2247 -0.6067
33141SOL    HW1 2378   6.981   6.254   0.506  1.2625 -0.1790 -1.4410
33141SOL    HW2 2379   7.081   6.144   0.535 -0.0327 -1.1054 -0.3915
33142SOL     OW 2380   5.729   1.531   3.423 -0.3555  0.2044  0.0311
33142SOL    HW1 2381   5.755   1.572   3.340 -0.4926 -0.0245 -0.1269
33142SOL    HW2 2382   5.645   1.490   3.404  0.1370 -0.8026 -0.0273
33143SOL     OW 2383   5.924   4.814   5.099 -0.1539  0.2219 -0.8053
33143SOL    HW1 2384   5.843   4.763   5.094  0.7885 -1.6555  1.1911
33143SOL    HW2 2385   5.897   4.900   5.128 -1.3736 -0.6854  0.9021
33144SOL     OW 2386   4.581   3.115   7.313 -0.4746 -0.4986 -0.1050
33144SOL    HW1 2387   4.578   3.049   7.382  2.4081 -0.6260  0.0237
33144SOL    HW2 2388   4.591   3.198   7.360 -2.4914 -0.0696 -0.3225
33145SOL     OW 2389   8.654   2.170  10.571  0.2980  0.9291 -0.1542
33145SOL    HW1 2390   8.695   2.216  10.644  0.2554 -0.0687  0.5122
33145SOL    HW2 2391   8.562   2.161  10.597  0.8157 -1.9750  1.0568
33146SOL     OW 2392   9.762   6.722   6.348  0.1755  0.5488 -0.0968
33146SOL    HW1 2393   9.675   6.757   6.330  0.5543  0.5661 -2.1123
33146SOL    HW2 2394   9.822   6.790   6.317  0.9065 -0.4758 -1.0070
33147SOL     OW 2395   8.810   1.559   5.353  0.3768  0.2753 -0.0043
33147SOL    HW1 2396   8.725   1.582   5.315  0.7637 -0.2004 -1.1965
33147SOL    HW2 2397   8.869   1.630   5.326  0.7869 -0.3566 -0.8214
33148SOL     OW 2398   8.572   0.020   1.910 -0.6808  0.1661  0.1344
33148SOL    HW1 2399   8.517   0.028   1.988  0.7245 -4.0096  1.8269
33148SOL    HW2 2400   8.510   0.005   1.839 -1.8988  1.2047  0.9390
33149SOL     OW 2401   9.860   0.603   2.700  0.2012  0.1726  0.5877
33149SOL    HW1 2402   9.901   0.670   2.644 -0.1413  0.1283  0.2757
33149SOL    HW2 2403   9.922   0.590   2.771  1.1188 -0.4863 -0.2940
33150SOL     OW 2404   9.893   1.949   2.171  0.1114  0.2421  0.4119
33150SOL    HW1 2405   9.824   1.909   2.224  1.0996 -0.6949  1.0327
33150SOL    HW2 2406   9.918   1.881   2.108 -0.6536  1.1485 -0.9222
33151SOL     OW 2407   4.603   9.664   3.569 -0.6520 -0.4915  0.3773
33151SOL    HW1 2408   4.670   9.717   3.612 -0.3087  1.5993 -2.4624
33151SOL    HW2 2409   4.542   9.728   3.532 -1.8717 -2.2215 -0.7274
33152SOL     OW 2410   4.950   5.429   5.404  0.5408 -0.3233 -0.1915
33152SOL    HW1 2411   4.888   5.417   5.333  1.5236  0.6343 -1.2436
33152SOL    HW2 2412   4.902   5.402   5.483 -0.7408 -0.8755 -1.1317
33153SOL     OW 2413   0.927   2.390   2.845 -0.2968 -0.2355  0.2158
33153SOL    HW1 2414   0.858   2.379   2.779 -1.0568 -1.1968  1.1233
33153SOL    HW2 2415   0.918   2.481   2.874 -1.6733 -0.5180  0.7992
33154SOL     OW 2416   7.376   4.420   8.751  0.4232  0.4058 -0.8445
33154SOL    HW1 2417   7.355   4.363   8.677 -1.3923  0.2283 -0.2570
33154SOL    HW2 2418   7.334   4.379   8.826 -0.4462  2.1601 -0.3000
33155SOL     OW 2419  10.360   0.433   8.651 -0.1712 -0.5994 -0.4354
33155SOL    HW1 2420  10.424   0.372   8.688 -0.9023 -0.2246  1.5589
33155SOL    HW2 2421  10.413   0.503   8.613  0.6498 -0.0322  1.6352
33156SOL     OW 2422   9.331   3.746   5.340 -0.1159  0.2707 -0.2036
33156SOL    HW1 2423   9.404   3.734   5.279  0.9297  1.7751  0.6574
33156SOL    HW2 2424   9.337   3.838   5.366 -1.2577 -0.0200  1.2445
33157SOL     OW 2425   5.217   7.105   7.409 -0.1495  0.7030 -0.0659
33157SOL    HW1 2426   5.240   7.057   7.329  0.2038  1.8765 -0.6926
33157SOL    HW2 2427   5.227   7.040   7.479 -1.5001 -0.6458 -1.0549
33158SOL     OW 2428   0.828   4.549   8.293  0.6802 -0.2512  0.3723
33158SOL    HW1 2429   0.904   4.493   8.278  1.0334  0.1233  0.7433
33158SOL    HW2 2430   0.864   4.637   8.301  0.1007  0.0958 -0.5526
33159SOL     OW 2431   2.420   8.038  10.642  0.2507 -0.1500  0.1478
33159SOL    HW1 2432   2.480   8.086  10.700 -0.6604 -0.3621  1.3248
33159SOL    HW2 2433   2.349   8.100  10.624 -0.0798 -0.4805  0.2809
33160SOL     OW 2434   3.204   3.830  10.422 -0.0912 -0.5779  0.2806
33160SOL    HW1 2435   3.224   3.924  10.418  1.7615 -0.7157  3.0236
33160SOL    HW2 2436   3.134   3.823  10.487  1.2643 -1.1747  1.7476
33161SOL     OW 2437   7.052   1.279  10.036  0.2401  0.1034 -0.0134
33161SOL    HW1 2438   7.139   1.283  10.075  0.8062 -1.3841 -1.0140
33161SOL    HW2 2439   7.004   1.217  10.090 -0.6721  1.9085  1.3273
33162SOL     OW 2440  10.203   2.607   4.804  0.3906  0.5834  0.2355
33162SOL    HW1 2441  10.111   2.622   4.784  0.0767 -0.4103  0.8744
33162SOL    HW2 2442  10.215   2.513   4.792  1.7771  0.9547 -1.6037
33163SOL     OW 2443   5.439   0.217   0.516  0.6912 -0.2786 -0.2111
33163SOL    HW1 2444   5.365   0.164   0.547  0.8052 -0.3247 -0.0181
33163SOL    HW2 2445   5.488   0.239   0.595 -0.1582  1.3504 -0.0907
33164SOL     OW 2446   6.504   3.887  10.447 -0.1411 -0.1525 -0.1620
33164SOL    HW1 2447   6.472   3.865  10.534 -0.0957 -0.5213 -0.2371
33164SOL    HW2 2448   6.580   3.830  10.434  0.2071  0.3118 -0.2110
33165SOL     OW 2449   4.241   0.104   1.049  0.0123  0.2671  0.3687
33165SOL    HW1 2450   4.150   0.087   1.025  0.0849  0.1438  0.1759
33165SOL    HW2 2451   4.274   0.021   1.082  1.0723 -0.7224 -2.8181
33166SOL     OW 2452   8.796   5.023   6.389  0.2691  0.1657 -0.1304
33166SOL    HW1 2453   8.865   5.086   6.372  1.6623 -0.8821  1.3263
33166SOL    HW2 2454   8.786   5.023   6.484 -1.1851 -0.2936 -0.2545
33167SOL     OW 2455   2.578   9.572   5.384 -0.0899 -0.2348  0.0025
33167SOL    HW1 2456   2.569   9.632   5.310  0.1089 -0.6742 -0.3743
33167SOL    HW2 2457   2.670   9.547   5.384 -0.4942 -1.8102 -0.8265
33168SOL     OW 2458   9.729   2.032   4.698  0.0053  0.1481 -0.7837
33168SOL    HW1 2459   9.678   1.970   4.647  0.1162  0.8964 -1.8258
33168SOL    HW2 2460   9.668   2.101   4.723  0.4766  1.0621 -2.0615
33169SOL     OW 2461   2.825   3.116   6.477 -0.1291 -0.6014 -0.0136
33169SOL    HW1 2462   2.746   3.129   6.530 -0.9692  3.1018 -1.8119
33169SOL    HW2 2463   2.832   3.196   6.425  3.6975 -1.6695 -1.4907
33170SOL     OW 2464   6.526   3.256   5.236 -0.3316  0.3293  0.6636
33170SOL    HW1 2465   6.584   3.209   5.176 -1.5271 -2.5423  1.5673
33170SOL    HW2 2466   6.585   3.303   5.294  0.9308  0.5150 -0.6952
33171SOL     OW 2467   5.799   7.442   0.115 -0.1159  0.2506  0.1207
33171SOL    HW1 2468   5.776   7.534   0.131  1.8932  0.6109  1.2812
33171SOL    HW2 2469   5.873   7.425   0.173 -0.1680 -2.0087 -0.3714
33172SOL     OW 2470   9.486   8.727   0.654 -0.3528  0.2710 -0.0881
33172SOL    HW1 2471   9.552   8.662   0.633 -1.0082 -0.7998  1.0465
33172SOL    HW2 2472   9.403   8.680   0.648 -0.9300  1.2817 -0.3174
33173SOL     OW 2473   7.796   4.032   1.598  0.3397 -0.1295  0.1367
33173SOL    HW1 2474   7.882   4.072   1.590  0.1555  0.4035  0.7388
33173SOL    HW2 2475   7.781   3.990   1.514  0.9964  0.1591 -0.1299
33174SOL     OW 2476   5.255   6.816   9.786 -0.1378  0.2140  0.0464
33174SOL    HW1 2477   5.232   6.813   9.693 -2.5321 -1.6784  0.5759
33174SOL    HW2 2478   5.185   6.869   9.826 -0.2111 -0.5732  0.9896
33175SOL     OW 2479   7.216   0.903   1.915 -0.5538  0.3920  0.1596
33175SOL    HW1 2480   7.294   0.959   1.911 -0.3399  0.1361  0.6402
33175SOL    HW2 2481   7.207   0.881   2.008 -1.8005  1.2460  0.2611
33176SOL     OW 2482   8.566   2.513   9.303  0.5431 -0.3315 -0.2491
33176SOL    HW1 2483   8.526   2.473   9.226  1.4071 -0.9209 -0.4088
33176SOL    HW2 2484   8.495   2.520   9.366 -0.0282 -0.4431 -0.8633
33177SOL     OW 2485   7.795   9.670   9.200 -0.1520 -0.0106  0.5444
33177SOL    HW1 2486   7.845   9.683   9.119  1.0779 -0.3240  1.2279
33177SOL    HW2 2487   7.737   9.597   9.181  0.1873 -0.1360 -0.0316
33178SOL     OW 2488   1.209   8.087   2.760  0.4055 -0.1085 -0.1673
33178SOL    HW1 2489   1.118   8.058   2.766  0.4228 -0.0492  0.4089
33178SOL    HW2 2490   1.215   8.159   2.822  0.6059  0.5172 -0.9012
33179SOL     OW 2491   5.552   9.661   1.815  0.0585  0.7752 -0.2103
33179SOL    HW1 2492   5.478   9.717   1.791 -0.2542  1.0106  1.2375
33179SOL    HW2 2493   5.521   9.610   1.890  1.8119  1.9843  1.4205
33180SOL     OW 2494   7.469  10.110   5.421 -0.3817  0.1869 -0.0727
33180SOL    HW1 2495   7.381  10.147   5.410  0.2884  1.4508 -1.4237
33180SOL    HW2 2496   7.497  10.142   5.507 -0.9146  0.4914 -0.0036
33181SOL     OW 2497   7.448   9.375   4.835 -0.3277 -0.2240 -0.6381
33181SOL    HW1 2498   7.373   9.375   4.776  0.1865 -2.6792 -1.4078
33181SOL    HW2 2499   7.495   9.456   4.814 -3.3885  2.1617  0.8771
33182SOL     OW 2500   4.812   0.462   9.007  0.3866  0.5297  0.3393
33182SOL    HW1 2501   4.872   0.392   9.034 -0.0620  0.0708  0.1547
33182SOL    HW2 2502   4.794   0.444   8.915  1.0697  1.4813  0.0113
33183SOL     OW 2503   0.828   4.424   1.175 -0.3528  0.0781  0.1956
33183SOL    HW1 2504   0.867   4.383   1.253 -0.1786 -1.4885 -0.6753
33183SOL    HW2 2505   0.902   4.466   1.131  0.1325 -1.5667 -0.6389
33184SOL     OW 2506   7.664   5.307   8.680 -0.5030 -0.4658  0.1069
33184SOL    HW1 2507   7.604   5.329   8.610 -1.8614  0.0146  1.3664
33184SOL    HW2 2508   7.743   5.359   8.661 -0.6059 -0.8089 -1.3568
33185SOL     OW 2509   9.611   7.977   0.628 -0.7136  0.5476  0.4182
33185SOL    HW1 2510   9.681   7.997   0.690  0.6508 -1.9437 -0.1865
33185SOL    HW2 2511   9.594   8.060   0.584  1.3386  1.4068  1.1200
33186SOL     OW 2512   3.751   0.492   8.623 -0.1044 -0.6182 -0.1613
33186SOL    HW1 2513   3.760   0.439   8.702 -0.6460 -1.6804 -0.7881
33186SOL    HW2 2514   3.779   0.435   8.552 -2.4939 -0.7805 -1.0871
33187SOL     OW 2515   5.097   5.688   3.860  0.2113  0.0013 -0.2101
33187SOL    HW1 2516   5.081   5.693   3.766 -0.4034 -1.3150 -0.1927
33187SOL    HW2 2517   5.187   5.657   3.868  0.2089 -0.0442 -0.3567
33188SOL     OW 2518   2.940   2.205   6.139  0.1677 -0.5114 -0.3362
33188SOL    HW1 2519   2.925   2.279   6.198 -1.4434 -0.1733 -1.1349
33188SOL    HW2 2520   2.938   2.128   6.197  0.0779 -0.0736  0.2529
33189SOL     OW 2521   5.101   5.912  10.080  0.2666 -0.2279 -0.2996
33189SOL    HW1 2522   5.078   5.845  10.015  1.2953  0.0552 -0.9888
33189SOL    HW2 2523   5.165   5.967  10.035 -0.6988  1.3549  0.1774
33190SOL     OW 2524   9.633   2.270   2.710 -0.4476 -0.5668  0.5071
33190SOL    HW1 2525   9.684   2.345   2.676  0.3212 -1.1422  0.3565
33190SOL    HW2 2526   9.552   2.309   2.742  0.0363  0.3650  0.6376
33191SOL     OW 2527   6.398   9.483   1.520 -0.1954  0.1804  0.5864
33191SOL    HW1 2528   6.358   9.401   1.492 -1.2338  0.1387  2.0451
33191SOL    HW2 2529   6.492   9.467   1.515 -0.3762 -0.6668 -0.3333
33192SOL     OW 2530   1.826   9.861   0.058 -0.5159 -0.1282 -0.3196
33192SOL    HW1 2531   1.801   9.769   0.050 -0.7832 -0.3111  1.8992
33192SOL    HW2 2532   1.872   9.866   0.142  3.0058  1.0754 -2.0965
33193SOL     OW 2533   8.765   1.432   2.317  0.1401  0.0065 -0.1481
33193SOL    HW1 2534   8.729   1.346   2.298 -2.3666  0.5402  1.6605
33193SOL    HW2 2535   8.777   1.472   2.231 -1.5628 -1.0728 -0.9499
33194SOL     OW 2536   3.826   0.751   7.581  0.1389 -0.5301  0.7470
33194SOL    HW1 2537   3.899   0.796   7.625  0.7123 -2.0666  1.4304
33194SOL    HW2 2538   3.869   0.691   7.520 -0.6007 -0.7341  0.4155
33195SOL     OW 2539   3.706  10.093   0.589 -0.3190 -0.4724 -0.2141
33195SOL    HW1 2540   3.742  10.032   0.653  0.0289 -1.3778 -1.2377
33195SOL    HW2 2541   3.780  10.148   0.564 -0.3050 -0.5294 -0.2975
33196SOL     OW 2542   6.636   8.099   8.208  0.2334  0.1746 -0.0071
33196SOL    HW1 2543   6.591   8.046   8.142  1.9489 -3.5440  1.5770
33196SOL    HW2 2544   6.717   8.052   8.227  0.8481  2.1898  3.2145
33197SOL     OW 2545   8.765   0.436   8.360  0.2370  0.8941  0.5070
33197SOL    HW1 2546   8.741   0.346   8.383  0.3831  0.5743 -0.5773
33197SOL    HW2 2547   8.729   0.489   8.432 -1.7953  0.2073  0.0487
33198SOL     OW 2548   2.931   2.062   6.806 -0.1993 -0.1276  0.3328
33198SOL    HW1 2549   3.010   2.114   6.822 -0.1620  0.1789 -0.7823
33198SOL    HW2 2550   2.958   1.971   6.820  0.7251 -0.1441 -1.3914
33199SOL     OW 2551   6.544   2.669   9.159  1.0446 -0.0624  0.1071
33199SOL    HW1 2552   6.547   2.747   9.104  2.3088 -0.3744 -0.2998
33199SOL    HW2 2553   6.531   2.596   9.099 -0.3836 -0.1596  0.5095
33200SOL     OW 2554   7.176   1.140   5.064 -0.3147 -0.2175 -0.0376
33200SOL    HW1 2555   7.237   1.209   5.039  1.5487 -1.3090  1.3388
33200SOL    HW2 2556   7.185   1.131   5.159 -1.2440 -1.6894 -0.0416
33201SOL     OW 2557   6.228   3.120   8.108  0.8211  0.3868  0.0135
33201SOL    HW1 2558   6.247   3.108   8.201 -1.0821 -0.0380  0.3921
33201SOL    HW2 2559   6.209   3.213   8.100 -0.2635  0.2039  0.3258
33202SOL     OW 2560   5.052   1.419   7.306  0.0827 -0.0927 -0.2001
33202SOL    HW1 2561   5.142   1.387   7.311  0.2034  0.4416  1.4198
33202SOL    HW2 2562   5.046   1.488   7.372 -1.5981 -0.3205 -0.0609
33203SOL     OW 2563  10.055   5.011   6.832 -0.1016 -0.2148  0.1334
33203SOL    HW1 2564  10.073   5.013   6.738 -0.4688 -0.9737  0.0419
33203SOL    HW2 2565  10.036   5.102   6.854 -1.2501 -0.1965 -0.7879
33204SOL     OW 2566  10.075   7.989   8.952  0.2587 -0.0948 -0.3985
33204SOL    HW1 2567  10.069   8.037   9.035  0.9924  0.3179 -0.5786
33204SOL    HW2 2568  10.067   8.056   8.885 -1.1270 -0.5165 -0.6858
33205SOL     OW 2569   3.253   7.826   3.751  0.0807  0.0887 -0.4954
33205SOL    HW1 2570   3.220   7.756   3.807  0.6115  1.2469  1.3917
33205SOL    HW2 2571   3.210   7.813   3.667 -1.3454 -1.3043  0.4048
33206SOL     OW 2572   9.824   6.906   7.043  0.1223 -0.3159 -0.2854
33206SOL    HW1 2573   9.761   6.836   7.061 -1.5557  1.3473  0.6715
33206SOL    HW2 2574   9.852   6.890   6.952 -0.8818 -1.7131 -0.3821
33207SOL     OW 2575  10.485  10.493   8.419  0.1961  1.0509  0.4519
33207SOL    HW1 2576  10.531  10.575   8.436  1.4533  0.6205 -0.7187
33207SOL    HW2 2577  10.426  10.514   8.346  0.6646  0.8775  0.0173
33208SOL     OW 2578   7.277   9.493   9.630  0.0990 -0.0241  0.0226
33208SOL    HW1 2579   7.199   9.489   9.575 -0.7458 -1.3725  1.2380
33208SOL    HW2 2580   7.323   9.411   9.612  0.8744  0.4453 -0.1607
33209SOL     OW 2581   0.222   4.147   7.650  0.6459  0.1378  0.4115
33209SOL    HW1 2582   0.164   4.217   7.618  0.1139 -1.1022 -1.4798
33209SOL    HW2 2583   0.195   4.134   7.741 -2.9327 -1.1240 -0.6619
33210SOL     OW 2584   2.989   1.727   2.339 -0.0962  1.0651  0.1196
33210SOL    HW1 2585   3.057   1.695   2.279 -0.0653  1.8257 -0.2619
33210SOL    HW2 2586   2.966   1.813   2.305 -1.9223  0.4451 -0.2881
33211SOL     OW 2587   7.793  10.038   9.769 -0.3526  0.5510  0.2564
33211SOL    HW1 2588   7.715   9.987   9.748 -0.2501 -0.2831  1.7502
33211SOL    HW2 2589   7.762  10.106   9.829  0.1579 -0.2250  1.4327
33212SOL     OW 2590   8.064   9.797   7.023  0.1322 -0.5373  0.1958
33212SOL    HW1 2591   8.131   9.865   7.032  0.8246 -1.2370  0.3583
33212SOL    HW2 2592   7.989   9.843   6.984  0.9792  0.0796 -0.7630
33213SOL     OW 2593   9.732   2.282  10.638  0.2116  0.0906 -0.3658
33213SOL    HW1 2594   9.761   2.194  10.664 -2.5798 -1.1104 -1.0226
33213SOL    HW2 2595   9.641   2.271  10.611 -0.4694  3.3428  0.1649
33214SOL     OW 2596   8.031   0.276   4.466  0.0555  0.4456  0.2520
33214SOL    HW1 2597   8.065   0.190   4.491 -0.0843  0.4885  0.6016
33214SOL    HW2 2598   8.043   0.330   4.545  1.0199  1.0095 -0.2599
33215SOL     OW 2599   2.341   5.064   6.962  0.3950 -0.0745  0.1704
33215SOL    HW1 2600   2.276   5.133   6.975 -0.6346 -0.5483 -1.9470
33215SOL    HW2 2601   2.417   5.109   6.926  1.5457  0.5554  3.0963
33216SOL     OW 2602  10.311   0.674   2.074 -0.2734  0.3497 -0.2749
33216SOL    HW1 2603  10.379   0.640   2.132 -1.9233  1.2384  2.3439
33216SOL    HW2 2604  10.280   0.598   2.025  2.1653 -0.1590 -1.1741
33217SOL     OW 2605   2.740   5.314   2.849 -0.0099  0.1195  0.3228
33217SOL    HW1 2606   2.672   5.280   2.907 -0.9899  0.4603 -0.5778
33217SOL    HW2 2607   2.725   5.268   2.766  0.0798  1.0906 -0.2443
33218SOL     OW 2608   9.778   8.187   3.664  0.3079 -0.1360  0.1331
33218SOL    HW1 2609   9.815   8.099   3.666 -0.9246 -0.6601  1.1108
33218SOL    HW2 2610   9.727   8.190   3.584  0.1654 -0.3915  0.2145
33219SOL     OW 2611   4.828   4.397   8.292  0.1216  0.3642  0.2355
33219SOL    HW1 2612   4.863   4.315   8.257  0.7278 -0.3661  2.4169
33219SOL    HW2 2613   4.820   4.382   8.386 -2.9845  1.6658  0.2913
33220SOL     OW 2614   5.478   5.058   7.844 -0.0635  0.7201  0.0044
33220SOL    HW1 2615   5.484   5.149   7.874 -1.5881  0.6169  0.7167
33220SOL    HW2 2616   5.422   5.015   7.909 -1.0348 -0.2295 -1.4096
33221SOL     OW 2617   0.671   5.362   9.439 -0.1212 -0.2704  0.1563
33221SOL    HW1 2618   0.713   5.348   9.354 -1.0424  1.4446 -0.6370
33221SOL    HW2 2619   0.718   5.437   9.477 -0.0101 -0.7437  0.9670
33222SOL     OW 2620   7.280   1.377   1.506 -0.6913 -0.2290 -1.3142
33222SOL    HW1 2621   7.315   1.463   1.529 -0.6303 -0.5851  0.0102
33222SOL    HW2 2622   7.344   1.315   1.542 -1.0476 -0.8395 -1.7098
33223SOL     OW 2623   9.395  10.678   5.063 -0.3513  0.5887 -0.1165
33223SOL    HW1 2624   9.453  10.733   5.116 -0.4029 -0.2469  0.8286
33223SOL    HW2 2625   9.369  10.607   5.121 -0.1111 -0.5628 -1.3712
33224SOL     OW 2626  10.639   9.491   1.351  0.6581  0.1603 -0.5394
33224SOL    HW1 2627  10.670   9.413   1.306 -2.4211 -1.4545 -0.0845
33224SOL    HW2 2628  10.555   9.512   1.310  0.1778  1.6726  1.0512
33225SOL     OW 2629   3.184   0.297   1.386 -0.5726 -0.0856  0.1979
33225SOL    HW1 2630   3.149   0.235   1.322 -1.5086 -0.5844  1.1583
33225SOL    HW2 2631   3.112   0.360   1.399  0.5338  1.5316 -1.1407
33226SOL     OW 2632   6.942   9.975   1.002  0.6796  1.2249 -0.5080
33226SOL    HW1 2633   6.914   9.987   0.911 -0.2774  1.8166 -0.1501
33226SOL    HW2 2634   6.887  10.034   1.052 -1.6597 -1.8704  0.9474
33227SOL     OW 2635   7.743   9.631  10.569  0.7557 -0.0725  0.0378
33227SOL    HW1 2636   7.666   9.663  10.617  0.6557 -0.9878  0.5214
33227SOL    HW2 2637   7.707   9.596  10.487  0.5590 -1.0161  0.5049
33228SOL     OW 2638   0.890   0.615   9.110  0.1369  0.1532  0.6350
33228SOL    HW1 2639   0.983   0.595   9.106  0.0133 -0.3881  0.4025
33228SOL    HW2 2640   0.878   0.687   9.049  0.1518 -0.7652 -0.4840
33229SOL     OW 2641   3.866   3.567   3.709  0.6863  0.4859 -0.3999
33229SOL    HW1 2642   3.864   3.644   3.652 -0.6815  1.4992  0.9231
33229SOL    HW2 2643   3.774   3.552   3.731  1.1641  0.1456  1.5094
33230SOL     OW 2644   9.770   5.001   7.776  0.0053  0.5170 -0.3382
33230SOL    HW1 2645   9.813   5.066   7.831  1.2655 -0.1216 -0.5258
33230SOL    HW2 2646   9.830   4.926   7.776 -0.1300  0.3648 -2.2650
33231SOL     OW 2647   8.167   6.403  10.558  0.1373  0.3084  0.0454
33231SOL    HW1 2648   8.254   6.368  10.579 -1.7198 -3.8464  1.8936
33231SOL    HW2 2649   8.137   6.441  10.640 -0.9750 -1.3999  0.4926
33232SOL     OW 2650   4.111   4.570   7.569  0.0313 -0.2522 -0.2824
33232SOL    HW1 2651   4.176   4.555   7.500  1.9272  2.6949  0.6843
33232SOL    HW2 2652   4.049   4.632   7.530 -0.1774 -0.3108 -0.0476
33233SOL     OW 2653   9.808   0.289   2.348  0.2503  0.3543  0.1406
33233SOL    HW1 2654   9.888   0.337   2.326 -0.1160  0.8809 -0.0773
33233SOL    HW2 2655   9.831   0.197   2.334  0.1692  0.6202 -2.1753
33234SOL     OW 2656   0.300   3.462   3.878 -0.0044  0.1919 -0.0919
33234SOL    HW1 2657   0.205   3.451   3.880  0.2466 -2.9269  1.1717
33234SOL    HW2 2658   0.324   3.443   3.787 -0.4262 -2.2480  0.2318
33235SOL     OW 2659   1.489   2.888   2.709  0.0749  0.0185 -0.4528
33235SOL    HW1 2660   1.476   2.892   2.804  1.7988 -0.4463 -0.1507
33235SOL    HW2 2661   1.454   2.802   2.684 -1.0560  0.4406 -0.3878
33236SOL     OW 2662  10.296   8.179  10.190  0.2839  0.1389  0.2076
33236SOL    HW1 2663  10.259   8.109  10.136 -2.6816  0.8929  1.0426
33236SOL    HW2 2664  10.328   8.134  10.268  0.9316 -0.5494 -0.4399
33237SOL     OW 2665   8.939   6.793   8.185 -0.3703  0.0785 -0.2029
33237SOL    HW1 2666   8.958   6.746   8.266  1.0133 -0.6425 -0.9119
33237SOL    HW2 2667   8.901   6.876   8.213 -0.5150 -0.4378  1.1602
33238SOL     OW 2668   4.570   0.080   9.929 -0.1384  0.0068 -0.8012
33238SOL    HW1 2669   4.621   0.030   9.864 -2.3905 -1.7347 -1.3851
33238SOL    HW2 2670   4.603   0.169   9.922  3.6698 -1.2044 -0.1803
33239SOL     OW 2671   8.638   6.365   3.553 -0.1420  0.0781 -0.0367
33239SOL    HW1 2672   8.668   6.293   3.497 -1.3577  0.0721 -0.7250
33239SOL    HW2 2673   8.564   6.403   3.505 -2.0343 -0.6760  2.0669
33240SOL     OW 2674   9.365   5.885   1.115  0.3036  0.1810 -0.2528
33240SOL    HW1 2675   9.395   5.821   1.179  0.1904  0.8356  0.4658
33240SOL    HW2 2676   9.397   5.969   1.148 -2.1267  0.9042  0.4831
33241SOL     OW 2677   8.934   7.363   4.327  0.4961  0.8522  0.1027
33241SOL    HW1 2678   9.008   7.333   4.274 -0.1023  0.5589 -0.5871
33241SOL    HW2 2679   8.900   7.285   4.369 -0.2195  0.7640 -0.6160
33242SOL     OW 2680   5.462   0.968   6.537 -0.4164  0.1035  0.1168
33242SOL    HW1 2681   5.386   1.025   6.534 -2.0598 -2.0018 -2.0951
33242SOL    HW2 2682   5.502   0.975   6.450  0.9129 -0.1436  0.6757
33243SOL     OW 2683   4.761   4.303   2.960  0.2364 -0.0001 -0.3783
33243SOL    HW1 2684   4.698   4.241   2.924 -0.0966  0.3947 -0.4770
33243SOL    HW2 2685   4.827   4.312   2.892 -0.9141  1.5275 -1.3499
33244SOL     OW 2686   0.050   3.216   0.092 -0.1411 -0.1694  0.1531
33244SOL    HW1 2687   0.078   3.295   0.137 -0.3966  0.3578 -0.5926
33244SOL    HW2 2688  -0.032   3.241   0.048  0.3766 -0.4922 -1.0564
33245SOL     OW 2689   4.232   3.050   0.180 -0.1496  0.1387  0.1546
33245SOL    HW1 2690   4.183   3.112   0.234  0.3537 -0.0743  0.8693
33245SOL    HW2 2691   4.324   3.070   0.197  0.0346  0.6727 -1.3337
33246SOL     OW 2692   7.446   4.565   2.063  0.0044 -0.4100  0.0548
33246SOL    HW1 2693   7.499   4.576   2.142  0.3471  1.8430 -0.4158
33246SOL    HW2 2694   7.506   4.585   1.991 -0.8992 -0.1080 -0.6266
33247SOL     OW 2695   8.094   1.859   4.086  0.5268  0.0723  0.1236
33247SOL    HW1 2696   8.051   1.826   4.165 -3.2725  2.7653 -0.5639
33247SOL    HW2 2697   8.145   1.934   4.116 -2.2871  2.1807  0.0139
33248SOL     OW 2698   2.231   6.773   7.027 -0.5885  0.8383 -0.3941
33248SOL    HW1 2699   2.156   6.766   7.086 -0.8506  1.3004 -0.6693
33248SOL    HW2 2700   2.192   6.787   6.941 -0.1688  2.8043 -0.3043
33249SOL     OW 2701  10.446   8.570  10.243  0.9134  0.2305  0.1447
33249SOL    HW1 2702  10.447   8.633  10.171  0.4131  1.6049  1.3132
33249SOL    HW2 2703  10.362   8.583  10.286  2.2205  1.3262  2.5672
33250SOL     OW 2704   0.671   3.485   4.254  0.4858 -0.2884  0.3715
33250SOL    HW1 2705   0.676   3.407   4.199  0.2180 -0.0343 -0.0200
33250SOL    HW2 2706   0.733   3.546   4.214  1.4520 -0.6474  1.2625
33251SOL     OW 2707   1.496   8.621   7.850 -0.7426 -0.0593  0.2661
33251SOL    HW1 2708   1.509   8.649   7.760  0.0885 -3.1265 -0.6962
33251SOL    HW2 2709   1.468   8.529   7.843 -0.6342 -0.4128  3.1287
33252SOL     OW 2710   4.861   8.689   2.788  0.3538 -0.3777  0.4987
33252SOL    HW1 2711   4.814   8.665   2.708  0.0122  1.5718  0.0538
33252SOL    HW2 2712   4.796   8.678   2.858  0.7879 -2.5247  0.6061
33253SOL     OW 2713   7.174   1.148   5.333 -0.4281  0.1263 -0.2400
33253SOL    HW1 2714   7.090   1.193   5.329 -0.9448 -0.9067 -1.5470
33253SOL    HW2 2715   7.238   1.216   5.309 -1.0164  0.5924 -0.5276
33254SOL     OW 2716   6.240   5.867   8.321 -0.1353 -0.0161 -0.4621
33254SOL    HW1 2717   6.185   5.946   8.321  1.7704  1.4007 -0.1879
33254SOL    HW2 2718   6.204   5.813   8.391  0.5180  2.2098  1.7724
33255SOL     OW 2719   5.093  10.457   7.924 -0.2967 -0.3742  0.0228
33255SOL    HW1 2720   5.052  10.424   7.844 -1.7037 -1.5997  1.1909
33255SOL    HW2 2721   5.020  10.485   7.979  0.5921 -0.2691  1.1954
33256SOL     OW 2722   7.480   3.022  10.658 -1.0908  0.1749  0.2034
33256SOL    HW1 2723   7.558   3.074  10.679  0.0672 -1.6930  0.7255
33256SOL    HW2 2724   7.479   3.019  10.562 -1.4200  1.4575  0.1420
33257SOL     OW 2725   5.415   7.690   6.951  0.0455 -0.1265 -0.1427
33257SOL    HW1 2726   5.377   7.666   6.866 -1.6458  2.9091 -0.3811
33257SOL    HW2 2727   5.350   7.660   7.015 -1.2535  2.0873 -0.3363
33258SOL     OW 2728  10.473   4.475   4.129  0.4506  0.3892  0.1420
33258SOL    HW1 2729  10.518   4.547   4.172 -1.0161 -0.1966  2.8863
33258SOL    HW2 2730  10.397   4.515   4.087  0.2043  0.5967  0.7776
33259SOL     OW 2731   8.968   0.482   6.035  0.2111  0.6999  0.5293
33259SOL    HW1 2732   8.983   0.389   6.052 -0.3772  0.6021  0.5517
33259SOL    HW2 2733   8.873   0.492   6.044 -0.2413  0.5800 -2.9012
33260SOL     OW 2734   0.680   7.489   2.331 -0.2930  0.1031 -0.4081
33260SOL    HW1 2735   0.600   7.484   2.383 -1.1280 -0.2395 -1.6771
33260SOL    HW2 2736   0.708   7.580   2.339 -0.3224  0.0281  0.7312
33261SOL     OW 2737   2.392   1.120   2.290  0.0616 -0.3043 -0.1917
33261SOL    HW1 2738   2.304   1.133   2.256  0.0528  0.5336  0.1332
33261SOL    HW2 2739   2.402   1.187   2.357  0.4746 -1.2204  0.6940
33262SOL     OW 2740   1.847   8.699   8.369 -0.0105 -0.2894  0.2492
33262SOL    HW1 2741   1.883   8.733   8.451 -1.5472  1.3292  0.3176
33262SOL    HW2 2742   1.844   8.604   8.381  1.7369 -0.2531  1.2209
33263SOL     OW 2743   3.781   7.132   1.841 -0.7304  0.5700 -0.3563
33263SOL    HW1 2744   3.863   7.137   1.792 -0.6341  0.2722 -0.2270
33263SOL    HW2 2745   3.794   7.059   1.902 -1.5936 -0.4027 -1.2812
33264SOL     OW 2746   5.444   9.431   6.032 -0.4467  0.0333  0.0105
33264SOL    HW1 2747   5.354   9.435   5.998  0.4481 -0.9237 -2.7311
33264SOL    HW2 2748   5.492   9.494   5.978  0.4764  1.0008  1.8621
33265SOL     OW 2749   9.997   2.742   9.726  0.3236  0.7453  0.3923
33265SOL    HW1 2750   9.964   2.663   9.683 -0.5225  1.6369 -0.6248
33265SOL    HW2 2751   9.971   2.731   9.818 -0.8615  0.3796  0.0339
33266SOL     OW 2752   2.193   2.916   9.908  0.1613  0.1016  0.0458
33266SOL    HW1 2753   2.273   2.914   9.856  0.1744  0.7890  0.0231
33266SOL    HW2 2754   2.170   2.824   9.921 -1.1020 -0.1836 -3.1551
33267SOL     OW 2755   5.299   0.002  10.521 -0.5119 -0.0626  0.2349
33267SOL    HW1 2756   5.246  -0.040  10.453  1.3978  0.4203 -1.6710
33267SOL    HW2 2757   5.300   0.094  10.497  0.9799 -0.0379  0.3291
33268SOL     OW 2758   3.446  10.122   4.066 -0.3450 -0.0847 -0.4840
33268SOL    HW1 2759   3.495  10.083   3.994 -1.1640 -0.9490 -0.5928
33268SOL    HW2 2760   3.510  10.131   4.137  0.3625  0.3877 -1.1672
33269SOL     OW 2761   6.060   1.837   4.178 -0.2181 -0.6277 -0.0148
33269SOL    HW1 2762   6.137   1.789   4.150  0.5806  0.3182  0.4963
33269SOL    HW2 2763   6.031   1.884   4.100  1.1210  0.8306  0.3057
33270SOL     OW 2764   9.200   8.454   2.789  0.0635 -0.1698 -0.1688
33270SOL    HW1 2765   9.259   8.524   2.759  0.6635 -0.3188  0.6084
33270SOL    HW2 2766   9.200   8.390   2.718  1.2833 -0.4151  0.0207
33271SOL     OW 2767   3.633   8.863   2.792  0.6037 -0.3942  0.5596
33271SOL    HW1 2768   3.625   8.933   2.727 -0.2860  0.1930  1.2728
33271SOL    HW2 2769   3.577   8.793   2.758  0.8048 -0.4205  0.2801
33272SOL     OW 2770   2.547  10.437   9.410  0.9028  0.0510  0.8871
33272SOL    HW1 2771   2.524  10.345   9.427 -0.4327  0.4635  1.4483
33272SOL    HW2 2772   2.463  10.483   9.411  0.9484  0.6982 -3.5486
33273SOL     OW 2773   8.076  10.607   2.432  0.2752 -0.3339  0.1785
33273SOL    HW1 2774   8.119  10.680   2.476  0.7452 -0.9825  0.8122
33273SOL    HW2 2775   8.139  10.535   2.437 -0.0673 -0.7117 -0.6804
33274SOL     OW 2776   4.860   8.913   4.780  0.1118 -0.6679  0.8570
33274SOL    HW1 2777   4.947   8.951   4.768 -0.6143  0.1641 -3.2939
33274SOL    HW2 2778   4.806   8.987   4.808  0.2737 -0.6775  1.2081
33275SOL     OW 2779   6.419   5.822   4.944 -0.0109 -0.2813  0.1475
33275SOL    HW1 2780   6.476   5.875   4.999  1.7090 -0.9495 -0.8986
33275SOL    HW2 2781   6.418   5.736   4.986  0.3048 -0.4482 -0.1743
33276SOL     OW 2782   5.393   0.100   3.710 -0.0822  0.1063 -0.1215
33276SOL    HW1 2783   5.473   0.087   3.761  0.1207 -1.2758 -0.7331
33276SOL    HW2 2784   5.342   0.020   3.725 -0.3786  0.0266 -1.4310
33277SOL     OW 2785   0.514   9.848   3.481  0.3600  0.0657  0.1000
33277SOL    HW1 2786   0.521   9.924   3.424  0.5379  0.1112  0.1843
33277SOL    HW2 2787   0.518   9.884   3.570 -1.0433  0.1260  0.1706
33278SOL     OW 2788   1.813   1.698   8.743 -0.4703 -0.1854 -0.0328
33278SOL    HW1 2789   1.807   1.629   8.676 -0.4884  0.0543 -0.2806
33278SOL    HW2 2790   1.769   1.773   8.704  2.5815  1.1178 -1.2588
33279SOL     OW 2791   5.605   5.946   4.613 -0.5124 -0.0661  0.2308
33279SOL    HW1 2792   5.656   6.014   4.569  2.4604 -0.9986  1.9636
33279SOL    HW2 2793   5.583   5.984   4.698 -0.5609 -0.5822  0.4487
33280SOL     OW 2794   2.285   0.218   1.727 -0.1284  0.7680  0.0962
33280SOL    HW1 2795   2.326   0.287   1.779  0.7040 -0.1191  0.6535
33280SOL    HW2 2796   2.344   0.143   1.735  0.4929  0.8072 -2.8099
33281SOL     OW 2797   5.183   1.675   6.442  0.3072 -0.7650 -0.2023
33281SOL    HW1 2798   5.141   1.688   6.357 -0.2894 -0.8293  0.0838
33281SOL    HW2 2799   5.277   1.683   6.423  0.1970 -1.1085 -0.9228
33282SOL     OW 2800   7.068  10.672   7.767  0.4314  0.4782 -0.1675
33282SOL    HW1 2801   7.083  10.609   7.837 -1.5670 -1.5949 -1.4671
33282SOL    HW2 2802   7.032  10.749   7.812 -2.1534 -1.2967  1.0634
33283SOL     OW 2803   7.159   8.937   1.668 -0.2428 -0.4863 -0.4690
33283SOL    HW1 2804   7.177   9.019   1.713 -1.0150 -1.4094  1.6876
33283SOL    HW2 2805   7.081   8.954   1.615 -0.9056 -0.0187  0.6229
33284SOL     OW 2806   4.196   3.495   3.778 -0.0605  0.2270  0.6250
33284SOL    HW1 2807   4.197   3.412   3.729  1.2346 -1.9441  4.0028
33284SOL    HW2 2808   4.183   3.562   3.710 -1.0325 -2.6534 -2.3273
33285SOL     OW 2809   3.044  10.454   3.431  0.6145 -0.8103 -0.0989
33285SOL    HW1 2810   3.018  10.372   3.473 -2.3073  0.2735  0.4886
33285SOL    HW2 2811   2.975  10.469   3.366  2.9493 -0.4973 -2.6823
33286SOL     OW 2812   2.362   7.308   2.279 -0.2305 -0.1678  0.5388
33286SOL    HW1 2813   2.410   7.231   2.250  1.5823  0.7127  1.0895
33286SOL    HW2 2814   2.426   7.359   2.329 -0.8338  2.5918 -1.2957
33287SOL     OW 2815   2.822   5.303  10.647  0.4095  0.0887  0.1677
33287SOL    HW1 2816   2.751   5.300  10.711  1.0920  4.1259  1.3891
33287SOL    HW2 2817   2.902   5.302  10.699  1.1236  0.0147 -0.8944
33288SOL     OW 2818   2.848   5.670  10.472 -0.0290  0.0832  0.0546
33288SOL    HW1 2819   2.834   5.660  10.378  1.2306 -1.8994  0.0269
33288SOL    HW2 2820   2.764   5.701  10.506 -0.4012  1.1745 -1.7500
33289SOL     OW 2821   0.323   7.250   8.562 -0.8211 -0.1066 -0.0460
33289SOL    HW1 2822   0.274   7.312   8.508 -1.3391 -0.3106  0.1864
33289SOL    HW2 2823   0.260   7.219   8.627 -0.0276  0.6801  1.1425
33290SOL     OW 2824   6.876   6.061   0.804  0.0850  0.2016 -0.0734
33290SOL    HW1 2825   6.917   6.077   0.719 -0.0035  1.6265  0.1308
33290SOL    HW2 2826   6.822   6.139   0.820  1.2566  0.6790  1.9596
33291SOL     OW 2827   8.889   4.548   6.588  0.1010 -0.4996 -0.6125
33291SOL    HW1 2828   8.927   4.569   6.503  0.7064 -0.3750 -0.3119
33291SOL    HW2 2829   8.797   4.529   6.569 -0.7031  2.9310 -0.8758
33292SOL     OW 2830   1.433   8.594   4.745  0.2550 -0.8391 -0.4708
33292SOL    HW1 2831   1.431   8.537   4.822 -0.0314 -0.2856 -0.0597
33292SOL    HW2 2832   1.341   8.601   4.719  0.1962  0.0326 -0.0612
33293SOL     OW 2833   9.264   8.994  10.674 -0.0922  1.0021 -0.2962
33293SOL    HW1 2834   9.223   8.950  10.600  1.4456 -1.9277  0.4495
33293SOL    HW2 2835   9.206   8.974  10.748 -0.0687  1.3825 -0.1721
33294SOL     OW 2836   6.864   6.759   4.932  0.3084  0.2206 -0.4562
33294SOL    HW1 2837   6.895   6.699   5.000  2.3576  0.9489 -0.6746
33294SOL    HW2 2838   6.925   6.832   4.935 -2.1554  2.4420 -0.1174
33295SOL     OW 2839   5.887   4.030   1.771  0.2651  0.2835  0.3178
33295SOL    HW1 2840   5.925   3.960   1.824 -0.2351 -0.8563 -0.7797
33295SOL    HW2 2841   5.792   4.017   1.780  0.1701  0.8870  0.1866
33296SOL     OW 2842   4.132   2.115   4.488  0.1883  0.0165 -0.3434
33296SOL    HW1 2843   4.047   2.116   4.443  0.1723 -0.5076 -0.3323
33296SOL    HW2 2844   4.170   2.030   4.466  0.0595 -0.3696  0.8514
33297SOL     OW 2845   2.152   5.634   7.693  0.7989 -0.9250 -0.2608
33297SOL    HW1 2846   2.160   5.721   7.731 -0.9662 -0.5230 -0.7358
33297SOL    HW2 2847   2.119   5.580   7.765 -0.8954 -0.5349 -0.7011
33298SOL     OW 2848   8.280   2.812   2.854 -0.4505  0.2510  0.3506
33298SOL    HW1 2849   8.209   2.858   2.898 -0.5866  0.9510 -0.5549
33298SOL    HW2 2850   8.349   2.877   2.846 -0.4392  0.1489 -0.4654
33299SOL     OW 2851   2.358   0.584  10.221 -0.2981  0.4634  0.0765
33299SOL    HW1 2852   2.447   0.592  10.187  0.5298  1.0900  2.2427
33299SOL    HW2 2853   2.327   0.500  10.187  1.6699 -0.4582  0.4392
33300SOL     OW 2854   8.572   1.066   6.418 -0.1204  0.1553  0.0204
33300SOL    HW1 2855   8.487   1.064   6.372 -0.7319 -0.7421  1.1394
33300SOL    HW2 2856   8.636   1.048   6.350 -0.6786  2.0693 -1.1091
33301SOL     OW 2857   2.607   3.701   1.759 -0.4813  0.1064  0.2413
33301SOL    HW1 2858   2.642   3.741   1.838  0.2774 -1.3717  0.7004
33301SOL    HW2 2859   2.671   3.723   1.690  0.5142 -1.1404  0.7171
33302SOL     OW 2860   9.930   7.522   7.943  0.2452  0.4514 -0.7160
33302SOL    HW1 2861   9.903   7.452   7.883  1.2151 -0.0914 -0.5479
33302SOL    HW2 2862   9.871   7.514   8.018  2.0114 -2.0107  0.5701
33303SOL     OW 2863   7.879   8.261   3.956  0.3942  0.0707  0.0014
33303SOL    HW1 2864   7.815   8.302   3.899  1.3258  2.2401  0.4276
33303SOL    HW2 2865   7.890   8.172   3.921 -0.8648  0.5321 -1.6477
33304SOL     OW 2866   3.824   1.754   2.589  0.6436  0.4539 -0.7226
33304SOL    HW1 2867   3.739   1.791   2.564  0.3864 -0.2419 -0.9092
33304SOL    HW2 2868   3.877   1.830   2.614 -0.0101  0.9000 -0.6673
33305SOL     OW 2869   0.762   0.033   2.256  0.8047 -0.5944  0.5411
33305SOL    HW1 2870   0.843   0.014   2.209  0.8094  0.5847  0.0392
33305SOL    HW2 2871   0.768   0.127   2.277 -0.9625 -0.1905 -0.5932
33306SOL     OW 2872   9.524   8.488   8.828  0.2534 -0.7822  0.3466
33306SOL    HW1 2873   9.518   8.561   8.891 -2.9751 -1.3510  0.8674
33306SOL    HW2 2874   9.554   8.414   8.880  2.4890 -0.1713  0.0424
33307SOL     OW 2875   0.995   5.280   1.886 -0.3272  0.2063 -0.2670
33307SOL    HW1 2876   0.942   5.357   1.864  2.3226  2.4144  0.4358
33307SOL    HW2 2877   1.043   5.306   1.965  2.3248 -1.2740 -1.2573
33308SOL     OW 2878  10.051   4.536   8.131  0.1160  0.0190  0.1928
33308SOL    HW1 2879   9.978   4.481   8.158 -0.3459  1.2377  1.5824
33308SOL    HW2 2880  10.048   4.611   8.191  0.9192  1.3923 -1.4107
33309SOL     OW 2881   9.454   3.640   9.221  0.5260 -0.2074  0.0441
33309SOL    HW1 2882   9.440   3.569   9.157 -0.4665 -1.0176  1.1152
33309SOL    HW2 2883   9.368   3.678   9.234  1.0669  1.2959 -0.5759
33310SOL     OW 2884   3.168   1.754   7.112  0.5388  0.7915 -0.2173
33310SOL    HW1 2885   3.240   1.783   7.168  1.1606  0.5733 -0.8798
33310SOL    HW2 2886   3.186   1.661   7.098  0.3612  0.8328 -0.7292
33311SOL     OW 2887   0.024   4.673   0.486  0.4337  0.0163  0.1187
33311SOL    HW1 2888   0.046   4.620   0.409 -0.0295 -0.3135  0.2079
33311SOL    HW2 2889  -0.043   4.622   0.532 -0.2745  0.8286  0.0233
33312SOL     OW 2890   2.718   0.737   4.201 -0.0957  0.3599  0.3280
33312SOL    HW1 2891   2.628   0.759   4.176  0.4478 -0.6172 -3.0447
33312SOL    HW2 2892   2.711   0.649   4.240 -0.6948  0.6954  0.9843
33313SOL     OW 2893   3.554   8.254   2.145 -0.1878 -0.2650 -0.5660
33313SOL    HW1 2894   3.490   8.231   2.077 -2.5523 -1.4622  1.8545
33313SOL    HW2 2895   3.515   8.328   2.190 -0.5333 -1.7442  1.7033
33314SOL     OW 2896   2.730   7.066   0.901 -0.2199  0.1464  0.4311
33314SOL    HW1 2897   2.752   7.112   0.982  2.7688 -0.6608  0.2087
33314SOL    HW2 2898   2.692   6.983   0.930 -0.9807  0.6634  0.9432
33315SOL     OW 2899   7.518   2.171   9.453 -0.3018  0.7388 -0.4553
33315SOL    HW1 2900   7.431   2.138   9.475 -0.2862  1.1568  0.2828
33315SOL    HW2 2901   7.576   2.097   9.468 -0.3053  0.9786  0.9055
33316SOL     OW 2902   8.641   7.720   0.783 -0.2023  0.2247  0.1548
33316SOL    HW1 2903   8.648   7.703   0.877  1.0200  1.2426  0.2654
33316SOL    HW2 2904   8.661   7.636   0.742  1.9618  0.4031  0.7573
33317SOL     OW 2905   3.164   8.437   8.253 -0.2253 -0.1482 -0.3418
33317SOL    HW1 2906   3.093   8.481   8.205 -0.8330  0.6928  1.2582
33317SOL    HW2 2907   3.187   8.499   8.323  0.1348 -1.6319  0.8893
33318SOL     OW 2908   2.084   5.010   9.919  0.1508  0.2802  0.1744
33318SOL    HW1 2909   2.069   5.060   9.839  1.8008 -1.4474 -1.3199
33318SOL    HW2 2910   2.146   5.063   9.969 -1.1763  1.5524  0.5559
33319SOL     OW 2911   6.981   3.281   9.639 -0.6935 -0.2503 -0.1611
33319SOL    HW1 2912   6.975   3.356   9.580 -0.0142  0.0193  0.1080
33319SOL    HW2 2913   7.074   3.267   9.653 -0.8176 -0.8931  0.1193
33320SOL     OW 2914   5.676   4.207   0.202 -0.4986 -0.1125 -0.4343
33320SOL    HW1 2915   5.768   4.181   0.195  0.1694  1.8268  0.5480
33320SOL    HW2 2916   5.668   4.244   0.290 -2.4980 -1.1910 -0.1044
33321SOL     OW 2917   2.072   9.652  10.569 -0.1469  0.4055  0.7186
33321SOL    HW1 2918   2.088   9.723  10.508  0.0037 -0.6358 -0.4993
33321SOL    HW2 2919   2.065   9.694  10.655 -0.3837  1.8964 -0.0149
33322SOL     OW 2920   1.439   8.067   4.761 -0.4647 -0.1212  0.2825
33322SOL    HW1 2921   1.528   8.036   4.748 -0.0334  1.6315 -1.3739
33322SOL    HW2 2922   1.386   8.011   4.705 -0.6998 -2.1324  2.3630
33323SOL     OW 2923   3.806   5.099   4.413  0.2621 -0.3488 -0.8128
33323SOL    HW1 2924   3.825   5.151   4.335  2.0203  1.6384  0.8630
33323SOL    HW2 2925   3.891   5.071   4.446 -0.3405 -0.1118  1.0714
33324SOL     OW 2926   0.345   9.006   4.026 -0.0612 -0.0189 -0.0278
33324SOL    HW1 2927   0.384   9.038   4.108 -0.4499 -0.2150  0.2325
33324SOL    HW2 2928   0.407   8.939   3.995 -1.6371 -2.5581  1.9530
33325SOL     OW 2929   0.271   9.189   8.366 -0.0917  0.2787  0.5179
33325SOL    HW1 2930   0.218   9.194   8.445 -0.1053  0.4064  0.5017
33325SOL    HW2 2931   0.208   9.180   8.295 -0.1121  0.7930  0.4651
33326SOL     OW 2932   4.596   5.374   9.239  0.0246 -0.0452  0.3593
33326SOL    HW1 2933   4.649   5.311   9.190  3.8875  0.8945  2.9574
33326SOL    HW2 2934   4.553   5.426   9.171  0.9161 -2.0479 -1.8978
33327SOL     OW 2935   3.418   5.147   5.004 -0.2900 -0.3213  0.3102
33327SOL    HW1 2936   3.473   5.069   5.005  0.3529  0.0072 -2.1240
33327SOL    HW2 2937   3.452   5.202   5.074  1.8265 -0.5906 -0.4508
33328SOL     OW 2938   8.223   1.431   7.105 -0.1979  0.2631 -0.6325
33328SOL    HW1 2939   8.199   1.514   7.146 -2.4843  0.5488 -2.3223
33328SOL    HW2 2940   8.199   1.442   7.013  0.8253 -1.7769 -1.2019
33329SOL     OW 2941   1.679   4.963   1.100  0.4932 -0.5873  0.3070
33329SOL    HW1 2942   1.756   4.943   1.153  0.5531 -1.9344 -0.2519
33329SOL    HW2 2943   1.704   4.937   1.011 -0.5734 -0.9456  0.1005
33330SOL     OW 2944   2.692   0.673   2.204  0.5182 -0.5016  0.1913
33330SOL    HW1 2945   2.762   0.640   2.148 -0.0761 -0.5844 -0.5188
33330SOL    HW2 2946   2.726   0.755   2.240  1.5191 -1.2407  0.9793
33331SOL     OW 2947   8.415   9.262   4.047 -0.0660  0.2783  0.3099
33331SOL    HW1 2948   8.462   9.342   4.022  0.7719 -1.0209 -2.7067
33331SOL    HW2 2949   8.327   9.274   4.010  0.0647 -0.1914 -0.1565
33332SOL     OW 2950   1.508   4.398   5.488  0.0330 -0.5242 -0.0241
33332SOL    HW1 2951   1.538   4.326   5.544  3.7515 -1.0233 -2.3084
33332SOL    HW2 2952   1.452   4.355   5.422  0.2831 -0.9321  0.0235
33333SOL     OW 2953   9.003   5.842   1.966 -0.1908  0.0733  0.3592
33333SOL    HW1 2954   8.980   5.896   1.891  0.9681  0.6551  0.3916
33333SOL    HW2 2955   9.085   5.799   1.941 -0.2960 -0.4793  0.9207
33334SOL     OW 2956  10.483   5.737   8.621  0.3429 -0.4267  0.1735
33334SOL    HW1 2957  10.578   5.725   8.629  0.8484  1.3798 -1.8719
33334SOL    HW2 2958  10.470   5.829   8.643 -1.2342 -1.0688  2.1196
33335SOL     OW 2959   6.520   1.850   7.820 -0.3338 -0.1212 -0.2965
33335SOL    HW1 2960   6.614   1.835   7.817  0.1009  1.7459  1.6019
33335SOL    HW2 2961   6.511   1.944   7.838 -2.5897 -0.0110 -1.5714
33336SOL     OW 2962   7.240   1.572  10.225  0.6362 -0.3836  0.4795
33336SOL    HW1 2963   7.323   1.572  10.176  0.0716  1.8112 -0.5944
33336SOL    HW2 2964   7.257   1.627  10.301  0.4903 -0.8987  0.8893
33337SOL     OW 2965   0.403  10.495   4.094  0.0673 -0.7055  0.1065
33337SOL    HW1 2966   0.478  10.485   4.036  0.0676 -1.2049  0.1843
33337SOL    HW2 2967   0.440  10.528   4.176 -0.0819  1.1293 -0.5279
33338SOL     OW 2968   1.595   1.583   0.218  0.5299  0.1036  0.0074
33338SOL    HW1 2969   1.664   1.520   0.198  0.6983 -0.3360  1.8311
33338SOL    HW2 2970   1.515   1.531   0.225  0.4035  0.3028  0.0746
33339SOL     OW 2971   8.920   0.174   1.529 -0.6190 -0.0982 -0.0448
33339SOL    HW1 2972   8.966   0.222   1.598 -1.7922  0.7056  0.2069
33339SOL    HW2 2973   8.928   0.230   1.452 -0.2313 -0.4905 -0.2975
33340SOL     OW 2974   4.960   7.028   6.711 -0.0708  0.2617 -0.2828
33340SOL    HW1 2975   4.928   6.963   6.774 -0.6264  1.1074  0.3287
33340SOL    HW2 2976   4.910   7.107   6.730  0.8313  0.9797 -0.7792
33341SOL     OW 2977   4.497   5.425   4.445 -0.1840 -0.4489  0.1402
33341SOL    HW1 2978   4.462   5.444   4.358  0.5006  2.0052  0.3262
33341SOL    HW2 2979   4.443   5.478   4.504  0.0601 -1.2477  1.1000
33342SOL     OW 2980   1.550   3.597   7.917 -0.0495  0.2492  0.1740
33342SOL    HW1 2981   1.519   3.513   7.952  1.0077 -0.7214 -1.1323
33342SOL    HW2 2982   1.636   3.610   7.958 -0.4652  1.0272  0.8375
33343SOL     OW 2983   2.568   0.658   4.796 -0.4555  0.2100 -0.7321
33343SOL    HW1 2984   2.661   0.648   4.774  0.2148  2.1073  0.8947
33343SOL    HW2 2985   2.548   0.750   4.775 -1.7675  0.0130 -0.4244
33344SOL     OW 2986   2.330   1.059   8.745 -0.4584  0.0648  0.0396
33344SOL    HW1 2987   2.305   1.068   8.837  0.3328  2.1933  0.0948
33344SOL    HW2 2988   2.339   1.149   8.713  0.0151 -0.6291 -1.9280
33345SOL     OW 2989   9.267   8.638   8.840  0.2374  0.4773 -0.3768
33345SOL    HW1 2990   9.239   8.608   8.927 -1.6521  2.6703 -0.1310
33345SOL    HW2 2991   9.344   8.585   8.820  0.1191 -0.8114  2.1818
33346SOL     OW 2992  10.668   6.148   0.331  0.4020 -0.1635 -0.2421
33346SOL    HW1 2993  10.579   6.185   0.332 -0.0526 -1.1458  2.1496
33346SOL    HW2 2994  10.658   6.064   0.285 -0.2679 -0.9120  1.1819
33347SOL     OW 2995   2.370   5.115   7.949  0.0205 -0.2901 -1.1186
33347SOL    HW1 2996   2.398   5.103   7.859 -1.5169  1.7207 -1.9277
33347SOL    HW2 2997   2.297   5.177   7.944  0.5310  0.6771  1.5803
33348SOL     OW 2998   1.234   9.687   4.533 -0.1835  0.3236  0.3649
33348SOL    HW1 2999   1.260   9.687   4.625 -2.6437 -0.0574  1.1291
33348SOL    HW2 3000   1.158   9.628   4.529  0.7365 -0.8529 -2.2060
33349SOL     OW 3001   9.306   6.031   1.532  0.4265  0.4158 -0.1219
33349SOL    HW1 3002   9.306   5.937   1.519 -0.0583  0.0693  1.9808
33349SOL    HW2 3003   9.339   6.067   1.450 -1.5514 -1.4187 -1.8138
33350SOL     OW 3004   0.094   2.085  10.643  0.5515  0.3071 -0.7622
33350SOL    HW1 3005   0.080   1.993  10.622 -0.9034  0.1241  0.7932
33350SOL    HW2 3006   0.007   2.123  10.643  0.6535  0.7864  2.3591
33351SOL     OW 3007   0.864   9.696   5.506  0.8540 -0.2523  0.0870
33351SOL    HW1 3008   0.941   9.663   5.553  0.5269 -2.0415 -0.5917
33351SOL    HW2 3009   0.898   9.722   5.420  0.6681 -1.3431 -0.3282
33352SOL     OW 3010   2.174   2.712   2.812 -0.1345 -0.2978  0.5702
33352SOL    HW1 3011   2.137   2.763   2.740 -1.8487 -0.6201  1.1915
33352SOL    HW2 3012   2.263   2.692   2.783 -0.3122  0.7873 -0.8278
33353SOL     OW 3013   8.078   5.759   8.266  0.0154  0.5559  0.4110
33353SOL    HW1 3014   8.168   5.775   8.294 -0.5405  2.0856  1.4101
33353SOL    HW2 3015   8.064   5.666   8.284  1.7198  0.0162 -0.7832
33354SOL     OW 3016   9.391   3.407   4.477 -0.6672  0.5991 -0.2892
33354SOL    HW1 3017   9.370   3.418   4.569  0.0301  1.5462 -0.2210
33354SOL    HW2 3018   9.399   3.497   4.444  0.8055  0.2893 -0.8472
33355SOL     OW 3019   8.138   8.818   7.115  0.3125  0.0576  0.2089
33355SOL    HW1 3020   8.078   8.890   7.093  1.0090  0.4583 -0.4145
33355SOL    HW2 3021   8.104   8.744   7.065 -0.0745  0.0948  0.4082
33356SOL     OW 3022   5.640   2.779   1.857 -0.1019 -0.1068 -0.2138
33356SOL    HW1 3023   5.710   2.801   1.917 -1.2858 -1.4856  1.7987
33356SOL    HW2 3024   5.563   2.825   1.890 -0.5792 -0.0977 -1.2649
33357SOL     OW 3025  10.246   6.598   9.090  0.3648  0.3810 -0.0196
33357SOL    HW1 3026  10.299   6.556   9.023  2.0433  0.8678  0.9509
33357SOL    HW2 3027  10.309   6.643   9.147 -1.1212  1.3809  0.9203
33358SOL     OW 3028   9.731   9.183   2.684 -0.3726 -0.0231 -0.4947
33358SOL    HW1 3029   9.770   9.240   2.618  1.1354 -0.8220 -0.3377
33358SOL    HW2 3030   9.638   9.178   2.660 -0.0060  0.3362 -2.0881
33359SOL     OW 3031   1.424  10.599   7.249 -0.3792 -0.4809  0.0904
33359SOL    HW1 3032   1.454  10.658   7.318  0.2674 -1.1114  0.3601
33359SOL    HW2 3033   1.354  10.648   7.205  1.0782  1.0605 -0.6120
33360SOL     OW 3034   4.480   2.600   5.028 -0.3124  0.0957 -0.4362
33360SOL    HW1 3035   4.394   2.596   5.070  0.3608  0.3437  1.0235
33360SOL    HW2 3036   4.496   2.510   4.999  0.2879 -0.7449  2.1866
33361SOL     OW 3037   5.912   5.635   2.885  0.2985  0.0845  0.4985
33361SOL    HW1 3038   5.850   5.665   2.819 -0.6696 -1.7515  0.5226
33361SOL    HW2 3039   5.997   5.663   2.852 -0.4450  2.0169  0.1123
33362SOL     OW 3040   3.332   2.143  10.588 -0.3331 -0.6786 -0.2068
33362SOL    HW1 3041   3.332   2.137  10.683 -0.2055 -0.8323 -0.2172
33362SOL    HW2 3042   3.334   2.237  10.570 -1.2194 -0.6163 -0.0560
33363SOL     OW 3043   5.974   5.783   8.987 -0.2316  0.2553 -0.0833
33363SOL    HW1 3044   5.904   5.728   9.021 -0.6137 -1.0296 -2.6785
33363SOL    HW2 3045   6.030   5.722   8.938  0.6250  1.8360 -1.1423
33364SOL     OW 3046   2.734   9.520   4.438 -0.0627 -0.0183  0.5708
33364SOL    HW1 3047   2.756   9.487   4.525 -1.2622  1.4434  1.4723
33364SOL    HW2 3048   2.653   9.475   4.415 -0.8656  1.1114  1.1308
33365SOL     OW 3049   5.583   1.473   4.624  0.4221 -0.0249  0.3006
33365SOL    HW1 3050   5.538   1.409   4.569 -0.0418 -0.6344  1.3545
33365SOL    HW2 3051   5.676   1.456   4.610  0.2996 -0.8772  0.5055
33366SOL     OW 3052  10.489   5.165   2.185 -0.1877  0.1599  0.2770
33366SOL    HW1 3053  10.481   5.138   2.093 -2.2095 -0.5703  0.6264
33366SOL    HW2 3054  10.418   5.227   2.198  0.4778  0.7501  1.2136
33367SOL     OW 3055   3.028   3.811   8.665 -0.2951  0.3086 -1.0219
33367SOL    HW1 3056   3.103   3.763   8.631  0.3243  1.2797 -1.0720
33367SOL    HW2 3057   2.952   3.772   8.623  0.1201 -1.0913 -0.5168
33368SOL     OW 3058   9.563   2.444   9.622 -0.1577 -0.2988  0.4185
33368SOL    HW1 3059   9.618   2.504   9.672 -0.5736  0.1181  0.3820
33368SOL    HW2 3060   9.601   2.358   9.639  1.4065  0.1103 -0.7842
33369SOL     OW 3061   3.197   7.082   7.493 -0.2466 -0.1644  0.0493
33369SOL    HW1 3062   3.152   7.049   7.415 -0.9142  0.5275  0.1283
33369SOL    HW2 3063   3.131   7.081   7.562 -0.4265  1.6712 -0.0450
33370SOL     OW 3064   2.532   7.628   0.924  0.3278 -0.4618  0.4574
33370SOL    HW1 3065   2.574   7.555   0.879  0.0343 -0.7053  0.5780
33370SOL    HW2 3066   2.537   7.605   1.017  0.0355 -0.4372  0.4801
33371SOL     OW 3067   5.568   4.241   4.812  0.0104  0.6484  0.9052
33371SOL    HW1 3068   5.624   4.165   4.795  0.0398  1.0825 -1.3347
33371SOL    HW2 3069   5.629   4.313   4.827  0.2421  1.3343 -2.5066
33372SOL     OW 3070   8.398   0.097   7.944  0.0019 -0.1179  0.2494
33372SOL    HW1 3071   8.353   0.019   7.912 -0.7175  0.9228 -1.4406
33372SOL    HW2 3072   8.348   0.170   7.908  1.9398  1.1112 -0.1347
33373SOL     OW 3073   1.038   5.890   7.936  0.1530 -0.5149 -0.4504
33373SOL    HW1 3074   1.033   5.824   8.005  1.0483 -0.1785 -0.0564
33373SOL    HW2 3075   0.960   5.874   7.883  1.0448 -2.8077 -1.1873
33374SOL     OW 3076   1.246   6.634   9.801 -0.1603 -0.0056 -0.2503
33374SOL    HW1 3077   1.326   6.672   9.837 -0.1184 -0.0868 -0.2581
33374SOL    HW2 3078   1.236   6.674   9.715 -1.5091  1.9800  0.7487
33375SOL     OW 3079   8.191   5.344   5.956 -0.4591  0.2222 -0.3176
33375SOL    HW1 3080   8.139   5.266   5.974 -0.3990 -0.3257 -2.3453
33375SOL    HW2 3081   8.151   5.383   5.879  0.4404  1.3734 -0.2301
33376SOL     OW 3082   3.532   5.286   1.866 -0.2700  0.2151 -0.3015
33376SOL    HW1 3083   3.561   5.266   1.955 -1.3874  0.2712  0.0912
33376SOL    HW2 3084   3.487   5.207   1.838 -1.0992  0.6772 -0.2993
33377SOL     OW 3085   1.678   8.523   1.011 -0.3928  0.9817 -0.5446
33377SOL    HW1 3086   1.736   8.503   1.085 -3.0837 -2.2311  1.0142
33377SOL    HW2 3087   1.731   8.505   0.933  1.4424  0.7439  0.6968
33378SOL     OW 3088   0.130   9.621   8.576 -0.0977 -0.6487  0.0069
33378SOL    HW1 3089   0.062   9.610   8.642 -0.1523 -1.8486 -0.2155
33378SOL    HW2 3090   0.085   9.609   8.492  0.4459 -1.9771 -0.1244
33379SOL     OW 3091   3.503   3.828   6.528  0.3588  0.3832  0.0974
33379SOL    HW1 3092   3.425   3.796   6.573  1.9806 -1.1400  1.9920
33379SOL    HW2 3093   3.479   3.829   6.435 -1.5922 -0.9739  0.5359
33380SOL     OW 3094   3.432   2.999  10.532 -0.2760 -0.0716 -0.3995
33380SOL    HW1 3095   3.384   2.944  10.594  0.0407  0.0902 -0.0045
33380SOL    HW2 3096   3.475   3.065  10.587 -0.3613  0.3499 -0.8347
33381SOL     OW 3097   6.667   9.295   9.232  0.6217 -0.2426 -0.5978
33381SOL    HW1 3098   6.703   9.207   9.220 -4.2120 -2.4152 -1.6279
33381SOL    HW2 3099   6.640   9.322   9.144 -1.1500  0.6568  0.1687
33382SOL     OW 3100   2.452   5.261   4.204  0.8150  0.0731  0.0731
33382SOL    HW1 3101   2.367   5.235   4.168  0.7368  0.6200 -0.1534
33382SOL    HW2 3102   2.511   5.261   4.129  0.6170  1.3652 -0.1132
33383SOL     OW 3103  10.105   7.709   3.071 -0.1602 -0.1189  0.2577
33383SOL    HW1 3104  10.034   7.651   3.041 -0.4925 -0.4480  1.6259
33383SOL    HW2 3105  10.127   7.761   2.994 -1.9652  0.0535 -0.1834
33384SOL     OW 3106   3.993   6.188   6.707  0.5419  0.0833 -0.5372
33384SOL    HW1 3107   3.947   6.160   6.627  0.8639 -0.9284 -0.3762
33384SOL    HW2 3108   4.077   6.220   6.676 -0.2659  2.0650 -0.8480
33385SOL     OW 3109   3.609   0.312   7.970  0.2523  0.2813 -0.1070
33385SOL    HW1 3110   3.553   0.388   7.985  0.1891 -0.2462  3.0450
33385SOL    HW2 3111   3.573   0.270   7.892 -3.5305  0.2163  1.4521
33386SOL     OW 3112   4.408   2.324   6.066  0.1698  0.0067 -0.1712
33386SOL    HW1 3113   4.459   2.381   6.007  0.1352  0.4086  0.1847
33386SOL    HW2 3114   4.317   2.339   6.042 -0.0112  1.8341  1.4144
33387SOL     OW 3115   3.319   6.235   9.481  0.4775  0.3134  0.1476
33387SOL    HW1 3116   3.252   6.283   9.528  0.2731 -0.9827  1.2531
33387SOL    HW2 3117   3.350   6.295   9.413 -2.2109  0.7329 -0.8167
33388SOL     OW 3118   5.981   8.218   6.888  0.4775  0.2237  0.0575
33388SOL    HW1 3119   5.950   8.308   6.897  0.2250 -0.0045  1.7907
33388SOL    HW2 3120   5.934   8.184   6.812 -0.1593  1.2448 -0.0206
33389SOL     OW 3121   4.589   9.874   6.382 -0.0655  0.1450 -0.3627
33389SOL    HW1 3122   4.617   9.800   6.328 -2.4240 -0.8844 -0.3192
33389SOL    HW2 3123   4.630   9.858   6.467 -0.3687 -1.0385 -0.4103
33390SOL     OW 3124   8.418   2.535   2.568  0.0896 -0.1807  0.0014
33390SOL    HW1 3125   8.452   2.445   2.559 -1.7075 -0.7956 -1.0426
33390SOL    HW2 3126   8.325   2.528   2.548 -0.1306  1.9120  0.0689
33391SOL     OW 3127   6.157   4.973   0.159 -0.1786 -0.2042 -0.9061
33391SOL    HW1 3128   6.225   4.917   0.121  1.3525 -0.0219  1.3584
33391SOL    HW2 3129   6.161   5.053   0.107  1.8290  0.0344 -0.4903
33392SOL     OW 3130  10.047   9.235  10.668  0.4581  0.4589  0.0388
33392SOL    HW1 3131  10.126   9.237  10.613 -0.1435 -1.2526 -0.9579
33392SOL    HW2 3132  10.081   9.230  10.757  1.4905  0.0811 -0.3519
33393SOL     OW 3133   6.330   9.861   7.877  0.1032  1.0005 -0.7974
33393SOL    HW1 3134   6.299   9.913   7.803  0.9081 -0.0793 -1.9372
33393SOL    HW2 3135   6.252   9.817   7.911 -0.3404  1.8358 -0.7146
33394SOL     OW 3136   5.412   8.234   7.240  0.3702 -0.0801  0.3995
33394SOL    HW1 3137   5.367   8.149   7.232  0.6934 -0.4996  2.3480
33394SOL    HW2 3138   5.493   8.223   7.191  0.8479 -1.2626  1.3934
33395SOL     OW 3139   8.274   1.956   6.320 -1.0214  0.1343  0.2387
33395SOL    HW1 3140   8.353   1.998   6.354 -0.9497  0.2286 -0.0475
33395SOL    HW2 3141   8.219   1.944   6.398 -0.3424 -0.7992  0.6067
33396SOL     OW 3142   5.850   7.576   8.747 -0.4794 -0.3639 -0.2457
33396SOL    HW1 3143   5.843   7.601   8.839 -0.6898 -0.0771 -0.3350
33396SOL    HW2 3144   5.854   7.481   8.748  0.9863 -0.3211  0.1456
33397SOL     OW 3145   7.759   2.455   5.145 -0.0898 -0.0454 -0.5712
33397SOL    HW1 3146   7.675   2.413   5.129  0.6448 -0.7511 -2.8610
33397SOL    HW2 3147   7.775   2.441   5.238 -2.1399 -0.5227 -0.2349
33398SOL     OW 3148   8.958  10.652   1.358 -0.4355 -0.1748  0.9119
33398SOL    HW1 3149   8.933  10.717   1.424 -0.2620  0.9073 -0.0577
33398SOL    HW2 3150   9.018  10.699   1.300 -0.1969 -1.2503  0.2708
33399SOL     OW 3151   1.361   0.257   2.561 -0.0902  0.1051  0.0473
33399SOL    HW1 3152   1.439   0.203   2.573 -0.1732  0.0627  0.4092
33399SOL    HW2 3153   1.291   0.208   2.603  0.1266  1.2130  1.8056
33400SOL     OW 3154   0.822   9.383   8.153 -0.0417  0.4312  1.0078
33400SOL    HW1 3155   0.898   9.334   8.122 -0.3006 -0.3373  1.5482
33400SOL    HW2 3156   0.746   9.337   8.116 -0.2637  1.1211  0.5663
33401SOL     OW 3157   1.460   5.975   7.865  0.0170 -0.2500  0.1446
33401SOL    HW1 3158   1.509   6.028   7.802 -1.4573  0.7919 -0.1510
33401SOL    HW2 3159   1.368   5.986   7.840 -0.4319 -1.7462  1.0163
33402SOL     OW 3160   0.727   7.025   1.301 -0.4174  0.1576  0.0229
33402SOL    HW1 3161   0.779   7.073   1.366  0.0168  0.4302 -0.5148
33402SOL    HW2 3162   0.639   7.024   1.337 -0.4850  1.5436 -0.0455
33403SOL     OW 3163  10.516   0.104   9.446  0.1051  0.1994  0.3894
33403SOL    HW1 3164  10.522   0.175   9.383 -2.1300  1.3553  1.3524
33403SOL    HW2 3165  10.504   0.025   9.393  0.0096  0.8919 -0.6492
33404SOL     OW 3166   9.695   8.362   6.676  0.3117 -0.0138  0.5454
33404SOL    HW1 3167   9.731   8.365   6.764  1.1902  1.7535  0.1749
33404SOL    HW2 3168   9.634   8.436   6.672  2.4898  1.8702 -1.1410
33405SOL     OW 3169   9.099   1.894   3.531  0.5753 -0.1668 -0.2400
33405SOL    HW1 3170   9.037   1.934   3.592  0.3300  0.8843 -1.1402
33405SOL    HW2 3171   9.154   1.838   3.586  0.3788  0.7514  0.9369
33406SOL     OW 3172   4.008   4.552   8.753 -0.6322  0.5779 -0.4626
33406SOL    HW1 3173   3.927   4.552   8.804 -0.1928  0.7894  0.2530
33406SOL    HW2 3174   4.051   4.635   8.776  0.5746 -0.2731  0.4471
33407SOL     OW 3175   9.339   4.983   2.144  1.1403 -0.6011  0.4887
33407SOL    HW1 3176   9.323   5.058   2.201  1.3043 -0.2737  0.1079
33407SOL    HW2 3177   9.384   4.919   2.200 -0.1825 -0.9636  1.1757
33408SOL     OW 3178   2.084   7.091   5.020 -0.0459  0.5211  0.0571
33408SOL    HW1 3179   2.074   6.998   5.043  0.4003 -0.3267 -2.7777
33408SOL    HW2 3180   2.176   7.110   5.039 -0.4746  0.8528  1.9909
33409SOL     OW 3181   6.884   5.164   7.804 -0.1022 -0.4348  0.0504
33409SOL    HW1 3182   6.941   5.088   7.794  0.8833  0.2451  0.3370
33409SOL    HW2 3183   6.863   5.189   7.714  0.1944 -0.6031 -0.0699
33410SOL     OW 3184  10.037   3.180   4.162 -1.0126 -0.5612  0.0309
33410SOL    HW1 3185  10.124   3.144   4.142 -0.4536  0.4331  0.6201
33410SOL    HW2 3186   9.978   3.132   4.103 -0.0946 -1.3614 -0.2707
33411SOL     OW 3187   9.462   1.333   0.535  0.0770 -0.4167  0.3915
33411SOL    HW1 3188   9.457   1.278   0.613  0.6134  0.9458  1.4223
33411SOL    HW2 3189   9.440   1.274   0.463 -0.9887 -1.5770  1.6114
33412SOL     OW 3190   5.472   3.990   1.632  0.0236 -0.2824 -0.0420
33412SOL    HW1 3191   5.435   3.971   1.545 -0.3957  0.5953 -0.0635
33412SOL    HW2 3192   5.397   3.986   1.691  0.2315 -0.4138  0.2160
33413SOL     OW 3193   8.693   6.879   1.996  0.1331 -0.1913  0.4520
33413SOL    HW1 3194   8.638   6.801   1.997 -1.6820  1.0169 -0.0878
33413SOL    HW2 3195   8.682   6.916   2.083 -0.3514  0.3230  0.1798
33414SOL     OW 3196   1.331   0.470   7.695 -0.0997  0.4209  0.2353
33414SOL    HW1 3197   1.344   0.514   7.611  0.3173  0.9930  0.5933
33414SOL    HW2 3198   1.405   0.409   7.703  0.0028  0.5553  0.3075
33415SOL     OW 3199   8.016   5.252   1.876  0.3436  0.2984 -0.3497
33415SOL    HW1 3200   8.031   5.160   1.896  1.4147  0.8656  1.6852
33415SOL    HW2 3201   8.022   5.258   1.781  1.0857 -1.5798 -0.4387
33416SOL     OW 3202   7.378   9.254   9.545 -0.6760 -0.1829 -0.3357
33416SOL    HW1 3203   7.369   9.255   9.450  1.6896  1.2434 -0.6109
33416SOL    HW2 3204   7.421   9.171   9.564 -0.7055 -0.2472 -0.5432
33417SOL     OW 3205   1.133   7.146   4.976  0.1808 -0.6107 -0.5668
33417SOL    HW1 3206   1.193   7.218   4.996  0.5515 -0.2945 -2.5731
33417SOL    HW2 3207   1.062   7.156   5.039  0.6097  1.0437 -0.2852
33418SOL     OW 3208   3.244   0.322   8.124  0.0724  0.2554  0.2126
33418SOL    HW1 3209   3.164   0.363   8.094 -0.4227  0.1922  1.3853
33418SOL    HW2 3210   3.310   0.345   8.058 -0.5506  1.6050  0.0406
33419SOL     OW 3211   4.438   2.538   9.557 -0.6726  0.3125 -0.1895
33419SOL    HW1 3212   4.464   2.623   9.520  0.3224 -0.1046 -0.4870
33419SOL    HW2 3213   4.357   2.516   9.511  1.2584 -0.9139 -3.3991
33420SOL     OW 3214   0.174   8.872   2.251  0.2655  0.0922 -0.1941
33420SOL    HW1 3215   0.161   8.871   2.346 -0.1913  0.6805 -0.2498
33420SOL    HW2 3216   0.090   8.845   2.214  0.4219 -0.0701 -0.4380
33421SOL     OW 3217   5.095  10.632   8.965 -0.3100 -0.3671 -0.6502
33421SOL    HW1 3218   5.055  10.705   8.918 -1.1787  0.5131  1.3657
33421SOL    HW2 3219   5.173  10.669   9.006  0.6787 -1.2293 -1.6642
33422SOL     OW 3220   3.192   6.530   9.036 -0.0999 -0.7211 -0.2817
33422SOL    HW1 3221   3.217   6.577   9.115 -2.3818  1.6590 -0.8428
33422SOL    HW2 3222   3.212   6.438   9.055  0.9685 -0.0221  2.3563
33423SOL     OW 3223   3.943   2.331   5.133 -0.0367  0.2271  0.0592
33423SOL    HW1 3224   3.885   2.399   5.100 -1.0428 -1.0804 -0.9412
33423SOL    HW2 3225   3.957   2.273   5.059  2.1743  0.2144  0.4135
33424SOL     OW 3226   6.419   6.431   3.660 -0.1488  0.0341 -0.2077
33424SOL    HW1 3227   6.429   6.478   3.743 -1.0824  0.9039 -0.5615
33424SOL    HW2 3228   6.471   6.481   3.598  1.0865 -0.9924 -0.0300
33425SOL     OW 3229   3.311   0.611   2.764  0.9055  0.1245  0.1732
33425SOL    HW1 3230   3.399   0.609   2.801  1.3755 -0.2975 -0.9269
33425SOL    HW2 3231   3.314   0.549   2.691 -0.3313  0.0374  0.1793
33426SOL     OW 3232   7.975   6.443   1.604 -0.4815  0.2644  0.3179
33426SOL    HW1 3233   8.038   6.513   1.624 -0.3218  0.2009  0.0446
33426SOL    HW2 3234   7.923   6.434   1.684 -0.2074  0.3840  0.5117
33427SOL     OW 3235   2.543   7.945   9.328  0.3082 -0.0033  0.0979
33427SOL    HW1 3236   2.602   7.976   9.259  0.4735  0.6174  0.5072
33427SOL    HW2 3237   2.512   7.860   9.297 -0.0562  0.5072 -0.9973
33428SOL     OW 3238   7.425   9.132   1.402 -0.1154 -0.1326  0.1977
33428SOL    HW1 3239   7.451   9.040   1.402  0.2303 -0.0424 -0.3751
33428SOL    HW2 3240   7.330   9.130   1.388 -0.1256 -0.4058  0.3012
33429SOL     OW 3241   9.231   4.727   2.491 -0.6115  0.1745 -0.0098
33429SOL    HW1 3242   9.174   4.691   2.559 -2.1530  1.0855 -0.7624
33429SOL    HW2 3243   9.174   4.737   2.415  1.0523 -0.7746 -1.4657
33430SOL     OW 3244   3.622   0.161   1.525 -0.4366 -0.0191  0.4629
33430SOL    HW1 3245   3.583   0.160   1.438 -1.6584  0.9833  0.9603
33430SOL    HW2 3246   3.559   0.115   1.580  0.6309 -1.2026  0.7190
33431SOL     OW 3247   8.816   1.828   3.320 -0.8707 -0.6749  0.2220
33431SOL    HW1 3248   8.772   1.843   3.404 -0.5771 -0.0301  0.2667
33431SOL    HW2 3249   8.837   1.735   3.321  0.4776 -0.3999  1.5407
33432SOL     OW 3250   4.882   2.359   8.089 -0.2927  0.3923  0.6577
33432SOL    HW1 3251   4.792   2.376   8.060 -0.0459  1.9660  0.7197
33432SOL    HW2 3252   4.937   2.383   8.014  0.0767 -0.8182  0.5250
33433SOL     OW 3253   7.086   2.269   8.206  0.1139 -0.1807 -0.2794
33433SOL    HW1 3254   7.005   2.265   8.156 -0.1235  0.1765  0.0729
33433SOL    HW2 3255   7.148   2.217   8.155 -0.8946 -2.2339  0.4957
33434SOL     OW 3256   9.966   0.054   2.755  0.1673 -1.0941 -0.1180
33434SOL    HW1 3257   9.942   0.122   2.692  1.0399  0.5419  1.2347
33434SOL    HW2 3258  10.023  -0.005   2.705  0.7993  0.1211 -0.8949
33435SOL     OW 3259   6.292   1.426   9.511 -0.3887  0.0730 -0.2286
33435SOL    HW1 3260   6.311   1.436   9.604 -2.5076  1.6504  0.0993
33435SOL    HW2 3261   6.328   1.505   9.471 -0.9143  0.1974 -0.4704
33436SOL     OW 3262   5.034   8.893   6.169 -0.1160  0.2005 -0.2373
33436SOL    HW1 3263   5.060   8.806   6.139  0.4290  0.2685  0.0244
33436SOL    HW2 3264   5.114   8.946   6.164 -0.7412  1.0653 -1.7118
33437SOL     OW 3265   6.944   4.177   9.441 -0.0827  0.5293  0.0815
33437SOL    HW1 3266   6.864   4.167   9.391 -0.5193 -0.5696  0.9673
33437SOL    HW2 3267   6.989   4.093   9.431  0.2604  0.6258  0.7847
33438SOL     OW 3268   7.569   4.130   0.470 -0.8282 -0.0019 -0.3858
33438SOL    HW1 3269   7.515   4.138   0.549 -0.6890 -2.0396 -0.0166
33438SOL    HW2 3270   7.509   4.094   0.404 -0.3374 -0.8097 -0.4150
33439SOL     OW 3271   1.832   7.667   6.710 -0.1159  0.0806 -0.0646
33439SOL    HW1 3272   1.836   7.760   6.733 -0.7595  0.0599  0.1729
33439SOL    HW2 3273   1.900   7.626   6.764 -0.0277  0.3729  0.0493
33440SOL     OW 3274   3.989   2.730   0.353 -0.2279  0.4857 -0.2140
33440SOL    HW1 3275   4.041   2.773   0.284 -0.4574 -0.9654 -1.3476
33440SOL    HW2 3276   3.898   2.747   0.328 -0.3946 -2.0227 -1.7287
33441SOL     OW 3277   0.372   9.712   8.491  0.1915 -0.1109 -0.3519
33441SOL    HW1 3278   0.290   9.681   8.528 -0.3408  0.5861 -0.9093
33441SOL    HW2 3279   0.389   9.795   8.536  0.4278 -0.1025 -0.4552
33442SOL     OW 3280   0.135   6.194   2.524  0.1437  0.0116 -0.8034
33442SOL    HW1 3281   0.110   6.285   2.537  0.9944  0.1019  0.3460
33442SOL    HW2 3282   0.125   6.180   2.429  2.1411  1.9744 -1.3983
33443SOL     OW 3283  10.657   2.677   0.167  0.0087 -0.0695 -0.0561
33443SOL    HW1 3284  10.741   2.643   0.197  1.1348  1.7829 -0.8920
33443SOL    HW2 3285  10.599   2.601   0.163  1.0634 -1.1105  2.3687
33444SOL     OW 3286   3.050   4.884   5.566 -0.1422  0.3309 -0.1297
33444SOL    HW1 3287   3.044   4.819   5.497 -1.7841  0.5545 -0.2449
33444SOL    HW2 3288   3.014   4.964   5.526  0.6178  0.9534  0.4113
33445SOL     OW 3289   5.554   3.255   1.501  0.5488  0.1654  0.2636
33445SOL    HW1 3290   5.613   3.185   1.530  0.6427  1.6704  4.3866
33445SOL    HW2 3291   5.603   3.299   1.431  1.8470 -1.9385 -0.2475
33446SOL     OW 3292  10.549   0.529  10.633 -0.7869 -0.5863 -0.2207
33446SOL    HW1 3293  10.509   0.443  10.639  0.4929 -1.1249  1.2849
33446SOL    HW2 3294  10.556   0.559  10.724  3.2049 -1.0673 -0.2046
33447SOL     OW 3295   7.260   4.055   9.896 -0.0341  0.3695 -0.1291
33447SOL    HW1 3296   7.198   4.074   9.825 -1.3288  1.1922  1.1754
33447SOL    HW2 3297   7.297   4.141   9.918 -1.8662  0.6598  2.1442
33448SOL     OW 3298   0.496   8.035   8.609 -0.0540  0.3454 -0.5492
33448SOL    HW1 3299   0.506   7.996   8.522  2.1176 -1.0451  0.2499
33448SOL    HW2 3300   0.442   7.972   8.657  0.2163  0.2268 -0.3966
33449SOL     OW 3301   3.476   1.241   1.577 -0.0818  0.4560 -0.2271
33449SOL    HW1 3302   3.431   1.207   1.500 -0.2791 -0.7596  0.4004
33449SOL    HW2 3303   3.569   1.225   1.560 -0.0164  1.3293 -0.7416
33450SOL     OW 3304  10.678   8.583   5.992 -0.3398 -0.5173 -0.4213
33450SOL    HW1 3305  10.603   8.527   6.012 -0.6692  0.1176  0.1610
33450SOL    HW2 3306  10.721   8.598   6.076  0.2069 -0.5342 -0.6878
33451SOL     OW 3307   9.358   0.985   8.544 -0.1414 -0.4427  0.2145
33451SOL    HW1 3308   9.338   0.892   8.553  0.5357 -0.5524  0.6162
33451SOL    HW2 3309   9.273   1.026   8.526 -0.4669 -1.1129  0.2025
33452SOL     OW 3310   2.470   4.333   6.238 -0.1595  0.9530  0.4682
33452SOL    HW1 3311   2.461   4.248   6.279  1.6215 -0.4750 -1.8313
33452SOL    HW2 3312   2.538   4.378   6.289 -0.9245  0.9508  1.5283
33453SOL     OW 3313  10.262   3.464   5.428 -0.1438  0.4442  0.5784
33453SOL    HW1 3314  10.207   3.389   5.447 -0.5161  0.3475 -0.7441
33453SOL    HW2 3315  10.211   3.540   5.456 -0.7336  0.3175 -0.1222
33454SOL     OW 3316   9.403   6.684   8.885 -0.1289  0.5243  0.0156
33454SOL    HW1 3317   9.367   6.679   8.974  0.1530  0.5822  0.1316
33454SOL    HW2 3318   9.492   6.652   8.893  0.9602  3.3138  0.3401
33455SOL     OW 3319   0.140   7.858   0.651 -0.3949 -0.4303 -0.1906
33455SOL    HW1 3320   0.177   7.944   0.629 -1.4739  0.5736  1.7227
33455SOL    HW2 3321   0.061   7.852   0.597 -0.5731  0.0031  0.0153
33456SOL     OW 3322   1.896   8.362   0.467  0.3055  0.4866 -0.4361
33456SOL    HW1 3323   1.881   8.302   0.541  0.5269  0.0036 -0.7823
33456SOL    HW2 3324   1.808   8.390   0.441  0.1129 -0.6007 -1.0204
33457SOL     OW 3325   9.733   0.188   4.888 -0.0206  0.1374 -0.0428
33457SOL    HW1 3326   9.670   0.117   4.899 -1.4950  1.2570 -0.9335
33457SOL    HW2 3327   9.774   0.197   4.974  0.7976 -2.2812 -0.1073
33458SOL     OW 3328   8.187   6.516  10.043 -0.1923  0.6619  0.0878
33458SOL    HW1 3329   8.280   6.515  10.067  0.1865  0.0657 -1.3045
33458SOL    HW2 3330   8.160   6.424  10.050 -1.1993  1.0584  2.2524
33459SOL     OW 3331   4.522   3.006  10.093 -0.4365 -0.4808 -0.0544
33459SOL    HW1 3332   4.590   3.068  10.066 -0.5955  0.4601  1.5430
33459SOL    HW2 3333   4.471   2.990  10.014  1.6980 -1.3419 -1.3582
33460SOL     OW 3334   2.399   5.441   2.519  0.2502 -0.3267 -0.5817
33460SOL    HW1 3335   2.320   5.480   2.483  0.1246  1.7837  1.6955
33460SOL    HW2 3336   2.390   5.452   2.614  1.6567 -3.3003  0.0295
33461SOL     OW 3337   8.251   3.857   6.677  0.1992  0.4305  0.4877
33461SOL    HW1 3338   8.242   3.774   6.725 -0.4883  0.1434 -0.1207
33461SOL    HW2 3339   8.305   3.912   6.734  0.6209 -0.4159  0.9253
33462SOL     OW 3340   4.738   2.787   3.573  0.0131  0.1503 -0.4666
33462SOL    HW1 3341   4.653   2.791   3.616  0.4841 -0.5971  0.5833
33462SOL    HW2 3342   4.798   2.754   3.640  1.1548  0.7260 -1.1570
33463SOL     OW 3343   8.595   8.867   9.117  0.1579 -0.1634  0.0333
33463SOL    HW1 3344   8.590   8.941   9.177  0.7367  0.3709 -0.5586
33463SOL    HW2 3345   8.663   8.810   9.154  2.2979  1.3419 -1.3256
33464SOL     OW 3346   5.357   1.986   5.641  0.0283  0.7201  0.6998
33464SOL    HW1 3347   5.284   1.931   5.670 -1.2103  1.2368 -1.2763
33464SOL    HW2 3348   5.338   2.073   5.678 -0.4710  0.8891  0.0710
33465SOL     OW 3349   2.570   6.258   7.008  0.0517 -0.0711 -0.0489
33465SOL    HW1 3350   2.603   6.266   7.098 -2.6116  1.7109  0.8935
33465SOL    HW2 3351   2.623   6.319   6.957  0.1355  0.5857  0.8090
33466SOL     OW 3352   2.315   7.224   7.058 -0.4312  0.3347  0.2965
33466SOL    HW1 3353   2.324   7.133   7.027  0.1221 -0.4251  2.5237
33466SOL    HW2 3354   2.402   7.249   7.087 -0.4194  1.8900 -0.9315
33467SOL     OW 3355   2.615   9.346   3.384 -0.1825 -0.1935  0.6065
33467SOL    HW1 3356   2.658   9.261   3.370 -0.3913  0.0025 -1.4333
33467SOL    HW2 3357   2.688   9.408   3.392  0.1394  0.2657 -3.6267
33468SOL     OW 3358   9.914   8.237   4.865 -0.4623  0.0729  0.1459
33468SOL    HW1 3359   9.951   8.324   4.881  4.0956 -1.1603 -2.0343
33468SOL    HW2 3360   9.878   8.242   4.776 -2.0259  0.1254  0.7385
33469SOL     OW 3361   0.295  10.243   2.607 -0.9993  0.0868  0.1191
33469SOL    HW1 3362   0.356  10.289   2.548 -1.1147  0.4408  0.2728
33469SOL    HW2 3363   0.350  10.179   2.652 -0.8915 -0.1271 -0.3074
33470SOL     OW 3364   0.152   4.981   7.160  0.4669  0.0919 -0.9705
33470SOL    HW1 3365   0.062   4.952   7.174  0.0430  2.0487  0.9131
33470SOL    HW2 3366   0.185   5.001   7.248  1.7972  1.9803 -1.8216
33471SOL     OW 3367   3.867   7.173   0.179 -0.5789 -0.1871  0.4138
33471SOL    HW1 3368   3.962   7.165   0.175 -0.6866 -1.3978 -0.1270
33471SOL    HW2 3369   3.845   7.231   0.107 -0.3722 -1.3514 -0.6296
33472SOL     OW 3370   4.315   2.705  10.629  0.2506 -0.2736 -0.4876
33472SOL    HW1 3371   4.271   2.622  10.612  0.1854 -0.5465  0.8997
33472SOL    HW2 3372   4.391   2.705  10.570  1.2387 -2.1450  0.6882
33473SOL     OW 3373   1.661   7.918   9.630  0.2569  0.2324  0.4473
33473SOL    HW1 3374   1.679   7.999   9.678  1.8303  0.7252 -0.8648
33473SOL    HW2 3375   1.746   7.892   9.595  0.0590 -2.7976  1.9499
33474SOL     OW 3376   3.819   0.035   7.769  0.2479  0.2333 -0.8108
33474SOL    HW1 3377   3.746   0.090   7.740 -0.1874 -0.2260 -0.5820
33474SOL    HW2 3378   3.883   0.098   7.804 -0.3221  0.5819 -0.3807
33475SOL     OW 3379   9.631   2.721  10.686 -0.1685  0.3887 -0.2720
33475SOL    HW1 3380   9.572   2.774  10.633 -0.8210  1.3802  1.3706
33475SOL    HW2 3381   9.689   2.784  10.729 -0.2124 -0.2867  0.8293
33476SOL     OW 3382  10.075  10.103   2.700  0.5919  0.1497 -0.9617
33476SOL    HW1 3383  10.138  10.031   2.697 -1.4858 -1.7362 -2.3272
33476SOL    HW2 3384  10.010  10.075   2.764  1.1988  2.2160  0.6879
33477SOL     OW 3385   5.849   0.711   6.367 -0.2402 -0.4669 -0.6765
33477SOL    HW1 3386   5.874   0.801   6.346  0.5765 -0.6091 -0.3530
33477SOL    HW2 3387   5.893   0.658   6.301 -0.5881 -0.6487 -0.7673
33478SOL     OW 3388   4.248   6.634   3.668 -0.0558 -0.4319 -0.3346
33478SOL    HW1 3389   4.214   6.720   3.690 -0.2168 -0.0206 -2.0814
33478SOL    HW2 3390   4.194   6.604   3.595  1.5927 -0.9060 -1.4253
33479SOL     OW 3391   5.301   5.426   6.695 -0.5082 -0.0314  0.1021
33479SOL    HW1 3392   5.317   5.354   6.756 -3.2604  1.4732  2.9095
33479SOL    HW2 3393   5.231   5.394   6.637 -1.9376  0.3674  1.5345
33480SOL     OW 3394   4.316   9.017   0.751 -0.0743  0.1496  0.0056
33480SOL    HW1 3395   4.253   8.945   0.754  0.9402 -0.7473  0.6056
33480SOL    HW2 3396   4.274   9.084   0.697 -0.8284 -1.1061 -1.0186
33481SOL     OW 3397   8.294   5.730   8.888  0.2322 -0.0859 -0.7254
33481SOL    HW1 3398   8.358   5.672   8.846  0.1267 -0.0985 -0.8700
33481SOL    HW2 3399   8.296   5.810   8.835  0.3611  0.0369 -0.5390
33482SOL     OW 3400   2.813   2.780   8.563 -0.1264 -0.0872  0.0276
33482SOL    HW1 3401   2.864   2.716   8.515  0.0568  0.5150 -0.5954
33482SOL    HW2 3402   2.722   2.756   8.545 -0.0602  0.1449 -0.6473
33483SOL     OW 3403   8.943   5.143   1.049  0.1712 -0.0222 -0.4511
33483SOL    HW1 3404   8.940   5.225   0.999 -1.2418  0.9151  1.0181
33483SOL    HW2 3405   8.985   5.168   1.132  0.2431 -0.9290 -0.2108
33484SOL     OW 3406   0.805  10.687   1.407 -0.1684  0.7405 -0.0893
33484SOL    HW1 3407   0.746  10.657   1.476  0.2285  1.5704  0.6182
33484SOL    HW2 3408   0.860  10.753   1.448  2.4456 -1.1696 -0.2488
33485SOL     OW 3409   2.100   9.249   2.163 -0.2372  0.4623  0.2432
33485SOL    HW1 3410   2.013   9.248   2.202 -0.4570  0.6296 -0.2307
33485SOL    HW2 3411   2.157   9.287   2.230 -0.5640  0.5201  0.4861
33486SOL     OW 3412   2.850   3.459   1.564  0.2093 -0.7483  0.6023
33486SOL    HW1 3413   2.822   3.542   1.526 -0.4133 -1.4775 -0.5909
33486SOL    HW2 3414   2.936   3.442   1.526 -0.6379 -1.7342 -0.9583
33487SOL     OW 3415   0.336   8.012   5.033 -0.3736  0.5635  0.0571
33487SOL    HW1 3416   0.388   7.991   4.956  0.9976  0.5012  0.9659
33487SOL    HW2 3417   0.276   7.938   5.043 -0.1609  0.2959 -0.6036
33488SOL     OW 3418   3.753   4.276   3.508  0.3007 -0.0058 -0.2309
33488SOL    HW1 3419   3.660   4.297   3.513  0.5134  0.9187 -0.0695
33488SOL    HW2 3420   3.774   4.241   3.595  0.3077  0.6407  0.0307
33489SOL     OW 3421   5.005   6.415   7.879 -0.5554 -0.1726  0.3011
33489SOL    HW1 3422   5.061   6.463   7.818  0.1131  0.3662  1.3106
33489SOL    HW2 3423   4.958   6.352   7.825  1.8781 -1.4693 -0.4526
33490SOL     OW 3424   1.045   7.691   2.239 -0.1241  0.8886 -0.5079
33490SOL    HW1 3425   1.141   7.693   2.237 -0.0856  0.0693  0.0940
33490SOL    HW2 3426   1.021   7.621   2.178 -0.2938  0.3985  0.1122
33491SOL     OW 3427   8.551   0.545   4.776  0.7100 -0.2752 -0.0917
33491SOL    HW1 3428   8.533   0.607   4.705  1.2258 -0.0376 -0.0189
33491SOL    HW2 3429   8.558   0.460   4.732 -0.7844 -0.4240 -0.1002
33492SOL     OW 3430   3.348   2.924   1.207 -0.1868  0.1158 -0.1591
33492SOL    HW1 3431   3.301   2.896   1.128 -0.0785 -1.0591  0.1754
33492SOL    HW2 3432   3.285   2.912   1.278  0.8120 -2.2001  0.4015
33493SOL     OW 3433   7.286   3.912   6.198  0.2163  0.0995 -0.6101
33493SOL    HW1 3434   7.236   3.894   6.118  1.8457 -0.6709 -1.5032
33493SOL    HW2 3435   7.236   3.870   6.268  0.3556 -1.9552 -1.6893
33494SOL     OW 3436   7.058   5.168   8.917  0.0878 -0.3001 -0.1082
33494SOL    HW1 3437   7.127   5.125   8.866 -1.4532 -2.2216 -0.6674
33494SOL    HW2 3438   7.006   5.215   8.852  1.1075  1.5978  0.3743
33495SOL     OW 3439   9.581  10.302  10.586  0.1760 -0.3550  0.1087
33495SOL    HW1 3440   9.565  10.394  10.607 -1.1025  0.0046 -2.1045
33495SOL    HW2 3441   9.639  10.271  10.656 -1.0457  1.5323  2.0882
33496SOL     OW 3442   6.155   4.045   4.429  0.3604 -0.4009 -0.2820
33496SOL    HW1 3443   6.246   4.036   4.400  0.2406  1.4822 -1.4247
33496SOL    HW2 3444   6.160   4.053   4.524  1.2912 -1.1305 -0.2577
33497SOL     OW 3445   6.992   6.328   5.421  0.5959  0.1187  0.1706
33497SOL    HW1 3446   6.950   6.268   5.360 -0.0156  0.5034  0.1998
33497SOL    HW2 3447   7.085   6.312   5.412  0.4929  0.0159 -0.7064
33498SOL     OW 3448   0.894   1.883   3.350  0.5723 -0.3344 -0.5626
33498SOL    HW1 3449   0.955   1.869   3.422  0.6783  0.9668 -0.3644
33498SOL    HW2 3450   0.826   1.817   3.363  0.6139 -0.1535  0.7234
33499SOL     OW 3451   0.365   5.361   5.795 -0.1978 -0.5105  0.8548
33499SOL    HW1 3452   0.284   5.320   5.827 -0.5603  0.6110  1.4364
33499SOL    HW2 3453   0.432   5.333   5.857 -0.3508 -0.5684  0.9942
33500SOL     OW 3454   8.062   7.597   6.639  0.0999 -0.0612  0.4435
33500SOL    HW1 3455   8.019   7.542   6.574 -0.0909 -0.5924  1.0098
33500SOL    HW2 3456   7.999   7.667   6.656  0.2772  0.2491 -0.1625
33501SOL     OW 3457   7.166   2.734   7.296  0.5376  0.6670 -0.1319
33501SOL    HW1 3458   7.093   2.791   7.320  0.3520  0.0240  0.8871
33501SOL    HW2 3459   7.127   2.673   7.232  0.5243  1.1524 -0.5891
33502SOL     OW 3460   3.303   5.479   5.891  0.0214 -0.3097  0.3534
33502SOL    HW1 3461   3.396   5.498   5.896  0.2804 -1.4813  0.1476
33502SOL    HW2 3462   3.288   5.457   5.799 -0.6901  0.9719  0.1338
33503SOL     OW 3463   0.430   5.245   2.640 -0.4706 -0.3698  0.3051
33503SOL    HW1 3464   0.379   5.202   2.708 -0.7367 -0.9096 -0.2243
33503SOL    HW2 3465   0.429   5.338   2.664 -2.3189 -0.2553 -0.0672
33504SOL     OW 3466   9.713   5.416   2.275  0.1157  0.2477 -0.1629
33504SOL    HW1 3467   9.769   5.372   2.211 -2.1251 -0.7739 -1.5322
33504SOL    HW2 3468   9.688   5.346   2.336  0.7305  0.8233  0.7807
33505SOL     OW 3469   8.258  10.258   6.243 -0.1280  0.3725 -0.1965
33505SOL    HW1 3470   8.215  10.193   6.187  0.0880  0.1434 -0.0974
33505SOL    HW2 3471   8.324  10.299   6.187  0.3983 -0.1725  0.0137
33506SOL     OW 3472  10.520   8.413  10.486  0.4064  0.1589  0.1460
33506SOL    HW1 3473  10.492   8.432  10.397 -0.9651  1.4975  0.8040
33506SOL    HW2 3474  10.613   8.432  10.487  0.0986  1.8763 -0.5892
33507SOL     OW 3475   0.275   0.007   9.025  0.6439 -0.0425 -0.2443
33507SOL    HW1 3476   0.263   0.098   8.999  0.4697 -0.6903 -2.6908
33507SOL    HW2 3477   0.327  -0.031   8.954 -2.2856 -2.7030 -1.1623
33508SOL     OW 3478   1.816   7.407   2.148 -0.1870 -0.4330 -0.3908
33508SOL    HW1 3479   1.880   7.397   2.077 -0.5419  0.6246 -0.8886
33508SOL    HW2 3480   1.866   7.446   2.220 -0.7125  2.7897 -1.6250
33509SOL     OW 3481   7.718   6.658   5.748 -0.3488  0.1144  0.0360
33509SOL    HW1 3482   7.724   6.741   5.701  0.9812 -0.4260 -0.8131
33509SOL    HW2 3483   7.650   6.673   5.814  0.1815  2.0361  0.2295
33510SOL     OW 3484   4.675   0.767   1.321 -0.3224  0.9304  0.5869
33510SOL    HW1 3485   4.658   0.799   1.409 -0.0706  1.6358  0.3885
33510SOL    HW2 3486   4.771   0.770   1.313 -0.3279  0.6128  0.3805
33511SOL     OW 3487   4.406   5.439   0.484  0.0947 -0.2323  0.4141
33511SOL    HW1 3488   4.390   5.533   0.481 -0.4265 -0.2801  1.2953
33511SOL    HW2 3489   4.365   5.405   0.404 -1.7443  0.0172  1.1923
33512SOL     OW 3490   5.825   6.750   6.338 -0.0331  0.1247 -0.4222
33512SOL    HW1 3491   5.917   6.726   6.345  0.5365  1.7730 -1.7708
33512SOL    HW2 3492   5.820   6.839   6.375 -1.4482 -0.5935  1.2961
33513SOL     OW 3493   5.483   5.436   3.377  0.2237  0.2576 -0.0582
33513SOL    HW1 3494   5.566   5.393   3.394 -0.2234 -1.3422 -1.6601
33513SOL    HW2 3495   5.498   5.490   3.300 -0.0641  0.4679  0.0286
33514SOL     OW 3496   4.930   5.611   8.920 -0.1783 -0.0045 -0.1379
33514SOL    HW1 3497   4.873   5.541   8.889  0.5867 -0.1297 -1.3221
33514SOL    HW2 3498   4.884   5.692   8.897 -0.6409 -0.1003  0.4216
33515SOL     OW 3499   8.081   6.406   5.490  0.0698  0.0520  0.0910
33515SOL    HW1 3500   8.116   6.459   5.418  0.5528 -0.5105 -0.0932
33515SOL    HW2 3501   8.042   6.470   5.550  1.7340  0.7551  0.4929
33516SOL     OW 3502   3.154   1.799   4.689  0.7709  0.4145 -0.1665
33516SOL    HW1 3503   3.192   1.769   4.606 -0.5362  1.2922 -1.1211
33516SOL    HW2 3504   3.149   1.894   4.680 -0.3261  0.4335  0.5005
33517SOL     OW 3505   0.716   5.492   9.970 -0.0589 -0.4577  0.5434
33517SOL    HW1 3506   0.641   5.551   9.966 -0.9284 -1.4835  0.9821
33517SOL    HW2 3507   0.760   5.513  10.052  0.5312  0.5995 -0.0350
33518SOL     OW 3508   4.537   8.681   3.850  0.2676  0.5981 -0.8314
33518SOL    HW1 3509   4.625   8.667   3.815  0.5021  0.8042 -0.3404
33518SOL    HW2 3510   4.547   8.664   3.944 -0.2716  0.3914 -0.8110
33519SOL     OW 3511   8.637   7.355   3.829  0.3309  0.0949 -0.4838
33519SOL    HW1 3512   8.686   7.276   3.809 -1.0987 -0.9132 -0.1411
33519SOL    HW2 3513   8.545   7.328   3.828 -0.1099  1.2864  1.5662
33520SOL     OW 3514   1.964   2.002   1.469 -0.4635  0.4520 -0.1262
33520SOL    HW1 3515   2.050   1.983   1.431  0.2247  0.8632  1.1392
33520SOL    HW2 3516   1.918   2.051   1.401  0.2923  0.1915 -0.8423
33521SOL     OW 3517   2.421   2.941   9.059  0.1676 -0.0411  0.0805
33521SOL    HW1 3518   2.342   2.989   9.033 -0.1499  0.2680  1.5579
33521SOL    HW2 3519   2.391   2.882   9.128  0.8694 -1.2767 -0.6361
33522SOL     OW 3520   4.850  10.095   9.339  0.4324  0.2354 -0.3705
33522SOL    HW1 3521   4.772  10.076   9.288  1.4485 -0.0396 -1.8651
33522SOL    HW2 3522   4.866  10.015   9.389 -1.1644  0.8621  1.2771
33523SOL     OW 3523   6.288   9.252   3.157  0.1901 -0.2119  0.2744
33523SOL    HW1 3524   6.294   9.185   3.089  0.3546  0.2880 -0.2013
33523SOL    HW2 3525   6.373   9.249   3.201  0.0168 -0.6650  0.5866
33524SOL     OW 3526   5.906   3.703   8.838  0.1125  0.0580  0.0023
33524SOL    HW1 3527   5.863   3.787   8.851 -0.5833 -0.5140  1.7109
33524SOL    HW2 3528   5.997   3.725   8.817 -0.0286  1.2255  0.5537
33525SOL     OW 3529   0.356  10.328   6.423 -0.3461 -0.1342 -0.2484
33525SOL    HW1 3530   0.304  10.356   6.498 -0.2444 -1.6200  0.4236
33525SOL    HW2 3531   0.307  10.358   6.347 -1.3351 -0.0772  0.3939
33526SOL     OW 3532   2.433   8.782   2.376  0.0542  0.2414  0.1767
33526SOL    HW1 3533   2.397   8.763   2.290 -0.7316  0.1528  0.5184
33526SOL    HW2 3534   2.484   8.705   2.399  0.6091  0.4370 -0.3833
33527SOL     OW 3535   3.991   2.399   7.084 -0.4744  0.0183 -0.2644
33527SOL    HW1 3536   3.986   2.459   7.009  0.8863 -0.0096 -0.4093
33527SOL    HW2 3537   3.952   2.449   7.156 -2.5715 -0.2650 -1.1277
33528SOL     OW 3538   9.430   3.689   4.295 -0.0560 -0.8934 -0.2785
33528SOL    HW1 3539   9.451   3.724   4.209 -0.4119 -0.0388 -0.0300
33528SOL    HW2 3540   9.349   3.639   4.282 -1.0509  0.6080 -0.1548
33529SOL     OW 3541   4.312   2.311   9.899 -0.2557 -0.0110 -0.4544
33529SOL    HW1 3542   4.253   2.365   9.847  0.0844 -1.4673 -2.4708
33529SOL    HW2 3543   4.255   2.262   9.958 -0.6750  1.4528  0.3847
33530SOL     OW 3544   9.173  10.591   4.914  0.4290  0.3321 -0.0786
33530SOL    HW1 3545   9.202  10.501   4.898 -0.5031  0.3739 -2.6345
33530SOL    HW2 3546   9.248  10.634   4.953  1.0707 -1.4106  0.7441
33531SOL     OW 3547   5.174   2.161   0.471 -0.1738 -0.0029 -0.0743
33531SOL    HW1 3548   5.123   2.202   0.401  0.2091  0.9943  0.2126
33531SOL    HW2 3549   5.152   2.069   0.466 -1.1432  0.2510 -0.6758
33532SOL     OW 3550   3.327   3.305   6.457  0.3651 -0.3902 -0.3728
33532SOL    HW1 3551   3.354   3.389   6.420 -1.6985  2.2824  3.4770
33532SOL    HW2 3552   3.271   3.266   6.390  1.0612  1.4696 -2.1505
33533SOL     OW 3553   4.681   2.099   7.994  0.7451  0.5484 -0.1322
33533SOL    HW1 3554   4.681   2.117   7.900 -1.0187  1.0259 -0.0861
33533SOL    HW2 3555   4.604   2.146   8.027  1.5774  0.7669  1.6386
33534SOL     OW 3556   0.608   0.923   3.009  0.3943 -0.1825 -0.1703
33534SOL    HW1 3557   0.541   0.975   2.964  0.7565 -1.0811 -1.8313
33534SOL    HW2 3558   0.561   0.883   3.082 -0.7807 -0.3980 -1.0024
33535SOL     OW 3559   9.241   7.886   2.199  0.0770 -1.1101 -0.1620
33535SOL    HW1 3560   9.238   7.825   2.126 -1.6370 -0.6983 -0.4779
33535SOL    HW2 3561   9.157   7.875   2.242  0.1160  0.3680  0.3279
33536SOL     OW 3562   9.094   3.833   0.759 -0.0184 -0.0696 -0.1168
33536SOL    HW1 3563   9.090   3.922   0.725 -0.1670 -0.8948 -2.4374
33536SOL    HW2 3564   9.100   3.844   0.854  1.3427  2.4106 -0.4063
33537SOL     OW 3565   7.948   9.600   2.687 -0.3339 -0.0410 -0.3737
33537SOL    HW1 3566   7.947   9.694   2.669  1.0335  0.0629 -0.0048
33537SOL    HW2 3567   7.877   9.565   2.634 -0.7918  1.1769 -0.6116
33538SOL     OW 3568   3.972   8.390   7.342  0.0300 -0.1811 -0.4005
33538SOL    HW1 3569   3.986   8.481   7.317 -1.1163  0.5305  1.3000
33538SOL    HW2 3570   4.048   8.368   7.396 -1.0541  0.8449  1.7058
33539SOL     OW 3571   5.470   1.153   7.702  0.2754  0.1941 -0.5110
33539SOL    HW1 3572   5.453   1.224   7.641  0.3148  1.4250  0.8588
33539SOL    HW2 3573   5.565   1.142   7.701  0.2485 -0.0126 -0.9036
33540SOL     OW 3574   2.536   4.483   2.925  0.6227  0.4116  0.0545
33540SOL    HW1 3575   2.445   4.491   2.952  0.6331 -2.6280  1.3894
33540SOL    HW2 3576   2.585   4.478   3.007  1.6273 -0.8668 -0.5763
33541SOL     OW 3577   4.116   5.830   7.098  0.5801  0.0658 -0.1793
33541SOL    HW1 3578   4.177   5.760   7.076  1.4040  0.5484  0.4723
33541SOL    HW2 3579   4.172   5.899   7.136 -0.4379  0.2620  1.0300
33542SOL     OW 3580   1.561   5.930   1.219 -0.6288 -0.4558 -0.0175
33542SOL    HW1 3581   1.468   5.948   1.222 -0.6723 -0.3775 -1.3141
33542SOL    HW2 3582   1.602   6.016   1.210 -0.4440 -0.5121  0.2646
33543SOL     OW 3583   1.997   5.924   0.538  0.4059  0.4834  0.1376
33543SOL    HW1 3584   1.978   5.847   0.484  0.2031  1.1551 -0.7698
33543SOL    HW2 3585   2.048   5.890   0.612 -0.1304 -0.5983  0.0251
33544SOL     OW 3586   7.239   9.272   9.067 -0.5088 -0.0057 -0.3473
33544SOL    HW1 3587   7.147   9.266   9.040 -0.7834  0.9167  0.3769
33544SOL    HW2 3588   7.278   9.336   9.007 -0.0475 -1.2102 -1.3826
33545SOL     OW 3589   7.919   6.411   6.963  0.2036 -0.4550  0.4043
33545SOL    HW1 3590   7.905   6.382   6.873 -1.1573  0.0198  0.4277
33545SOL    HW2 3591   7.850   6.366   7.013  0.0148  0.4183  0.9458
33546SOL     OW 3592   4.554   3.476   8.286  0.4808  0.3738 -0.1127
33546SOL    HW1 3593   4.567   3.416   8.360  0.7356 -0.3165 -0.7037
33546SOL    HW2 3594   4.609   3.552   8.308  3.2829 -1.2008 -1.1084
33547SOL     OW 3595   0.261   4.908   7.908  0.0887 -0.0181 -0.3493
33547SOL    HW1 3596   0.209   4.930   7.831  1.5016  0.4848 -1.1988
33547SOL    HW2 3597   0.340   4.868   7.873  0.8008  0.2900  0.8483
33548SOL     OW 3598   7.495  10.218   3.265  0.8143 -0.4423 -0.2678
33548SOL    HW1 3599   7.516  10.151   3.331  0.9512 -1.3399 -1.2094
33548SOL    HW2 3600   7.424  10.180   3.214  0.2525  0.5296 -0.2504
33549SOL     OW 3601   0.184   1.917   0.857 -0.2936 -0.0289 -0.1261
33549SOL    HW1 3602   0.132   1.881   0.930  2.1443 -1.2654  1.1325
33549SOL    HW2 3603   0.199   2.008   0.881  0.6697 -0.4801  1.0876
33550SOL     OW 3604   1.189   3.419   6.605 -0.1506  0.0490 -0.4993
33550SOL    HW1 3605   1.225   3.347   6.553  0.8019 -0.1723  0.4422
33550SOL    HW2 3606   1.094   3.411   6.593 -0.1990 -2.2752  0.6853
33551SOL     OW 3607   1.472   8.473   6.220  0.3148 -0.0887  0.3214
33551SOL    HW1 3608   1.566   8.481   6.233  0.3852  0.5153 -0.4271
33551SOL    HW2 3609   1.449   8.551   6.168 -0.5247 -0.4255  0.1740
33552SOL     OW 3610   1.944   0.043   7.290  0.1370 -0.3253 -0.8614
33552SOL    HW1 3611   1.887   0.031   7.366 -0.8294  0.4258 -1.4397
33552SOL    HW2 3612   1.895   0.006   7.217  0.8533 -0.6158 -1.2033
33553SOL     OW 3613   7.296   6.111   8.677 -0.0318  0.2806  0.5292
33553SOL    HW1 3614   7.277   6.022   8.647  1.5165 -1.1482  3.4194
33553SOL    HW2 3615   7.383   6.130   8.642 -0.3532  0.6996 -0.0699
33554SOL     OW 3616   5.362   8.328   2.457 -0.0832 -0.2921  0.1146
33554SOL    HW1 3617   5.312   8.403   2.424  2.3926  1.2753 -0.2734
33554SOL    HW2 3618   5.382   8.276   2.379 -0.3881 -0.5196  0.1799
33555SOL     OW 3619   4.372   1.245   0.021 -0.2831  0.0568  0.0305
33555SOL    HW1 3620   4.338   1.226   0.109 -1.2392 -0.3383 -0.4135
33555SOL    HW2 3621   4.463   1.214   0.024 -0.2743  0.1319  0.9060
33556SOL     OW 3622   9.383   1.149   7.618  0.0403 -0.3660  0.0768
33556SOL    HW1 3623   9.434   1.223   7.586 -0.8697 -0.4121 -1.5621
33556SOL    HW2 3624   9.446   1.096   7.668  1.5706 -0.3166 -1.7014
33557SOL     OW 3625   2.081   0.442   5.565  0.0853  0.1803  0.2561
33557SOL    HW1 3626   2.113   0.423   5.653  3.1019 -1.0560 -0.9849
33557SOL    HW2 3627   2.134   0.516   5.535 -0.0442 -0.1958 -0.9466
33558SOL     OW 3628   1.965   2.002   3.701  0.1140  0.0524 -0.2718
33558SOL    HW1 3629   2.010   2.029   3.620  0.8794  2.8928  0.9592
33558SOL    HW2 3630   1.872   2.011   3.680  0.3033  0.7094 -0.9018
33559SOL     OW 3631   9.031   8.918   9.783 -0.0022  0.3060 -0.1228
33559SOL    HW1 3632   8.965   8.887   9.845 -0.0171  1.5580  0.5153
33559SOL    HW2 3633   9.093   8.845   9.775 -0.0233  0.1079  1.3462
33560SOL     OW 3634   1.509   6.726   9.829  0.0610 -0.2367  0.2790
33560SOL    HW1 3635   1.515   6.822   9.825 -1.4684 -0.1559 -1.2353
33560SOL    HW2 3636   1.541   6.704   9.916  0.7405  1.6251  0.5535
33561SOL     OW 3637   8.779   7.948   4.325 -0.6059 -0.3585  0.7835
33561SOL    HW1 3638   8.713   8.006   4.363 -0.8133 -0.3776  0.4544
33561SOL    HW2 3639   8.808   7.893   4.398  0.3441  0.8477  1.3557
33562SOL     OW 3640   2.605   4.270  10.216  0.4379 -0.1007 -0.3131
33562SOL    HW1 3641   2.622   4.251  10.124 -0.6361 -0.9455 -0.3614
33562SOL    HW2 3642   2.622   4.364  10.224 -2.0259  0.6292 -2.0552
33563SOL     OW 3643   9.320  10.064   9.220  0.5781 -0.4033 -0.4848
33563SOL    HW1 3644   9.362  10.148   9.235 -2.5065  1.1926 -0.1022
33563SOL    HW2 3645   9.349  10.010   9.294  0.0453  1.4285  1.1404
33564SOL     OW 3646   5.061   5.106   3.441 -0.5548  0.0477 -0.9622
33564SOL    HW1 3647   5.143   5.155   3.449 -0.1954 -0.3887 -1.7932
33564SOL    HW2 3648   5.001   5.149   3.502  0.0215  0.9375 -1.0005
33565SOL     OW 3649   0.081   7.869   6.317 -0.2469 -0.5828  0.1502
33565SOL    HW1 3650   0.134   7.860   6.396  0.8995 -1.7397 -0.7012
33565SOL    HW2 3651   0.142   7.849   6.246 -1.3275  0.1300 -1.0037
33566SOL     OW 3652  10.102  10.254   5.265 -0.1044 -0.2889 -0.1658
33566SOL    HW1 3653  10.135  10.226   5.179 -0.5444 -0.3754 -0.3097
33566SOL    HW2 3654  10.129  10.345   5.272 -0.4506 -0.1472 -0.5961
33567SOL     OW 3655   7.234   4.709   1.883  0.2648 -0.2817  0.2411
33567SOL    HW1 3656   7.279   4.732   1.801  0.2166  1.3857  0.6400
33567SOL    HW2 3657   7.141   4.724   1.864  0.3939  2.0071  1.1146
33568SOL     OW 3658   0.530  10.501   9.201 -0.7249 -0.5311 -0.2245
33568SOL    HW1 3659   0.526  10.459   9.115 -1.0381  2.2129 -1.6403
33568SOL    HW2 3660   0.440  10.500   9.233 -0.7715 -0.6922 -0.3564
33569SOL     OW 3661   3.059   4.021   9.125 -0.5955  0.0497  0.4693
33569SOL    HW1 3662   3.104   3.941   9.100 -1.2343 -0.7893  1.8939
33569SOL    HW2 3663   3.014   4.049   9.045  1.3917  0.2384 -0.6438
33570SOL     OW 3664   0.288   1.423   7.458  0.1117  0.3178  0.2050
33570SOL    HW1 3665   0.288   1.455   7.368 -1.8115 -0.6134 -0.1664
33570SOL    HW2 3666   0.257   1.498   7.509 -2.1211 -0.1348 -0.3764
33571SOL     OW 3667   9.676   5.628   4.429  0.0258 -0.0936  0.6031
33571SOL    HW1 3668   9.622   5.578   4.368  0.5662 -1.5668  1.2775
33571SOL    HW2 3669   9.726   5.688   4.373 -0.3918 -0.5465 -0.2792
33572SOL     OW 3670   5.786   0.545   9.478 -0.1144 -0.1637 -0.3379
33572SOL    HW1 3671   5.868   0.540   9.431  0.5733 -1.5366  0.9348
33572SOL    HW2 3672   5.763   0.638   9.477  1.6772  0.3072 -0.3475
33573SOL     OW 3673   2.790   0.389   9.130  0.4875 -0.2647 -0.4150
33573SOL    HW1 3674   2.845   0.456   9.089  1.3268 -0.8985 -0.3474
33573SOL    HW2 3675   2.767   0.330   9.058 -2.9018  1.7329 -1.1927
33574SOL     OW 3676   8.568   8.345   5.133 -0.3572 -0.1601 -0.7392
33574SOL    HW1 3677   8.606   8.422   5.091  0.2091 -0.4327 -0.7371
33574SOL    HW2 3678   8.625   8.273   5.106 -0.1477 -0.3822  0.2797
33575SOL     OW 3679   8.420   3.574   5.088  0.8870  0.0377  0.2720
33575SOL    HW1 3680   8.438   3.528   5.006  0.5553  1.7690 -0.8145
33575SOL    HW2 3681   8.340   3.623   5.071 -0.0785 -0.8035  2.1859
33576SOL     OW 3682   9.944   6.803   2.942 -0.7186  0.1496  0.6142
33576SOL    HW1 3683   9.965   6.717   2.977 -0.2766  0.8380  2.1604
33576SOL    HW2 3684  10.023   6.829   2.895 -1.3252 -0.7961 -1.0033
33577SOL     OW 3685   8.019   6.092   6.070 -0.2952 -0.6016  0.8611
33577SOL    HW1 3686   7.996   6.090   5.977 -2.7556 -1.0449  1.4116
33577SOL    HW2 3687   8.072   6.013   6.082 -0.1881 -0.6974 -0.0971
33578SOL     OW 3688   7.405   3.129   5.220 -0.4579  0.4423  0.1238
33578SOL    HW1 3689   7.324   3.181   5.220 -0.3315  0.6410  0.2201
33578SOL    HW2 3690   7.475   3.194   5.213 -0.2849  0.3096  0.5744
33579SOL     OW 3691   6.696   2.898   7.234 -0.3785  0.3320 -0.4679
33579SOL    HW1 3692   6.697   2.945   7.150 -0.7242  1.7036  0.2654
33579SOL    HW2 3693   6.605   2.904   7.263 -0.1011  0.5914  0.3816
33580SOL     OW 3694   2.717   7.709   8.101  0.1718 -0.1875 -0.4321
33580SOL    HW1 3695   2.638   7.750   8.135  0.2354 -0.1515 -0.3296
33580SOL    HW2 3696   2.696   7.689   8.009  0.8321  1.9154 -1.1033
33581SOL     OW 3697   7.113   8.280   4.834  0.1310 -0.3426  0.0883
33581SOL    HW1 3698   7.057   8.226   4.779  1.8129  0.0172 -2.1383
33581SOL    HW2 3699   7.138   8.354   4.779  0.4794  1.0337  1.9754
33582SOL     OW 3700   1.667   6.633   4.329  0.2969 -0.3739  0.1048
33582SOL    HW1 3701   1.573   6.623   4.347  0.2284 -0.0259 -0.0304
33582SOL    HW2 3702   1.706   6.550   4.355 -0.1628 -0.8047 -0.5490
33583SOL     OW 3703   1.758   1.408   0.095  0.1633 -0.7365 -0.5275
33583SOL    HW1 3704   1.762   1.317   0.064  0.5546 -0.2515 -1.9916
33583SOL    HW2 3705   1.763   1.460   0.015 -2.0708  0.5598  0.1097
33584SOL     OW 3706   0.848   3.175  10.445 -0.6936  0.2428 -0.0913
33584SOL    HW1 3707   0.877   3.104  10.502  0.7159  0.9635  0.1450
33584SOL    HW2 3708   0.900   3.250  10.473 -2.0525  1.3478 -0.4200
33585SOL     OW 3709   2.258   3.599   9.024 -0.6516 -0.1080 -0.1766
33585SOL    HW1 3710   2.185   3.652   9.055 -0.4559 -0.1292  0.3404
33585SOL    HW2 3711   2.273   3.627   8.934 -0.1715  1.1536  0.2747
33586SOL     OW 3712   0.334   3.274   8.597 -0.5707 -0.2435 -0.0221
33586SOL    HW1 3713   0.293   3.339   8.654 -1.0565  0.6377 -1.3302
33586SOL    HW2 3714   0.304   3.190   8.633  1.5194  0.0573  2.8107
33587SOL     OW 3715   2.253   5.862   2.738 -0.5472 -0.1223 -0.8191
33587SOL    HW1 3716   2.300   5.929   2.787 -1.2668  0.2238 -0.5948
33587SOL    HW2 3717   2.259   5.890   2.647  0.7374 -0.7342 -0.9485
33588SOL     OW 3718   6.190   2.142   6.041  0.0320  0.1548  0.3855
33588SOL    HW1 3719   6.162   2.204   6.108  1.2578  0.1932  0.9016
33588SOL    HW2 3720   6.149   2.059   6.066  0.2284  0.2396  1.0194
33589SOL     OW 3721   1.293   2.009   0.595 -0.3657  0.0637 -0.1477
33589SOL    HW1 3722   1.333   2.061   0.665  1.1402  0.3113 -1.1496
33589SOL    HW2 3723   1.366   1.981   0.541 -1.5038  0.2086 -1.8502
33590SOL     OW 3724  10.175   2.464   9.434  0.2869 -0.1610 -0.1873
33590SOL    HW1 3725  10.178   2.375   9.400  0.4364 -0.8459  1.4966
33590SOL    HW2 3726  10.266   2.484   9.459  0.2976  0.5609 -0.7724
33591SOL     OW 3727   6.825   8.268   0.386  0.4013  0.0578 -0.2734
33591SOL    HW1 3728   6.834   8.177   0.413  0.3849 -0.0834 -0.7328
33591SOL    HW2 3729   6.731   8.287   0.398  0.3483 -0.0798 -0.4647
33592SOL     OW 3730   9.959   9.325   8.504  0.1989  0.0340 -0.1360
33592SOL    HW1 3731   9.894   9.392   8.523  2.5966  2.1011  1.5247
33592SOL    HW2 3732   9.910   9.243   8.502 -2.6881  1.6369 -1.0308
33593SOL     OW 3733   0.077   9.906   8.478 -0.0455 -0.2243 -0.4105
33593SOL    HW1 3734   0.042   9.976   8.534  1.2408 -1.3674  2.0034
33593SOL    HW2 3735   0.053   9.825   8.522 -2.6326 -1.5500 -3.8212
33594SOL     OW 3736   9.434   3.586  10.311 -0.1576  0.1738 -0.0952
33594SOL    HW1 3737   9.438   3.653  10.243  1.2367  0.1478 -0.0678
33594SOL    HW2 3738   9.519   3.590  10.354 -1.2497  0.7324  2.1873
33595SOL     OW 3739   1.138   8.619   6.116 -0.2278 -0.3251  0.7970
33595SOL    HW1 3740   1.148   8.541   6.169  0.0644 -1.4965 -0.9064
33595SOL    HW2 3741   1.228   8.647   6.096 -0.3294 -0.0465  0.7145
33596SOL     OW 3742   9.777   3.831   3.409  0.4341  0.1774  0.4032
33596SOL    HW1 3743   9.747   3.759   3.464  1.4874  0.1109  0.9250
33596SOL    HW2 3744   9.835   3.789   3.345  0.6863  0.4966  0.4208
33597SOL     OW 3745   0.778  10.645   6.796 -0.5085 -0.0174 -0.2020
33597SOL    HW1 3746   0.814  10.565   6.835  0.2548  0.5343  0.2481
33597SOL    HW2 3747   0.762  10.622   6.705 -1.0285 -0.9140  0.1018
33598SOL     OW 3748   0.691   9.696   3.275 -0.1633  0.7367  0.0845
33598SOL    HW1 3749   0.771   9.660   3.313 -1.1931 -0.7496  0.9543
33598SOL    HW2 3750   0.649   9.744   3.346  0.1681  1.9583 -0.5067
33599SOL     OW 3751  10.379   7.753   3.371  0.2141  0.6379 -0.1031
33599SOL    HW1 3752  10.462   7.801   3.366  0.3659  0.3696 -0.1779
33599SOL    HW2 3753  10.328   7.801   3.436  0.6884  0.4193  0.4478
33600SOL     OW 3754   1.584   0.426   5.800 -0.7956  0.9229  0.9372
33600SOL    HW1 3755   1.674   0.458   5.810 -1.1718  1.7735  1.6276
33600SOL    HW2 3756   1.534   0.502   5.772 -0.9056 -0.0422 -1.8386
33601SOL     OW 3757   1.860   2.416   1.920 -0.1166 -0.4607 -0.1020
33601SOL    HW1 3758   1.804   2.355   1.870  2.4762 -2.7986 -0.4004
33601SOL    HW2 3759   1.873   2.373   2.004  0.3400  0.5798  0.3726
33602SOL     OW 3760   1.337   3.688   3.009 -0.4334  0.0499 -0.1938
33602SOL    HW1 3761   1.399   3.618   2.989 -0.9155 -0.6165  0.5724
33602SOL    HW2 3762   1.355   3.756   2.944 -0.3603 -1.0326 -1.3402
33603SOL     OW 3763   7.644   7.261   8.124  0.1885 -0.2488 -0.2247
33603SOL    HW1 3764   7.618   7.297   8.039  0.3473 -0.3809 -0.3304
33603SOL    HW2 3765   7.609   7.323   8.188  2.2106  1.2319 -0.4587
33604SOL     OW 3766   0.456   1.730   6.677 -0.0036  1.0202  0.3111
33604SOL    HW1 3767   0.449   1.804   6.737  0.9431  0.1694  1.5370
33604SOL    HW2 3768   0.544   1.736   6.640  0.5458 -0.1283  1.3518
33605SOL     OW 3769   1.788   3.806   9.241  0.5065  0.1657  0.0096
33605SOL    HW1 3770   1.836   3.725   9.258  0.9929  0.5410  0.4730
33605SOL    HW2 3771   1.808   3.862   9.316 -1.3518  0.0183  0.6785
33606SOL     OW 3772   9.642   8.430   0.045  0.0137 -0.1117  0.1098
33606SOL    HW1 3773   9.584   8.431   0.121 -0.1527 -0.0126 -0.0177
33606SOL    HW2 3774   9.661   8.522   0.029  0.5162 -0.1651  0.3857
33607SOL     OW 3775   0.325   3.902   4.624  0.0597 -0.1239  0.3958
33607SOL    HW1 3776   0.360   3.836   4.564  0.7337 -1.4436  2.1537
33607SOL    HW2 3777   0.358   3.985   4.590  0.7518 -0.8699 -0.8262
33608SOL     OW 3778   9.106   8.686   5.746  0.1224 -0.5785 -0.8764
33608SOL    HW1 3779   9.128   8.621   5.679  0.5056 -1.3585 -0.0231
33608SOL    HW2 3780   9.037   8.644   5.798 -1.3684  0.6837 -1.7641
33609SOL     OW 3781   7.655   9.453   6.131 -0.8120  0.0457  0.0998
33609SOL    HW1 3782   7.675   9.480   6.042 -1.0940  0.4440  0.1526
33609SOL    HW2 3783   7.598   9.522   6.165  0.5417  0.7213  1.1193
33610SOL     OW 3784   3.577   3.275   7.695 -0.1415  0.0472  0.4966
33610SOL    HW1 3785   3.631   3.354   7.698  0.4567 -0.3618  0.6061
33610SOL    HW2 3786   3.545   3.265   7.785 -0.8989  0.6249  0.3007
33611SOL     OW 3787   4.131  10.019   6.652 -0.0064 -0.1022  0.3599
33611SOL    HW1 3788   4.187  10.096   6.662  0.3487 -0.5183  1.8484
33611SOL    HW2 3789   4.048  10.054   6.620 -0.3077  1.1041  2.3035
33612SOL     OW 3790   3.416   3.501   9.736  0.0449  0.1482 -0.2930
33612SOL    HW1 3791   3.447   3.577   9.686  0.3264  1.3172  1.5703
33612SOL    HW2 3792   3.325   3.522   9.757 -0.3817 -0.7916 -1.1130
33613SOL     OW 3793   1.133   2.357   2.648 -0.0921 -0.3559 -0.5118
33613SOL    HW1 3794   1.087   2.386   2.727  0.1357  1.4766 -1.0025
33613SOL    HW2 3795   1.069   2.368   2.578  0.5284  0.5874 -0.9489
33614SOL     OW 3796   5.985   4.779   1.784  0.0775  0.2543  0.1209
33614SOL    HW1 3797   5.910   4.838   1.797 -0.7207 -0.7116  0.0286
33614SOL    HW2 3798   6.055   4.816   1.838  0.9096  3.5158 -2.8221
33615SOL     OW 3799   3.471   6.836   6.726 -0.1559 -0.0315  0.7303
33615SOL    HW1 3800   3.547   6.886   6.758  0.2180 -0.1263  0.0290
33615SOL    HW2 3801   3.492   6.819   6.634 -0.5784 -0.9252  0.7935
33616SOL     OW 3802  10.217   1.937   9.337  0.1924 -0.1065  0.1969
33616SOL    HW1 3803  10.122   1.940   9.347  0.1739 -1.6770  0.8929
33616SOL    HW2 3804  10.247   1.888   9.413  1.1998 -2.5800 -1.6439
33617SOL     OW 3805   3.395   2.668   7.094  0.0332  0.1843 -0.3953
33617SOL    HW1 3806   3.406   2.688   7.187 -0.4473  0.0816 -0.3185
33617SOL    HW2 3807   3.479   2.630   7.068  1.2790  2.8561 -0.6943
33618SOL     OW 3808   2.677   4.932   1.311 -0.7485 -0.0805 -0.9312
33618SOL    HW1 3809   2.762   4.961   1.278  0.4660 -0.4399  1.6048
33618SOL    HW2 3810   2.668   4.842   1.281  0.9334 -0.8471  0.6626
33619SOL     OW 3811   0.225   9.251   4.392 -0.6533 -0.2680 -0.3128
33619SOL    HW1 3812   0.289   9.303   4.343 -1.5263  0.5784 -0.5809
33619SOL    HW2 3813   0.203   9.305   4.467  1.9964 -2.2504  2.1473
33620SOL     OW 3814   9.979   8.563   7.627 -0.5693 -0.6759  0.4822
33620SOL    HW1 3815  10.035   8.569   7.549 -0.2527 -0.7805  0.7032
33620SOL    HW2 3816   9.905   8.509   7.598 -1.3549  0.7546 -0.2731
33621SOL     OW 3817   5.386   1.057   4.038  0.2264 -0.1050 -0.3685
33621SOL    HW1 3818   5.480   1.079   4.037  0.0649  0.8506  1.2720
33621SOL    HW2 3819   5.343   1.142   4.027 -0.4497 -0.4564 -0.4328
33622SOL     OW 3820   0.927   3.244   6.344 -0.1777  0.0426  0.0971
33622SOL    HW1 3821   0.968   3.277   6.264  0.3171  0.0551  0.3579
33622SOL    HW2 3822   0.946   3.310   6.410  0.3832 -0.5198  0.5018
33623SOL     OW 3823   5.474   8.715   1.092  0.1080 -0.3660 -0.7481
33623SOL    HW1 3824   5.404   8.756   1.143 -1.2249 -0.2949 -2.5197
33623SOL    HW2 3825   5.480   8.626   1.125 -1.8494 -0.8119 -1.4683
33624SOL     OW 3826   4.245   6.804   7.723  0.5320 -0.3725  0.0410
33624SOL    HW1 3827   4.301   6.812   7.645  0.1762 -2.1816 -0.4428
33624SOL    HW2 3828   4.306   6.788   7.794  0.9002  1.7836  0.2659
33625SOL     OW 3829   3.653  10.596   2.404 -0.3980 -0.4556  0.1804
33625SOL    HW1 3830   3.673  10.533   2.473 -0.5955 -0.1358  0.5344
33625SOL    HW2 3831   3.731  10.597   2.349  0.3364  0.3136  1.1956
33626SOL     OW 3832   2.889   7.162   1.528  0.8016  0.2013  0.0994
33626SOL    HW1 3833   2.912   7.125   1.443  1.4566 -1.6107  1.0071
33626SOL    HW2 3834   2.804   7.204   1.514  0.8114 -0.2226 -1.4052
33627SOL     OW 3835   5.787   1.680   3.201  0.1196  0.1831  1.1007
33627SOL    HW1 3836   5.864   1.716   3.245  0.2723  1.0411  0.1605
33627SOL    HW2 3837   5.742   1.756   3.164  0.6619 -0.5541 -1.2611
33628SOL     OW 3838   9.524   3.242   9.526  0.0022 -0.4413  0.1511
33628SOL    HW1 3839   9.471   3.193   9.464 -1.7455 -0.1909  1.3743
33628SOL    HW2 3840   9.530   3.330   9.490 -0.2607 -0.5186 -0.0776
33629SOL     OW 3841   9.178   4.802   1.756  0.4089  0.3768 -0.2334
33629SOL    HW1 3842   9.173   4.767   1.845 -1.0935  2.1061  0.4136
33629SOL    HW2 3843   9.250   4.865   1.759  0.8848 -0.1364 -0.4951
33630SOL     OW 3844  10.198   5.787   1.240 -0.0222  0.1491  0.0279
33630SOL    HW1 3845  10.254   5.815   1.168  1.8929 -1.3802  0.8134
33630SOL    HW2 3846  10.256   5.783   1.316 -0.8514 -2.5548  0.6603
33631SOL     OW 3847   1.875   1.701   0.206 -0.3935 -0.1098  0.3134
33631SOL    HW1 3848   1.937   1.761   0.247 -0.5456  0.6288 -0.4977
33631SOL    HW2 3849   1.795   1.711   0.257 -0.4994  0.5943  0.0184
33632SOL     OW 3850   8.533  10.162   5.282 -0.2071  0.4306  0.2215
33632SOL    HW1 3851   8.485  10.115   5.351 -1.5914 -1.8510 -2.1187
33632SOL    HW2 3852   8.613  10.111   5.270  0.3092  1.1567  0.4552
33633SOL     OW 3853   8.266   9.369   0.055  0.0870 -0.1128 -0.4330
33633SOL    HW1 3854   8.177   9.402   0.069  0.2147 -0.5600  1.7065
33633SOL    HW2 3855   8.322   9.445   0.067  0.2478 -0.6045  2.6443
33634SOL     OW 3856   8.308   5.744   2.612  0.1775 -0.7574 -0.2049
33634SOL    HW1 3857   8.314   5.660   2.658 -1.5841 -1.3837 -1.0446
33634SOL    HW2 3858   8.384   5.794   2.643  0.1074 -1.8646  1.9003
33635SOL     OW 3859   3.915   2.991   7.609 -0.8210 -0.2505  0.1699
33635SOL    HW1 3860   3.941   3.078   7.639  1.3526 -0.9565  0.4881
33635SOL    HW2 3861   3.896   3.003   7.516  0.4093  0.3919 -0.0110
33636SOL     OW 3862   6.296   0.338   5.851 -0.3498 -0.5187  0.0162
33636SOL    HW1 3863   6.209   0.379   5.855 -1.2743 -2.4275  1.2813
33636SOL    HW2 3864   6.277   0.244   5.852  1.7246 -0.9891 -0.7510
33637SOL     OW 3865   4.680   4.952   1.509 -0.1962 -0.4380  0.5161
33637SOL    HW1 3866   4.677   5.035   1.462 -1.0161 -0.7941 -0.0883
33637SOL    HW2 3867   4.640   4.889   1.449 -0.3244 -1.1083  1.2853
33638SOL     OW 3868   0.446   2.295   7.675 -0.2958  0.0732  0.3832
33638SOL    HW1 3869   0.475   2.260   7.591 -0.7531 -1.8316  0.9703
33638SOL    HW2 3870   0.527   2.315   7.722 -0.0022 -0.4635  0.1145
33639SOL     OW 3871   8.271   4.569   5.078  0.8052 -0.0699  0.5621
33639SOL    HW1 3872   8.344   4.538   5.025  1.2450  0.7602  0.6652
33639SOL    HW2 3873   8.312   4.616   5.151  0.1700  1.0487  0.2221
33640SOL     OW 3874   9.184   3.357   9.501 -0.1586 -0.1142  0.2745
33640SOL    HW1 3875   9.092   3.383   9.491 -0.6874 -1.6508  0.9526
33640SOL    HW2 3876   9.188   3.269   9.465  0.8576 -0.4171  1.0852
33641SOL     OW 3877   1.031   6.902   7.097 -0.0143 -0.4814 -0.3639
33641SOL    HW1 3878   1.060   6.908   7.006  0.4070  0.0831 -0.1979
33641SOL    HW2 3879   0.958   6.963   7.103 -0.3322 -0.8496 -0.4281
33642SOL     OW 3880   7.800   5.201   0.767  0.0192  0.2416  0.1944
33642SOL    HW1 3881   7.707   5.188   0.785 -0.8494  3.4759 -1.3135
33642SOL    HW2 3882   7.808   5.195   0.672  1.8874 -2.2838  0.3990
33643SOL     OW 3883   9.155   4.786   2.051 -0.2405  0.2181  0.6256
33643SOL    HW1 3884   9.213   4.856   2.080  1.6544  0.3640 -2.8702
33643SOL    HW2 3885   9.208   4.706   2.059 -0.0739  0.1194 -0.9719
33644SOL     OW 3886   2.659   2.360   4.774  0.4824  0.0099  0.0930
33644SOL    HW1 3887   2.713   2.319   4.841  0.3898 -1.7208 -0.8345
33644SOL    HW2 3888   2.648   2.292   4.707 -0.7152  1.1664 -0.9397
33645SOL     OW 3889   9.462   5.420   6.169 -0.3212 -0.2106 -0.2512
33645SOL    HW1 3890   9.383   5.467   6.142  0.2651  1.8942  1.4425
33645SOL    HW2 3891   9.477   5.357   6.099 -1.5949  1.6251 -2.3050
33646SOL     OW 3892   3.270  10.433   8.113 -0.1040  0.2309  0.0460
33646SOL    HW1 3893   3.329  10.410   8.185  1.5567 -1.0117 -1.5814
33646SOL    HW2 3894   3.183  10.408   8.143  0.3189  1.0494  2.1098
33647SOL     OW 3895   5.427   2.488   0.283 -0.1500  0.6102 -0.2970
33647SOL    HW1 3896   5.385   2.432   0.218  0.6161 -1.2850  0.7649
33647SOL    HW2 3897   5.436   2.573   0.239 -1.0427 -0.1744 -2.0924
33648SOL     OW 3898   5.051   1.053  10.665  0.0068  0.1794  0.2512
33648SOL    HW1 3899   5.044   1.147  10.679 -1.5034  0.2174 -0.5745
33648SOL    HW2 3900   5.144   1.038  10.648  1.0514  0.8941  4.2657
33649SOL     OW 3901  10.619   9.036   3.488 -0.3098 -0.0023  0.8952
33649SOL    HW1 3902  10.675   9.057   3.562  2.2182 -2.0620 -0.2755
33649SOL    HW2 3903  10.559   8.969   3.521 -2.1164  2.0732  2.1010
33650SOL     OW 3904   8.375   9.143  10.688 -0.1340 -0.1842 -0.4745
33650SOL    HW1 3905   8.335   9.228  10.706  0.8123  0.0816  0.4651
33650SOL    HW2 3906   8.394   9.145  10.594  1.9901  1.6219 -0.0908
33651SOL     OW 3907   4.744   8.653   6.179  0.7793 -0.1696 -0.1575
33651SOL    HW1 3908   4.667   8.672   6.125  0.7346 -0.3618 -0.1631
33651SOL    HW2 3909   4.818   8.662   6.119  0.8101  0.6179 -0.0049
33652SOL     OW 3910   5.767   6.242   8.171  0.3957 -0.2986  0.3311
33652SOL    HW1 3911   5.700   6.266   8.107  1.6899  0.5152 -0.7652
33652SOL    HW2 3912   5.793   6.153   8.146  0.2332 -0.3435  0.3210
33653SOL     OW 3913   3.435   4.371   7.306 -0.6846  0.5110  0.1918
33653SOL    HW1 3914   3.384   4.342   7.231 -0.4609 -0.7696  0.5203
33653SOL    HW2 3915   3.370   4.382   7.376 -0.7961  1.0214  0.0126
33654SOL     OW 3916   2.133   4.074  10.547  0.2178  0.0212 -0.2096
33654SOL    HW1 3917   2.160   4.131  10.475  0.8006 -2.4033 -2.0334
33654SOL    HW2 3918   2.193   4.000  10.543  1.0608  0.2742  3.5870
33655SOL     OW 3919   1.299  10.105   8.931 -0.2138  0.1827  0.0437
33655SOL    HW1 3920   1.279  10.012   8.917 -0.1325  0.0175  0.9469
33655SOL    HW2 3921   1.389  10.106   8.962 -0.6796  0.4132  1.4738
33656SOL     OW 3922   2.239   3.504   8.037  0.7348 -0.0264  0.1290
33656SOL    HW1 3923   2.200   3.591   8.045 -0.1245 -0.3193 -0.7233
33656SOL    HW2 3924   2.192   3.450   8.100  1.0343  0.0424  0.4145
33657SOL     OW 3925   7.322   0.749   8.780 -0.0698  0.2045  0.3391
33657SOL    HW1 3926   7.247   0.802   8.808 -0.6300 -0.5923  0.3675
33657SOL    HW2 3927   7.326   0.761   8.685 -0.4823 -0.0661  0.2865
33658SOL     OW 3928   2.971   3.958   1.321 -0.8444  0.4526 -0.2912
33658SOL    HW1 3929   2.934   4.032   1.273  1.1161  2.0396  0.5356
33658SOL    HW2 3930   2.931   3.962   1.408 -0.8803  0.4059 -0.3051
33659SOL     OW 3931   2.119   4.634   0.748 -0.3855  0.0513  0.2118
33659SOL    HW1 3932   2.025   4.620   0.732 -0.3249  1.5947 -1.9243
33659SOL    HW2 3933   2.128   4.624   0.843 -2.8317  0.4254  0.5702
33660SOL     OW 3934   2.426   4.176   2.907 -0.0219  0.4069  0.2854
33660SOL    HW1 3935   2.475   4.179   2.989  1.5281  0.2356 -0.6011
33660SOL    HW2 3936   2.490   4.147   2.842 -1.4079 -0.1764 -0.8545
33661SOL     OW 3937   1.674   0.538   7.049  0.4529 -0.3689  0.1936
33661SOL    HW1 3938   1.733   0.595   7.098 -0.8876 -0.0813  1.5693
33661SOL    HW2 3939   1.703   0.449   7.071 -0.8728 -0.2908  2.6372
33662SOL     OW 3940   6.916   5.652   9.310 -0.5750  0.7255  0.0014
33662SOL    HW1 3941   7.011   5.660   9.297 -0.5166 -0.0394 -0.0878
33662SOL    HW2 3942   6.879   5.672   9.224 -0.4123 -0.2080 -0.3058
33663SOL     OW 3943   6.189   3.982   3.353  0.4409  0.2002  0.0785
33663SOL    HW1 3944   6.189   3.888   3.336 -2.0071  0.2652 -0.5700
33663SOL    HW2 3945   6.176   3.990   3.448 -1.4037 -0.1715 -0.1021
33664SOL     OW 3946   6.531   0.818   0.671 -0.1794 -0.5488  0.3965
33664SOL    HW1 3947   6.594   0.803   0.742  0.8977  0.4550 -0.3203
33664SOL    HW2 3948   6.448   0.834   0.716  0.2994 -0.7961  1.3971
33665SOL     OW 3949   8.839   1.282   9.612  0.0023  0.3166 -0.0295
33665SOL    HW1 3950   8.913   1.244   9.659  0.2165  0.4860 -0.2288
33665SOL    HW2 3951   8.762   1.236   9.647 -0.2489  2.6911  3.0046
33666SOL     OW 3952   2.537   7.311   7.300  0.0566  0.1203  0.0330
33666SOL    HW1 3953   2.595   7.361   7.357  1.0963  0.4990 -1.2908
33666SOL    HW2 3954   2.491   7.378   7.249  0.3235 -0.2079 -0.6642
33667SOL     OW 3955   3.291   3.086   8.779 -0.0717  0.1783 -0.4316
33667SOL    HW1 3956   3.355   3.057   8.714  3.5601  0.9796  2.4656
33667SOL    HW2 3957   3.290   3.181   8.770  0.7491  0.3275  0.8199
33668SOL     OW 3958   1.302   7.612   1.310  0.1901 -0.0373 -0.1151
33668SOL    HW1 3959   1.284   7.633   1.402  0.9769  0.9194 -0.1638
33668SOL    HW2 3960   1.290   7.517   1.304 -1.7599  0.1098  0.5337
33669SOL     OW 3961   5.858   6.211   0.575 -0.3762  0.0128 -0.4058
33669SOL    HW1 3962   5.850   6.206   0.670 -2.2495  1.1030 -0.4540
33669SOL    HW2 3963   5.869   6.121   0.547  1.2649 -0.2377  0.8921
33670SOL     OW 3964   1.076   4.390   9.992 -0.3164  0.8530 -0.5726
33670SOL    HW1 3965   1.049   4.406   9.902 -1.4197 -3.6466 -1.2605
33670SOL    HW2 3966   1.000   4.415  10.045 -2.0287 -1.8888 -1.5556
33671SOL     OW 3967   3.441   7.641  10.096  0.3153 -0.3612  0.0971
33671SOL    HW1 3968   3.485   7.726  10.096 -0.7811  0.2330  1.2514
33671SOL    HW2 3969   3.387   7.642  10.017  0.0496  0.1528  0.2855
33672SOL     OW 3970   5.594   0.277   4.539  0.4799  1.1586  0.6214
33672SOL    HW1 3971   5.560   0.218   4.472  2.2430 -0.3558  0.9761
33672SOL    HW2 3972   5.635   0.348   4.489  1.6838  0.1003  0.0356
33673SOL     OW 3973   8.762   0.686   0.069  0.2684  0.1161  0.3282
33673SOL    HW1 3974   8.719   0.710  -0.013 -1.8723 -0.6429  1.1649
33673SOL    HW2 3975   8.846   0.649   0.042 -0.8842 -1.2424 -1.6256
33674SOL     OW 3976  10.456   1.489   8.631 -0.0153  0.8009 -0.3568
33674SOL    HW1 3977  10.471   1.533   8.547 -0.5130  0.3503 -0.6870
33674SOL    HW2 3978  10.452   1.396   8.609 -0.5339  0.7051  0.1124
33675SOL     OW 3979   6.243   9.007   7.307  0.3592 -0.0520 -0.0234
33675SOL    HW1 3980   6.241   9.102   7.304 -2.2623 -0.0279 -2.6756
33675SOL    HW2 3981   6.198   8.984   7.388 -0.6333  1.0254 -0.2378
33676SOL     OW 3982   0.830   4.783   7.965  0.0946  0.4051  0.1516
33676SOL    HW1 3983   0.873   4.734   8.036  1.0637 -1.0641 -1.3714
33676SOL    HW2 3984   0.773   4.845   8.010 -0.2404 -1.2864  2.2109
33677SOL     OW 3985   7.715   3.888   8.076  0.3877  0.1341  0.4238
33677SOL    HW1 3986   7.668   3.938   8.010  0.5982 -0.7395 -0.4036
33677SOL    HW2 3987   7.755   3.954   8.132  1.3565  0.9181 -1.1401
33678SOL     OW 3988   0.490   5.438   0.023  0.2315 -0.3941 -0.1810
33678SOL    HW1 3989   0.470   5.461  -0.067  1.3907 -2.0215 -0.9047
33678SOL    HW2 3990   0.405   5.425   0.065 -0.3115 -0.7793 -1.3667
33679SOL     OW 3991   8.335   8.027   1.296  0.1773 -0.2278  0.1539
33679SOL    HW1 3992   8.242   8.008   1.288 -0.0285  1.2670 -1.5997
33679SOL    HW2 3993   8.378   7.942   1.289 -0.9680 -0.7215 -1.3374
33680SOL     OW 3994   3.178   1.576   2.999 -0.4884 -0.0684 -0.5018
33680SOL    HW1 3995   3.159   1.578   3.093 -0.8660 -0.7535 -0.5572
33680SOL    HW2 3996   3.272   1.562   2.994 -0.7333 -2.0897 -0.2042
33681SOL     OW 3997   8.899   4.498   9.826  0.0481 -0.2681 -0.4648
33681SOL    HW1 3998   8.810   4.529   9.844  0.3504  1.3012 -1.4864
33681SOL    HW2 3999   8.890   4.443   9.748 -0.0763 -0.3372 -0.4018
33682SOL     OW 4000   2.373   0.140   8.421  0.7440  0.1721  0.1523
33682SOL    HW1 4001   2.377   0.199   8.497 -1.6072 -0.2685  0.7077
33682SOL    HW2 4002   2.446   0.080   8.434  1.2182  0.9629  1.3289
33683SOL     OW 4003   9.883   5.520   5.463 -0.1166  0.4374 -0.0693
33683SOL    HW1 4004   9.845   5.596   5.506 -1.6656 -0.6602  0.5888
33683SOL    HW2 4005   9.934   5.477   5.531 -1.7366 -0.7424  0.4471
33684SOL     OW 4006   3.893   4.789   3.171 -0.2128 -1.0465  0.4522
33684SOL    HW1 4007   3.904   4.845   3.247  0.2073 -2.3858  1.4122
33684SOL    HW2 4008   3.802   4.759   3.175 -0.8948  0.6798 -0.8904
33685SOL     OW 4009   5.480   5.884   5.299  0.2074 -0.1921 -0.5654
33685SOL    HW1 4010   5.391   5.917   5.308  0.7967  1.5849 -0.9027
33685SOL    HW2 4011   5.483   5.847   5.211 -0.0220  0.3380 -0.8030
33686SOL     OW 4012   1.934   0.083   7.722  0.1526  0.0194 -0.1683
33686SOL    HW1 4013   1.929   0.104   7.629  1.8827 -2.3840 -0.8935
33686SOL    HW2 4014   1.844   0.090   7.754 -0.6736 -0.3011 -2.3092
33687SOL     OW 4015   7.875   1.560   0.261  0.2088 -0.2962  0.0031
33687SOL    HW1 4016   7.864   1.521   0.348 -0.4176 -1.4968 -0.5893
33687SOL    HW2 4017   7.786   1.584   0.234  0.2848 -0.7307 -0.6583
33688SOL     OW 4018   1.069   1.008   1.813 -0.1872  0.1017  0.1909
33688SOL    HW1 4019   1.157   1.039   1.834 -0.4957  0.2349  1.3690
33688SOL    HW2 4020   1.058   1.028   1.720  0.1549  2.2533  0.5639
33689SOL     OW 4021   9.880   4.406   0.935 -0.0934  0.2153 -0.1667
33689SOL    HW1 4022   9.963   4.421   0.891 -0.5321  0.8745 -0.8141
33689SOL    HW2 4023   9.830   4.351   0.874 -0.7897  1.3194 -0.6382
33690SOL     OW 4024   0.403   9.306  10.537  0.5449  0.5895 -0.3065
33690SOL    HW1 4025   0.494   9.275  10.536  0.0440 -1.0862 -2.1222
33690SOL    HW2 4026   0.376   9.300  10.445 -1.6621  0.2171  0.3202
33691SOL     OW 4027   0.887   1.033  10.621  0.0851 -0.6416  0.9131
33691SOL    HW1 4028   0.878   0.956  10.563  2.0222 -1.4761  1.6124
33691SOL    HW2 4029   0.820   1.021  10.688  0.6843 -2.0166  1.2963
33692SOL     OW 4030   4.273   5.490   5.193  0.2250 -0.0419  0.2436
33692SOL    HW1 4031   4.200   5.500   5.254 -0.0155  0.2957 -0.0904
33692SOL    HW2 4032   4.314   5.407   5.217  1.5934  1.1435  2.4182
33693SOL     OW 4033   0.415   2.107   0.512  0.0663 -0.0094 -0.0449
33693SOL    HW1 4034   0.362   2.154   0.576  0.0884 -1.8694  1.4276
33693SOL    HW2 4035   0.409   2.160   0.433  1.2951  3.2575  1.8481
33694SOL     OW 4036   8.595   4.397   3.064 -0.9455  0.7230 -0.1886
33694SOL    HW1 4037   8.561   4.418   2.977 -1.9889  2.2637  0.5440
33694SOL    HW2 4038   8.689   4.393   3.052 -0.9987  1.8490 -1.2241
33695SOL     OW 4039   8.297   4.491   9.581 -0.4602  0.3765  0.3011
33695SOL    HW1 4040   8.275   4.446   9.663 -1.1561  0.3715  0.1130
33695SOL    HW2 4041   8.318   4.580   9.609  1.2433 -0.1108  0.7160
33696SOL     OW 4042   5.195   1.787   4.970  0.0394 -0.0698 -0.1353
33696SOL    HW1 4043   5.170   1.698   4.997 -1.6849  0.3617 -0.2092
33696SOL    HW2 4044   5.224   1.776   4.879 -1.2668 -0.4136 -0.5334
33697SOL     OW 4045   9.969   1.692   4.102 -0.3873  0.4936  0.1054
33697SOL    HW1 4046   9.948   1.640   4.025 -0.6379 -1.6187  1.5027
33697SOL    HW2 4047   9.884   1.728   4.130 -0.3149  1.1575 -0.5000
33698SOL     OW 4048   2.787   3.591   0.448  0.0282 -0.3466 -0.2780
33698SOL    HW1 4049   2.822   3.502   0.442  0.1046 -0.3776  0.4583
33698SOL    HW2 4050   2.712   3.592   0.389 -0.0740 -0.9505 -0.1661
33699SOL     OW 4051   7.303   2.664   8.718 -0.0835 -0.0303  0.0060
33699SOL    HW1 4052   7.382   2.644   8.669  0.3053 -0.3126  0.7225
33699SOL    HW2 4053   7.284   2.755   8.697  0.8705  0.2775  0.4006
33700SOL     OW 4054   3.362   3.384   3.807 -0.0359 -0.8632 -0.5935
33700SOL    HW1 4055   3.266   3.381   3.802 -0.1192 -0.0146  0.1878
33700SOL    HW2 4056   3.382   3.372   3.899  0.6435 -1.4785 -0.8158
33701SOL     OW 4057   3.227   8.677   6.078  0.0291  0.4044 -0.7733
33701SOL    HW1 4058   3.189   8.684   6.166  1.3749 -2.3927  0.1599
33701SOL    HW2 4059   3.307   8.729   6.082  0.1184  0.2378 -0.2951
33702SOL     OW 4060  10.643   4.275   6.477  0.1113  0.2324 -0.1498
33702SOL    HW1 4061  10.551   4.299   6.482 -0.1795 -0.8750 -0.0373
33702SOL    HW2 4062  10.656   4.215   6.550  1.4169  1.9185  1.1008
33703SOL     OW 4063   3.101   3.709   1.325  0.0712  0.3979  0.0868
33703SOL    HW1 4064   3.076   3.801   1.324 -1.2784  0.0473  0.0196
33703SOL    HW2 4065   3.194   3.710   1.348  0.2716  1.8092 -0.6719
33704SOL     OW 4066   2.348   4.568   6.560  0.1777  0.1826 -0.1631
33704SOL    HW1 4067   2.297   4.594   6.637 -1.5994  0.1310 -1.2639
33704SOL    HW2 4068   2.375   4.478   6.578  1.3529  0.7561  1.1479
33705SOL     OW 4069   4.163   3.044   0.606 -0.3852 -0.0027 -0.3416
33705SOL    HW1 4070   4.103   2.988   0.655  1.7809 -0.2939  2.1920
33705SOL    HW2 4071   4.229   2.985   0.572 -0.0596  0.6056 -0.7779
33706SOL     OW 4072   8.677  10.045   9.626 -0.3674 -0.0760  0.5715
33706SOL    HW1 4073   8.709   9.987   9.557 -2.4368 -0.1417 -0.4129
33706SOL    HW2 4074   8.610   9.993   9.671  2.3908 -0.8592  4.1731
33707SOL     OW 4075   3.087   4.883   6.346 -0.1065 -0.6005  0.6417
33707SOL    HW1 4076   3.045   4.927   6.272  0.9383 -0.7689 -0.0764
33707SOL    HW2 4077   3.017   4.874   6.411 -0.7682  0.5626  0.1319
33708SOL     OW 4078   8.756   5.828   4.373  0.3639  0.3960  0.0415
33708SOL    HW1 4079   8.835   5.775   4.362  1.8251  2.5771 -0.8241
33708SOL    HW2 4080   8.737   5.825   4.466 -0.8948 -3.2254 -0.1744
33709SOL     OW 4081   3.012   6.820   1.915  0.2311  0.2486  0.1246
33709SOL    HW1 4082   3.058   6.759   1.858 -0.1176 -0.0763  0.1838
33709SOL    HW2 4083   2.978   6.887   1.856  0.4440  0.2798  0.0349
33710SOL     OW 4084   8.583   1.592   5.214  0.4432  0.1918  0.2845
33710SOL    HW1 4085   8.577   1.653   5.141 -0.9881 -0.0436  0.1742
33710SOL    HW2 4086   8.502   1.541   5.210  1.5068 -1.5990  0.4977
33711SOL     OW 4087   5.770   9.427  10.543  0.7541  0.3578  0.1328
33711SOL    HW1 4088   5.765   9.336  10.573 -0.6602  0.1443 -0.6457
33711SOL    HW2 4089   5.814   9.421  10.458  0.6170  0.3780  0.0586
33712SOL     OW 4090   8.411   9.413   3.498 -0.3257  0.4025  0.3521
33712SOL    HW1 4091   8.373   9.359   3.568 -0.2967 -0.6666 -0.4244
33712SOL    HW2 4092   8.335   9.437   3.444 -0.2164  0.3055  0.1536
33713SOL     OW 4093   4.308   2.969   3.456  0.3773 -0.4443 -0.4836
33713SOL    HW1 4094   4.376   2.968   3.523  0.5534 -0.3524 -0.6626
33713SOL    HW2 4095   4.311   3.058   3.420 -0.9109  0.0973  0.6193
33714SOL     OW 4096   5.440   4.383   8.546 -0.5375  0.2731  0.4428
33714SOL    HW1 4097   5.373   4.388   8.478  1.2852 -1.2053 -1.5743
33714SOL    HW2 4098   5.437   4.292   8.576  0.8214  0.0842  0.0424
33715SOL     OW 4099   8.016   1.333   5.787 -0.1277  0.3448  0.1274
33715SOL    HW1 4100   8.042   1.421   5.816 -0.8671 -0.0105  1.9510
33715SOL    HW2 4101   7.943   1.349   5.727 -1.1166  0.9490  1.4439
33716SOL     OW 4102   8.088   2.696   6.400 -0.2459 -0.2820 -0.4565
33716SOL    HW1 4103   8.042   2.657   6.325  1.1803 -0.2302 -1.4016
33716SOL    HW2 4104   8.056   2.646   6.475 -1.1534 -0.8537 -1.1821
33717SOL     OW 4105   4.933   1.263   5.213 -0.0359  0.4418  0.5559
33717SOL    HW1 4106   4.977   1.221   5.287  0.7102 -0.6672 -0.4731
33717SOL    HW2 4107   4.975   1.349   5.206  0.7947  0.0547  0.6336
33718SOL     OW 4108   0.702   5.736   5.401 -0.4074 -0.6145  0.1200
33718SOL    HW1 4109   0.745   5.736   5.487  0.6450 -2.2122 -0.3434
33718SOL    HW2 4110   0.664   5.823   5.393 -0.0144 -0.2266  1.9512
33719SOL     OW 4111   2.943   9.511   6.615  0.2854  0.2963  0.0030
33719SOL    HW1 4112   2.852   9.542   6.607  0.1636 -0.3476 -1.5313
33719SOL    HW2 4113   2.995   9.580   6.574  0.3501  0.0597 -0.3168
33720SOL     OW 4114   8.386   7.412   4.900 -0.0116 -0.2036 -0.2518
33720SOL    HW1 4115   8.480   7.418   4.884 -0.1877 -0.4249 -1.4754
33720SOL    HW2 4116   8.349   7.388   4.815 -1.1574 -0.2838  0.2541
33721SOL     OW 4117  10.121   6.259   9.393 -0.2470 -0.3320  0.2700
33721SOL    HW1 4118  10.152   6.177   9.432  0.2507 -0.0831  0.4095
33721SOL    HW2 4119  10.200   6.298   9.354 -1.1651 -2.0606 -3.8615
33722SOL     OW 4120   3.048   2.104   2.565 -0.1218  0.4769 -0.3857
33722SOL    HW1 4121   2.969   2.109   2.511 -1.1654 -0.2113  0.9959
33722SOL    HW2 4122   3.086   2.019   2.544 -0.6406  0.1192  0.0737
33723SOL     OW 4123   0.642   4.874   3.405 -0.2123 -0.3631  0.6856
33723SOL    HW1 4124   0.632   4.953   3.458  0.0888  0.2198 -0.1033
33723SOL    HW2 4125   0.719   4.830   3.442  0.5009  0.4616  0.2495
33724SOL     OW 4126   7.051   0.037   7.513 -0.2476 -0.2443  0.3741
33724SOL    HW1 4127   7.069   0.017   7.605 -1.2423  0.4515  0.7389
33724SOL    HW2 4128   6.965  -0.002   7.496  0.6912 -1.9386 -0.8085
33725SOL     OW 4129   4.830   4.206   1.950 -0.3810  0.0018 -0.5792
33725SOL    HW1 4130   4.848   4.300   1.949 -0.9755  0.1415  0.7501
33725SOL    HW2 4131   4.905   4.167   1.904 -0.1217  1.1129 -1.1272
33726SOL     OW 4132   9.301   8.642   3.872 -0.5835 -0.0627 -0.0977
33726SOL    HW1 4133   9.321   8.717   3.816 -2.7736  0.2883 -0.5159
33726SOL    HW2 4134   9.224   8.670   3.923 -0.9618 -1.7317  0.3059
33727SOL     OW 4135   1.736   1.532   0.697 -0.3764 -0.1875 -0.1618
33727SOL    HW1 4136   1.645   1.536   0.667 -0.0240 -0.6425 -1.3687
33727SOL    HW2 4137   1.747   1.442   0.729 -0.0684 -0.4797 -1.0466
33728SOL     OW 4138   8.143   8.915   9.098 -0.2221  0.1110  0.2017
33728SOL    HW1 4139   8.080   8.944   9.031  0.0905  1.6726  0.5370
33728SOL    HW2 4140   8.106   8.834   9.133 -1.3233  0.2510 -0.5861
33729SOL     OW 4141   0.081   6.195   2.262 -0.5173 -0.1827  0.9030
33729SOL    HW1 4142   0.134   6.264   2.222 -2.5390  1.4374  0.8231
33729SOL    HW2 4143   0.106   6.115   2.215  1.2042  0.6546  0.3217
33730SOL     OW 4144   6.932   6.632   6.253  0.5711  0.2175 -0.2152
33730SOL    HW1 4145   6.863   6.638   6.320  0.4109  0.5633 -0.4079
33730SOL    HW2 4146   7.011   6.662   6.297  0.2362  1.6240 -0.5055
33731SOL     OW 4147   8.507   3.548   0.992  0.4670  0.3413 -0.2738
33731SOL    HW1 4148   8.579   3.543   0.930  1.6397 -1.0508  1.1047
33731SOL    HW2 4149   8.429   3.530   0.940  1.5475 -2.3288 -1.1566
33732SOL     OW 4150   7.580   7.280   0.727 -0.4545 -0.2257 -0.0093
33732SOL    HW1 4151   7.632   7.281   0.807 -0.4380 -0.4849 -0.0157
33732SOL    HW2 4152   7.576   7.187   0.701 -0.7441 -0.1857 -0.1220
33733SOL     OW 4153   0.150   0.552   5.277 -0.1807 -0.0157 -0.4364
33733SOL    HW1 4154   0.187   0.627   5.324  1.2002 -1.3088  0.6268
33733SOL    HW2 4155   0.200   0.547   5.196  3.2229 -2.5898  1.5913
33734SOL     OW 4156   2.203   3.763   4.652 -0.2488 -0.0775 -0.3384
33734SOL    HW1 4157   2.215   3.835   4.714 -1.8194 -0.3996  0.3977
33734SOL    HW2 4158   2.148   3.799   4.583 -0.2747 -0.2982 -0.4355
33735SOL     OW 4159   7.587   0.049   5.958 -0.8264  0.3374  0.1608
33735SOL    HW1 4160   7.611  -0.043   5.972 -3.0826 -0.6225 -1.5602
33735SOL    HW2 4161   7.564   0.081   6.045  1.6166 -0.1484  1.0634
33736SOL     OW 4162   3.460   0.832   6.821 -0.2265 -0.0909 -0.2378
33736SOL    HW1 4163   3.394   0.866   6.881  0.3989 -0.5207  0.7192
33736SOL    HW2 4164   3.504   0.910   6.787 -2.3702  0.3230 -2.3088
33737SOL     OW 4165   6.621   7.048   4.085 -0.4632 -0.4325 -0.4478
33737SOL    HW1 4166   6.628   7.086   3.997  0.0021  1.0386  0.2147
33737SOL    HW2 4167   6.710   7.022   4.108  0.0747  2.3177  0.9242
33738SOL     OW 4168   3.886  10.327   1.564 -0.4591 -0.2330 -0.5418
33738SOL    HW1 4169   3.870  10.416   1.534  0.7314  0.6436  1.2704
33738SOL    HW2 4170   3.964  10.334   1.620 -0.7853 -2.2725  0.2426
33739SOL     OW 4171   6.851   5.596   1.761  0.5528  0.7934 -0.2441
33739SOL    HW1 4172   6.758   5.580   1.741  1.0085 -2.3182 -0.4248
33739SOL    HW2 4173   6.860   5.569   1.852  1.8281 -2.3481 -1.1676
33740SOL     OW 4174   0.150   2.935   2.977 -0.1446 -0.4337  0.5652
33740SOL    HW1 4175   0.120   3.011   3.026  0.5378 -0.2277  0.6810
33740SOL    HW2 4176   0.070   2.894   2.943 -0.4201  1.5430 -1.3464
33741SOL     OW 4177   8.577   4.056   4.257 -0.4301 -0.6669 -0.0683
33741SOL    HW1 4178   8.522   3.978   4.256 -0.2533 -0.7977 -1.0765
33741SOL    HW2 4179   8.545   4.109   4.183  0.9876 -0.9043 -0.8889
33742SOL     OW 4180   4.380  10.413   6.391  0.2988 -0.0087  0.0889
33742SOL    HW1 4181   4.396  10.495   6.437  1.2904 -0.1603  0.0464
33742SOL    HW2 4182   4.379  10.437   6.298  2.3355 -0.2532 -0.0509
33743SOL     OW 4183   6.283   8.449   3.539  0.0067 -0.1422 -0.3753
33743SOL    HW1 4184   6.204   8.496   3.567 -1.3647 -1.8635 -1.1352
33743SOL    HW2 4185   6.277   8.447   3.443 -0.1649 -2.0636 -0.3705
33744SOL     OW 4186   4.135  10.236   6.424 -0.2711  0.1919  0.0853
33744SOL    HW1 4187   4.228  10.259   6.423 -0.1655 -0.1465 -1.9011
33744SOL    HW2 4188   4.089  10.320   6.426  0.0981  0.4229 -0.7096
33745SOL     OW 4189   5.750   2.683   7.153  0.2968 -0.0198  1.1404
33745SOL    HW1 4190   5.798   2.626   7.093 -0.4153 -0.8227  1.3069
33745SOL    HW2 4191   5.716   2.753   7.097 -0.6515 -0.9419  0.5115
33746SOL     OW 4192   6.249   5.877   2.578  0.2258  0.3510 -0.1108
33746SOL    HW1 4193   6.244   5.915   2.490 -3.6419  0.9829  0.2065
33746SOL    HW2 4194   6.278   5.950   2.633  0.4594  0.5982 -0.5516
33747SOL     OW 4195  10.024   6.500   0.982  0.4957  0.8196 -0.6497
33747SOL    HW1 4196  10.079   6.432   0.942  0.4880  0.5624 -0.2212
33747SOL    HW2 4197  10.018   6.567   0.914  0.8334  0.5757 -0.9302
33748SOL     OW 4198   0.386   5.177   1.203  0.3692  0.1977  0.7830
33748SOL    HW1 4199   0.365   5.252   1.149 -0.7060 -0.2275  0.5930
33748SOL    HW2 4200   0.338   5.191   1.284  0.1723 -0.2671  0.7512
33749SOL     OW 4201   4.704   5.355   7.568  0.4110 -0.8264  0.0972
33749SOL    HW1 4202   4.653   5.433   7.546 -0.6379 -1.1577  1.2279
33749SOL    HW2 4203   4.775   5.354   7.505  0.0900  0.7070 -0.3256
33750SOL     OW 4204   9.415   1.363   6.072  0.4668  0.0506 -0.4140
33750SOL    HW1 4205   9.506   1.341   6.050  0.5415  0.2676 -0.3233
33750SOL    HW2 4206   9.422   1.418   6.150  0.3823  1.4991 -1.3753
33751SOL     OW 4207   8.903   6.433   3.216 -0.5808 -0.7589  0.7543
33751SOL    HW1 4208   8.943   6.347   3.203  1.6583  0.4729 -1.3249
33751SOL    HW2 4209   8.834   6.438   3.149  0.3055 -0.4000 -0.1502
33752SOL     OW 4210   5.427   1.962  10.395  0.3619 -0.8626  0.2285
33752SOL    HW1 4211   5.373   1.955  10.473 -0.6619  1.8903 -0.1174
33752SOL    HW2 4212   5.392   1.895  10.336 -3.0774  0.9838 -0.1187
33753SOL     OW 4213   8.497   4.740   8.671 -0.2720  0.3067 -0.1713
33753SOL    HW1 4214   8.434   4.794   8.622 -1.4020  0.6690  1.6161
33753SOL    HW2 4215   8.499   4.657   8.622 -2.1593  0.2785 -0.2839
33754SOL     OW 4216  10.645   6.308   6.313  0.0832 -0.3916 -0.2381
33754SOL    HW1 4217  10.557   6.321   6.347  0.2291 -0.5215  0.2026
33754SOL    HW2 4218  10.694   6.384   6.343  0.6236 -1.2802  1.2789
33755SOL     OW 4219   0.261   7.802   3.187  0.2586  0.5518  0.2062
33755SOL    HW1 4220   0.286   7.881   3.234  0.6743 -0.0216  0.9934
33755SOL    HW2 4221   0.327   7.793   3.118  0.8335  0.3461  0.7698
33756SOL     OW 4222   3.964   6.212   5.460  0.0427  0.3495 -0.5151
33756SOL    HW1 4223   4.051   6.177   5.439 -0.0431 -1.1733  1.3504
33756SOL    HW2 4224   3.903   6.148   5.424 -0.1384 -1.1003  2.1178
33757SOL     OW 4225  10.016   3.380   0.807  0.3602  0.0844 -0.2840
33757SOL    HW1 4226   9.976   3.445   0.748 -1.1826  0.1494  0.7941
33757SOL    HW2 4227  10.038   3.307   0.749  0.5723  0.8692 -1.2384
33758SOL     OW 4228   3.984  10.078   8.931 -0.4175 -0.0943 -0.1608
33758SOL    HW1 4229   4.016   9.992   8.905 -0.1519  0.3606 -1.4332
33758SOL    HW2 4230   3.892  10.079   8.904 -0.4282  0.0214 -0.1210
33759SOL     OW 4231   2.271   8.312  10.212 -0.5930 -0.1573 -0.1488
33759SOL    HW1 4232   2.181   8.303  10.243  0.2820 -1.1285  2.3511
33759SOL    HW2 4233   2.323   8.330  10.291  1.8094 -2.6897 -0.9677
33760SOL     OW 4234   4.742   4.161   1.327  0.7763 -0.0043  0.4310
33760SOL    HW1 4235   4.673   4.142   1.264  0.2578 -0.6690  1.1923
33760SOL    HW2 4236   4.697   4.169   1.411  1.4193  1.1471  0.6916
33761SOL     OW 4237   0.175   6.147   7.383 -0.0278 -0.2459  0.3324
33761SOL    HW1 4238   0.113   6.073   7.384  0.2220 -0.4690 -0.1887
33761SOL    HW2 4239   0.125   6.219   7.345  0.3869 -0.7668 -1.2796
33762SOL     OW 4240   5.103   0.934   3.160 -1.0507 -0.4693  0.2914
33762SOL    HW1 4241   5.101   0.968   3.249  0.3428 -0.7890  0.4656
33762SOL    HW2 4242   5.176   0.873   3.159 -1.0965 -0.5289 -1.0515
33763SOL     OW 4243   7.102   4.625   2.134  0.1998  0.2235  0.0050
33763SOL    HW1 4244   7.105   4.706   2.186 -0.2933 -0.7046  1.5354
33763SOL    HW2 4245   7.009   4.603   2.130  0.3789 -0.5482  0.0410
33764SOL     OW 4246   7.749   9.675   0.297  0.5597 -0.1714  0.2721
33764SOL    HW1 4247   7.788   9.690   0.383  1.9607 -1.6826 -0.0721
33764SOL    HW2 4248   7.777   9.750   0.245  3.9657 -1.6610 -0.2521
33765SOL     OW 4249   3.987   5.866   4.830 -0.0021 -0.4258  0.3719
33765SOL    HW1 4250   3.900   5.901   4.852 -0.4619 -0.7090 -0.9391
33765SOL    HW2 4251   4.012   5.814   4.907 -0.3153  0.8852  1.3890
33766SOL     OW 4252   3.640   5.699   4.429  0.3680  0.2403 -0.0324
33766SOL    HW1 4253   3.647   5.605   4.413  1.1808  0.4500 -0.9556
33766SOL    HW2 4254   3.551   5.710   4.463 -1.3210 -0.3502 -3.7604
33767SOL     OW 4255   8.055   7.796   7.316  0.4775  0.3427 -0.5453
33767SOL    HW1 4256   7.989   7.757   7.258  0.6533 -0.2619 -0.3480
33767SOL    HW2 4257   8.046   7.747   7.398  0.9317  0.4960 -0.4026
33768SOL     OW 4258   1.895   0.861   0.582 -0.0209 -0.4377 -0.2901
33768SOL    HW1 4259   1.906   0.814   0.665  0.0944 -0.7392 -0.4762
33768SOL    HW2 4260   1.936   0.805   0.517 -0.7204 -0.5237 -0.6632
33769SOL     OW 4261   0.497   8.945   5.092 -0.5879  0.1676  0.0706
33769SOL    HW1 4262   0.586   8.927   5.121  0.3391  0.1790 -2.5288
33769SOL    HW2 4263   0.473   9.026   5.138  0.4144 -0.2673  1.4202
33770SOL     OW 4264   3.122   1.305   1.173  0.0280  0.9734  0.1306
33770SOL    HW1 4265   3.198   1.338   1.126  1.2137 -1.4072  0.2434
33770SOL    HW2 4266   3.081   1.243   1.113  0.2285 -0.3730  1.3220
33771SOL     OW 4267  10.237   6.346   6.021 -0.2722  0.3925 -0.1821
33771SOL    HW1 4268  10.283   6.327   5.939  0.5742 -1.2463  0.6196
33771SOL    HW2 4269  10.279   6.289   6.086 -0.5162  2.0820  1.5376
33772SOL     OW 4270   2.180   1.156   6.114 -0.3659  0.1367 -0.0349
33772SOL    HW1 4271   2.136   1.233   6.151 -2.1759 -0.9701  0.2032
33772SOL    HW2 4272   2.192   1.177   6.021 -2.5729 -0.0017 -0.3922
33773SOL     OW 4273   2.313   7.383   9.493  0.4035 -0.2827 -0.6103
33773SOL    HW1 4274   2.383   7.448   9.502  0.7141 -0.5321 -1.1673
33773SOL    HW2 4275   2.232   7.435   9.492  0.5981  0.0351 -0.2971
33774SOL     OW 4276   0.754   9.927   7.153 -0.5002  0.1822 -0.0165
33774SOL    HW1 4277   0.720   9.868   7.221  1.1133 -1.7498 -0.7845
33774SOL    HW2 4278   0.677   9.955   7.104 -1.5442  0.5524  1.7613
33775SOL     OW 4279   7.052  10.606   9.447  0.4044 -0.1889 -0.1475
33775SOL    HW1 4280   7.107  10.550   9.502  1.3709  2.5446  1.9308
33775SOL    HW2 4281   6.983  10.637   9.506  0.4717  1.5132 -0.9018
33776SOL     OW 4282   6.438   1.626   4.399  0.4037 -0.3904 -0.1509
33776SOL    HW1 4283   6.505   1.566   4.432 -0.9580 -1.2643  1.1109
33776SOL    HW2 4284   6.355   1.581   4.413 -0.4941  0.7152 -1.5917
33777SOL     OW 4285   8.394   3.722   0.396 -0.6807  0.3921  0.6463
33777SOL    HW1 4286   8.304   3.693   0.407 -1.0026  1.5438  1.2094
33777SOL    HW2 4287   8.386   3.812   0.364  0.2642  0.4865  0.6595
33778SOL     OW 4288  10.027   3.069   1.494 -0.4115  0.3423  0.2854
33778SOL    HW1 4289   9.944   3.083   1.450 -0.5784 -1.2917  0.0035
33778SOL    HW2 4290  10.093   3.075   1.425 -0.4530  0.0516  0.2199
33779SOL     OW 4291   3.653   2.389   9.882 -0.0570  0.4234  0.5749
33779SOL    HW1 4292   3.688   2.336   9.811 -2.5729 -0.2450 -0.2480
33779SOL    HW2 4293   3.609   2.462   9.839 -1.3339  0.1873  1.4254
33780SOL     OW 4294   2.339   6.926   8.199  0.0578 -0.3993  0.0073
33780SOL    HW1 4295   2.243   6.922   8.201  0.0651 -0.4915  0.2022
33780SOL    HW2 4296   2.363   6.883   8.117 -0.1057  0.4716 -0.5064
33781SOL     OW 4297   6.089   5.352  10.419  0.4544  0.1449  0.6202
33781SOL    HW1 4298   6.103   5.265  10.455  2.8758 -0.1128 -0.7387
33781SOL    HW2 4299   6.096   5.411  10.494 -0.6729 -0.7378  1.4589
33782SOL     OW 4300   8.781   9.754   8.333 -0.2363  0.0853 -0.6036
33782SOL    HW1 4301   8.790   9.845   8.304 -0.3668  0.7546  1.3235
33782SOL    HW2 4302   8.719   9.758   8.405  0.5100 -1.3875  0.1582
33783SOL     OW 4303   9.888   2.246   3.321  0.5499  0.4796  0.3137
33783SOL    HW1 4304   9.923   2.173   3.373  0.5098  1.0503  1.1460
33783SOL    HW2 4305   9.950   2.318   3.336 -0.3646  1.1613  0.9244
33784SOL     OW 4306   7.658   1.705   0.319  0.4040  0.1812 -0.5649
33784SOL    HW1 4307   7.700   1.703   0.405  0.7701  0.9059 -0.7245
33784SOL    HW2 4308   7.651   1.798   0.297  0.0929  0.0112 -1.2147
33785SOL     OW 4309   6.999   1.604   1.582  0.3532 -0.0909  0.1581
33785SOL    HW1 4310   6.972   1.615   1.491  1.3959 -0.2766 -0.1882
33785SOL    HW2 4311   6.948   1.529   1.614 -0.6857  0.5490  0.0154
33786SOL     OW 4312   3.155   1.562   7.729 -0.3121  0.4046  0.1899
33786SOL    HW1 4313   3.128   1.474   7.755 -1.0488  0.4389 -0.4113
33786SOL    HW2 4314   3.175   1.554   7.636 -0.1693  0.8253  0.1821
33787SOL     OW 4315   5.205   2.080   4.847  0.0731 -0.6759 -0.2067
33787SOL    HW1 4316   5.180   2.003   4.900  1.2663 -0.3584  0.8729
33787SOL    HW2 4317   5.290   2.057   4.811  1.3381  0.8040  1.6361
33788SOL     OW 4318   1.705   4.708   7.056  0.1432 -0.0370 -0.2634
33788SOL    HW1 4319   1.622   4.741   7.021 -0.4068  0.4488  1.3852
33788SOL    HW2 4320   1.686   4.690   7.148  1.8688  0.0475  0.1417
33789SOL     OW 4321   1.938   8.670   2.872  0.0933 -0.5674 -0.5244
33789SOL    HW1 4322   1.863   8.611   2.862 -0.8597  0.2879  1.0369
33789SOL    HW2 4323   1.979   8.672   2.786 -0.2968 -2.8724 -0.8295
33790SOL     OW 4324   6.736   4.045   6.126  0.2650  0.3751 -0.5243
33790SOL    HW1 4325   6.646   4.039   6.093  0.2776  0.4723 -0.5772
33790SOL    HW2 4326   6.728   4.033   6.220  0.3414 -1.0190 -0.6654
33791SOL     OW 4327   5.933   4.669   7.889  0.1629  0.4350 -0.7144
33791SOL    HW1 4328   5.855   4.720   7.911  1.7278  2.1039  1.4468
33791SOL    HW2 4329   5.908   4.578   7.904 -1.0073  1.0268  1.3230
33792SOL     OW 4330   4.213   3.488   6.269 -0.0597 -0.7791 -0.2235
33792SOL    HW1 4331   4.161   3.492   6.349 -1.0466 -1.2704 -0.8132
33792SOL    HW2 4332   4.276   3.418   6.284  0.8320  0.1911  0.7142
33793SOL     OW 4333   6.537   4.480   6.724 -0.3684  0.3658 -0.9109
33793SOL    HW1 4334   6.556   4.574   6.718 -2.5936  0.9243  0.0897
33793SOL    HW2 4335   6.484   4.461   6.647 -1.2311  0.2860 -0.3066
33794SOL     OW 4336  10.660   5.045   1.726 -0.1101 -0.0919 -0.0582
33794SOL    HW1 4337  10.682   5.024   1.636 -0.8831 -0.5464 -0.1522
33794SOL    HW2 4338  10.675   4.964   1.775 -1.4940 -0.4141 -0.1243
33795SOL     OW 4339   9.925   8.055   8.152 -0.2795 -0.4084 -0.0702
33795SOL    HW1 4340   9.971   8.007   8.221  0.1188 -1.0154 -0.7430
33795SOL    HW2 4341   9.941   8.004   8.073 -1.9975 -0.5613 -0.3553
33796SOL     OW 4342   3.349   6.546   2.558  0.3959 -0.2877 -0.2761
33796SOL    HW1 4343   3.389   6.461   2.573 -0.5525 -0.6023  0.5285
33796SOL    HW2 4344   3.327   6.579   2.645 -2.3454 -0.7576 -0.7280
33797SOL     OW 4345   2.226   3.903   1.333  0.4021  0.0272 -0.0981
33797SOL    HW1 4346   2.221   3.839   1.262 -1.2866  0.3978 -0.3553
33797SOL    HW2 4347   2.174   3.977   1.303  0.9604  0.8394  0.8856
33798SOL     OW 4348   8.594   1.250   3.842  0.5255  0.0046  0.8764
33798SOL    HW1 4349   8.658   1.239   3.913 -0.1050  0.7855  1.5928
33798SOL    HW2 4350   8.593   1.345   3.826  0.6663 -0.1686 -0.1968
33799SOL     OW 4351  10.262   9.424   7.633 -0.3394  0.1786  0.3088
33799SOL    HW1 4352  10.206   9.374   7.573 -1.7195  0.9578  0.8865
33799SOL    HW2 4353  10.203   9.451   7.703  0.1829  3.0535 -0.2462
33800SOL     OW 4354   1.340   9.639   6.913  0.3773  0.2097 -0.3848
33800SOL    HW1 4355   1.267   9.692   6.946  0.4948  1.7716 -2.3964
33800SOL    HW2 4356   1.329   9.640   6.818  2.3768 -0.4876 -0.6690
33801SOL     OW 4357   2.239   2.234   3.888 -0.2475  0.2244 -0.1189
33801SOL    HW1 4358   2.273   2.157   3.933  1.0478  1.0995  0.4494
33801SOL    HW2 4359   2.221   2.204   3.799  1.7884 -0.3405 -0.3746
33802SOL     OW 4360   1.405   4.873   5.949  0.2329  0.3848  0.2443
33802SOL    HW1 4361   1.382   4.844   5.861  0.9519  0.7494 -0.0700
33802SOL    HW2 4362   1.445   4.959   5.937  0.7338  0.2524  0.8799
33803SOL     OW 4363   0.860   0.988   3.065 -0.4281  0.3261  0.3049
33803SOL    HW1 4364   0.865   1.081   3.089 -0.5573  1.0601 -2.2466
33803SOL    HW2 4365   0.767   0.973   3.048 -0.3421 -0.1562  0.2524
33804SOL     OW 4366   9.952   4.907   4.054 -0.1353  0.1650  0.0759
33804SOL    HW1 4367  10.046   4.897   4.072 -0.1988  1.5057  1.3943
33804SOL    HW2 4368   9.915   4.932   4.139 -1.4891  0.8482 -0.6897
33805SOL     OW 4369  10.036   8.963   8.149 -0.0310 -0.3582  0.3864
33805SOL    HW1 4370  10.115   8.915   8.170  1.3217  1.2382 -0.7995
33805SOL    HW2 4371   9.988   8.968   8.232  1.0454 -1.4584  1.0898
33806SOL     OW 4372   9.081   6.332   0.147 -0.5198 -0.2517  0.8505
33806SOL    HW1 4373   9.159   6.331   0.090 -1.3963  0.6300 -0.4075
33806SOL    HW2 4374   9.030   6.407   0.117 -1.7180 -0.6308  1.8668
33807SOL     OW 4375   6.755   2.477   5.735  0.2293  0.4638 -0.2232
33807SOL    HW1 4376   6.780   2.389   5.765  1.0993  0.1188 -1.8478
33807SOL    HW2 4377   6.662   2.468   5.712  0.0374  0.2590  0.6041
33808SOL     OW 4378   7.123   8.686   0.015  0.0470 -0.0911  0.3109
33808SOL    HW1 4379   7.070   8.607   0.020  2.3209 -1.7313 -0.0338
33808SOL    HW2 4380   7.182   8.680   0.090 -0.5859  1.9921  1.0431
33809SOL     OW 4381   0.512   3.771   9.138 -0.6657  0.3161 -0.2796
33809SOL    HW1 4382   0.434   3.731   9.099 -1.4012  0.5053  0.9375
33809SOL    HW2 4383   0.579   3.764   9.071 -0.8612 -2.6426 -0.2851
33810SOL     OW 4384   7.539   6.758   3.195  0.7319 -0.0199  0.3000
33810SOL    HW1 4385   7.624   6.800   3.205  0.7169 -0.0265  0.4631
33810SOL    HW2 4386   7.530   6.703   3.273 -1.0401  2.8305  2.3123
33811SOL     OW 4387   1.878   9.297   5.848 -0.1185 -0.2999  0.2049
33811SOL    HW1 4388   1.812   9.356   5.812 -0.9267 -0.3793  1.4835
33811SOL    HW2 4389   1.905   9.338   5.930 -0.7918 -1.7100  1.1858
33812SOL     OW 4390   0.979   6.191   7.577  0.3605  0.1116  0.0289
33812SOL    HW1 4391   0.920   6.214   7.505 -0.1854 -0.0341  0.4212
33812SOL    HW2 4392   0.948   6.244   7.651  1.3173  0.7482 -0.0045
33813SOL     OW 4393   7.220   7.778   0.267  0.5815 -0.1157 -0.0615
33813SOL    HW1 4394   7.249   7.800   0.179 -1.6496 -1.8110 -1.3427
33813SOL    HW2 4395   7.235   7.684   0.275  1.8062  0.1856  1.8572
33814SOL     OW 4396   7.708   9.167   5.107 -0.7933  0.4548  0.6349
33814SOL    HW1 4397   7.659   9.247   5.123 -1.4363  0.2907 -0.3724
33814SOL    HW2 4398   7.640   9.102   5.085 -0.2759 -0.3207  1.2961
33815SOL     OW 4399   2.777   7.291   9.588 -0.1092 -0.1055  0.1635
33815SOL    HW1 4400   2.847   7.268   9.526  1.7162 -0.4000  2.2344
33815SOL    HW2 4401   2.703   7.237   9.561  1.2981 -1.8053 -0.5030
33816SOL     OW 4402   0.765   8.116   8.696 -0.0684 -0.6608 -0.4631
33816SOL    HW1 4403   0.677   8.149   8.679  0.6300 -0.0579 -3.2903
33816SOL    HW2 4404   0.765   8.027   8.662 -0.9487 -2.7366  4.1620
33817SOL     OW 4405   0.652   1.921   2.773 -0.3252 -0.2274  0.1656
33817SOL    HW1 4406   0.609   1.920   2.859 -1.5909  0.5790 -0.4282
33817SOL    HW2 4407   0.655   1.829   2.747  2.7524 -0.9002  2.2844
33818SOL     OW 4408   5.612   5.478   5.581 -0.2285  0.1051  0.1964
33818SOL    HW1 4409   5.638   5.481   5.673 -0.5652  2.4627  0.2866
33818SOL    HW2 4410   5.651   5.398   5.548  0.3797 -0.5233  2.2471
33819SOL     OW 4411   0.697   9.868   9.060 -0.2904 -0.0299 -0.1407
33819SOL    HW1 4412   0.602   9.879   9.068 -0.1519  1.3193 -0.0598
33819SOL    HW2 4413   0.725   9.836   9.146 -0.4699  1.2681  0.4195
33820SOL     OW 4414   1.040   9.383  10.356  0.3100  0.2746 -0.1995
33820SOL    HW1 4415   1.076   9.302  10.319  0.2815 -0.3329  1.0750
33820SOL    HW2 4416   0.970   9.407  10.295  0.2085 -0.7559 -0.5116
33821SOL     OW 4417   8.066   3.588   5.338 -0.1373 -0.6398  0.1663
33821SOL    HW1 4418   8.035   3.572   5.249 -0.3837  0.7708 -0.0269
33821SOL    HW2 4419   8.122   3.513   5.358 -0.1741 -1.0289 -1.1290
33822SOL     OW 4420   2.577   4.385   7.018 -0.2012  0.3184 -0.0660
33822SOL    HW1 4421   2.547   4.450   7.081  2.9091  0.3980  1.5448
33822SOL    HW2 4422   2.503   4.373   6.958 -2.4307  2.0463  2.1466
33823SOL     OW 4423   6.018   2.494   4.630  0.1092  0.1227 -0.1099
33823SOL    HW1 4424   6.049   2.577   4.667  1.5979  0.0153 -1.0177
33823SOL    HW2 4425   5.928   2.512   4.603  0.4124  1.4507 -0.3091
33824SOL     OW 4426   0.622   6.246   0.207 -0.0275 -0.5199  0.5248
33824SOL    HW1 4427   0.581   6.263   0.123 -1.9615 -0.2745  1.4616
33824SOL    HW2 4428   0.699   6.303   0.209 -0.6133  0.3348 -0.5985
33825SOL     OW 4429   7.660   5.629   0.816  0.2950  0.5567 -0.2936
33825SOL    HW1 4430   7.755   5.631   0.829  0.3173 -0.9366 -0.0638
33825SOL    HW2 4431   7.646   5.677   0.734  1.0219  2.5243  0.6686
33826SOL     OW 4432   8.407   0.084   6.386  0.4430  0.1280 -0.2063
33826SOL    HW1 4433   8.312   0.076   6.387  0.4422  0.1525  1.2614
33826SOL    HW2 4434   8.432   0.062   6.296 -1.0856  2.0045 -1.1695
33827SOL     OW 4435   1.073   0.886   7.182 -0.0750  0.3040 -0.3286
33827SOL    HW1 4436   1.089   0.808   7.129  0.1379  0.8342 -1.0552
33827SOL    HW2 4437   0.982   0.877   7.210  0.3497 -0.8853  0.7510
33828SOL     OW 4438   8.904   6.392   3.648 -0.0079 -0.0134  0.5905
33828SOL    HW1 4439   8.905   6.322   3.713 -0.1634 -1.0444 -0.4776
33828SOL    HW2 4440   8.811   6.407   3.630 -0.0428  1.5593  1.9209
33829SOL     OW 4441   6.961   5.246   0.694  0.3015  0.0988  0.2891
33829SOL    HW1 4442   6.998   5.249   0.605  1.1465  0.0504  0.6266
33829SOL    HW2 4443   6.892   5.312   0.693  0.6995  0.5214 -0.2409
33830SOL     OW 4444   4.733   4.918   6.557 -0.8242 -0.5070  0.6100
33830SOL    HW1 4445   4.816   4.871   6.557 -0.0496  0.8224 -0.1019
33830SOL    HW2 4446   4.691   4.892   6.475  0.0969  0.8621 -0.3135
33831SOL     OW 4447   1.662   2.526   1.538 -0.8099 -0.1347 -0.1555
33831SOL    HW1 4448   1.637   2.442   1.500  0.2147  0.2423 -1.7655
33831SOL    HW2 4449   1.578   2.569   1.558 -1.3623 -0.9925 -0.5749
33832SOL     OW 4450   2.898   5.907   6.116  0.6116  0.2431  0.3650
33832SOL    HW1 4451   2.904   5.919   6.211 -1.6745 -1.5807  0.8276
33832SOL    HW2 4452   2.935   5.820   6.100  0.6639  0.3937 -0.3894
33833SOL     OW 4453   4.366   0.079   9.329  0.6249 -0.3062 -0.4652
33833SOL    HW1 4454   4.391   0.148   9.268 -0.5688  1.1241  0.5766
33833SOL    HW2 4455   4.423   0.093   9.405 -0.3657  0.2616  0.1917
33834SOL     OW 4456   1.585   3.896   2.588 -0.7443  0.2116  0.5231
33834SOL    HW1 4457   1.542   3.887   2.673 -0.7767  0.7163  0.5639
33834SOL    HW2 4458   1.674   3.864   2.603 -0.2992  1.6323  1.1389
33835SOL     OW 4459   9.530   5.342  10.276  0.1174 -0.2976  0.1189
33835SOL    HW1 4460   9.532   5.428  10.235  0.9299  0.0240  0.7900
33835SOL    HW2 4461   9.592   5.349  10.349  1.9945 -2.1164 -1.1577
33836SOL     OW 4462   4.015   2.944   5.306 -0.0145 -0.5196  0.2787
33836SOL    HW1 4463   4.061   3.024   5.332  0.4204 -0.7006  0.0643
33836SOL    HW2 4464   4.000   2.898   5.389  1.1249 -0.9609  0.2555
33837SOL     OW 4465   7.007   9.546   7.109  0.2959 -0.6432 -0.1830
33837SOL    HW1 4466   6.930   9.554   7.166 -0.1043  0.8214 -0.8709
33837SOL    HW2 4467   7.056   9.472   7.145 -1.2287 -1.3614  0.5160
33838SOL     OW 4468   6.245   9.686   2.683  0.0941 -0.2697 -0.9915
33838SOL    HW1 4469   6.169   9.633   2.658 -1.0779 -0.1168  1.8402
33838SOL    HW2 4470   6.314   9.623   2.702 -0.9917 -0.8414  1.4053
33839SOL     OW 4471   3.612   1.310   1.880  0.2383 -0.2061 -0.0629
33839SOL    HW1 4472   3.627   1.324   1.973 -0.1832  0.8564 -0.1453
33839SOL    HW2 4473   3.700   1.307   1.841  0.4013 -0.2878  0.3070
33840SOL     OW 4474   7.555   4.459   2.840 -0.2102  0.0512  0.2243
33840SOL    HW1 4475   7.562   4.383   2.781 -0.9991 -0.9860  1.4214
33840SOL    HW2 4476   7.628   4.447   2.901 -0.9563 -0.3426  1.0587
33841SOL     OW 4477   8.498   1.011   0.906 -0.5483 -0.4253  0.2852
33841SOL    HW1 4478   8.413   0.989   0.943 -2.4674  1.3887 -2.5714
33841SOL    HW2 4479   8.482   1.014   0.811  2.3784  1.2961 -0.2693
33842SOL     OW 4480   9.432   4.008   4.997 -0.1870  0.3500 -0.3246
33842SOL    HW1 4481   9.392   3.933   5.042 -0.4016  0.1978 -0.7677
33842SOL    HW2 4482   9.423   3.988   4.904  0.2199  0.6855 -0.4383
33843SOL     OW 4483   2.567   2.687   6.262  0.3219  0.2780 -0.4533
33843SOL    HW1 4484   2.561   2.653   6.173  5.4799  0.1410 -1.0960
33843SOL    HW2 4485   2.574   2.782   6.251 -1.1203  0.4570  0.0550
33844SOL     OW 4486   5.954   2.386   4.872 -0.2032 -0.5112  0.3952
33844SOL    HW1 4487   5.882   2.327   4.851 -0.4147 -0.1313  0.0303
33844SOL    HW2 4488   5.985   2.416   4.787 -0.9703  0.9289  0.5888
33845SOL     OW 4489   5.138   6.082   1.479 -0.1335  0.2118  0.1832
33845SOL    HW1 4490   5.226   6.062   1.445 -1.0650 -1.8131 -1.1998
33845SOL    HW2 4491   5.132   6.033   1.561  0.3804  1.1999  0.8252
33846SOL     OW 4492   0.746   5.505   2.102  0.3805  0.3851  0.3862
33846SOL    HW1 4493   0.657   5.538   2.089  0.0752  0.0980  1.6160
33846SOL    HW2 4494   0.784   5.564   2.167  1.4565  1.1246 -0.8829
33847SOL     OW 4495   2.339   8.094   9.403 -0.4035 -0.1830 -0.4000
33847SOL    HW1 4496   2.380   8.171   9.443 -0.7562 -0.2947  0.1862
33847SOL    HW2 4497   2.411   8.032   9.390 -0.3809 -0.4108  0.6963
33848SOL     OW 4498   4.367   0.202   7.282 -0.0814  0.0705  0.3895
33848SOL    HW1 4499   4.334   0.239   7.364 -0.3688  1.7160 -0.4247
33848SOL    HW2 4500   4.321   0.250   7.214  3.1209  1.7846 -0.8044
33849SOL     OW 4501   3.031   0.419   3.855  0.3625 -0.3823 -0.2204
33849SOL    HW1 4502   3.040   0.361   3.779 -0.3659  1.7027 -1.9943
33849SOL    HW2 4503   3.116   0.416   3.898  1.1361 -0.8175 -1.7301
33850SOL     OW 4504   5.794   8.063   7.832  0.2523  0.1041  0.3710
33850SOL    HW1 4505   5.842   7.987   7.800 -0.3866  0.8934 -2.8400
33850SOL    HW2 4506   5.703   8.034   7.834  0.2669  0.1016  1.5146
33851SOL     OW 4507   7.463   4.478   0.790  0.7216 -0.4172 -0.6003
33851SOL    HW1 4508   7.529   4.527   0.838  1.4735 -1.2771 -0.7237
33851SOL    HW2 4509   7.380   4.504   0.830  1.1165  0.7663 -0.5221
33852SOL     OW 4510   8.862  10.684   5.924 -0.0338 -0.3122 -0.3422
33852SOL    HW1 4511   8.833  10.751   5.861 -0.2044  1.2830  1.3478
33852SOL    HW2 4512   8.797  10.615   5.917 -1.6448  1.0960  0.0168
33853SOL     OW 4513  10.574   9.829   5.711 -0.9255  0.7579  0.3151
33853SOL    HW1 4514  10.524   9.764   5.661 -0.9199  1.2094 -0.2967
33853SOL    HW2 4515  10.655   9.841   5.661 -0.7210  0.8928  0.6738
33854SOL     OW 4516   1.361   9.434   3.507 -0.2005 -0.5742  0.0338
33854SOL    HW1 4517   1.407   9.517   3.493 -0.5093 -0.6554 -1.7587
33854SOL    HW2 4518   1.424   9.380   3.554  0.6123  0.1500 -0.1819
33855SOL     OW 4519   5.814   3.402   8.935 -0.2678  0.3129 -0.0232
33855SOL    HW1 4520   5.779   3.477   8.886  1.0060  0.9962  0.0659
33855SOL    HW2 4521   5.772   3.408   9.021  0.6451  1.6338  0.3751
33856SOL     OW 4522   6.303   4.858  10.509 -0.0113 -0.3427  0.1851
33856SOL    HW1 4523   6.333   4.945  10.481 -0.3652 -0.1314  0.4587
33856SOL    HW2 4524   6.260   4.822  10.431  2.5048 -1.4101 -0.8320
33857SOL     OW 4525   7.908   3.752   3.667 -0.6244 -0.0334 -0.3035
33857SOL    HW1 4526   7.920   3.785   3.756 -0.5101 -3.3588  1.0457
33857SOL    HW2 4527   7.980   3.690   3.655 -1.4580 -0.7050 -2.1915
33858SOL     OW 4528   4.526   0.823   6.331  0.0213  0.2296 -0.2736
33858SOL    HW1 4529   4.444   0.776   6.347 -2.5674  4.5465  0.6179
33858SOL    HW2 4530   4.527   0.839   6.237  0.8706 -1.3521 -0.5679
33859SOL     OW 4531   9.653   3.320   9.021  0.2114 -0.2682  0.2357
33859SOL    HW1 4532   9.693   3.376   9.088  0.0782  0.1178 -0.0058
33859SOL    HW2 4533   9.684   3.356   8.938 -1.0581  0.3745  0.0203
33860SOL     OW 4534  10.340   0.872   8.559 -0.5036  0.0924 -0.3400
33860SOL    HW1 4535  10.393   0.796   8.535 -0.8569  0.3227 -1.9370
33860SOL    HW2 4536  10.268   0.873   8.497 -0.5880  1.6522 -0.2770
33861SOL     OW 4537   0.856   0.648   4.619  0.1246  0.8020 -0.1266
33861SOL    HW1 4538   0.870   0.599   4.538 -1.0195 -0.0863  0.1802
33861SOL    HW2 4539   0.837   0.737   4.590  0.4149  0.6534 -0.7992
33862SOL     OW 4540   7.601   0.646   6.490 -0.0504 -0.1463  0.3931
33862SOL    HW1 4541   7.666   0.692   6.543 -1.1618  0.4276  1.2736
33862SOL    HW2 4542   7.654   0.598   6.425  1.3434 -0.7446  1.8849
33863SOL     OW 4543   9.133   3.540   3.329 -0.5049  0.5251 -0.6969
33863SOL    HW1 4544   9.079   3.485   3.271 -0.5409  1.1899 -1.3139
33863SOL    HW2 4545   9.075   3.565   3.400  0.3319 -2.8689  1.4534
33864SOL     OW 4546   1.631  10.449   4.504 -0.0717  0.2771  0.3203
33864SOL    HW1 4547   1.653  10.366   4.464  0.9310  1.0537 -0.7809
33864SOL    HW2 4548   1.713  10.499   4.505 -0.9420  1.7842 -0.3464
33865SOL     OW 4549  10.284   8.703   8.651  0.5358 -0.9114 -0.2467
33865SOL    HW1 4550  10.273   8.786   8.699  1.2224 -0.9551  0.0017
33865SOL    HW2 4551  10.222   8.709   8.579  2.7522  1.2584 -2.1616
33866SOL     OW 4552   2.000   5.782  10.498 -0.1254 -0.3373  0.6305
33866SOL    HW1 4553   2.077   5.735  10.529  0.6659 -0.3266 -1.1474
33866SOL    HW2 4554   1.995   5.860  10.553  0.1126 -1.1920  1.8844
33867SOL     OW 4555   5.334   7.540   5.690 -0.5238  0.2054 -0.0355
33867SOL    HW1 4556   5.399   7.471   5.704 -0.6447 -0.0872 -0.8628
33867SOL    HW2 4557   5.292   7.551   5.775 -0.0090 -0.2340  0.2816
33868SOL     OW 4558   7.417   7.574   1.316 -0.3461  0.5016 -0.4058
33868SOL    HW1 4559   7.345   7.611   1.264 -0.9594  0.7031  0.5615
33868SOL    HW2 4560   7.462   7.515   1.256 -1.0615  0.6991 -1.1515
33869SOL     OW 4561   5.416   9.777   4.388 -0.5491  0.1876  0.3490
33869SOL    HW1 4562   5.438   9.711   4.322 -1.1565 -0.0863  0.4101
33869SOL    HW2 4563   5.463   9.855   4.360 -0.3510 -0.0874 -0.0959
33870SOL     OW 4564   2.696   1.745   9.143 -0.1974  0.2526 -0.4016
33870SOL    HW1 4565   2.646   1.798   9.204  0.0047 -0.9990  0.9163
33870SOL    HW2 4566   2.764   1.804   9.109 -1.5127  1.5033 -0.9653
33871SOL     OW 4567   5.095   7.965   9.573  0.0692  0.4277  0.0005
33871SOL    HW1 4568   5.179   7.921   9.588 -0.8143 -1.3638  0.0113
33871SOL    HW2 4569   5.056   7.973   9.660  0.0233  0.8159 -0.0557
33872SOL     OW 4570   0.094   9.955   2.935  0.2252 -0.7648 -0.1082
33872SOL    HW1 4571   0.151   9.950   2.858  0.3213  1.6698 -0.2786
33872SOL    HW2 4572   0.148   9.921   3.007  0.5264 -2.0225 -0.8973
33873SOL     OW 4573   3.327   8.319   6.243 -0.1800  0.2350  0.5743
33873SOL    HW1 4574   3.284   8.299   6.326 -0.2103 -0.7205  0.3377
33873SOL    HW2 4575   3.261   8.301   6.176  0.1307  0.1219  0.2938
33874SOL     OW 4576   7.196   6.870   6.418  0.1633  0.2270 -0.1230
33874SOL    HW1 4577   7.102   6.883   6.405 -0.3617  0.1952  2.9624
33874SOL    HW2 4578   7.237   6.917   6.345 -2.2098 -0.2251 -1.8548
33875SOL     OW 4579   3.495   8.634   1.532 -0.0417 -0.1002  0.2118
33875SOL    HW1 4580   3.526   8.574   1.465 -0.0949 -1.3705  1.2881
33875SOL    HW2 4581   3.557   8.706   1.531  0.4705 -0.5496 -0.5733
33876SOL     OW 4582   7.090   6.001   6.873  0.1317  0.0479  0.3901
33876SOL    HW1 4583   7.057   6.041   6.792 -2.1376 -1.8553  0.2570
33876SOL    HW2 4584   7.176   5.967   6.850 -0.1255  0.2724 -0.9835
33877SOL     OW 4585   3.159   7.275   2.874  0.0474 -0.0018  0.1482
33877SOL    HW1 4586   3.155   7.313   2.962 -0.3390 -1.6446  0.8686
33877SOL    HW2 4587   3.214   7.198   2.883 -0.4442 -0.5012 -0.9202
33878SOL     OW 4588   8.510   7.236   7.013 -0.4726  0.0210  0.1414
33878SOL    HW1 4589   8.494   7.176   7.086 -1.2514 -0.2584 -0.2521
33878SOL    HW2 4590   8.451   7.309   7.028  0.3182  0.6045  0.4996
33879SOL     OW 4591   3.200   8.116   3.820  0.0267  0.6037  0.3180
33879SOL    HW1 4592   3.181   8.041   3.764 -2.8878  1.7528 -0.4279
33879SOL    HW2 4593   3.146   8.101   3.898  0.3378  1.3752  0.6903
33880SOL     OW 4594   7.529   4.668   3.336 -0.2075 -0.0222  0.3897
33880SOL    HW1 4595   7.523   4.633   3.425  0.1876  0.0144  0.4364
33880SOL    HW2 4596   7.620   4.699   3.330 -0.4658  0.7105  0.2457
33881SOL     OW 4597   7.827   3.895   7.812 -0.4031 -0.1246 -0.2069
33881SOL    HW1 4598   7.879   3.946   7.874  1.4297 -2.7733  0.5915
33881SOL    HW2 4599   7.747   3.872   7.860 -0.6115  0.7862 -0.1009
33882SOL     OW 4600   1.173   4.033   3.516 -0.5965  0.2381  0.2950
33882SOL    HW1 4601   1.268   4.025   3.522 -0.4541  0.0956 -1.6149
33882SOL    HW2 4602   1.145   3.955   3.467 -1.7038  0.2522  0.8684
33883SOL     OW 4603   2.447   2.938   9.767  0.8536 -0.4116 -0.0304
33883SOL    HW1 4604   2.513   2.875   9.797 -0.3734 -1.5482  0.3731
33883SOL    HW2 4605   2.437   2.919   9.674  1.3743  0.0220 -0.1745
33884SOL     OW 4606   8.063   6.014   0.512 -0.1370 -0.3540 -0.3197
33884SOL    HW1 4607   8.067   6.107   0.491  0.5122 -0.2122  0.3694
33884SOL    HW2 4608   8.036   6.011   0.604  0.8792 -0.7929 -0.0190
33885SOL     OW 4609   1.099   2.499   8.402  0.3066  0.6359  0.3087
33885SOL    HW1 4610   1.181   2.520   8.447  0.0334  3.4675 -0.3216
33885SOL    HW2 4611   1.124   2.493   8.309 -0.2446  2.2528  0.0212
33886SOL     OW 4612   4.973   4.556   4.548 -0.4564 -0.0987 -0.1469
33886SOL    HW1 4613   4.939   4.478   4.592  1.1515 -0.9336 -0.2996
33886SOL    HW2 4614   5.012   4.523   4.467  0.3364  0.8370 -0.1697
33887SOL     OW 4615   4.777   8.492   9.034 -0.0724  0.1177 -0.7402
33887SOL    HW1 4616   4.737   8.579   9.028  0.6611  0.4611 -0.7832
33887SOL    HW2 4617   4.811   8.475   8.947 -0.9243 -0.5798 -0.9541
33888SOL     OW 4618   2.803   1.824   5.360  0.0491  0.0766  0.1587
33888SOL    HW1 4619   2.866   1.889   5.330 -1.0125  1.2267  0.3396
33888SOL    HW2 4620   2.726   1.838   5.305 -0.0329 -1.3736 -0.1289
33889SOL     OW 4621   2.723   1.840   7.225  0.8871  0.5666  0.1190
33889SOL    HW1 4622   2.707   1.746   7.228 -0.2732  0.7514  0.2192
33889SOL    HW2 4623   2.812   1.850   7.259  1.4638 -0.5846 -0.9785
33890SOL     OW 4624   1.127   4.828   5.491  0.0493 -0.1477  0.4528
33890SOL    HW1 4625   1.082   4.744   5.490  4.2040 -2.6977 -1.5100
33890SOL    HW2 4626   1.084   4.879   5.423 -0.4482 -2.1244 -0.8006
33891SOL     OW 4627   4.024   4.136   9.876  0.4186 -0.2210  0.5852
33891SOL    HW1 4628   4.086   4.204   9.902  0.9337 -0.1362 -0.7604
33891SOL    HW2 4629   3.986   4.169   9.794 -0.2719 -0.9714  0.5973
33892SOL     OW 4630  10.322   7.992   4.972 -0.0091  0.1380  1.0206
33892SOL    HW1 4631  10.270   8.035   4.904 -0.9158  1.0424  2.2354
33892SOL    HW2 4632  10.325   7.900   4.946  0.2193  0.5645 -0.5661
33893SOL     OW 4633   6.186  10.153   1.987 -0.4598 -0.2987  0.5949
33893SOL    HW1 4634   6.233  10.228   2.023 -1.7344  0.2676  1.0899
33893SOL    HW2 4635   6.132  10.121   2.059 -0.3122 -1.3806  0.2343
33894SOL     OW 4636   3.939   0.322   5.810 -0.1007 -0.0879 -0.5893
33894SOL    HW1 4637   4.017   0.302   5.861 -0.0052  0.6494 -0.4217
33894SOL    HW2 4638   3.971   0.335   5.721  0.1142  1.0464 -0.3676
33895SOL     OW 4639   6.062   6.690   1.930  0.3243  0.0738  0.3150
33895SOL    HW1 4640   6.149   6.724   1.909 -0.1321  0.0118 -1.9550
33895SOL    HW2 4641   6.072   6.649   2.015  2.1577  1.3219  0.7585
33896SOL     OW 4642   8.214   8.347   8.391  0.7660 -0.1940  0.2856
33896SOL    HW1 4643   8.149   8.410   8.360 -0.1887 -1.1971  0.2062
33896SOL    HW2 4644   8.253   8.389   8.468 -0.5397  0.0905  0.8100
33897SOL     OW 4645   6.727   1.471   0.201 -0.3496  0.2532 -0.4723
33897SOL    HW1 4646   6.787   1.457   0.274 -0.4145  2.1243  0.0047
33897SOL    HW2 4647   6.643   1.493   0.243 -0.8055 -0.2259 -1.1203
33898SOL     OW 4648   8.060   1.602   8.692  0.7652  0.3781  0.5740
33898SOL    HW1 4649   7.997   1.654   8.642  1.3186  0.8281  0.3279
33898SOL    HW2 4650   8.045   1.627   8.783  0.6345  0.5392  0.5100
33899SOL     OW 4651   3.100   1.844   5.117 -0.6681  0.5169  0.3707
33899SOL    HW1 4652   3.057   1.906   5.176 -1.2190 -0.6033  1.1848
33899SOL    HW2 4653   3.194   1.858   5.131 -0.7416 -1.1064  3.0886
33900SOL     OW 4654   0.489   9.145   7.810  0.5647 -0.3659 -0.5922
33900SOL    HW1 4655   0.424   9.208   7.779  1.4014  0.4503 -0.7471
33900SOL    HW2 4656   0.573   9.179   7.777  1.4175  0.1055  1.8210
33901SOL     OW 4657  10.142   4.409   0.004 -0.2066 -0.4478  0.2548
33901SOL    HW1 4658  10.196   4.483   0.032  1.3300 -2.0088  1.6420
33901SOL    HW2 4659  10.076   4.400   0.072 -1.4984  0.6358 -0.7806
33902SOL     OW 4660   8.453   5.113   9.050 -0.6919  0.0303 -0.1441
33902SOL    HW1 4661   8.466   5.152   9.137 -1.0441  4.0053 -1.6654
33902SOL    HW2 4662   8.367   5.071   9.056  0.5046 -2.4209  2.1353
33903SOL     OW 4663   1.771   1.093   2.335  0.2889 -0.3122  0.4621
33903SOL    HW1 4664   1.781   1.188   2.341  0.3903 -0.1885 -1.3172
33903SOL    HW2 4665   1.789   1.062   2.424  3.4461  1.0451  0.4269
33904SOL     OW 4666   8.561   2.767   4.608  0.4311  0.0465 -0.3154
33904SOL    HW1 4667   8.543   2.714   4.685 -1.0907 -0.8359 -1.2242
33904SOL    HW2 4668   8.628   2.829   4.636  0.8239 -1.0734  1.3370
33905SOL     OW 4669   4.079   4.241   6.028  0.1148  0.3497  0.8672
33905SOL    HW1 4670   4.147   4.239   6.096  0.6099 -0.6605  0.3649
33905SOL    HW2 4671   4.002   4.275   6.073  0.2194 -1.0175  2.1635
33906SOL     OW 4672   7.135   1.839   5.807 -0.0049 -0.2540 -0.1224
33906SOL    HW1 4673   7.205   1.893   5.843 -0.5233  1.4240 -1.5345
33906SOL    HW2 4674   7.081   1.816   5.882  1.2290 -0.3291  0.7613
33907SOL     OW 4675   5.769   5.538   0.301  0.2389 -0.0765 -0.1341
33907SOL    HW1 4676   5.792   5.556   0.392 -0.5596  1.9788 -0.2664
33907SOL    HW2 4677   5.713   5.612   0.276  1.3807  0.0475 -2.6494
33908SOL     OW 4678   7.057   0.650   6.476  0.0137  0.2193 -0.9043
33908SOL    HW1 4679   6.991   0.712   6.447 -0.6179 -0.9238 -1.9937
33908SOL    HW2 4680   7.139   0.699   6.474 -0.4209  0.9187 -2.0931
33909SOL     OW 4681   5.866   7.751   8.975  0.1873 -0.1680  0.0894
33909SOL    HW1 4682   5.945   7.784   8.932  0.0999  0.9987  0.7663
33909SOL    HW2 4683   5.850   7.814   9.045  0.3623 -2.0184  1.8908
33910SOL     OW 4684   4.180   5.388  10.309  0.2994  0.3068  0.0621
33910SOL    HW1 4685   4.127   5.321  10.352 -2.4238  2.0757 -0.3516
33910SOL    HW2 4686   4.150   5.388  10.218 -0.3498  2.5655  0.2129
33911SOL     OW 4687   3.055   7.275   0.877  0.3225  0.4572  0.4611
33911SOL    HW1 4688   3.062   7.238   0.789  0.1984  0.6839  0.3525
33911SOL    HW2 4689   3.059   7.370   0.863  1.9220  0.4674  0.8568
33912SOL     OW 4690   9.819   2.379   0.404 -0.0412  0.1813 -0.4760
33912SOL    HW1 4691   9.854   2.466   0.426  0.2648  0.1420 -0.8085
33912SOL    HW2 4692   9.766   2.393   0.326 -0.2711  0.1293 -0.3301
33913SOL     OW 4693   5.537   6.946   2.854  0.4174  0.1220 -0.0058
33913SOL    HW1 4694   5.459   6.908   2.894 -0.2994  1.8176  0.2908
33913SOL    HW2 4695   5.608   6.887   2.879 -0.3749 -0.0991  1.8530
33914SOL     OW 4696   5.937   6.190   6.182 -0.3845  0.0791  0.7465
33914SOL    HW1 4697   5.980   6.227   6.105  0.6556  0.3231  1.4150
33914SOL    HW2 4698   5.912   6.266   6.235 -0.6220 -0.0936  0.8817
33915SOL     OW 4699   2.251   5.550   1.127  0.2583  0.4556  0.1518
33915SOL    HW1 4700   2.278   5.539   1.035 -1.0886 -0.2174 -0.1935
33915SOL    HW2 4701   2.175   5.607   1.122 -0.0718  0.0801  0.8009
33916SOL     OW 4702  10.285   6.443   0.636 -0.2596  0.0373  0.5142
33916SOL    HW1 4703  10.213   6.382   0.621 -0.6881  0.3697  1.1814
33916SOL    HW2 4704  10.273   6.474   0.726 -1.0865  2.4226 -0.3356
33917SOL     OW 4705   1.878   0.704   2.154 -0.2678  0.3824  0.4305
33917SOL    HW1 4706   1.889   0.648   2.232 -1.4242  1.1222  1.1624
33917SOL    HW2 4707   1.950   0.680   2.097 -0.1210 -1.1020  1.1882
33918SOL     OW 4708   4.419   4.525   4.178  0.2082  0.0153 -0.3497
33918SOL    HW1 4709   4.408   4.439   4.137 -0.9428  0.1982 -0.4558
33918SOL    HW2 4710   4.355   4.525   4.250 -0.6021  1.1951 -1.0411
33919SOL     OW 4711   8.697   3.842   2.687 -0.0449 -0.0634  0.4144
33919SOL    HW1 4712   8.603   3.861   2.687 -0.4937 -1.9889 -0.2235
33919SOL    HW2 4713   8.720   3.833   2.779 -0.3151  1.1182  0.6080
33920SOL     OW 4714   7.659   6.500  10.361  0.1385  0.4536  0.0097
33920SOL    HW1 4715   7.745   6.463  10.340 -0.1394 -0.4196  0.3672
33920SOL    HW2 4716   7.646   6.568  10.294  1.3030  0.9326  0.2423
33921SOL     OW 4717   8.897   2.487   6.446  0.0173  0.1602 -0.0797
33921SOL    HW1 4718   8.980   2.492   6.495 -0.4734  1.1712  0.6933
33921SOL    HW2 4719   8.885   2.576   6.413 -0.6561 -0.0403 -0.3743
33922SOL     OW 4720   8.216   8.290   9.044 -0.2135  0.6493  0.5620
33922SOL    HW1 4721   8.306   8.320   9.031  1.5137 -3.6702  0.8689
33922SOL    HW2 4722   8.210   8.270   9.138 -0.7946 -0.8185  0.2468
33923SOL     OW 4723   0.524   2.586   0.919  0.0619 -0.2426  0.6080
33923SOL    HW1 4724   0.478   2.586   0.835 -0.8240  1.0285  1.0696
33923SOL    HW2 4725   0.469   2.534   0.977 -0.9382  1.4143  1.2055
33924SOL     OW 4726   6.454   4.050   2.429  0.3758  0.0053  0.6218
33924SOL    HW1 4727   6.385   4.100   2.386  0.6191  0.8500  1.1753
33924SOL    HW2 4728   6.409   3.976   2.469 -0.0728  0.0708  0.2528
33925SOL     OW 4729   3.152   0.662   1.447  0.5630 -0.0480  0.3834
33925SOL    HW1 4730   3.109   0.585   1.410 -2.0911  0.3660  2.3096
33925SOL    HW2 4731   3.193   0.631   1.527  3.1116 -0.1931 -0.8693
33926SOL     OW 4732   0.378   3.280   5.108  0.1645  0.0926  0.2490
33926SOL    HW1 4733   0.472   3.287   5.121  0.0886  2.0347 -0.0078
33926SOL    HW2 4734   0.340   3.298   5.194 -0.0168  1.2486 -0.0656
33927SOL     OW 4735   6.204   8.109   2.228 -0.0025 -0.3383 -0.3557
33927SOL    HW1 4736   6.237   8.026   2.263  0.3406 -0.3751 -0.7541
33927SOL    HW2 4737   6.137   8.136   2.291  0.6834 -0.3394  0.4044
33928SOL     OW 4738   5.317   5.943   6.339  0.7978 -0.2916 -0.7722
33928SOL    HW1 4739   5.409   5.919   6.322  0.7480 -0.2550 -1.1013
33928SOL    HW2 4740   5.322   6.032   6.373  0.8622 -0.1768 -1.0790
33929SOL     OW 4741   8.391   3.000   1.428  0.3673  0.2210 -0.3087
33929SOL    HW1 4742   8.448   3.059   1.378  0.2768 -0.6495 -1.4663
33929SOL    HW2 4743   8.336   3.059   1.479  0.1827  1.1643 -1.5484
33930SOL     OW 4744   2.033   6.352   0.300 -0.2993 -0.0395  0.0465
33930SOL    HW1 4745   1.952   6.304   0.317  0.9446 -2.3952 -0.2771
33930SOL    HW2 4746   2.058   6.327   0.211 -0.8287  3.2139 -1.1395
33931SOL     OW 4747   6.103   1.604   5.776  0.6973  0.4691  0.3821
33931SOL    HW1 4748   6.021   1.652   5.769  0.7401  0.4715 -0.2509
33931SOL    HW2 4749   6.123   1.578   5.685  0.7357 -0.6237  0.6856
33932SOL     OW 4750   3.836   9.388   2.026 -0.4466 -0.1432 -0.4626
33932SOL    HW1 4751   3.845   9.483   2.027 -2.3551  0.0799 -1.2285
33932SOL    HW2 4752   3.903   9.358   1.964  1.1746  0.5062  0.8741
33933SOL     OW 4753   8.492   8.836  10.403 -0.3674  0.1183  0.0647
33933SOL    HW1 4754   8.566   8.864  10.349  1.0996 -3.2853  0.0566
33933SOL    HW2 4755   8.522   8.849  10.493 -0.6054  0.6504  0.0712
33934SOL     OW 4756   2.267   0.093  10.187  0.2035 -0.0714  0.3434
33934SOL    HW1 4757   2.305   0.035  10.253  0.5563  0.1278  0.3139
33934SOL    HW2 4758   2.172   0.085  10.201  0.2514 -0.5607  0.4187
33935SOL     OW 4759   0.585   1.135   3.832 -0.5643  0.1951 -0.0418
33935SOL    HW1 4760   0.652   1.201   3.852  0.9909 -1.1894 -0.4870
33935SOL    HW2 4761   0.536   1.173   3.759 -1.1936  1.8150  1.1515
33936SOL     OW 4762   3.503  10.019   7.976  0.2691  0.1632  0.6259
33936SOL    HW1 4763   3.452  10.094   8.007  0.9499  1.0047 -0.2472
33936SOL    HW2 4764   3.557  10.054   7.906 -0.9033 -1.5752 -1.2517
33937SOL     OW 4765  10.665   0.529   9.815  0.4582  0.0915 -0.2259
33937SOL    HW1 4766  10.721   0.566   9.747  0.7077 -0.6723 -0.4485
33937SOL    HW2 4767  10.592   0.490   9.768  1.0129 -1.1028 -0.1262
33938SOL     OW 4768   1.551   2.732   5.724  0.2646  0.3212 -0.1569
33938SOL    HW1 4769   1.624   2.743   5.785  0.8035 -0.9283 -0.5405
33938SOL    HW2 4770   1.480   2.786   5.761  1.4731  1.8687  0.0227
33939SOL     OW 4771   9.373   0.742  10.082  0.8336 -0.2289  0.4533
33939SOL    HW1 4772   9.400   0.834  10.077  1.2632 -0.3419 -4.2013
33939SOL    HW2 4773   9.453   0.694  10.101  1.3074  0.2465 -0.2683
33940SOL     OW 4774   0.665   6.085   2.870 -0.6570  0.1973 -0.5192
33940SOL    HW1 4775   0.730   6.076   2.940  0.6886  0.5479 -1.6894
33940SOL    HW2 4776   0.616   6.164   2.893  0.5225  0.9627 -0.5421
33941SOL     OW 4777   5.263   7.663   1.250 -0.4167 -0.0529 -0.1577
33941SOL    HW1 4778   5.219   7.595   1.301  0.9113 -2.3262 -1.7937
33941SOL    HW2 4779   5.356   7.647   1.266 -0.0615  2.5709  0.7541
33942SOL     OW 4780   0.127   0.295   3.378  0.6686  0.4592 -0.5077
33942SOL    HW1 4781   0.070   0.352   3.327  0.2731 -0.7650 -1.4974
33942SOL    HW2 4782   0.212   0.340   3.378  0.7578  0.4126 -2.5111
33943SOL     OW 4783   2.265   8.516   7.784 -0.0776 -0.0727 -0.0248
33943SOL    HW1 4784   2.291   8.600   7.746  1.1285 -0.3188  0.2079
33943SOL    HW2 4785   2.331   8.498   7.851 -0.2657 -1.2419 -0.1207
33944SOL     OW 4786  10.525   4.812   8.917  0.3167 -0.1856  0.0504
33944SOL    HW1 4787  10.473   4.794   8.995  1.0918 -1.0415  0.3959
33944SOL    HW2 4788  10.615   4.796   8.944  0.5166 -1.6676 -1.3070
33945SOL     OW 4789   7.255   6.835   6.811 -0.0143  0.2756 -0.0400
33945SOL    HW1 4790   7.330   6.816   6.867 -0.8047  2.0236  1.7667
33945SOL    HW2 4791   7.286   6.903   6.750  1.1891 -2.4461 -2.6999
33946SOL     OW 4792   9.912   7.886   4.140  0.3308 -0.3502  0.1704
33946SOL    HW1 4793   9.965   7.826   4.192  0.1631 -0.5223  0.1448
33946SOL    HW2 4794   9.827   7.842   4.132  0.2240 -0.1342  0.1067
33947SOL     OW 4795  10.475   4.368   4.924 -0.2126 -0.3249  0.3398
33947SOL    HW1 4796  10.427   4.351   4.843  1.8413 -1.3381 -0.7361
33947SOL    HW2 4797  10.566   4.351   4.902  0.3249 -1.6627  3.1493
33948SOL     OW 4798   3.544   7.853   3.055 -0.4071 -0.2161 -0.0467
33948SOL    HW1 4799   3.464   7.903   3.070 -1.3042 -1.3781 -0.7062
33948SOL    HW2 4800   3.516   7.762   3.057  0.8460 -0.6439 -0.6304
33949SOL     OW 4801   1.938   1.842   6.798 -0.4984 -0.2186  0.0080
33949SOL    HW1 4802   1.914   1.824   6.889  0.7520  0.7014  0.5516
33949SOL    HW2 4803   1.955   1.936   6.796  2.7938 -0.7166 -0.3368
33950SOL     OW 4804   8.751   2.167   7.850  0.5308  0.2139  0.4126
33950SOL    HW1 4805   8.823   2.223   7.879 -1.1347  1.5261  2.3855
33950SOL    HW2 4806   8.675   2.225   7.849 -0.4418 -0.9715 -2.1573
33951SOL     OW 4807   6.937   3.475   4.063 -0.0267  0.0081 -0.2392
33951SOL    HW1 4808   6.931   3.446   4.154 -1.1506 -1.8307 -0.8434
33951SOL    HW2 4809   7.010   3.424   4.026 -0.3183 -0.1124 -0.6552
33952SOL     OW 4810   0.553   0.678   6.430 -0.2449  0.3330  0.2628
33952SOL    HW1 4811   0.517   0.767   6.432  1.0752  1.0492 -2.6070
33952SOL    HW2 4812   0.476   0.621   6.425 -1.0748  1.4252  0.0908
33953SOL     OW 4813   1.415  10.108   7.378 -0.5535  0.0029  0.4396
33953SOL    HW1 4814   1.449  10.072   7.296  0.7521 -0.6242  1.2269
33953SOL    HW2 4815   1.381  10.032   7.425  0.7974 -0.0026  1.4480
33954SOL     OW 4816   0.196   8.702   5.259  0.0799 -0.4344 -0.4248
33954SOL    HW1 4817   0.162   8.639   5.195  0.7864 -1.3167  0.0466
33954SOL    HW2 4818   0.128   8.707   5.326 -0.4078  0.0555 -0.9416
33955SOL     OW 4819   9.976   7.739   8.675  0.1828  0.0413 -0.4847
33955SOL    HW1 4820   9.911   7.807   8.657  1.2307  1.2688  0.2493
33955SOL    HW2 4821  10.043   7.751   8.608  1.3399  1.0352  0.8115
33956SOL     OW 4822   9.677   6.173  10.591  0.1664 -0.0858  1.0602
33956SOL    HW1 4823   9.726   6.203  10.667 -0.8713  0.6784  1.4558
33956SOL    HW2 4824   9.653   6.083  10.611 -0.5757  0.2860  1.9092
33957SOL     OW 4825   8.205   5.726   7.043 -0.1532 -0.3425 -0.4986
33957SOL    HW1 4826   8.268   5.771   7.101  1.1722 -1.6283 -0.8813
33957SOL    HW2 4827   8.240   5.637   7.035 -1.5980 -0.8524 -1.4079
33958SOL     OW 4828   4.995   0.299   4.251 -0.5137  0.5099  0.0104
33958SOL    HW1 4829   4.902   0.303   4.226 -0.9552 -1.0226  1.2224
33958SOL    HW2 4830   5.015   0.387   4.282 -1.0234  1.3704 -1.9250
33959SOL     OW 4831   0.972   0.803   2.604  0.4271  0.1482  0.1062
33959SOL    HW1 4832   1.045   0.859   2.580  0.4903 -0.3913 -0.9955
33959SOL    HW2 4833   0.901   0.863   2.626  1.0693  0.6672  0.8156
33960SOL     OW 4834   3.158   4.550   1.800  0.6562  0.0720 -0.6935
33960SOL    HW1 4835   3.155   4.645   1.786  0.7109  0.0375 -0.9469
33960SOL    HW2 4836   3.189   4.540   1.890 -0.3303  0.3087 -0.3122
33961SOL     OW 4837   2.874   4.395   3.045 -0.2438 -0.0831  0.1129
33961SOL    HW1 4838   2.811   4.419   3.112 -0.6752 -1.9516  0.4418
33961SOL    HW2 4839   2.955   4.439   3.070 -0.4758 -0.5295  1.7020
33962SOL     OW 4840   9.279   0.801   4.800  0.0775 -0.4829 -0.0953
33962SOL    HW1 4841   9.317   0.806   4.712  1.2534  2.2619  0.4587
33962SOL    HW2 4842   9.350   0.826   4.858 -1.3920  0.3896  1.4067
33963SOL     OW 4843   3.577   2.907   4.586  0.3334 -0.0350 -0.4614
33963SOL    HW1 4844   3.592   2.869   4.500  1.7959 -1.2935  0.3063
33963SOL    HW2 4845   3.499   2.863   4.619  1.0394 -1.1878 -0.2734
33964SOL     OW 4846   4.377   8.101   4.152 -0.7230  0.0094 -0.0747
33964SOL    HW1 4847   4.409   8.059   4.071  0.5977 -0.7645  0.8036
33964SOL    HW2 4848   4.297   8.053   4.174 -1.3724  0.5570 -1.1743
33965SOL     OW 4849  10.497   2.975   7.544  0.1176 -0.3727 -0.0756
33965SOL    HW1 4850  10.544   3.054   7.571 -0.1967 -0.2823  0.2120
33965SOL    HW2 4851  10.553   2.936   7.477  0.5473 -0.2079  0.1839
33966SOL     OW 4852   0.107   9.145   0.689 -0.1252  0.0982 -0.7569
33966SOL    HW1 4853   0.106   9.088   0.611 -2.1915 -0.4274 -0.4152
33966SOL    HW2 4854   0.075   9.089   0.759 -1.5624  1.4810 -0.2652
33967SOL     OW 4855   9.074   8.205   5.214 -0.5105 -0.3517  0.5712
33967SOL    HW1 4856   9.090   8.121   5.172 -1.4543 -0.1107 -0.3183
33967SOL    HW2 4857   9.023   8.183   5.292 -1.1667 -0.5838  0.0911
33968SOL     OW 4858  10.066   3.793   4.261 -0.4227 -0.5442  0.1302
33968SOL    HW1 4859  10.111   3.875   4.240  0.8082 -1.5943 -1.5947
33968SOL    HW2 4860  10.010   3.777   4.184 -0.1952 -1.6094  0.1730
33969SOL     OW 4861   7.321   7.901   7.028  0.1247  0.1455 -0.5123
33969SOL    HW1 4862   7.296   7.840   6.959  0.2249  1.8772 -2.1652
33969SOL    HW2 4863   7.281   7.865   7.107  0.3569 -2.1445 -1.3434
33970SOL     OW 4864   2.464  10.143   7.925  0.5319  0.1026  0.1486
33970SOL    HW1 4865   2.556  10.119   7.910  0.0013 -1.2270 -1.1671
33970SOL    HW2 4866   2.452  10.133   8.019  1.8385  0.7064  0.4053
33971SOL     OW 4867   1.249   0.029   6.891  0.3126  0.1937  0.3870
33971SOL    HW1 4868   1.182   0.097   6.898 -0.7301 -0.8475  0.8804
33971SOL    HW2 4869   1.283   0.019   6.979  1.1226  0.7022  0.1409
33972SOL     OW 4870   4.666   2.332   2.907  0.3319 -0.2814  0.3197
33972SOL    HW1 4871   4.630   2.257   2.955 -0.1889 -0.5331 -0.4381
33972SOL    HW2 4872   4.679   2.298   2.818 -0.5462  0.7146 -0.2104
33973SOL     OW 4873   1.825   0.146  10.422  0.4149 -0.1799  0.5545
33973SOL    HW1 4874   1.763   0.166  10.492 -1.3909  0.5279 -1.1649
33973SOL    HW2 4875   1.807   0.056  10.398 -0.1221  0.0900 -0.0852
33974SOL     OW 4876   1.266   7.334   1.367 -0.0464  0.5399 -0.7024
33974SOL    HW1 4877   1.207   7.270   1.325  0.5217 -0.2157 -0.3826
33974SOL    HW2 4878   1.309   7.284   1.437  3.6580 -0.0474 -3.0993
33975SOL     OW 4879   8.718   7.087   0.981  0.0895  0.1891 -0.1590
33975SOL    HW1 4880   8.729   7.170   0.934 -0.4786  0.4180  0.1087
33975SOL    HW2 4881   8.801   7.074   1.027 -0.0209  0.8976  0.2491
33976SOL     OW 4882   2.139  10.605   0.800  0.1084  0.0634  0.1736
33976SOL    HW1 4883   2.229  10.596   0.831  0.0757  0.3665  0.3499
33976SOL    HW2 4884   2.140  10.562   0.714  1.0076  2.1214 -0.9145
33977SOL     OW 4885   5.675   9.128  10.132 -0.2094  0.1781 -0.3361
33977SOL    HW1 4886   5.652   9.038  10.109 -1.8114 -0.3196  2.6426
33977SOL    HW2 4887   5.663   9.177  10.051 -2.2394 -1.8282 -1.3774
33978SOL     OW 4888  10.588   5.856   2.366 -0.0943 -0.1325  0.1794
33978SOL    HW1 4889  10.498   5.855   2.332 -0.4002 -0.2420  0.9630
33978SOL    HW2 4890  10.581   5.901   2.450  0.7460  0.6482 -0.1526
33979SOL     OW 4891   8.279   1.002   1.236  0.0838 -0.4957  0.2031
33979SOL    HW1 4892   8.209   1.035   1.293  0.5332 -0.0435  0.4994
33979SOL    HW2 4893   8.329   0.943   1.292  0.2997 -0.3492  0.1629
33980SOL     OW 4894   9.537   1.270   0.906  0.0862 -0.0687 -0.1700
33980SOL    HW1 4895   9.595   1.202   0.940 -0.2665 -0.8382 -1.0721
33980SOL    HW2 4896   9.575   1.352   0.937 -0.3553 -0.7227  2.3096
33981SOL     OW 4897   8.156   0.067   0.753  0.6073 -0.5060 -0.0986
33981SOL    HW1 4898   8.094   0.137   0.772  0.6408 -0.3508 -0.5483
33981SOL    HW2 4899   8.159   0.015   0.833 -0.0114 -0.4487 -0.0356
33982SOL     OW 4900   1.070   9.336   1.096  0.2960  0.7593  0.2756
33982SOL    HW1 4901   0.979   9.322   1.068  0.4279  1.5274 -0.5752
33982SOL    HW2 4902   1.104   9.247   1.110 -0.8240  0.4859  1.4615
33983SOL     OW 4903   5.735   6.618   1.438  0.2931  0.3052 -0.5272
33983SOL    HW1 4904   5.780   6.605   1.354  1.3179  4.0709 -0.7798
33983SOL    HW2 4905   5.805   6.618   1.503  0.1019  1.4650 -0.2893
33984SOL     OW 4906   1.810   8.250   9.174 -0.1160  0.2255  0.4070
33984SOL    HW1 4907   1.791   8.315   9.106 -2.8417 -2.9977 -2.2583
33984SOL    HW2 4908   1.724   8.231   9.212  0.5194 -2.0372  0.8171
33985SOL     OW 4909   7.629   0.625   8.576  0.4255 -0.8152  0.6192
33985SOL    HW1 4910   7.669   0.600   8.659 -1.9901 -0.9745  1.8281
33985SOL    HW2 4911   7.547   0.575   8.572 -1.2651  1.7774 -0.1314
33986SOL     OW 4912   0.243   2.368   5.393  0.2639 -0.2406  0.1868
33986SOL    HW1 4913   0.231   2.297   5.457 -0.3518 -0.8749 -0.6117
33986SOL    HW2 4914   0.332   2.357   5.361 -0.0458 -1.0685 -0.4126
33987SOL     OW 4915   9.521   3.994   6.406 -0.4328  0.3407 -0.3429
33987SOL    HW1 4916   9.486   4.004   6.495 -0.8867  0.5493 -0.5410
33987SOL    HW2 4917   9.609   4.032   6.410 -0.7407  1.0349 -0.1700
33988SOL     OW 4918  10.583  10.525   7.751 -0.4013 -0.2868  0.0890
33988SOL    HW1 4919  10.533  10.482   7.819  1.8344 -1.5013  1.0488
33988SOL    HW2 4920  10.583  10.463   7.678 -2.0723  0.6578 -0.7983
33989SOL     OW 4921   9.054   2.882   4.708 -0.1252 -0.8049 -0.2971
33989SOL    HW1 4922   9.064   2.885   4.613 -0.0964 -1.1711 -0.3087
33989SOL    HW2 4923   9.098   2.801   4.734  0.0875 -0.5791  0.0572
33990SOL     OW 4924   7.439   7.063   7.953  0.3868  0.0082 -0.3550
33990SOL    HW1 4925   7.450   7.013   8.034 -0.6741 -0.1061 -0.2702
33990SOL    HW2 4926   7.405   7.147   7.982  0.2630  0.0617 -0.6594
33991SOL     OW 4927   5.526   4.874   1.717 -0.4857  0.3216 -0.6565
33991SOL    HW1 4928   5.434   4.880   1.742 -0.4124  1.7074 -0.6579
33991SOL    HW2 4929   5.540   4.780   1.700 -1.7697  0.0321 -0.2378
33992SOL     OW 4930   2.558  10.490   3.618  0.0419 -0.4946 -0.0733
33992SOL    HW1 4931   2.607  10.414   3.649 -0.6315 -1.1698 -0.6190
33992SOL    HW2 4932   2.486  10.499   3.680 -0.5258 -1.0076 -0.6450
33993SOL     OW 4933  10.349   3.702   3.132 -0.6029  0.4448  0.0734
33993SOL    HW1 4934  10.354   3.760   3.056 -0.8263  2.3217  1.4247
33993SOL    HW2 4935  10.262   3.663   3.126 -0.4937  0.3097 -0.7932
33994SOL     OW 4936   0.607   3.639   9.976  0.7534 -0.1112 -0.1577
33994SOL    HW1 4937   0.543   3.610  10.041 -1.5282  1.5612 -1.5088
33994SOL    HW2 4938   0.577   3.725   9.949  1.9510 -0.4535 -2.9641
33995SOL     OW 4939   4.232   7.093   1.565  0.3051  0.2785  0.0309
33995SOL    HW1 4940   4.209   7.113   1.656  2.1088  1.6234  0.2420
33995SOL    HW2 4941   4.226   6.998   1.559 -1.4742  0.2874  1.0627
33996SOL     OW 4942   1.490   6.191   1.962 -0.2476 -0.2182  0.1859
33996SOL    HW1 4943   1.401   6.208   1.934 -0.4421 -1.9089 -0.3350
33996SOL    HW2 4944   1.490   6.208   2.056  0.0277  4.0126 -0.3756
33997SOL     OW 4945   1.949   8.395   3.322  0.5322  0.0946  0.2338
33997SOL    HW1 4946   2.041   8.371   3.323 -0.1761 -3.2086  0.1398
33997SOL    HW2 4947   1.904   8.316   3.290 -2.4643  0.9202  1.9726
33998SOL     OW 4948   5.816   2.813   4.651  0.3005  0.1333  0.3511
33998SOL    HW1 4949   5.807   2.873   4.577  0.4788 -1.7334 -1.2686
33998SOL    HW2 4950   5.790   2.727   4.616  0.8725 -0.9055  2.3177
33999SOL     OW 4951   8.682   3.278   1.580 -0.6014  0.5276  0.2389
33999SOL    HW1 4952   8.765   3.260   1.624  0.5027  0.7568 -1.6499
33999SOL    HW2 4953   8.683   3.372   1.563 -0.2315  0.2083 -1.6903
34000SOL     OW 4954   9.013   8.285   4.317 -0.2214  0.4032  0.7155
34000SOL    HW1 4955   8.933   8.331   4.292 -0.0807 -0.7747 -2.2704
34000SOL    HW2 4956   8.984   8.219   4.380 -1.1500  1.5918  1.5700
34001SOL     OW 4957   0.307   8.759   1.725  0.1091 -0.0208  0.0602
34001SOL    HW1 4958   0.299   8.853   1.708 -2.4445  0.0693  1.3255
34001SOL    HW2 4959   0.229   8.721   1.684 -0.6148 -1.1298  2.3157
34002SOL     OW 4960  10.645   8.345   8.311  0.5249 -0.6940 -0.3503
34002SOL    HW1 4961  10.593   8.278   8.266 -0.9593  0.5699 -0.5901
34002SOL    HW2 4962  10.627   8.426   8.263  1.2807  0.1334  0.6989
34003SOL     OW 4963   7.899   6.173   3.638  0.0187  0.1446 -0.1439
34003SOL    HW1 4964   7.941   6.115   3.701  0.8441  1.1981  0.3067
34003SOL    HW2 4965   7.805   6.165   3.656  0.2708  0.9587  1.7205
34004SOL     OW 4966   5.365   1.363   1.427 -0.0443 -0.2247  0.6359
34004SOL    HW1 4967   5.337   1.288   1.480  0.6112 -1.4388 -0.6529
34004SOL    HW2 4968   5.456   1.343   1.403 -0.5265 -0.1045 -1.5159
34005SOL     OW 4969   1.337   1.896   3.891  0.3010  0.4398  0.1393
34005SOL    HW1 4970   1.352   1.956   3.965 -1.6727  0.4902  0.5400
34005SOL    HW2 4971   1.343   1.951   3.813  2.2373  0.4186  0.2266
34006SOL     OW 4972   7.558   1.610   4.514  0.5422 -0.2112  0.0776
34006SOL    HW1 4973   7.570   1.533   4.569 -0.1798 -0.4611 -0.1028
34006SOL    HW2 4974   7.467   1.636   4.528  0.6191  0.2817 -0.2896
34007SOL     OW 4975   8.938   0.948   9.354 -0.1553 -0.2995  0.2715
34007SOL    HW1 4976   8.971   1.024   9.403  0.0038 -1.8768  2.7806
34007SOL    HW2 4977   9.017   0.904   9.323 -0.2597  0.8241 -1.7574
34008SOL     OW 4978   9.411   0.451  10.192  0.2131  0.3109  0.3041
34008SOL    HW1 4979   9.351   0.380  10.213  0.3998 -0.9984 -2.9030
34008SOL    HW2 4980   9.368   0.499  10.121  0.9277  2.3121  1.1243
34009SOL     OW 4981   2.768  10.129   6.580 -0.3383  0.0788  0.3309
34009SOL    HW1 4982   2.790  10.222   6.587 -0.8092  0.4605 -2.3582
34009SOL    HW2 4983   2.827  10.095   6.513 -0.8338 -1.3653  0.5780
34010SOL     OW 4984   5.327   4.965   0.661 -0.4974 -0.1492  0.1515
34010SOL    HW1 4985   5.256   5.029   0.659  0.1498  0.6593 -2.7054
34010SOL    HW2 4986   5.398   5.009   0.708  0.1420  1.6401 -2.2644
34011SOL     OW 4987   8.539   0.073   7.354  0.4778 -0.3452 -0.3487
34011SOL    HW1 4988   8.609   0.030   7.306 -0.1047 -1.0225 -0.6127
34011SOL    HW2 4989   8.501   0.135   7.291  2.0771  1.4852  0.3847
34012SOL     OW 4990   5.806   1.823   1.743 -0.3260  0.3512 -0.3848
34012SOL    HW1 4991   5.890   1.820   1.789 -0.6537  1.0803  0.2937
34012SOL    HW2 4992   5.802   1.912   1.707 -1.2351  0.6496  0.4305
34013SOL     OW 4993   9.158   1.358  10.539 -0.2889 -0.3070 -0.0938
34013SOL    HW1 4994   9.175   1.282  10.483 -0.3889 -1.2180  1.0784
34013SOL    HW2 4995   9.069   1.385  10.516  0.0030 -0.0717 -1.0253
34014SOL     OW 4996   3.154   9.061   4.820 -0.1970  0.1867  0.5119
34014SOL    HW1 4997   3.079   9.120   4.828 -0.3293 -0.1403  2.1372
34014SOL    HW2 4998   3.137   8.992   4.885 -0.5390 -2.2269 -1.9218
34015SOL     OW 4999   9.471   7.412   3.323 -0.7501  0.1016  0.1360
34015SOL    HW1 5000   9.496   7.502   3.303  1.2336 -0.7284 -1.4815
34015SOL    HW2 5001   9.379   7.406   3.296 -0.3638  1.1722 -1.5504
34016SOL     OW 5002   5.749   7.251   0.443  0.6655  0.2242 -0.1509
34016SOL    HW1 5003   5.686   7.305   0.490 -0.0413 -0.6523 -0.0658
34016SOL    HW2 5004   5.702   7.223   0.364  0.6651 -1.0250  0.2592
34017SOL     OW 5005   8.562   0.030   2.385 -0.3150 -0.1538  0.2639
34017SOL    HW1 5006   8.507  -0.048   2.377  1.2075 -1.3810  1.1721
34017SOL    HW2 5007   8.527   0.076   2.462 -0.6458 -0.4280  0.2792
34018SOL     OW 5008  10.645   6.759   6.564  0.1837 -0.3865  0.2091
34018SOL    HW1 5009  10.606   6.762   6.477  1.6594  0.2789 -0.4844
34018SOL    HW2 5010  10.627   6.671   6.596 -0.6138 -0.5561 -0.6602
34019SOL     OW 5011   5.294   3.870   5.581 -0.8273  0.4240 -0.2002
34019SOL    HW1 5012   5.241   3.933   5.629 -1.4864  0.8461 -1.4495
34019SOL    HW2 5013   5.255   3.867   5.493 -0.5781 -1.4378 -0.2841
34020SOL     OW 5014   4.488   2.645   1.331  0.0206  0.1656 -0.3414
34020SOL    HW1 5015   4.480   2.738   1.310 -2.5382  0.3615  1.1506
34020SOL    HW2 5016   4.409   2.605   1.293 -0.3428 -0.8784  1.4145
34021SOL     OW 5017   4.273   8.833   0.337 -0.0138 -1.0527 -0.2741
34021SOL    HW1 5018   4.305   8.786   0.260 -0.5913 -0.9143 -0.6062
34021SOL    HW2 5019   4.339   8.818   0.404  0.8920 -0.5262 -1.0339
34022SOL     OW 5020   8.333   2.801   7.480  0.4811 -0.4467 -0.4769
34022SOL    HW1 5021   8.384   2.733   7.524 -0.8676 -0.8576  0.4845
34022SOL    HW2 5022   8.389   2.828   7.407  1.4187 -1.9552 -0.3678
34023SOL     OW 5023   2.405  10.684  10.488  0.0298  0.0221 -0.2397
34023SOL    HW1 5024   2.450  10.632  10.422 -0.8687  0.2332 -1.0339
34023SOL    HW2 5025   2.455  10.766  10.492  1.4985 -0.8772  1.0789
34024SOL     OW 5026   3.441   3.963   6.785 -0.6381 -0.1225  0.6817
34024SOL    HW1 5027   3.369   3.904   6.762  1.2137 -1.7008 -1.4695
34024SOL    HW2 5028   3.475   3.993   6.701  0.3496  1.7066  1.6824
34025SOL     OW 5029   1.120   1.403   7.866  0.2639  0.3207  0.1502
34025SOL    HW1 5030   1.096   1.322   7.820  0.0821  0.5390 -0.1384
34025SOL    HW2 5031   1.099   1.473   7.804  1.3447  0.5361  0.0066
34026SOL     OW 5032   4.804   6.215   0.303  0.3013 -0.3179  0.3394
34026SOL    HW1 5033   4.899   6.210   0.294  0.4545  0.1747  1.4560
34026SOL    HW2 5034   4.790   6.278   0.374 -0.8779  0.0372 -0.1736
34027SOL     OW 5035   6.242  10.163   0.614 -0.2416 -0.0383 -0.7179
34027SOL    HW1 5036   6.160  10.122   0.642  0.6908 -1.2169  0.3971
34027SOL    HW2 5037   6.251  10.239   0.671 -1.4264  1.1733 -2.0599
34028SOL     OW 5038   2.363   6.762  10.325 -0.2361  0.6577  0.2101
34028SOL    HW1 5039   2.311   6.709  10.386 -0.2357  0.7904  0.3261
34028SOL    HW2 5040   2.300   6.787  10.256 -0.4950  1.3559  0.6824
34029SOL     OW 5041   0.842   2.575   8.349  0.1691 -0.0509 -0.1667
34029SOL    HW1 5042   0.786   2.507   8.312 -0.5060  0.1263  0.5028
34029SOL    HW2 5043   0.922   2.529   8.373  0.1691 -0.3839 -0.7747
34030SOL     OW 5044   6.996   2.903   1.684 -0.0151 -0.4977  0.0921
34030SOL    HW1 5045   7.065   2.862   1.736 -0.8801  0.1333  1.8189
34030SOL    HW2 5046   7.008   2.867   1.596  1.4095 -1.7395  0.7430
34031SOL     OW 5047   7.078   9.938   8.505 -0.3569 -0.1040 -0.1399
34031SOL    HW1 5048   7.098   9.867   8.566 -1.5720  0.2899  0.7465
34031SOL    HW2 5049   7.007   9.903   8.450 -1.1519  0.4935  0.4794
34032SOL     OW 5050   6.167   4.657   1.987  0.0643  0.2240  0.6268
34032SOL    HW1 5051   6.163   4.614   1.902  0.1221  1.4547 -0.0245
34032SOL    HW2 5052   6.142   4.589   2.050  1.7906 -1.2468 -0.1635
34033SOL     OW 5053   6.568   0.855   0.400 -0.2381  0.0447 -0.2141
34033SOL    HW1 5054   6.570   0.867   0.495 -0.2633  0.3039 -0.2457
34033SOL    HW2 5055   6.611   0.771   0.385 -0.1343  0.0563  0.0193
34034SOL     OW 5056   7.551   1.711   0.722  0.1232  0.3681 -0.1349
34034SOL    HW1 5057   7.614   1.680   0.657 -0.0517  1.6969 -0.9775
34034SOL    HW2 5058   7.605   1.745   0.793  0.3215 -0.4930  0.1380
34035SOL     OW 5059   2.008   2.864   2.557 -0.3021  0.3680 -0.5468
34035SOL    HW1 5060   1.923   2.859   2.601 -1.3284 -0.9090 -2.5343
34035SOL    HW2 5061   2.008   2.950   2.515  0.9956  1.9230  2.3315
34036SOL     OW 5062   8.875   5.071   3.234  0.0565 -0.4033  0.3134
34036SOL    HW1 5063   8.951   5.111   3.192 -0.5305 -0.6973 -1.0815
34036SOL    HW2 5064   8.847   5.135   3.300  0.0311  0.8413 -0.8586
34037SOL     OW 5065   3.624   3.049   1.662  0.3212  0.6677 -0.7528
34037SOL    HW1 5066   3.686   3.075   1.730  0.8870  0.3398 -1.1345
34037SOL    HW2 5067   3.600   2.959   1.684 -0.4444  0.9692 -0.3044
34038SOL     OW 5068   8.813  10.152   7.608 -0.0186  0.0703  0.6406
34038SOL    HW1 5069   8.842  10.238   7.638 -2.8869  1.8402 -1.2130
34038SOL    HW2 5070   8.853  10.142   7.522 -1.1491  0.4022  0.0700
34039SOL     OW 5071   6.201   6.321  10.554  0.0390  0.1587 -0.1824
34039SOL    HW1 5072   6.139   6.364  10.613 -0.7835  0.1836 -1.0489
34039SOL    HW2 5073   6.162   6.236  10.536 -0.5019  0.7321 -1.8894
34040SOL     OW 5074   9.497   1.069   4.615 -0.1824 -0.1484 -0.0762
34040SOL    HW1 5075   9.517   0.985   4.657 -1.9220 -0.2152  0.7088
34040SOL    HW2 5076   9.406   1.059   4.585 -0.8175  1.8160  1.0300
34041SOL     OW 5077   8.751   7.333   3.065 -0.0573 -0.5500 -0.1018
34041SOL    HW1 5078   8.819   7.367   3.007 -0.4446  0.8621  0.2289
34041SOL    HW2 5079   8.677   7.392   3.052 -0.3414 -0.5258  1.4025
34042SOL     OW 5080   9.915   4.184   3.597  0.0536  0.5807  0.0840
34042SOL    HW1 5081   9.931   4.163   3.505 -1.2207  0.4054 -0.1148
34042SOL    HW2 5082   9.932   4.278   3.603  0.2617  0.5696 -0.2990
34043SOL     OW 5083  10.002   2.456   3.599  0.4536 -0.1779 -0.5845
34043SOL    HW1 5084  10.061   2.514   3.551  0.2736  0.3705 -0.1482
34043SOL    HW2 5085  10.059   2.411   3.662  0.3067  0.8557  0.3058
34044SOL     OW 5086   7.888   3.546  10.327 -0.0588 -0.0402 -0.4198
34044SOL    HW1 5087   7.909   3.526  10.418 -0.2577 -2.1213 -0.7817
34044SOL    HW2 5088   7.873   3.641  10.326  2.7185  0.5416  1.1346
34045SOL     OW 5089   4.286   4.936   0.825  0.4548 -0.4620 -0.6659
34045SOL    HW1 5090   4.354   4.992   0.861  0.1220 -0.5402  0.0967
34045SOL    HW2 5091   4.242   4.991   0.760  1.0283 -0.3077 -0.9321
34046SOL     OW 5092   8.190   8.963  10.547  1.0256 -0.2032  0.0374
34046SOL    HW1 5093   8.225   8.951  10.635  2.1136  1.7898 -0.0678
34046SOL    HW2 5094   8.095   8.970  10.560  1.1685 -0.0043  1.0428
34047SOL     OW 5095   1.272   6.023   6.300  0.4329 -0.8952 -0.3463
34047SOL    HW1 5096   1.177   6.036   6.294  0.3223 -0.4488  1.7213
34047SOL    HW2 5097   1.307   6.112   6.305  0.7692 -1.0887  0.9584
34048SOL     OW 5098   2.881   2.825   1.704  0.1231  0.6371  0.1754
34048SOL    HW1 5099   2.959   2.840   1.757 -1.0828  0.5935  2.0347
34048SOL    HW2 5100   2.837   2.910   1.701  0.7008  0.9168 -1.7178
34049SOL     OW 5101   3.419   9.839  10.138 -0.6597  0.3288 -0.2220
34049SOL    HW1 5102   3.429   9.876  10.225  1.2043 -0.8942  0.1347
34049SOL    HW2 5103   3.364   9.902  10.091  0.3033  2.2262  1.0953
34050SOL     OW 5104   4.095   7.550   4.571 -0.4007 -0.1737  0.1304
34050SOL    HW1 5105   4.139   7.572   4.489 -0.4032 -0.7553 -0.0307
34050SOL    HW2 5106   4.118   7.459   4.587 -1.1243 -0.3322  0.3141
34051SOL     OW 5107   2.160   6.574   8.935  0.7245  0.4305  0.5622
34051SOL    HW1 5108   2.141   6.540   8.847  1.3302 -0.6812  0.8387
34051SOL    HW2 5109   2.247   6.612   8.927  0.8721  0.1316  0.7260
34052SOL     OW 5110  10.075   3.431   4.252  0.6665 -0.3256  0.0587
34052SOL    HW1 5111  10.058   3.341   4.225 -1.8116 -0.6740  2.3617
34052SOL    HW2 5112  10.014   3.484   4.200  1.3641 -0.0583 -0.5133
34053SOL     OW 5113   1.890   0.485   4.457 -0.4466 -0.4975 -0.1468
34053SOL    HW1 5114   1.973   0.459   4.417 -0.2133  1.9343 -1.4183
34053SOL    HW2 5115   1.870   0.415   4.519  2.5336 -1.1422  0.2146
34054SOL     OW 5116   7.857   5.674   9.355 -0.7327 -0.4578  0.4485
34054SOL    HW1 5117   7.863   5.758   9.310  0.1015  0.0300  1.4164
34054SOL    HW2 5118   7.887   5.610   9.291 -0.5207  0.0891 -0.0098
34055SOL     OW 5119   9.276   7.587   8.322 -0.0257 -0.2408 -0.5155
34055SOL    HW1 5120   9.341   7.637   8.372 -1.3213  2.7555 -1.5872
34055SOL    HW2 5121   9.196   7.592   8.376  0.5369 -4.2802  1.0241
34056SOL     OW 5122   2.245   4.868   0.811 -0.5805 -0.5622 -0.0525
34056SOL    HW1 5123   2.158   4.870   0.851 -0.3550 -0.3303  0.4301
34056SOL    HW2 5124   2.242   4.792   0.752 -1.0726 -0.6166  0.0374
34057SOL     OW 5125   7.861   7.294   1.203 -0.2428 -0.0915  0.4191
34057SOL    HW1 5126   7.884   7.382   1.232  2.2368 -0.7697  0.7620
34057SOL    HW2 5127   7.878   7.238   1.279 -1.0910 -0.9677 -0.0076
34058SOL     OW 5128   0.818   5.692   1.573  0.4080 -0.5943  0.2980
34058SOL    HW1 5129   0.768   5.673   1.493  0.3560  0.8329 -0.0353
34058SOL    HW2 5130   0.882   5.622   1.578 -0.1930 -1.2252 -0.4835
34059SOL     OW 5131   7.818   5.786   1.124 -0.0536 -0.2984 -0.2743
34059SOL    HW1 5132   7.774   5.745   1.198  1.4627  1.3524  1.6722
34059SOL    HW2 5133   7.750   5.836   1.079 -0.8559 -0.7129  0.4694
34060SOL     OW 5134   3.808   0.068   8.970  0.6267  0.2549  0.2693
34060SOL    HW1 5135   3.717   0.096   8.973  0.8398  0.8619  2.8442
34060SOL    HW2 5136   3.807  -0.023   9.000  0.6583 -0.6697 -2.2129
34061SOL     OW 5137   6.866   1.010   1.893 -0.8749 -0.0582  0.8544
34061SOL    HW1 5138   6.927   0.948   1.853  0.4773 -0.2230  3.0697
34061SOL    HW2 5139   6.788   0.958   1.912 -1.1013 -0.2316 -0.4024
34062SOL     OW 5140   3.104   8.794   4.945 -0.4321 -0.4255  0.0179
34062SOL    HW1 5141   3.160   8.787   5.022  0.3960  1.7515 -0.3190
34062SOL    HW2 5142   3.041   8.722   4.955 -0.1545 -0.4179  2.5310
34063SOL     OW 5143   0.716   6.742   7.890 -0.1402  0.1452 -0.5154
34063SOL    HW1 5144   0.698   6.740   7.796 -1.2216 -0.2103 -0.3168
34063SOL    HW2 5145   0.754   6.656   7.908  0.2766  0.2985 -0.6721
34064SOL     OW 5146   0.745   7.037   1.960  0.0424  0.1711  0.3624
34064SOL    HW1 5147   0.701   7.113   1.920 -0.3657  0.7741  1.8966
34064SOL    HW2 5148   0.767   7.066   2.048 -2.0889 -2.1592  1.7815
34065SOL     OW 5149   0.958   9.145   8.451  0.4861 -0.3317  0.1830
34065SOL    HW1 5150   0.909   9.066   8.474 -0.0196 -0.2613 -0.5733
34065SOL    HW2 5151   0.890   9.212   8.439  0.6261 -0.5080 -1.9832
34066SOL     OW 5152   0.704   5.775   7.093  0.5881 -0.6701 -0.3102
34066SOL    HW1 5153   0.741   5.698   7.050  2.0190  0.4040 -1.0896
34066SOL    HW2 5154   0.614   5.781   7.060 -0.2283 -3.0470  1.2276
34067SOL     OW 5155   6.003   9.314   8.851  0.1385 -0.1098 -0.2328
34067SOL    HW1 5156   5.936   9.333   8.917  1.2014 -1.5285  1.3231
34067SOL    HW2 5157   5.955   9.314   8.768 -1.2075  1.8867  0.4701
34068SOL     OW 5158   3.759   0.207   2.723 -0.7209  0.3549 -0.5730
34068SOL    HW1 5159   3.738   0.115   2.739 -0.2425  0.1555 -1.0644
34068SOL    HW2 5160   3.708   0.231   2.645  1.6434 -0.4671 -2.4986
34069SOL     OW 5161   8.820  10.402   7.731  0.5425 -0.2084  0.4149
34069SOL    HW1 5162   8.851  10.371   7.816  1.5813  0.0690  0.1465
34069SOL    HW2 5163   8.855  10.491   7.723 -0.4794  0.1945  0.1758
34070SOL     OW 5164   0.091   6.669   1.964 -0.8563  0.3861 -0.1015
34070SOL    HW1 5165   0.114   6.712   1.882 -2.0429 -0.8942 -1.1489
34070SOL    HW2 5166   0.175   6.656   2.009  0.0734 -0.7081 -2.0376
34071SOL     OW 5167   5.088   9.828   0.962  0.3969  0.2058 -0.4091
34071SOL    HW1 5168   5.064   9.859   1.049  0.8922  1.3082 -0.6504
34071SOL    HW2 5169   5.142   9.898   0.925 -0.4385  0.1035 -1.9127
34072SOL     OW 5170   8.609  10.044  10.176 -0.2835  1.1007  0.3202
34072SOL    HW1 5171   8.679  10.071  10.236  0.3462  0.8408 -0.2785
34072SOL    HW2 5172   8.537  10.105  10.194  0.9262  2.8933 -0.6503
34073SOL     OW 5173   6.870   7.253   3.110  0.0090  0.3204  0.2834
34073SOL    HW1 5174   6.893   7.205   3.030  2.1412  0.1517  0.9409
34073SOL    HW2 5175   6.868   7.186   3.178 -0.1823  0.7009  0.6522
34074SOL     OW 5176  10.292   8.833   4.419 -0.5566  0.3859  0.6250
34074SOL    HW1 5177  10.221   8.798   4.364 -1.2471  0.4477  1.4583
34074SOL    HW2 5178  10.299   8.925   4.393  1.2425 -0.2643 -1.5503
34075SOL     OW 5179   3.305   1.905   8.061  0.2798  0.8758 -0.2696
34075SOL    HW1 5180   3.220   1.946   8.045  0.4547  1.3940  0.1032
34075SOL    HW2 5181   3.311   1.836   7.995 -1.3701 -0.6335  1.0702
34076SOL     OW 5182   6.534   6.914   1.330  0.7151 -0.0640 -0.2081
34076SOL    HW1 5183   6.523   6.862   1.409  0.7402 -0.5514 -0.5189
34076SOL    HW2 5184   6.541   7.005   1.361  2.9563 -0.4450  0.5283
34077SOL     OW 5185  10.017   2.043   3.564  0.3410 -0.3564 -0.1221
34077SOL    HW1 5186   9.958   2.053   3.638 -0.6266 -1.2278 -0.7563
34077SOL    HW2 5187  10.071   1.967   3.586 -0.5832 -1.2026 -0.7037
34078SOL     OW 5188  10.564   5.182   5.195  0.2928  0.0528  0.1566
34078SOL    HW1 5189  10.579   5.177   5.100  2.6630 -0.5909  0.5076
34078SOL    HW2 5190  10.606   5.264   5.222  0.9696 -0.5024  0.8386
34079SOL     OW 5191   8.332   5.358  10.210 -0.3339 -0.4625  0.3424
34079SOL    HW1 5192   8.247   5.356  10.253  0.1438 -1.2436  1.2876
34079SOL    HW2 5193   8.363   5.448  10.221 -1.1115 -0.1184 -0.1941
34080SOL     OW 5194   2.275   0.355   3.208  0.3504 -0.3944  0.0968
34080SOL    HW1 5195   2.250   0.447   3.210 -0.8420 -0.7071  0.9565
34080SOL    HW2 5196   2.217   0.315   3.144  0.0901 -0.7421  0.5388
34081SOL     OW 5197   3.131   9.514   9.918 -0.6908 -0.1685 -0.2330
34081SOL    HW1 5198   3.142   9.554  10.005 -2.2389 -1.0556  0.4219
34081SOL    HW2 5199   3.092   9.584   9.865 -2.2900 -0.3880  0.5815
34082SOL     OW 5200   0.627   0.243   4.907 -0.0072  0.2686 -0.0596
34082SOL    HW1 5201   0.650   0.282   4.991  0.0902  2.0419 -0.8709
34082SOL    HW2 5202   0.684   0.166   4.900  1.3984  1.2005  0.6301
34083SOL     OW 5203   8.859   5.100   4.994  0.0539  0.2757 -0.0120
34083SOL    HW1 5204   8.931   5.069   4.938  0.2231 -1.1565  0.9389
34083SOL    HW2 5205   8.874   5.194   5.002  0.5769  0.3523 -1.5756
34084SOL     OW 5206   4.655   1.774   0.318  0.6602  0.2120 -0.7149
34084SOL    HW1 5207   4.648   1.702   0.381 -2.8036  1.0985  0.1741
34084SOL    HW2 5208   4.684   1.849   0.370  0.7373  0.2558 -0.8217
34085SOL     OW 5209   2.597   9.287   9.272 -0.0229 -0.4862  0.4260
34085SOL    HW1 5210   2.657   9.353   9.305 -0.6486  0.3442 -0.0771
34085SOL    HW2 5211   2.596   9.219   9.340  0.6961 -0.0415  0.8946
34086SOL     OW 5212   8.368   8.613  10.688 -0.3415 -0.9735 -0.1981
34086SOL    HW1 5213   8.404   8.693  10.650  0.1727 -0.9182  0.4068
34086SOL    HW2 5214   8.370   8.628  10.783  0.4982 -2.0162 -0.0399
34087SOL     OW 5215   1.176   3.970   8.203  0.1580 -0.1771  0.2209
34087SOL    HW1 5216   1.101   3.914   8.181  1.1028 -1.4215  0.0502
34087SOL    HW2 5217   1.224   3.920   8.270 -0.0219  1.3380  1.5454
34088SOL     OW 5218   7.692   1.075   8.889  0.2591 -0.3232 -0.1309
34088SOL    HW1 5219   7.625   1.038   8.946  0.8563 -0.0540  0.7595
34088SOL    HW2 5220   7.745   1.000   8.862 -0.9114 -0.6925 -1.6040
34089SOL     OW 5221   0.847   6.070   8.785 -0.0586 -0.0930 -0.0642
34089SOL    HW1 5222   0.851   6.162   8.760  1.2736  0.1748  1.0192
34089SOL    HW2 5223   0.769   6.063   8.840 -0.7930  0.1370 -1.0669
34090SOL     OW 5224   4.659   1.854   3.720  0.4762 -0.2227  0.2688
34090SOL    HW1 5225   4.730   1.862   3.657  0.5382  0.4725  0.4175
34090SOL    HW2 5226   4.699   1.813   3.796  0.9688  1.0048  0.7062
34091SOL     OW 5227   2.839   2.696   4.613 -0.3330  0.8645  0.4156
34091SOL    HW1 5228   2.903   2.629   4.635  0.8468  2.2544  1.4055
34091SOL    HW2 5229   2.876   2.740   4.537 -0.7039  0.9091  0.2603
34092SOL     OW 5230   6.307   9.175   5.527 -0.6049 -0.2787  0.6669
34092SOL    HW1 5231   6.367   9.112   5.566 -1.7248 -1.4804  0.5154
34092SOL    HW2 5232   6.290   9.238   5.596  0.1140 -0.4340  0.9947
34093SOL     OW 5233   4.390   0.617   7.078 -0.4501 -0.0324 -0.3139
34093SOL    HW1 5234   4.447   0.614   7.001 -0.9041 -1.4434 -0.6264
34093SOL    HW2 5235   4.359   0.707   7.081  1.0920  0.5521 -0.6422
34094SOL     OW 5236   3.780   7.373   6.247  0.1148 -0.0783 -0.1083
34094SOL    HW1 5237   3.720   7.302   6.269 -0.0178  0.4471  1.3378
34094SOL    HW2 5238   3.742   7.450   6.289  1.2585  0.4656 -0.0481
34095SOL     OW 5239   5.180   2.928   8.993 -0.9942 -0.0510 -1.0128
34095SOL    HW1 5240   5.161   3.007   9.043 -1.4754 -0.2688 -0.8443
34095SOL    HW2 5241   5.180   2.858   9.058  0.8842 -0.0193 -0.9177
34096SOL     OW 5242   8.210   7.256   1.399 -0.1555 -0.6852  1.1774
34096SOL    HW1 5243   8.183   7.347   1.414  0.6209 -0.1485 -0.4102
34096SOL    HW2 5244   8.128   7.207   1.392 -0.5781 -0.3551  3.2220
34097SOL     OW 5245   7.354  10.501   7.040 -0.3921 -0.5443  0.0180
34097SOL    HW1 5246   7.419  10.569   7.019  0.2274 -0.7411  1.2505
34097SOL    HW2 5247   7.347  10.449   6.960  0.7923 -0.3689 -0.2164
34098SOL     OW 5248   9.510   5.832   6.842 -0.2344  0.6425 -0.1673
34098SOL    HW1 5249   9.539   5.748   6.805 -0.5724 -0.0559  1.0854
34098SOL    HW2 5250   9.591   5.874   6.871 -0.2351 -0.4310  1.5356
34099SOL     OW 5251  10.040   9.814  10.118 -0.0354  0.3720 -0.4972
34099SOL    HW1 5252  10.015   9.904  10.097  0.1472  0.3719 -0.7277
34099SOL    HW2 5253  10.054   9.814  10.213  0.3877  0.6957 -0.5549
34100SOL     OW 5254   9.940   9.015   3.065  0.1291 -0.0613  0.7182
34100SOL    HW1 5255  10.004   9.069   3.111  0.1313  0.6094 -0.0610
34100SOL    HW2 5256   9.874   8.994   3.131  1.5043 -1.3937  1.7418
34101SOL     OW 5257   1.802   5.595   7.789  0.5414  0.1368 -0.3800
34101SOL    HW1 5258   1.728   5.645   7.753 -1.2230 -1.1597  1.2236
34101SOL    HW2 5259   1.839   5.652   7.856 -1.2200 -0.4528  1.1754
34102SOL     OW 5260   8.124   0.529   8.894  0.4453 -0.5613 -0.0825
34102SOL    HW1 5261   8.144   0.572   8.977 -2.3725  3.3063 -1.0871
34102SOL    HW2 5262   8.189   0.564   8.833 -0.1996  0.2353 -0.3395
34103SOL     OW 5263   0.881   3.881   2.799 -0.2125 -0.8530  0.6325
34103SOL    HW1 5264   0.788   3.880   2.821 -0.0756 -0.0732  1.3231
34103SOL    HW2 5265   0.889   3.822   2.725 -1.4040 -0.2727  0.0134
34104SOL     OW 5266   1.716   7.078   6.688  0.3715 -0.0204  0.3851
34104SOL    HW1 5267   1.713   7.108   6.779 -1.1331 -0.3185  0.4537
34104SOL    HW2 5268   1.644   7.016   6.680 -1.1414  1.8478 -1.6237
34105SOL     OW 5269   8.522   1.633   0.377 -0.0069 -0.1095 -0.5617
34105SOL    HW1 5270   8.560   1.548   0.352  0.7702  0.5218 -1.6531
34105SOL    HW2 5271   8.593   1.677   0.425 -0.7714 -0.4714  0.9582
34106SOL     OW 5272   6.169   4.234   9.939 -0.2737  0.4464  0.9950
34106SOL    HW1 5273   6.116   4.300   9.893 -1.1102 -0.2344  0.9567
34106SOL    HW2 5274   6.207   4.181   9.869  1.3723  1.5757  0.9709
34107SOL     OW 5275   4.340   6.371   4.698  0.2103 -0.3075  0.2360
34107SOL    HW1 5276   4.388   6.393   4.618  1.2501  1.6275  1.3015
34107SOL    HW2 5277   4.402   6.319   4.749 -0.0260 -0.5580  0.2693
34108SOL     OW 5278   9.627   9.745   3.190 -0.2193  0.4413 -0.1001
34108SOL    HW1 5279   9.625   9.655   3.157 -1.6658  0.7768 -1.0441
34108SOL    HW2 5280   9.674   9.794   3.122 -2.0983  0.9026 -1.1560
34109SOL     OW 5281   3.809   5.479   9.964  0.0056  0.0455  0.7766
34109SOL    HW1 5282   3.718   5.449   9.966  0.2977 -0.8733  0.6225
34109SOL    HW2 5283   3.815   5.533   9.885 -0.3877  0.0585  0.7537
34110SOL     OW 5284   2.656   9.290   6.941 -0.3366 -0.3550  0.1550
34110SOL    HW1 5285   2.635   9.239   6.863 -0.2086 -0.5374  0.2407
34110SOL    HW2 5286   2.571   9.306   6.982 -0.2559 -1.7124  0.8920
34111SOL     OW 5287   2.489   1.919   8.585 -0.0086  0.1814  0.6454
34111SOL    HW1 5288   2.509   2.012   8.574 -0.5105  0.8656  4.2925
34111SOL    HW2 5289   2.401   1.918   8.621  0.8223 -1.5155  2.8248
34112SOL     OW 5290   7.502   8.581  10.309 -0.1544  0.4025  0.2855
34112SOL    HW1 5291   7.418   8.565  10.266 -0.3918  2.3669 -0.0468
34112SOL    HW2 5292   7.498   8.529  10.389 -0.9731 -0.8560 -0.5274
34113SOL     OW 5293   1.633   9.215   6.200  0.3084 -0.4174 -0.5774
34113SOL    HW1 5294   1.600   9.137   6.245 -0.9852  0.7477  0.5877
34113SOL    HW2 5295   1.606   9.203   6.109 -1.3342 -0.5999 -0.0988
34114SOL     OW 5296   3.076   7.464   1.869 -0.5749 -0.3038 -0.3221
34114SOL    HW1 5297   3.092   7.540   1.925  0.4882 -0.7365 -0.0196
34114SOL    HW2 5298   3.136   7.476   1.795  1.1068 -1.8394  0.7143
34115SOL     OW 5299   2.729   8.708   5.039 -0.3378 -0.2810  0.1509
34115SOL    HW1 5300   2.751   8.743   5.125 -1.9299 -1.3950  1.0757
34115SOL    HW2 5301   2.681   8.779   4.996  1.6647  0.7903 -0.4219
34116SOL     OW 5302   5.946   9.983   9.315  0.4370 -0.4945 -0.0764
34116SOL    HW1 5303   5.959   9.892   9.289 -1.4243  0.3658 -5.1775
34116SOL    HW2 5304   5.881   9.979   9.386 -0.6108 -3.1685 -1.0509
34117SOL     OW 5305   7.562   2.672   5.271  0.1307 -0.1042 -0.1659
34117SOL    HW1 5306   7.561   2.599   5.333  1.8697 -0.8396 -0.9453
34117SOL    HW2 5307   7.532   2.747   5.323 -0.3304 -1.0644  1.0316
34118SOL     OW 5308   5.345   2.374   5.289 -0.0432 -0.1163 -0.0663
34118SOL    HW1 5309   5.334   2.445   5.226  1.5033 -0.5362 -0.8660
34118SOL    HW2 5310   5.349   2.295   5.235  0.9458 -0.5195  0.5645
34119SOL     OW 5311   1.757   0.840   9.964  0.2399  0.5136 -0.2447
34119SOL    HW1 5312   1.693   0.854  10.034  0.9916  1.0875  0.3469
34119SOL    HW2 5313   1.765   0.745   9.958  1.6650  0.4208  1.9078
34120SOL     OW 5314   0.234  10.088   1.235  0.5883 -0.0884  0.1256
34120SOL    HW1 5315   0.250  10.120   1.146 -1.6404 -0.1002 -0.3384
34120SOL    HW2 5316   0.273  10.001   1.237  2.3684  0.6589 -0.1796
34121SOL     OW 5317   6.479   8.925   7.178 -0.8161  0.1862 -0.2792
34121SOL    HW1 5318   6.479   8.829   7.184  0.5288  0.0789 -1.4714
34121SOL    HW2 5319   6.398   8.951   7.221 -2.0422 -1.5779 -1.3543
34122SOL     OW 5320   9.598   1.247   0.162  0.3968 -0.1923 -0.4996
34122SOL    HW1 5321   9.523   1.213   0.211 -0.8939 -1.1595 -2.9574
34122SOL    HW2 5322   9.654   1.171   0.148 -0.0364 -0.2945 -1.8026
34123SOL     OW 5323   9.166   5.678   0.492  0.0561 -0.0191 -0.1939
34123SOL    HW1 5324   9.170   5.751   0.554 -0.5492  0.8504 -1.1351
34123SOL    HW2 5325   9.189   5.718   0.408 -0.1621 -0.9459 -0.7019
34124SOL     OW 5326   2.672   6.611   7.508 -0.1242  0.3147  0.2919
34124SOL    HW1 5327   2.659   6.633   7.600  0.5791 -0.8875  0.6991
34124SOL    HW2 5328   2.766   6.597   7.500 -0.4386 -2.0789  0.0147
34125SOL     OW 5329   6.837   1.343   4.735  0.9179 -0.1835 -0.4499
34125SOL    HW1 5330   6.778   1.380   4.801  0.7547 -0.3894 -0.4816
34125SOL    HW2 5331   6.885   1.274   4.781  0.6140 -0.5057 -0.6180
34126SOL     OW 5332   1.273   1.428   6.214 -0.8987  0.6223 -0.0662
34126SOL    HW1 5333   1.330   1.362   6.255  0.2686  0.7691 -1.3973
34126SOL    HW2 5334   1.306   1.512   6.247 -1.7750  0.6191  0.8749
34127SOL     OW 5335   4.163   9.584   7.284 -0.0341  0.4858 -0.5418
34127SOL    HW1 5336   4.095   9.524   7.313 -0.2936  0.4814 -1.1382
34127SOL    HW2 5337   4.241   9.559   7.334 -0.6077  0.8553  0.5642
34128SOL     OW 5338  10.114  10.614   2.563 -0.6303 -0.5256  0.2175
34128SOL    HW1 5339  10.145  10.524   2.570 -1.2281 -0.7662 -0.1995
34128SOL    HW2 5340  10.052  10.613   2.491 -0.7970  0.1830  0.3405
34129SOL     OW 5341   4.654   9.304   9.065  0.8048  0.5127  0.1186
34129SOL    HW1 5342   4.603   9.226   9.085  0.1791  0.8907  0.0306
34129SOL    HW2 5343   4.693   9.329   9.149 -0.0241  0.8248  0.4269
34130SOL     OW 5344   8.574   8.972   5.334  0.0309  0.3818 -0.3103
34130SOL    HW1 5345   8.607   8.885   5.312  0.5846  1.0243 -2.1953
34130SOL    HW2 5346   8.632   9.032   5.287 -0.8994  1.7322  0.2185
34131SOL     OW 5347   1.622   8.525   8.415 -0.6010  0.3716  0.1618
34131SOL    HW1 5348   1.534   8.524   8.379 -0.8566  1.1335  0.7534
34131SOL    HW2 5349   1.614   8.482   8.501 -0.1105 -0.8741 -0.3799
34132SOL     OW 5350   8.881   9.660  10.640  0.8959 -0.2324 -0.1870
34132SOL    HW1 5351   8.923   9.736  10.680  1.0851 -0.1614 -0.5206
34132SOL    HW2 5352   8.855   9.688  10.553 -0.7505  0.0225  0.3553
34133SOL     OW 5353   6.199   0.808   2.611  0.0114  0.4070  0.5745
34133SOL    HW1 5354   6.148   0.793   2.532  1.0080  0.1353 -0.0411
34133SOL    HW2 5355   6.221   0.902   2.607  2.0154 -0.0445 -0.7399
34134SOL     OW 5356   0.180   0.026  10.393 -0.2335 -0.0341  0.0336
34134SOL    HW1 5357   0.138   0.087  10.332  0.6570 -1.2952 -1.9184
34134SOL    HW2 5358   0.146  -0.060  10.368 -0.2871 -0.5420  1.7298
34135SOL     OW 5359   9.820   1.264   8.206  0.1790 -0.0946  0.2058
34135SOL    HW1 5360   9.736   1.230   8.239 -0.9835  1.1308 -1.3580
34135SOL    HW2 5361   9.882   1.246   8.277 -0.6952 -3.7614  0.2632
34136SOL     OW 5362   0.717   8.083   1.672  0.1640 -0.7513 -0.1148
34136SOL    HW1 5363   0.623   8.091   1.692  0.4826  1.8250  0.6546
34136SOL    HW2 5364   0.755   8.166   1.701  2.3870 -0.9587 -2.1356
34137SOL     OW 5365   2.082  10.644   4.725  0.1401 -0.0652 -0.5604
34137SOL    HW1 5366   2.056  10.648   4.817  0.4730 -3.9202 -0.1553
34137SOL    HW2 5367   2.178  10.638   4.728  0.0406 -3.7198 -0.7742
34138SOL     OW 5368   9.981   3.055   0.269 -0.1874  0.0744 -0.4678
34138SOL    HW1 5369  10.052   3.069   0.207  0.2236 -1.6464 -0.4205
34138SOL    HW2 5370   9.928   3.135   0.263 -0.3149 -0.1233 -3.1997
34139SOL     OW 5371   1.536   6.195   7.361  0.3808  0.1553  0.4890
34139SOL    HW1 5372   1.568   6.106   7.380  2.7182  0.3846 -1.8371
34139SOL    HW2 5373   1.608   6.252   7.386 -0.1932  1.2159 -0.2237
34140SOL     OW 5374   3.404  10.639   7.558 -0.5327  0.0880 -0.0834
34140SOL    HW1 5375   3.490  10.613   7.525 -0.4118 -0.1806  0.4473
34140SOL    HW2 5376   3.363  10.558   7.588 -1.2589  0.1044 -0.9800
34141SOL     OW 5377   4.276   3.475   6.653 -0.2059 -0.5031 -0.3388
34141SOL    HW1 5378   4.304   3.459   6.743 -0.5852  1.9534  0.2807
34141SOL    HW2 5379   4.350   3.448   6.599 -0.1355 -2.3915  0.6506
34142SOL     OW 5380   9.774   2.442   8.010 -0.4907  0.2847 -0.1453
34142SOL    HW1 5381   9.729   2.502   8.069  0.2813  0.2248  0.5209
34142SOL    HW2 5382   9.833   2.497   7.959 -1.7543  0.4653 -1.5093
34143SOL     OW 5383   7.176   3.923   0.141  0.4975  0.1721  0.5182
34143SOL    HW1 5384   7.145   3.833   0.131  1.0027  0.0588 -0.0580
34143SOL    HW2 5385   7.191   3.953   0.052  3.7966 -0.3907  0.7549
34144SOL     OW 5386   4.729   6.669   3.844  0.1168 -0.1345 -0.0238
34144SOL    HW1 5387   4.715   6.743   3.785  1.0118  0.0405 -0.0273
34144SOL    HW2 5388   4.657   6.609   3.824  0.6362 -0.2734 -1.6207
34145SOL     OW 5389   8.865   4.507   2.996  0.0176 -0.0566 -0.5117
34145SOL    HW1 5390   8.827   4.549   3.073  0.8291 -2.3631  1.2663
34145SOL    HW2 5391   8.807   4.533   2.924 -1.9072  0.6731  1.1873
34146SOL     OW 5392   2.327   8.797   8.005 -0.7668 -0.0103  0.2933
34146SOL    HW1 5393   2.360   8.863   7.944 -1.0699  0.1428  0.2892
34146SOL    HW2 5394   2.362   8.823   8.090  2.6560 -2.2142 -0.2632
34147SOL     OW 5395   3.206   5.072   3.963  0.4078 -0.2858 -0.5345
34147SOL    HW1 5396   3.278   5.134   3.960  1.5691 -1.3429  2.0951
34147SOL    HW2 5397   3.134   5.120   4.005  0.1900  0.2120 -1.4609
34148SOL     OW 5398   8.315   8.734   3.920 -0.1902  0.5943 -0.4383
34148SOL    HW1 5399   8.324   8.640   3.939 -5.0133 -0.0924 -0.2576
34148SOL    HW2 5400   8.306   8.738   3.825 -2.7750  0.3492 -0.2788
34149SOL     OW 5401   7.636   3.146   6.536  0.2689  0.1543  0.4114
34149SOL    HW1 5402   7.575   3.220   6.545  1.6694  1.4099 -0.0236
34149SOL    HW2 5403   7.587   3.081   6.485 -1.7498 -0.1433  2.5478
34150SOL     OW 5404   8.009   9.025   1.224  0.3781  0.0288  0.0892
34150SOL    HW1 5405   8.059   8.968   1.166  0.8464 -1.6490  2.0449
34150SOL    HW2 5406   7.918   9.007   1.202  0.5111 -1.8114  0.9474
34151SOL     OW 5407   6.543   0.145   3.975 -0.0791 -0.3189 -0.0864
34151SOL    HW1 5408   6.624   0.141   4.026  0.0554 -0.5127 -0.3110
34151SOL    HW2 5409   6.572   0.154   3.885 -0.3232  0.3073 -0.1019
34152SOL     OW 5410   3.279   7.918   2.133 -0.1948 -0.0288 -0.4801
34152SOL    HW1 5411   3.361   7.958   2.104 -1.4435  1.5345 -2.1335
34152SOL    HW2 5412   3.283   7.828   2.100  0.7099  0.1361 -0.8414
34153SOL     OW 5413   7.989   5.126   8.190 -0.1654  0.0498  0.4840
34153SOL    HW1 5414   7.909   5.076   8.173 -0.3879  0.3777  0.5593
34153SOL    HW2 5415   7.965   5.188   8.258  0.5889 -0.9445  1.7122
34154SOL     OW 5416   6.471   5.870   6.639 -0.1293 -0.0158  0.4400
34154SOL    HW1 5417   6.419   5.941   6.677 -0.6467 -1.1172  1.8846
34154SOL    HW2 5418   6.416   5.792   6.649  0.8211 -0.7988 -0.2064
34155SOL     OW 5419   3.126   3.655   1.744 -0.2305  0.3195  0.3516
34155SOL    HW1 5420   3.208   3.617   1.715 -0.1590  0.5620  0.2309
34155SOL    HW2 5421   3.064   3.583   1.743 -0.3882  0.4492 -1.0266
34156SOL     OW 5422   5.918   0.861   8.684  0.1430  0.5434 -0.2995
34156SOL    HW1 5423   5.864   0.793   8.644  0.6681  0.2692 -0.5511
34156SOL    HW2 5424   5.959   0.905   8.610  1.4402 -0.2279 -0.0675
34157SOL     OW 5425   8.957   9.697  10.259  0.0563 -0.2414  0.2691
34157SOL    HW1 5426   8.869   9.736  10.256 -0.2311 -0.9466 -1.4709
34157SOL    HW2 5427   8.948   9.615  10.210  2.1144  0.5642 -1.5740
34158SOL     OW 5428   7.065   8.406   2.947 -0.3120 -0.3530 -0.1534
34158SOL    HW1 5429   7.101   8.390   3.034  1.9827 -1.6190 -1.2492
34158SOL    HW2 5430   6.971   8.390   2.957 -0.4297  1.3542  2.4472
34159SOL     OW 5431   0.153   7.187   9.021 -0.1672  0.1704  0.4996
34159SOL    HW1 5432   0.108   7.175   9.105  1.7332 -0.4713  1.4949
34159SOL    HW2 5433   0.241   7.217   9.045  0.2581  0.4685 -1.2994
34160SOL     OW 5434   8.203   4.921   8.148 -0.3809 -0.0381  0.2507
34160SOL    HW1 5435   8.272   4.938   8.084 -0.0521  0.1138  0.6412
34160SOL    HW2 5436   8.141   4.993   8.136  0.3167  0.7000  0.9618
34161SOL     OW 5437   9.726   8.462   7.503  0.3983 -0.5615 -0.0662
34161SOL    HW1 5438   9.692   8.474   7.415  1.4436 -2.1541 -0.7405
34161SOL    HW2 5439   9.768   8.375   7.501  2.2876  0.2319  1.3831
34162SOL     OW 5440   4.309   3.080   9.321 -0.5667 -0.1539 -0.0955
34162SOL    HW1 5441   4.394   3.103   9.360 -1.1844  0.4989  0.9009
34162SOL    HW2 5442   4.329   3.008   9.262  0.5885 -0.4399  0.6072
34163SOL     OW 5443   5.603   3.799   6.474 -0.0878 -0.1980 -0.4727
34163SOL    HW1 5444   5.610   3.889   6.444 -0.7611  0.4101  1.0953
34163SOL    HW2 5445   5.564   3.752   6.400 -2.6665  1.4514 -0.2847
34164SOL     OW 5446   1.566   5.165   3.351 -0.1076 -0.5054  0.2677
34164SOL    HW1 5447   1.499   5.145   3.286 -0.5403  1.1564  0.1619
34164SOL    HW2 5448   1.554   5.100   3.420 -0.9072 -1.0826 -0.4012
34165SOL     OW 5449   1.132   4.844   3.098  0.3218  0.2269 -0.5017
34165SOL    HW1 5450   1.080   4.867   3.175  1.0003 -0.3942  0.1557
34165SOL    HW2 5451   1.213   4.894   3.109  0.8406 -0.6343 -0.2668
34166SOL     OW 5452   1.253   9.552   1.971  0.5132 -0.8123 -0.0359
34166SOL    HW1 5453   1.211   9.487   2.028 -1.1937 -0.0130 -0.3269
34166SOL    HW2 5454   1.344   9.554   2.001  0.8759 -3.8962 -0.5444
34167SOL     OW 5455   8.422   4.640   3.354 -0.5559 -0.3352 -0.3682
34167SOL    HW1 5456   8.470   4.570   3.398 -0.9952  0.1048  0.8659
34167SOL    HW2 5457   8.331   4.611   3.355 -1.0277  0.9870  1.7859
34168SOL     OW 5458   3.644   0.740   1.144 -0.7020 -0.1121 -0.4465
34168SOL    HW1 5459   3.703   0.702   1.078 -0.6467 -0.5898 -0.1285
34168SOL    HW2 5460   3.572   0.678   1.150 -2.5319  1.6095 -2.5942
34169SOL     OW 5461   5.723   5.000   3.464 -0.1591 -0.0575 -0.0892
34169SOL    HW1 5462   5.692   5.010   3.554 -0.3980 -1.9384  0.0599
34169SOL    HW2 5463   5.741   4.907   3.454 -1.5971 -0.1665 -2.4548
34170SOL     OW 5464   6.222   9.495   6.793 -0.1521  0.1550 -0.0191
34170SOL    HW1 5465   6.154   9.445   6.747 -1.0809  0.5723  0.8583
34170SOL    HW2 5466   6.304   9.458   6.761 -0.7655 -0.0753 -1.4319
34171SOL     OW 5467   1.086   3.617   9.973 -0.3386  0.0818  0.1991
34171SOL    HW1 5468   1.049   3.532   9.996 -2.0265  0.7617  0.1008
34171SOL    HW2 5469   1.116   3.606   9.882  0.3845 -0.6898  0.5183
34172SOL     OW 5470   4.408   2.491   0.879 -0.4499 -0.2487  0.0387
34172SOL    HW1 5471   4.312   2.498   0.877 -0.4384 -0.1474 -0.2608
34172SOL    HW2 5472   4.427   2.434   0.954 -0.6745  0.8787  0.9758
34173SOL     OW 5473   7.011   5.314   8.684 -0.1166 -0.3847  0.0530
34173SOL    HW1 5474   7.093   5.357   8.660 -1.2883  1.0718 -1.6491
34173SOL    HW2 5475   6.971   5.372   8.749  0.7207 -1.7458  1.8685
34174SOL     OW 5476   8.349   9.352   0.995  0.1101  0.3288 -0.0490
34174SOL    HW1 5477   8.322   9.279   0.939  2.8906 -0.3027 -0.7219
34174SOL    HW2 5478   8.323   9.430   0.946 -2.8856 -0.1041  0.6767
34175SOL     OW 5479   7.696   7.287   1.624 -0.4142  0.0478 -0.0179
34175SOL    HW1 5480   7.739   7.205   1.599  0.1532  0.0795  0.8193
34175SOL    HW2 5481   7.640   7.309   1.549 -0.0751 -0.7600 -0.5161
34176SOL     OW 5482   1.103   1.427  10.659 -0.4677 -0.0385  0.6276
34176SOL    HW1 5483   1.040   1.486  10.700  0.9950  2.1435 -0.1227
34176SOL    HW2 5484   1.139   1.376  10.732 -1.5600  0.1592  1.3309
34177SOL     OW 5485   2.717   0.718   3.559 -0.0971 -0.2592  0.1019
34177SOL    HW1 5486   2.787   0.678   3.611 -0.8523  0.7863  2.0226
34177SOL    HW2 5487   2.640   0.664   3.577 -0.2554 -0.1894 -0.3592
34178SOL     OW 5488   3.676  10.468   9.488 -0.0997  0.1080 -0.0409
34178SOL    HW1 5489   3.718  10.447   9.571 -0.1701  1.6315  0.4212
34178SOL    HW2 5490   3.740  10.523   9.442 -0.4531  0.0930 -0.5526
34179SOL     OW 5491   1.560   5.746   4.850  0.1437 -0.0144  0.4258
34179SOL    HW1 5492   1.494   5.797   4.898  0.8650  0.0362  1.4009
34179SOL    HW2 5493   1.544   5.656   4.877 -0.7860 -0.2704 -0.8841
34180SOL     OW 5494   3.530  10.613   4.258  0.3673 -0.3175  0.2760
34180SOL    HW1 5495   3.570  10.535   4.297 -3.4133 -1.5351  2.2258
34180SOL    HW2 5496   3.534  10.679   4.327  1.2896  0.4399 -0.4731
34181SOL     OW 5497   1.349   6.636   9.342  0.8515 -0.0629 -0.5169
34181SOL    HW1 5498   1.412   6.572   9.310  0.7865 -1.2031  1.4226
34181SOL    HW2 5499   1.398   6.689   9.405  0.4265  0.5346 -0.6806
34182SOL     OW 5500   2.290   0.629   3.148 -0.1449  0.0627 -0.0912
34182SOL    HW1 5501   2.368   0.683   3.159  1.3507 -1.7934 -0.8956
34182SOL    HW2 5502   2.253   0.656   3.064  0.1048  0.4084 -0.0914
34183SOL     OW 5503   6.985  10.312  10.509 -0.2661  0.2470  0.4332
34183SOL    HW1 5504   7.024  10.398  10.493  0.9065 -0.4772 -0.8694
34183SOL    HW2 5505   6.892  10.330  10.522 -0.2298  1.6261 -0.9081
34184SOL     OW 5506   6.407   8.155   6.401 -0.0806 -0.1712  0.2838
34184SOL    HW1 5507   6.452   8.131   6.482 -0.4531  1.2921  0.9596
34184SOL    HW2 5508   6.315   8.141   6.419 -0.1704  0.2317  0.1429
34185SOL     OW 5509   9.662   0.253   7.553 -0.0160 -0.1418  0.3876
34185SOL    HW1 5510   9.575   0.240   7.589 -0.1255 -0.7262 -0.0733
34185SOL    HW2 5511   9.722   0.226   7.623 -0.2118 -0.1272  0.5589
34186SOL     OW 5512   9.789   3.765   0.136  0.3830  0.2193 -0.2021
34186SOL    HW1 5513   9.841   3.836   0.174  0.7842  0.6283 -1.4470
34186SOL    HW2 5514   9.845   3.728   0.068  0.0586 -1.1124  0.2346
34187SOL     OW 5515   2.631  10.446   8.751 -0.0333 -0.6406 -0.1542
34187SOL    HW1 5516   2.700  10.513   8.754  1.2886 -1.8605 -1.4208
34187SOL    HW2 5517   2.634  10.413   8.661 -1.6476 -1.4030  0.0315
34188SOL     OW 5518   9.224   8.125   3.292  0.0678 -0.6574 -0.0950
34188SOL    HW1 5519   9.291   8.084   3.238 -0.2896 -0.1597 -0.9386
34188SOL    HW2 5520   9.273   8.183   3.350  0.6027 -2.4387  1.3176
34189SOL     OW 5521   4.021   6.236   2.674  0.2382  0.5277 -0.2466
34189SOL    HW1 5522   3.948   6.231   2.736  1.5251  1.8712  1.4700
34189SOL    HW2 5523   3.980   6.259   2.591 -1.5804 -1.5938 -0.0328
34190SOL     OW 5524   1.884   3.409   0.629 -0.2592  0.2339  0.6672
34190SOL    HW1 5525   1.872   3.432   0.537 -2.1003  1.0561  1.0700
34190SOL    HW2 5526   1.855   3.486   0.677  1.8516  0.2993  1.9650
34191SOL     OW 5527   4.323   3.302   6.878 -0.2784 -0.3977  0.6553
34191SOL    HW1 5528   4.344   3.276   6.967 -0.7203 -1.0596  0.5691
34191SOL    HW2 5529   4.279   3.226   6.840 -0.1803 -0.0919 -0.0970
34192SOL     OW 5530   4.793   7.005   8.762  0.3137  0.1703  0.8023
34192SOL    HW1 5531   4.795   7.000   8.858  0.0994  1.0974  0.8748
34192SOL    HW2 5532   4.745   7.086   8.744 -0.4555 -0.4612 -0.1066
34193SOL     OW 5533   3.248   9.358   1.930  0.0956  0.9712 -0.3516
34193SOL    HW1 5534   3.313   9.306   1.977  1.0501  2.0065 -0.4960
34193SOL    HW2 5535   3.236   9.312   1.847 -1.5047 -0.8045  0.7759
34194SOL     OW 5536   7.139   1.681   4.937  0.2479  0.0538 -0.3866
34194SOL    HW1 5537   7.172   1.744   4.873 -3.5474  0.5849 -2.0722
34194SOL    HW2 5538   7.061   1.643   4.896 -0.6760 -1.8281  2.7385
34195SOL     OW 5539   8.411   6.357   2.177 -0.0885  0.5867 -0.0008
34195SOL    HW1 5540   8.396   6.277   2.228  0.4016  1.2002  1.1422
34195SOL    HW2 5541   8.327   6.402   2.177 -0.3600  0.0929 -0.6258
34196SOL     OW 5542   9.249   6.240   3.530 -0.4781 -0.2683 -0.2367
34196SOL    HW1 5543   9.228   6.323   3.487  1.4188  0.0247 -0.6790
34196SOL    HW2 5544   9.273   6.181   3.458  1.7947 -0.0556  0.2783
34197SOL     OW 5545   1.014   3.091   4.271  0.5818 -0.3545 -0.4428
34197SOL    HW1 5546   1.011   3.182   4.301 -0.2889 -0.6359  0.3590
34197SOL    HW2 5547   1.091   3.054   4.315  0.1643 -0.3620  0.2999
34198SOL     OW 5548  10.589   9.546   1.619  0.1363  0.0083  0.3871
34198SOL    HW1 5549  10.590   9.542   1.523 -1.0469  0.1723  0.3548
34198SOL    HW2 5550  10.611   9.457   1.647  1.8560  0.2725  0.0044
34199SOL     OW 5551   9.467   5.031   7.571 -0.1105  0.0660 -0.8692
34199SOL    HW1 5552   9.445   5.113   7.617 -0.0540  0.8891 -2.2567
34199SOL    HW2 5553   9.414   4.965   7.615  1.3888  0.4132  1.6888
34200SOL     OW 5554   0.679   2.443   9.559 -0.3882 -1.0480 -0.6735
34200SOL    HW1 5555   0.656   2.483   9.643 -0.8170 -2.7256  0.0545
34200SOL    HW2 5556   0.598   2.402   9.529  0.1094 -1.6666 -1.2037
34201SOL     OW 5557   0.809   3.590   9.828  0.2947 -0.4659 -0.2443
34201SOL    HW1 5558   0.738   3.598   9.892  2.9844 -0.5621  3.0328
34201SOL    HW2 5559   0.866   3.522   9.864  2.5707  0.2743 -2.1959
34202SOL     OW 5560   6.260   9.496   3.888  0.2457  0.4343 -0.4644
34202SOL    HW1 5561   6.221   9.483   3.802 -2.5866  3.5438  0.1323
34202SOL    HW2 5562   6.282   9.590   3.890  0.7596  0.3223  1.9970
34203SOL     OW 5563   2.162   8.857   1.194 -0.4293  0.0787 -0.2306
34203SOL    HW1 5564   2.182   8.770   1.158 -2.2008  0.0802 -1.3588
34203SOL    HW2 5565   2.151   8.913   1.116 -1.1401  0.8727  0.4205
34204SOL     OW 5566   1.701   6.104  10.497 -0.3511 -0.3247 -0.2719
34204SOL    HW1 5567   1.796   6.096  10.495 -0.4714 -2.1595 -1.6245
34204SOL    HW2 5568   1.681   6.141  10.582  1.5562 -0.4102  0.2426
34205SOL     OW 5569   3.149   8.694   9.681 -0.0956 -0.1151  0.1987
34205SOL    HW1 5570   3.219   8.712   9.619  0.5512 -1.2049  0.5811
34205SOL    HW2 5571   3.190   8.640   9.749 -1.5237 -1.6910 -0.1069
34206SOL     OW 5572  10.483   1.674   6.419  0.1634  0.6758 -0.3531
34206SOL    HW1 5573  10.490   1.585   6.386 -1.6755  1.0133 -1.8175
34206SOL    HW2 5574  10.455   1.664   6.510 -0.1356 -0.2329 -0.5415
34207SOL     OW 5575  10.022  10.511   0.218 -0.3886 -0.5648 -0.2415
34207SOL    HW1 5576  10.087  10.441   0.216 -1.6688 -1.7816 -0.4384
34207SOL    HW2 5577  10.061  10.580   0.165 -0.0972 -2.0529 -2.0666
34208SOL     OW 5578   8.834   2.387   3.569  0.0192 -0.1324 -0.5412
34208SOL    HW1 5579   8.904   2.384   3.634 -0.9016 -1.7298  0.4323
34208SOL    HW2 5580   8.767   2.442   3.609  0.0148  0.0100 -0.7427
34209SOL     OW 5581   0.926   4.718   4.903 -0.6520  0.3280 -0.5040
34209SOL    HW1 5582   0.907   4.753   4.816  0.4802  1.2412 -0.4011
34209SOL    HW2 5583   1.012   4.677   4.894 -0.9275 -0.3931 -0.0233
34210SOL     OW 5584  10.036   1.350   0.314 -0.7986  0.1368 -0.1517
34210SOL    HW1 5585   9.942   1.363   0.326 -0.7859 -0.1538  0.2745
34210SOL    HW2 5586  10.074   1.379   0.397 -0.5692 -0.3701 -0.0799
34211SOL     OW 5587   9.383   3.453   3.418 -0.7645  0.1073  0.0242
34211SOL    HW1 5588   9.443   3.526   3.404 -0.4539  0.0282  0.8560
34211SOL    HW2 5589   9.296   3.489   3.403 -0.5406  0.3632 -0.6611
34212SOL     OW 5590   1.255   8.948   3.470 -0.0990 -0.3299 -0.0571
34212SOL    HW1 5591   1.265   8.865   3.518  0.7006 -0.4241 -0.3745
34212SOL    HW2 5592   1.199   9.001   3.527  2.5282  0.3819  2.1144
34213SOL     OW 5593   6.617   3.346   6.861  0.2627  0.2575 -0.0623
34213SOL    HW1 5594   6.599   3.274   6.922 -1.4727  0.4561 -0.2661
34213SOL    HW2 5595   6.598   3.425   6.911 -0.7934  0.4339 -0.7042
34214SOL     OW 5596   8.400   8.591   6.884  0.0916  0.2918 -0.0219
34214SOL    HW1 5597   8.458   8.564   6.954  0.9995  1.4320 -0.3029
34214SOL    HW2 5598   8.346   8.514   6.866  1.9350 -1.0225 -0.1743
34215SOL     OW 5599   2.965   7.297   0.066 -0.0079 -0.0785 -0.2453
34215SOL    HW1 5600   3.008   7.217   0.096 -0.0814  0.5150  1.5140
34215SOL    HW2 5601   2.928   7.273  -0.020 -0.8470 -2.2298  0.6499
34216SOL     OW 5602   0.978   3.110   3.103 -0.2038 -0.3349 -0.2406
34216SOL    HW1 5603   0.903   3.119   3.044  0.2286  1.4288 -0.5701
34216SOL    HW2 5604   1.041   3.175   3.073 -0.0375  0.8039  2.2750
34217SOL     OW 5605   6.626   5.803   6.118 -0.3728 -0.0405  0.4448
34217SOL    HW1 5606   6.563   5.838   6.180 -0.7199 -1.6707  1.0760
34217SOL    HW2 5607   6.703   5.783   6.170  0.7581  2.0173 -0.3357
34218SOL     OW 5608   1.790   2.401   8.347 -0.8556  0.9577  0.6678
34218SOL    HW1 5609   1.791   2.385   8.253  1.4548  0.8265  0.6567
34218SOL    HW2 5610   1.782   2.496   8.355 -1.9234  0.9075  0.3989
34219SOL     OW 5611   4.153   6.226   2.288 -0.5815 -0.0198 -0.1006
34219SOL    HW1 5612   4.107   6.293   2.238  0.0144 -0.1739 -0.8752
34219SOL    HW2 5613   4.204   6.178   2.222 -1.8231 -1.9399  0.2606
34220SOL     OW 5614  10.414   9.575   1.210 -0.1617  0.0589  0.8895
34220SOL    HW1 5615  10.437   9.514   1.140  0.4001 -0.6521  1.6699
34220SOL    HW2 5616  10.319   9.588   1.199 -0.2189 -0.6314  0.4553
34221SOL     OW 5617   8.594   5.003   8.831 -0.2634  0.2642 -0.5562
34221SOL    HW1 5618   8.553   5.041   8.908  0.2093 -0.7614  0.2335
34221SOL    HW2 5619   8.573   4.910   8.836  0.8984 -0.0438 -0.9287
34222SOL     OW 5620   2.609   4.730   8.374  0.1639 -0.0714 -0.1055
34222SOL    HW1 5621   2.560   4.774   8.443  0.7213 -1.1923  1.0489
34222SOL    HW2 5622   2.644   4.801   8.320  0.3223  0.8777  1.2007
34223SOL     OW 5623   3.540   7.099   8.588  0.1504 -0.7074  0.2368
34223SOL    HW1 5624   3.572   7.011   8.608 -0.3546 -0.2591  3.6225
34223SOL    HW2 5625   3.559   7.150   8.667 -2.2857  1.4331 -0.4210
34224SOL     OW 5626  10.469   9.755   6.520  0.0908 -0.6386 -0.1729
34224SOL    HW1 5627  10.473   9.660   6.519  0.3398 -0.6466  0.7941
34224SOL    HW2 5628  10.439   9.777   6.608 -1.2439  0.1396 -0.7822
34225SOL     OW 5629   4.736   8.856   2.228 -0.4959  0.0373  0.2758
34225SOL    HW1 5630   4.818   8.900   2.248 -1.0834  0.6612  1.3893
34225SOL    HW2 5631   4.721   8.796   2.301  0.0660 -1.7251 -1.0052
34226SOL     OW 5632   0.912   9.722   9.815  0.3852  0.5459 -0.2395
34226SOL    HW1 5633   0.914   9.656   9.884 -0.4875  1.1430  0.3797
34226SOL    HW2 5634   0.979   9.786   9.840  0.2947  0.5928 -0.1146
34227SOL     OW 5635   9.678   5.909   1.736 -0.5503  0.0416 -0.0345
34227SOL    HW1 5636   9.643   5.854   1.666 -0.4662  0.2217 -0.2165
34227SOL    HW2 5637   9.769   5.923   1.712  0.2234 -1.9770  1.3718
34228SOL     OW 5638   5.298   9.782   5.906  0.5772 -0.0268 -0.0910
34228SOL    HW1 5639   5.264   9.699   5.939 -0.3590 -0.0854 -1.1256
34228SOL    HW2 5640   5.261   9.848   5.964 -0.2244 -0.1998 -0.3980
34229SOL     OW 5641   1.981   0.092   4.024  0.5203 -0.1811  0.6382
34229SOL    HW1 5642   1.924   0.015   4.026  1.9977 -1.3199  0.5840
34229SOL    HW2 5643   2.062   0.063   4.067  2.1230  0.4518 -1.7393
34230SOL     OW 5644   5.782   1.963   4.974 -0.9778  0.0796  0.0569
34230SOL    HW1 5645   5.794   1.879   4.929  0.9841  0.8104 -0.9134
34230SOL    HW2 5646   5.738   1.940   5.056  1.3067 -2.2273  0.7834
34231SOL     OW 5647   4.733   3.321   1.709  0.1158 -0.0105  0.5756
34231SOL    HW1 5648   4.717   3.400   1.760  1.0752  0.8122 -0.3587
34231SOL    HW2 5649   4.675   3.328   1.634  0.9196  0.2958 -0.0180
34232SOL     OW 5650   3.796   0.295   3.813  0.2052 -0.4263 -0.5898
34232SOL    HW1 5651   3.701   0.283   3.815  0.2739 -2.5858 -3.4545
34232SOL    HW2 5652   3.810   0.370   3.755  0.2157 -1.4985 -2.0363
34233SOL     OW 5653   5.226   5.103   3.123 -0.1958  0.7226  0.0674
34233SOL    HW1 5654   5.264   5.025   3.164  2.1246  0.7744 -1.7662
34233SOL    HW2 5655   5.285   5.174   3.148 -1.9964  1.8571  1.2847
34234SOL     OW 5656   6.342   7.513   9.408 -0.1163  0.5260 -0.0135
34234SOL    HW1 5657   6.309   7.438   9.458  2.2555 -1.0272 -0.6125
34234SOL    HW2 5658   6.313   7.496   9.318  0.1857  0.4945 -0.1031
34235SOL     OW 5659   6.074   5.486  10.661 -0.1009 -0.0952 -0.1386
34235SOL    HW1 5660   5.996   5.536  10.635 -2.0003 -1.8005  1.8174
34235SOL    HW2 5661   6.126   5.548  10.712 -2.0253  0.1953  1.6109
34236SOL     OW 5662   8.009   4.956   7.408 -0.5203  1.0529  0.4706
34236SOL    HW1 5663   8.042   4.957   7.318  1.2208  0.2072  1.0492
34236SOL    HW2 5664   7.918   4.985   7.400 -0.5157  0.7106 -1.5923
34237SOL     OW 5665  10.111   4.925   2.773 -0.1203  0.5422  0.5168
34237SOL    HW1 5666  10.035   4.869   2.757  0.0500 -0.1672  1.9721
34237SOL    HW2 5667  10.186   4.874   2.743 -0.1413  0.8922 -0.1411
34238SOL     OW 5668   3.074   3.594   4.345 -0.2916 -0.2464 -0.2495
34238SOL    HW1 5669   3.127   3.525   4.385  1.5796  1.2379 -0.0335
34238SOL    HW2 5670   3.090   3.585   4.251 -2.2165 -1.7514 -0.5043
34239SOL     OW 5671   2.589   0.039   9.380 -0.6570 -0.2480 -0.4144
34239SOL    HW1 5672   2.656   0.055   9.446 -0.3780 -1.6552 -0.3240
34239SOL    HW2 5673   2.562  -0.052   9.394 -2.2185  0.1227 -0.7840
34240SOL     OW 5674   6.218  10.349   0.304  0.8981 -0.7857  0.1737
34240SOL    HW1 5675   6.181  10.436   0.315 -1.2042 -1.2744 -2.1542
34240SOL    HW2 5676   6.302  10.363   0.261  0.9837  0.1149  0.6222
34241SOL     OW 5677   3.950   9.381   8.570 -0.5962  0.0495  0.0181
34241SOL    HW1 5678   3.927   9.293   8.542 -1.3961 -0.5799  2.3994
34241SOL    HW2 5679   3.870   9.414   8.613 -0.4519  2.1086 -1.1632
34242SOL     OW 5680   7.330   8.456   0.707  0.3878 -0.1621  0.0055
34242SOL    HW1 5681   7.398   8.493   0.650  1.0559 -0.9540  0.2586
34242SOL    HW2 5682   7.264   8.525   0.715  1.2769  0.7189 -0.0602
34243SOL     OW 5683   4.323   4.630   0.440 -0.1773  0.1094  0.1583
34243SOL    HW1 5684   4.280   4.601   0.360 -0.2631 -2.2107  0.9884
34243SOL    HW2 5685   4.410   4.591   0.437 -0.2753 -0.2516  1.3161
34244SOL     OW 5686  10.410   0.900  10.411  0.1269 -0.2907 -0.5162
34244SOL    HW1 5687  10.341   0.914  10.346  0.0750 -0.4693 -0.4990
34244SOL    HW2 5688  10.392   0.964  10.479  0.0496 -0.2536 -0.5711
34245SOL     OW 5689   6.853   2.320   0.242 -0.0259 -0.1405 -0.1205
34245SOL    HW1 5690   6.822   2.397   0.194 -1.9135 -0.9406 -0.2656
34245SOL    HW2 5691   6.841   2.247   0.182  1.9102 -0.5857 -0.0450
34246SOL     OW 5692   6.834   1.754  10.234  0.1649  0.2261 -0.0159
34246SOL    HW1 5693   6.776   1.728  10.162  0.9696 -1.0028 -0.2603
34246SOL    HW2 5694   6.802   1.840  10.262 -0.8922  0.1893 -1.0593
34247SOL     OW 5695   4.419   2.619   0.493 -0.2805  0.0556 -0.2929
34247SOL    HW1 5696   4.334   2.585   0.519 -0.1872 -0.5158 -0.7150
34247SOL    HW2 5697   4.472   2.541   0.475  0.4182  0.4012  0.2333
34248SOL     OW 5698   7.515   9.222   1.862 -0.0948 -0.0232 -0.5656
34248SOL    HW1 5699   7.446   9.288   1.854 -1.1583 -0.9818  0.2747
34248SOL    HW2 5700   7.536   9.221   1.956  1.2124  0.3830 -0.8373
34249SOL     OW 5701   1.578   8.192   1.726 -0.3161  0.2546  0.0220
34249SOL    HW1 5702   1.564   8.183   1.820 -0.8305  0.5505 -0.0202
34249SOL    HW2 5703   1.573   8.286   1.710 -1.9654  0.0945 -0.5520
34250SOL     OW 5704   0.582   3.487   6.075 -0.8136 -0.3235  0.3429
34250SOL    HW1 5705   0.525   3.563   6.087 -0.6333  0.1971 -1.8241
34250SOL    HW2 5706   0.573   3.463   5.983  1.6318 -0.9026  0.1814
34251SOL     OW 5707   4.841  10.523   7.209  0.4018 -0.0164  0.0865
34251SOL    HW1 5708   4.810  10.608   7.178  0.9386 -0.7036 -2.5242
34251SOL    HW2 5709   4.877  10.542   7.296  1.4269  2.6510 -0.8148
34252SOL     OW 5710   9.104   1.067   1.063 -0.1964  0.5504  0.0436
34252SOL    HW1 5711   9.179   1.020   1.100  0.4178  1.0448 -0.5551
34252SOL    HW2 5712   9.142   1.143   1.019 -0.7865 -0.4922 -2.4244
34253SOL     OW 5713   6.830   5.233   3.142 -0.5515 -0.2001  0.4759
34253SOL    HW1 5714   6.751   5.198   3.101 -0.4457  1.9788 -1.8171
34253SOL    HW2 5715   6.891   5.160   3.144 -0.2476 -0.3759 -4.2601
34254SOL     OW 5716   7.311   0.555   4.606 -0.1747  0.6037 -0.1085
34254SOL    HW1 5717   7.352   0.515   4.529  0.3584 -1.3890  1.1201
34254SOL    HW2 5718   7.226   0.512   4.612 -0.0910  0.5157  0.5637
34255SOL     OW 5719   1.606   6.442   9.511  0.2470  0.0456 -0.3342
34255SOL    HW1 5720   1.543   6.412   9.445 -0.5513 -0.7490  0.7552
34255SOL    HW2 5721   1.654   6.363   9.535  1.3611  0.5603 -0.8066
34256SOL     OW 5722   8.078   2.289   7.264  0.0450 -0.9653  0.0488
34256SOL    HW1 5723   8.083   2.240   7.346 -1.9286 -1.7736 -0.2630
34256SOL    HW2 5724   7.990   2.328   7.265  0.3146 -0.2718 -1.2920
34257SOL     OW 5725   8.568   5.785   6.931 -0.7402 -0.2024 -0.2653
34257SOL    HW1 5726   8.484   5.808   6.971  0.0650  1.7980  0.3743
34257SOL    HW2 5727   8.597   5.865   6.888  2.3179  0.1659  2.2149
34258SOL     OW 5728   2.499   3.395   6.541 -0.2600 -0.8862 -0.2644
34258SOL    HW1 5729   2.569   3.418   6.602  0.9789  1.3599 -2.3743
34258SOL    HW2 5730   2.451   3.325   6.585  1.3093 -0.2533  2.6883
34259SOL     OW 5731   6.117   3.658   9.209  0.0594  0.3248 -0.1661
34259SOL    HW1 5732   6.204   3.647   9.170  0.6485 -0.1344  1.2164
34259SOL    HW2 5733   6.074   3.574   9.195  0.5263 -0.0807  0.7430
34260SOL     OW 5734   9.528   9.440   4.618  0.2184 -0.1960  0.5456
34260SOL    HW1 5735   9.465   9.411   4.684  0.7683 -1.3426  0.5783
34260SOL    HW2 5736   9.514   9.382   4.543  1.5277 -0.7708  0.7215
34261SOL     OW 5737   7.974   2.114  10.013 -0.8429 -0.4477  0.1828
34261SOL    HW1 5738   8.034   2.186  10.028 -0.6354 -0.4330 -0.6428
34261SOL    HW2 5739   8.003   2.045  10.073  0.4345 -0.6845 -0.6720
34262SOL     OW 5740   0.682  10.402   0.654 -0.3165 -0.1995 -0.1821
34262SOL    HW1 5741   0.725  10.353   0.584 -1.9143 -0.0797 -1.3130
34262SOL    HW2 5742   0.687  10.346   0.730 -0.3156 -1.2450 -0.9327
34263SOL     OW 5743   8.249   6.783   4.188 -0.8936 -0.5079  0.3253
34263SOL    HW1 5744   8.331   6.739   4.166 -0.5983 -0.0567  0.5140
34263SOL    HW2 5745   8.269   6.876   4.181 -1.7837 -0.3913 -1.0317
34264SOL     OW 5746  10.448   8.138   0.957  0.3191  0.2518  0.1554
34264SOL    HW1 5747  10.422   8.228   0.977 -1.0278 -0.1316  0.2665
34264SOL    HW2 5748  10.421   8.088   1.034  1.8454 -0.1342  0.4710
34265SOL     OW 5749   7.990   6.582   8.555 -0.6213 -0.0461  0.2054
34265SOL    HW1 5750   8.042   6.659   8.576  0.0120  0.0614 -1.5797
34265SOL    HW2 5751   7.912   6.616   8.511 -0.2989 -0.3907 -0.6708
34266SOL     OW 5752   7.442   8.425   4.746  0.3932 -0.2037 -0.2970
34266SOL    HW1 5753   7.465   8.345   4.793 -0.8723  0.0014  0.7141
34266SOL    HW2 5754   7.520   8.445   4.694  0.9983 -1.6747 -0.0066
34267SOL     OW 5755   4.170   8.789   6.778 -0.2908  0.4700  0.3669
34267SOL    HW1 5756   4.079   8.766   6.756 -0.0579  0.8120 -1.0887
34267SOL    HW2 5757   4.178   8.769   6.871 -1.1568 -1.8746 -0.0006
34268SOL     OW 5758  10.402   4.289   1.921  0.5550  0.1001 -0.3830
34268SOL    HW1 5759  10.407   4.276   2.015  0.4611  1.4128 -0.1691
34268SOL    HW2 5760  10.493   4.280   1.891  0.5776 -0.3727 -0.1776
34269SOL     OW 5761   5.409   3.061   5.821 -0.1282 -0.3852  0.3554
34269SOL    HW1 5762   5.376   3.131   5.765 -2.2054 -2.2051 -0.8475
34269SOL    HW2 5763   5.499   3.048   5.791  1.1994  3.2120  2.2004
34270SOL     OW 5764   2.362   3.017   4.866 -0.8885 -0.1173 -0.4142
34270SOL    HW1 5765   2.394   3.038   4.954  1.0039 -0.2169 -1.0263
34270SOL    HW2 5766   2.359   2.921   4.865 -0.3837 -0.1351 -0.6132
34271SOL     OW 5767   9.297   0.155  10.105 -1.0372  0.1525  0.1570
34271SOL    HW1 5768   9.315   0.079  10.050  0.4202  1.3946 -1.1904
34271SOL    HW2 5769   9.211   0.138  10.143 -0.8869 -1.9962 -0.3463
34272SOL     OW 5770   3.720   5.481   2.056 -0.6157 -0.2608  0.8650
34272SOL    HW1 5771   3.799   5.499   2.005 -1.5741 -0.4851 -0.7442
34272SOL    HW2 5772   3.746   5.409   2.115 -0.1410 -1.7304 -1.0453
34273SOL     OW 5773   2.432   5.421   0.653 -0.8887  0.1291 -0.1149
34273SOL    HW1 5774   2.450   5.342   0.704  1.8339  0.4088 -0.5332
34273SOL    HW2 5775   2.442   5.493   0.716  0.3022  0.3463 -0.5456
34274SOL     OW 5776   2.987   4.619   4.028 -0.5675  0.0838 -0.3233
34274SOL    HW1 5777   3.035   4.603   3.947  1.1092 -0.4049  0.7276
34274SOL    HW2 5778   2.977   4.714   4.032  0.9998  0.2608 -0.2052
34275SOL     OW 5779   5.515   9.568   2.130 -0.4404  0.4547  0.2524
34275SOL    HW1 5780   5.608   9.576   2.153 -0.2055 -1.3549  0.0825
34275SOL    HW2 5781   5.471   9.635   2.182  0.8590  0.7460  1.0135
34276SOL     OW 5782   3.597   0.712   5.790 -0.7671 -0.3971 -0.3838
34276SOL    HW1 5783   3.655   0.659   5.843 -0.6790 -2.6868 -2.5712
34276SOL    HW2 5784   3.624   0.802   5.807  0.1037 -1.0907  2.3229
34277SOL     OW 5785   9.717   4.312   2.867 -0.6850  0.0471  0.7945
34277SOL    HW1 5786   9.768   4.260   2.928 -1.4079 -1.1007  0.4535
34277SOL    HW2 5787   9.781   4.353   2.809  0.0061  1.1000  2.2425
34278SOL     OW 5788   1.737   3.634   8.721 -0.1803 -0.5254 -0.0970
34278SOL    HW1 5789   1.722   3.576   8.795 -2.0466  2.0234  1.6869
34278SOL    HW2 5790   1.822   3.674   8.738  0.4163 -1.5670 -0.5494
34279SOL     OW 5791   0.195   8.871   9.384  0.0922 -0.0331  0.0186
34279SOL    HW1 5792   0.248   8.912   9.453  0.1965  1.7404 -1.0692
34279SOL    HW2 5793   0.254   8.864   9.309 -0.5558 -0.1793 -0.4881
34280SOL     OW 5794   5.098   9.689   2.905 -0.5901  0.1668  0.1463
34280SOL    HW1 5795   5.015   9.687   2.952 -0.3916  1.1806  0.5731
34280SOL    HW2 5796   5.153   9.626   2.950 -1.1992 -0.6957 -0.2954
34281SOL     OW 5797   7.947   2.592   6.207  0.6992  0.2455  0.0249
34281SOL    HW1 5798   7.868   2.626   6.249  0.9823  0.5329  0.3402
34281SOL    HW2 5799   7.938   2.617   6.115  2.0172  3.4564  0.6222
34282SOL     OW 5800   6.942   2.965   3.363  0.2377  0.2347 -0.1115
34282SOL    HW1 5801   7.007   2.898   3.343  0.2076  0.4945 -1.1161
34282SOL    HW2 5802   6.987   3.025   3.423  0.6713 -0.0116 -0.1888
34283SOL     OW 5803   6.205   4.652   3.341  0.1653  0.1600 -0.7266
34283SOL    HW1 5804   6.118   4.620   3.319 -0.6048 -0.3431  2.5255
34283SOL    HW2 5805   6.263   4.609   3.278 -1.7065 -1.0351 -1.7432
34284SOL     OW 5806   6.583   4.632  10.597  0.4887  0.1061 -0.0879
34284SOL    HW1 5807   6.509   4.588  10.555 -1.2394  0.8108  2.0132
34284SOL    HW2 5808   6.641   4.560  10.624  0.3081 -0.5015 -1.2679
34285SOL     OW 5809   5.903   8.690   7.365 -0.2298  0.8592 -0.0594
34285SOL    HW1 5810   5.919   8.778   7.331 -1.5389  1.3856  0.6240
34285SOL    HW2 5811   5.990   8.657   7.387  0.5774  0.9199 -2.7900
34286SOL     OW 5812   9.446   8.976   0.505  0.0110 -0.1804 -0.6640
34286SOL    HW1 5813   9.441   8.896   0.556  2.4411  0.1009  0.1073
34286SOL    HW2 5814   9.510   8.958   0.436  0.0007  0.8501 -0.9737
34287SOL     OW 5815   4.933  10.084   6.184  0.2045 -0.6102  0.4588
34287SOL    HW1 5816   4.929  10.171   6.225 -1.4225 -1.0263  1.2867
34287SOL    HW2 5817   4.842  10.064   6.162  0.8848 -0.9475 -2.3197
34288SOL     OW 5818   0.720   6.582   7.212  0.4459  0.4527  0.0231
34288SOL    HW1 5819   0.777   6.602   7.138 -0.5578  1.0242 -0.6312
34288SOL    HW2 5820   0.718   6.487   7.216 -0.2796  0.3725 -1.3703
34289SOL     OW 5821   5.803   4.890   9.003 -0.4653 -0.6418 -0.2365
34289SOL    HW1 5822   5.767   4.978   8.986 -1.1547 -0.9908 -0.6397
34289SOL    HW2 5823   5.726   4.832   8.999 -0.3849 -1.0152  2.1291
34290SOL     OW 5824   6.398   2.384   2.512  0.4474  0.3076  0.3538
34290SOL    HW1 5825   6.314   2.341   2.528  0.4461 -0.0048 -0.4444
34290SOL    HW2 5826   6.436   2.396   2.599 -0.4814  0.5714  0.7288
34291SOL     OW 5827   8.775   3.198   5.835  0.4311  0.0993  0.4198
34291SOL    HW1 5828   8.794   3.269   5.774 -2.2383  0.0838 -0.5804
34291SOL    HW2 5829   8.701   3.151   5.795 -1.1317 -0.2410  3.3929
34292SOL     OW 5830   8.442   6.464   3.385  0.0315  0.3698  0.1791
34292SOL    HW1 5831   8.406   6.435   3.302  1.7946  0.5170 -0.6835
34292SOL    HW2 5832   8.367   6.467   3.445 -0.9270 -1.7464 -0.8261
34293SOL     OW 5833   1.512   0.099   3.113  0.4061 -1.2946  0.0028
34293SOL    HW1 5834   1.496   0.085   3.020 -0.8662 -0.9259  0.1486
34293SOL    HW2 5835   1.428   0.129   3.148  0.8273 -1.5355  1.2933
34294SOL     OW 5836  10.576   3.741  10.148 -0.1214  0.1039 -0.1858
34294SOL    HW1 5837  10.623   3.816  10.111 -0.5344 -0.1298 -1.2031
34294SOL    HW2 5838  10.619   3.665  10.111 -2.1438 -0.1244 -2.3354
34295SOL     OW 5839   9.923   0.150   5.086 -0.3640 -0.1789 -0.2234
34295SOL    HW1 5840   9.959   0.210   5.152  0.8037 -1.4968  0.3845
34295SOL    HW2 5841   9.999   0.102   5.054 -1.2697 -1.3135 -0.7166
34296SOL     OW 5842   0.881   5.070   4.411  0.4024 -0.1996  0.0895
34296SOL    HW1 5843   0.953   5.014   4.443 -0.0611 -0.5458  0.5476
34296SOL    HW2 5844   0.871   5.136   4.479  0.8739  0.3863 -0.4001
34297SOL     OW 5845   6.136   5.262   9.682 -0.1190  0.0174 -0.0755
34297SOL    HW1 5846   6.048   5.231   9.704  0.4992 -1.3587  0.6007
34297SOL    HW2 5847   6.148   5.237   9.590 -0.6615  0.7901 -0.3629
34298SOL     OW 5848   2.776   9.667   8.338 -0.0506  0.5090  0.3070
34298SOL    HW1 5849   2.794   9.674   8.245 -0.0936  1.0446  0.3346
34298SOL    HW2 5850   2.788   9.574   8.358 -0.7998  0.2481 -0.3827
34299SOL     OW 5851   4.524   1.808   4.053  0.2846  0.7304  0.6303
34299SOL    HW1 5852   4.505   1.805   3.959  0.7685  0.7803  0.5291
34299SOL    HW2 5853   4.619   1.812   4.058  0.2837  0.2600  1.1339
34300SOL     OW 5854   7.605   0.741   0.809 -0.0858 -0.4730  0.2934
34300SOL    HW1 5855   7.535   0.702   0.756 -0.5576  0.9957 -0.2064
34300SOL    HW2 5856   7.610   0.685   0.887 -1.6542 -0.7503  0.2218
34301SOL     OW 5857   5.398   2.587  10.651 -0.4121 -0.0639 -0.0939
34301SOL    HW1 5858   5.370   2.521  10.715  0.0251 -0.8413 -0.6918
34301SOL    HW2 5859   5.465   2.637  10.697  0.8639 -1.4612 -0.3444
34302SOL     OW 5860   2.038   4.952   2.523  0.0868  0.5711  0.1952
34302SOL    HW1 5861   2.042   4.860   2.498  1.3660  0.8414 -0.7111
34302SOL    HW2 5862   1.995   4.996   2.450 -0.2215  0.7356  0.4739
34303SOL     OW 5863  10.390  10.082   8.805  0.1764  0.3019  0.4153
34303SOL    HW1 5864  10.361   9.991   8.795 -1.3840  0.7346  0.6407
34303SOL    HW2 5865  10.391  10.096   8.899  0.0255  0.6342  0.3676
34304SOL     OW 5866   6.393   5.153  10.183  0.2791 -0.3436  0.0983
34304SOL    HW1 5867   6.416   5.245  10.164 -0.2155 -0.4508 -1.1004
34304SOL    HW2 5868   6.452   5.102  10.127  0.0337 -0.7395  0.1990
34305SOL     OW 5869   0.694   4.559   6.673  0.6827  0.0727  0.3717
34305SOL    HW1 5870   0.742   4.615   6.612 -1.7476  2.1138  0.1600
34305SOL    HW2 5871   0.657   4.620   6.737 -2.3725 -1.1912 -0.0279
34306SOL     OW 5872   0.316   5.297   5.535 -0.1698 -0.1819  0.4565
34306SOL    HW1 5873   0.315   5.202   5.532  1.1497 -0.2326  1.3121
34306SOL    HW2 5874   0.337   5.319   5.625  3.6335  0.8488 -0.5227
34307SOL     OW 5875   3.104   9.658   8.373 -0.0762  0.6689 -0.1275
34307SOL    HW1 5876   3.045   9.692   8.440  0.3918 -0.8161  1.1088
34307SOL    HW2 5877   3.069   9.571   8.352  0.1555  0.8500 -1.3704
34308SOL     OW 5878   8.377   2.018   4.293  0.4616  0.2633 -0.1442
34308SOL    HW1 5879   8.309   2.081   4.270  0.3595  0.3525  0.3805
34308SOL    HW2 5880   8.366   1.947   4.230  1.6007  1.4639 -1.7536
34309SOL     OW 5881   3.870  10.221   7.699  0.2705  0.0157  0.2750
34309SOL    HW1 5882   3.874  10.218   7.604 -0.3168 -1.5804  0.2806
34309SOL    HW2 5883   3.872  10.315   7.720  1.6734  0.3572 -1.2247
34310SOL     OW 5884   3.126   3.531   9.736  0.2538  0.4873  0.1386
34310SOL    HW1 5885   3.104   3.468   9.805 -0.1364  1.6950  1.1563
34310SOL    HW2 5886   3.046   3.583   9.725 -0.2658 -0.7220 -2.4354
34311SOL     OW 5887   4.523   1.187   6.320 -0.5377  0.0067  0.7019
34311SOL    HW1 5888   4.613   1.219   6.318  0.1692 -1.8689  1.0217
34311SOL    HW2 5889   4.507   1.153   6.232 -1.4007  1.4581  0.2628
34312SOL     OW 5890   9.286   0.183   6.986  0.4657  0.0077  0.6831
34312SOL    HW1 5891   9.270   0.251   7.052  2.2489  0.6699  0.4832
34312SOL    HW2 5892   9.204   0.178   6.937 -0.4892  0.3404  2.1781
34313SOL     OW 5893   6.361   3.580   9.870  0.0639 -0.4135 -0.2998
34313SOL    HW1 5894   6.447   3.590   9.829 -0.6443  0.0960 -1.7276
34313SOL    HW2 5895   6.358   3.489   9.900  2.2854  0.3198  2.6823
34314SOL     OW 5896   5.158   6.366   2.221  0.7090  0.3648  0.3020
34314SOL    HW1 5897   5.141   6.358   2.315 -1.3063  3.6179  0.3602
34314SOL    HW2 5898   5.125   6.453   2.198  1.3878 -0.2019 -3.3946
34315SOL     OW 5899   4.435   9.471   1.262  0.6037 -0.3391 -0.1278
34315SOL    HW1 5900   4.466   9.451   1.350  1.7586  1.0888 -0.1806
34315SOL    HW2 5901   4.478   9.407   1.206  0.9528 -0.3735  0.1797
34316SOL     OW 5902   0.233   0.245   1.814 -0.1581  0.0847 -0.5547
34316SOL    HW1 5903   0.177   0.303   1.865 -0.9900  0.3621 -1.7345
34316SOL    HW2 5904   0.305   0.301   1.783 -1.1815  0.6272 -2.0397
34317SOL     OW 5905   8.803   9.729   5.835  0.6457 -0.0482  0.0592
34317SOL    HW1 5906   8.820   9.806   5.780 -0.8324 -0.3572 -0.9055
34317SOL    HW2 5907   8.729   9.755   5.890  0.4757 -0.5999  0.0970
34318SOL     OW 5908   3.003   6.495   2.041 -0.4526 -0.5265 -0.4775
34318SOL    HW1 5909   2.991   6.481   2.135 -0.2509  0.5832 -0.2693
34318SOL    HW2 5910   3.094   6.524   2.032 -0.5457 -0.3666 -0.9777
34319SOL     OW 5911   5.891  10.640   5.232  0.3545 -0.0249  0.0760
34319SOL    HW1 5912   5.842  10.580   5.176 -0.3461  2.6583 -2.4650
34319SOL    HW2 5913   5.983  10.627   5.207  0.1021  0.7199 -1.3729
34320SOL     OW 5914   3.142   5.708   2.392 -0.1109 -0.0500 -0.0938
34320SOL    HW1 5915   3.127   5.614   2.399  0.7656 -0.2318 -0.4582
34320SOL    HW2 5916   3.192   5.718   2.311 -0.6057  0.7857 -0.3047
34321SOL     OW 5917   7.693   9.041   8.938  0.7779  0.2945 -0.0751
34321SOL    HW1 5918   7.676   9.015   9.028  1.0632 -1.3919 -0.4712
34321SOL    HW2 5919   7.617   9.094   8.913  0.7060  0.7839  1.1425
34322SOL     OW 5920   8.477   5.704   2.103 -0.6302  0.0401 -0.1813
34322SOL    HW1 5921   8.449   5.612   2.107 -2.3276  0.4604 -1.2600
34322SOL    HW2 5922   8.572   5.701   2.117 -0.8405 -1.7135  1.3512
34323SOL     OW 5923   4.640   1.414  10.578  0.1893 -0.0451  0.4028
34323SOL    HW1 5924   4.560   1.466  10.579 -0.2974 -0.7501 -0.7969
34323SOL    HW2 5925   4.664   1.406  10.671 -1.0019  0.3571  0.7619
34324SOL     OW 5926   0.690   9.920   5.536  0.4681 -0.0933 -0.7328
34324SOL    HW1 5927   0.722   9.830   5.539 -2.2561 -1.1590  0.0501
34324SOL    HW2 5928   0.651   9.928   5.449 -1.9107 -0.7872  0.1782
34325SOL     OW 5929   7.982   0.428   2.403  0.1111 -0.3752 -0.0346
34325SOL    HW1 5930   7.924   0.502   2.423  1.0950 -0.0053  1.5957
34325SOL    HW2 5931   8.044   0.463   2.339 -0.2604 -0.1966 -0.2999
34326SOL     OW 5932   4.092  10.590   7.637  0.0606 -0.4423  0.2210
34326SOL    HW1 5933   4.027  10.659   7.623 -0.9860 -1.4760 -0.2851
34326SOL    HW2 5934   4.147  10.621   7.708 -0.4426  0.8628  0.0527
34327SOL     OW 5935  10.478   7.736  10.376  0.0373  0.3221 -0.3212
34327SOL    HW1 5936  10.386   7.740  10.402  0.3796  0.0699  1.0425
34327SOL    HW2 5937  10.526   7.764  10.454  1.1318  0.1602 -0.9141
34328SOL     OW 5938   8.412   2.997   6.581 -0.2954 -0.3263  0.0872
34328SOL    HW1 5939   8.428   3.038   6.665 -2.0319 -0.9496  0.7765
34328SOL    HW2 5940   8.372   3.066   6.527  0.7055  0.0380 -0.2123
34329SOL     OW 5941   6.970   8.529   4.509 -0.0085  0.7305  0.7617
34329SOL    HW1 5942   7.044   8.470   4.525  0.3848  0.8478 -0.5110
34329SOL    HW2 5943   6.994   8.610   4.555 -0.3255  0.0871  2.1025
34330SOL     OW 5944   7.525   6.247   7.558 -0.1323  0.1363 -0.3882
34330SOL    HW1 5945   7.604   6.270   7.508  0.4716  1.2559  1.0256
34330SOL    HW2 5946   7.456   6.243   7.492  0.7383  1.0606 -1.4021
34331SOL     OW 5947   0.869   9.726   5.967 -0.0572  0.3237  0.6337
34331SOL    HW1 5948   0.912   9.641   5.979 -1.4655 -0.3483  1.1601
34331SOL    HW2 5949   0.874   9.768   6.053 -0.7998  0.0727  0.7989
34332SOL     OW 5950   5.194   1.529   7.591 -0.7581  0.3127 -0.0738
34332SOL    HW1 5951   5.264   1.541   7.527  0.4320 -2.2964  0.6437
34332SOL    HW2 5952   5.175   1.618   7.622  2.9284  1.0763  0.4247
34333SOL     OW 5953   3.060   8.229   7.527  0.2633 -0.7433 -0.4029
34333SOL    HW1 5954   3.064   8.169   7.602  1.2388  1.1892  1.1931
34333SOL    HW2 5955   3.015   8.306   7.561 -0.6741 -0.3887 -2.3088
34334SOL     OW 5956   8.222   6.353   1.337 -0.3041  0.6264  0.2280
34334SOL    HW1 5957   8.162   6.350   1.262  0.6810  1.4980 -0.6256
34334SOL    HW2 5958   8.233   6.262   1.362 -1.7986  0.4214  0.2675
34335SOL     OW 5959   3.212   1.210   6.258 -0.1690  0.3651  0.7606
34335SOL    HW1 5960   3.232   1.193   6.166  0.8338  2.1312  0.5986
34335SOL    HW2 5961   3.121   1.240   6.258 -0.1890  0.3038  0.3434
34336SOL     OW 5962   0.637   9.212   8.034  0.7527  0.1571  0.0276
34336SOL    HW1 5963   0.568   9.174   7.979  0.2620  0.9579  0.0712
34336SOL    HW2 5964   0.609   9.197   8.123  0.2828  1.0663  0.0488
34337SOL     OW 5965   1.112   1.601   9.461  0.2661  0.0906 -0.1546
34337SOL    HW1 5966   1.155   1.583   9.376 -0.2255  1.2507 -0.6612
34337SOL    HW2 5967   1.166   1.553   9.524  1.4110  0.2419 -0.9661
34338SOL     OW 5968   1.852   4.086   8.874 -0.1712 -0.4193  0.2194
34338SOL    HW1 5969   1.787   4.129   8.819 -0.7163 -0.8482  0.5230
34338SOL    HW2 5970   1.931   4.083   8.820  0.1034  1.5765  0.4254
34339SOL     OW 5971   8.481   8.027   5.401  0.0202  0.1149 -0.2106
34339SOL    HW1 5972   8.534   7.955   5.365  0.1285 -0.0956  0.3485
34339SOL    HW2 5973   8.427   8.057   5.328 -0.1042 -0.6094 -0.4253
34340SOL     OW 5974   2.043   4.510   8.267  0.4901 -0.1835  0.3632
34340SOL    HW1 5975   2.135   4.509   8.240  0.2329  0.8109 -0.6149
34340SOL    HW2 5976   2.032   4.429   8.316  1.4728 -1.1889 -0.9820
34341SOL     OW 5977   7.059   0.875   5.254 -0.3736 -1.0170  0.1263
34341SOL    HW1 5978   7.072   0.853   5.162 -2.0694  0.5252 -0.5356
34341SOL    HW2 5979   7.130   0.937   5.274 -0.6187 -0.5333 -0.4686
34342SOL     OW 5980   4.246   8.113  10.133  0.4290  0.2643  0.1223
34342SOL    HW1 5981   4.281   8.037  10.180  0.7763 -0.7677 -1.7187
34342SOL    HW2 5982   4.225   8.176  10.202  0.6839 -1.2636  1.6636
34343SOL     OW 5983   6.976  10.013   1.643 -0.2849 -0.3998 -0.0740
34343SOL    HW1 5984   6.895  10.062   1.628 -0.4121 -0.1640  1.2928
34343SOL    HW2 5985   7.042  10.061   1.594 -0.6152  0.5247  0.3693
34344SOL     OW 5986   0.170   2.417   9.274  0.3207 -0.0493  0.4238
34344SOL    HW1 5987   0.254   2.376   9.255  0.1948  0.5405 -1.5911
34344SOL    HW2 5988   0.165   2.491   9.214 -1.0618  0.7413  1.4489
34345SOL     OW 5989   7.663   7.469   2.486  0.5433  0.2166  0.4267
34345SOL    HW1 5990   7.581   7.499   2.527  0.9302 -1.0169  2.2547
34345SOL    HW2 5991   7.638   7.447   2.397 -1.1036  0.0125  0.8967
34346SOL     OW 5992   0.610   2.555   1.638  0.3019  0.2267  0.3329
34346SOL    HW1 5993   0.697   2.593   1.654 -0.1929  1.6402 -0.1986
34346SOL    HW2 5994   0.628   2.464   1.615  1.7909  0.8632 -1.3007
34347SOL     OW 5995   6.542   9.438   2.270 -0.1642  0.2061  0.3290
34347SOL    HW1 5996   6.612   9.501   2.287 -0.5172  0.8473 -0.5418
34347SOL    HW2 5997   6.535   9.388   2.352  0.3158  1.0969  0.9368
34348SOL     OW 5998  10.067   9.895   0.483  0.6092 -0.0467 -0.3915
34348SOL    HW1 5999   9.994   9.913   0.542  0.0433 -0.2324 -1.0279
34348SOL    HW2 6000  10.051   9.951   0.407 -0.2992 -1.9533 -1.6917
34349SOL     OW 6001   7.155   4.721   3.548 -0.3113  0.1533 -0.3651
34349SOL    HW1 6002   7.185   4.638   3.511 -2.5878 -0.7665 -0.2899
34349SOL    HW2 6003   7.072   4.700   3.590  0.3249  1.9401  2.0139
34350SOL     OW 6004   9.769   2.375   5.929  0.3698 -0.0487 -0.6037
34350SOL    HW1 6005   9.783   2.467   5.950  1.8559 -0.0420 -1.4750
34350SOL    HW2 6006   9.800   2.366   5.839  2.3994 -1.8349  0.1778
34351SOL     OW 6007   4.342   5.135   1.558 -0.1157 -0.3659 -0.0302
34351SOL    HW1 6008   4.318   5.045   1.535 -3.1749  0.1656  0.5358
34351SOL    HW2 6009   4.343   5.182   1.475  0.4466 -0.7285 -0.2259
34352SOL     OW 6010   8.402   2.476   0.833 -0.0526 -0.1748 -0.7541
34352SOL    HW1 6011   8.340   2.411   0.865  0.0472  0.1699  0.1738
34352SOL    HW2 6012   8.377   2.557   0.878 -2.0146  1.2140 -3.9422
34353SOL     OW 6013   8.425   0.256   7.178  0.0390  0.7803 -0.8580
34353SOL    HW1 6014   8.337   0.217   7.175  0.4883 -0.4960  1.2253
34353SOL    HW2 6015   8.409   0.350   7.176 -1.5869  0.6594  1.8296
34354SOL     OW 6016   7.156   5.171   3.591 -0.0923 -0.3092 -0.0202
34354SOL    HW1 6017   7.111   5.140   3.512 -0.8472 -0.6622  0.5330
34354SOL    HW2 6018   7.222   5.232   3.559  0.2198 -1.1342 -0.9931
34355SOL     OW 6019   9.698   1.546   3.139 -0.5720  0.0182 -0.2031
34355SOL    HW1 6020   9.629   1.591   3.188 -1.1468 -0.8349 -0.2106
34355SOL    HW2 6021   9.714   1.466   3.188  1.3338  0.7876  0.5081
34356SOL     OW 6022   3.513   1.006  10.216  0.6255 -0.6888  0.4677
34356SOL    HW1 6023   3.463   1.002  10.298 -0.0667  0.3282  0.1078
34356SOL    HW2 6024   3.493   1.092  10.179 -1.0907 -2.0366 -2.0350
34357SOL     OW 6025   8.391   7.136   0.087 -0.0931 -0.0387  0.1638
34357SOL    HW1 6026   8.392   7.203   0.155  1.4784  1.8100 -1.5445
34357SOL    HW2 6027   8.351   7.180   0.011 -0.2278 -1.4693 -0.6282
34358SOL     OW 6028   0.357   1.758  10.381  0.0448 -0.4364  0.3695
34358SOL    HW1 6029   0.360   1.695  10.453 -0.5995 -1.0938 -0.1650
34358SOL    HW2 6030   0.271   1.799  10.388 -0.7347 -1.7431 -1.0359
34359SOL     OW 6031   6.231   6.397   7.108 -0.0463  0.3605  1.0049
34359SOL    HW1 6032   6.243   6.321   7.052  2.1669 -0.8832  2.9775
34359SOL    HW2 6033   6.240   6.472   7.049  0.0250 -0.8760 -0.6247
34360SOL     OW 6034   8.983   0.969   1.919 -0.5438  0.5377 -0.2983
34360SOL    HW1 6035   8.992   1.064   1.912 -2.1774  0.7909  0.5455
34360SOL    HW2 6036   8.957   0.941   1.831 -0.2582  0.8798 -0.4956
34361SOL     OW 6037   4.986   1.054   8.344 -0.1049 -0.0081 -0.3492
34361SOL    HW1 6038   4.960   0.980   8.288 -0.7026  0.0528 -0.1639
34361SOL    HW2 6039   5.031   1.114   8.286  0.8248 -0.7339 -0.4110
34362SOL     OW 6040   3.802   2.831   5.922  0.2624  0.6660  0.7402
34362SOL    HW1 6041   3.772   2.879   5.999  0.3534  1.6394  0.1822
34362SOL    HW2 6042   3.763   2.878   5.848  0.2831 -0.1758  0.1843
34363SOL     OW 6043   0.344   6.319   9.140  0.1859  0.7147 -0.1322
34363SOL    HW1 6044   0.267   6.374   9.148  0.0664  0.4980  0.2503
34363SOL    HW2 6045   0.340   6.260   9.216  1.0499  1.1123  0.2428
34364SOL     OW 6046   1.696   1.153   6.791  0.1413 -0.0881  0.1194
34364SOL    HW1 6047   1.602   1.155   6.770  0.5691  1.9657 -2.0393
34364SOL    HW2 6048   1.718   1.060   6.788 -1.8639 -0.6589  1.0113
34365SOL     OW 6049   2.078   2.455   3.916  0.3886 -0.5473  0.4473
34365SOL    HW1 6050   2.129   2.452   3.997  3.9133  0.6900 -1.5142
34365SOL    HW2 6051   2.093   2.369   3.876  2.1227  0.2495 -0.7149
34366SOL     OW 6052   2.493   5.191   2.976 -0.0143  0.7543  0.5347
34366SOL    HW1 6053   2.468   5.222   3.063 -0.1495  0.8266  0.4695
34366SOL    HW2 6054   2.500   5.096   2.987  1.1372  0.8605  0.9225
34367SOL     OW 6055   4.395   3.891   0.167 -0.2567 -0.2075 -0.1298
34367SOL    HW1 6056   4.309   3.931   0.177 -0.6937 -1.1264 -0.0771
34367SOL    HW2 6057   4.378   3.808   0.122  0.5140 -0.7181  0.4880
34368SOL     OW 6058   1.201   0.359   5.705 -0.6299  0.2194  0.8211
34368SOL    HW1 6059   1.114   0.367   5.744 -0.2542  2.6509  1.3158
34368SOL    HW2 6060   1.231   0.271   5.730 -3.1685 -0.9673  0.0399
34369SOL     OW 6061   5.830   0.215   2.063 -0.7787  0.7083 -0.0840
34369SOL    HW1 6062   5.805   0.198   2.154 -0.2909 -1.6383 -0.3389
34369SOL    HW2 6063   5.916   0.256   2.069 -1.0664  1.2552  0.5127
34370SOL     OW 6064   1.870   9.001   5.853 -0.2450  0.1763 -0.3525
34370SOL    HW1 6065   1.864   9.094   5.874  1.4768  0.1083  0.6632
34370SOL    HW2 6066   1.921   8.998   5.773 -0.4066  0.1052 -0.4534
34371SOL     OW 6067   1.392   2.061   1.597 -0.8429 -0.2263  0.9490
34371SOL    HW1 6068   1.431   1.979   1.566  0.0029  0.0836  1.1652
34371SOL    HW2 6069   1.414   2.063   1.691 -0.9925  0.1688  0.9749
34372SOL     OW 6070   6.064   9.800  10.016 -0.0072 -0.2344  0.3534
34372SOL    HW1 6071   6.136   9.863  10.013 -0.0214 -0.2078  0.5886
34372SOL    HW2 6072   6.034   9.794   9.925  0.4478 -0.4286  0.2138
34373SOL     OW 6073   2.055   7.068   1.664  0.3439  0.0704  0.0592
34373SOL    HW1 6074   2.139   7.077   1.709  0.0805 -1.7032  0.9763
34373SOL    HW2 6075   2.060   6.983   1.620 -0.1179  0.9571 -1.7881
34374SOL     OW 6076   5.246   0.636  10.464 -0.2988  0.0699 -0.2013
34374SOL    HW1 6077   5.217   0.636  10.373 -1.5652 -0.1442  0.1786
34374SOL    HW2 6078   5.203   0.559  10.502  0.0669  0.2623  0.6172
34375SOL     OW 6079   3.074   5.444   2.424 -0.2217  0.6795 -0.0335
34375SOL    HW1 6080   3.050   5.427   2.516 -1.5958 -0.6110 -0.5765
34375SOL    HW2 6081   2.991   5.440   2.377  0.5178  0.8867 -1.3973
34376SOL     OW 6082   1.601   7.031   1.926 -0.2471 -0.6007 -0.6327
34376SOL    HW1 6083   1.677   7.080   1.896 -1.4193  1.4095 -0.4567
34376SOL    HW2 6084   1.595   7.050   2.020 -0.3922 -1.5867 -0.4249
34377SOL     OW 6085   1.028   7.479   5.234  0.2517 -0.4955 -0.0189
34377SOL    HW1 6086   0.961   7.531   5.278  0.4622 -0.7715  0.6349
34377SOL    HW2 6087   1.026   7.394   5.279  1.7837 -0.1544  0.7297
34378SOL     OW 6088   0.362  10.158   8.071 -0.1789 -0.1278  0.3046
34378SOL    HW1 6089   0.381  10.096   8.142 -2.1874  0.8481  1.7789
34378SOL    HW2 6090   0.405  10.239   8.098  0.7965 -0.3070 -0.6565
34379SOL     OW 6091   4.006   6.752   3.844  0.2188 -0.0133 -0.1960
34379SOL    HW1 6092   4.017   6.695   3.920 -0.7292  0.6167  0.4371
34379SOL    HW2 6093   4.041   6.837   3.872 -1.0347  0.4903 -0.1020
34380SOL     OW 6094   0.219   8.354   3.071 -0.1695  0.2307 -0.7429
34380SOL    HW1 6095   0.269   8.272   3.073  0.8965  0.8839  0.0291
34380SOL    HW2 6096   0.128   8.326   3.081  0.3161 -0.7449  1.5153
34381SOL     OW 6097   6.427   3.014   4.731 -0.0883 -0.9583 -0.3868
34381SOL    HW1 6098   6.410   3.071   4.806  1.3229  1.0193 -1.4811
34381SOL    HW2 6099   6.522   3.016   4.720 -0.2650 -0.9756 -2.3566
34382SOL     OW 6100  10.433   1.246   3.641 -0.5908  0.3510  0.2661
34382SOL    HW1 6101  10.517   1.290   3.657 -0.8318  1.3704 -1.0682
34382SOL    HW2 6102  10.456   1.154   3.628  0.2586  0.5370  0.3915
34383SOL     OW 6103   3.087   9.538   5.807 -0.0915 -0.1446 -0.0409
34383SOL    HW1 6104   3.027   9.609   5.829  0.3805  0.1110  0.4425
34383SOL    HW2 6105   3.035   9.458   5.818 -0.9401  0.1570 -1.6071
34384SOL     OW 6106   3.131   8.413   9.062  0.0956 -0.0513 -0.0261
34384SOL    HW1 6107   3.224   8.418   9.083  0.3994 -0.3710 -1.1997
34384SOL    HW2 6108   3.116   8.487   9.003 -0.5240  0.3148  0.5763
34385SOL     OW 6109   9.845   5.840   9.174 -0.7725 -0.6052 -0.0352
34385SOL    HW1 6110   9.760   5.808   9.206 -1.2856  0.0964 -0.6475
34385SOL    HW2 6111   9.846   5.933   9.199  1.2362 -1.2784  2.8459
34386SOL     OW 6112   5.547   5.218   8.829 -0.4530 -0.0106 -0.1388
34386SOL    HW1 6113   5.574   5.204   8.919  1.2938  0.7581 -0.5130
34386SOL    HW2 6114   5.511   5.307   8.829 -3.3503 -1.0397  0.3743
34387SOL     OW 6115   6.786   4.149   0.020 -0.4470 -0.4533  0.2342
34387SOL    HW1 6116   6.849   4.136   0.091  0.0056 -2.1962 -0.4372
34387SOL    HW2 6117   6.803   4.077  -0.040 -2.7893 -0.7051 -0.1973
34388SOL     OW 6118   9.562   4.530  10.053  0.2212 -0.2483 -0.0703
34388SOL    HW1 6119   9.468   4.518  10.067 -0.4323  2.4627 -1.4263
34388SOL    HW2 6120   9.573   4.528   9.958  1.5979 -0.7181  0.0671
34389SOL     OW 6121   6.039   8.435   0.600 -0.0410  0.1639  0.2795
34389SOL    HW1 6122   6.000   8.498   0.540  0.4798  0.3358  0.1110
34389SOL    HW2 6123   5.988   8.355   0.587  0.9106 -0.2296 -1.4447
34390SOL     OW 6124   6.864   1.871   5.404 -0.0750  0.4743 -0.4339
34390SOL    HW1 6125   6.877   1.851   5.311  0.5230  1.3472 -0.5514
34390SOL    HW2 6126   6.893   1.793   5.450 -0.8447 -0.1543 -1.0016
34391SOL     OW 6127   7.850   9.615   7.418  0.0737  0.0825  1.0217
34391SOL    HW1 6128   7.918   9.587   7.356 -0.3455 -0.1139  0.6446
34391SOL    HW2 6129   7.790   9.668   7.366 -0.0514  0.2754  1.3579
34392SOL     OW 6130   2.060   7.670   1.260  0.0400 -0.1707  0.1676
34392SOL    HW1 6131   1.974   7.705   1.240  0.0944 -0.5699 -0.7970
34392SOL    HW2 6132   2.097   7.732   1.324 -0.8412  0.1455  0.3812
34393SOL     OW 6133   6.760   2.873   1.825  0.5231 -0.0571 -0.2293
34393SOL    HW1 6134   6.741   2.961   1.858  0.4844  0.6008 -1.9281
34393SOL    HW2 6135   6.847   2.879   1.787  0.3064 -0.5923 -0.8426
34394SOL     OW 6136   6.216   6.353   8.182 -0.2268 -0.1139  0.0494
34394SOL    HW1 6137   6.163   6.286   8.225  0.9368 -0.6634  0.6744
34394SOL    HW2 6138   6.283   6.303   8.134 -0.1651  0.5685 -0.5887
34395SOL     OW 6139   5.182   9.354   3.856 -0.2330  1.0420  0.0637
34395SOL    HW1 6140   5.173   9.343   3.950 -3.3342  3.4239  0.2142
34395SOL    HW2 6141   5.206   9.446   3.845 -0.8476  1.0523 -1.4675
34396SOL     OW 6142   8.252   7.098   5.352  0.8233  0.2126  0.4990
34396SOL    HW1 6143   8.285   7.165   5.292  0.2334  0.4329  0.4174
34396SOL    HW2 6144   8.310   7.103   5.428 -0.6578  2.5086  1.5769
34397SOL     OW 6145  10.038   1.336   9.886  0.3659 -0.2955  0.4013
34397SOL    HW1 6146  10.094   1.259   9.895 -0.0983 -0.6572  0.2323
34397SOL    HW2 6147   9.999   1.347   9.972  1.2684  0.4107  0.7337
34398SOL     OW 6148   0.201   7.391   9.436  0.7155  0.0308  0.3952
34398SOL    HW1 6149   0.165   7.478   9.418  1.4331  0.6756  1.9701
34398SOL    HW2 6150   0.296   7.402   9.430  0.8027 -1.1387 -1.4223
34399SOL     OW 6151   6.202   0.607   1.419 -0.0345 -0.6151  0.4129
34399SOL    HW1 6152   6.228   0.671   1.354  1.1367 -3.3501 -2.0129
34399SOL    HW2 6153   6.225   0.648   1.503  1.6050  1.6781 -1.0333
34400SOL     OW 6154   3.316   2.915   1.695  1.2926 -0.2028  0.3328
34400SOL    HW1 6155   3.410   2.922   1.679  1.1730  1.7061  0.1460
34400SOL    HW2 6156   3.290   2.834   1.653  2.4503  0.4256 -1.7449
34401SOL     OW 6157   6.727   9.945   8.095 -0.0517  0.0390 -0.2438
34401SOL    HW1 6158   6.657   9.910   8.040 -0.2364 -0.7686  0.4840
34401SOL    HW2 6159   6.803   9.950   8.037 -0.8844  1.6343 -1.2441
34402SOL     OW 6160   0.945   0.882   6.230 -0.2425 -0.7716  0.0786
34402SOL    HW1 6161   0.890   0.916   6.301  0.7088 -0.5989  0.7489
34402SOL    HW2 6162   0.900   0.909   6.150  0.5376  2.2591  0.5480
34403SOL     OW 6163  10.029   7.284   6.616 -0.1258  0.0864  0.3783
34403SOL    HW1 6164   9.978   7.207   6.590  0.9608 -0.3610 -0.5057
34403SOL    HW2 6165  10.100   7.249   6.669 -0.2475  0.6192  0.9085
34404SOL     OW 6166  10.316   2.364   4.064  0.2681  0.1127  0.1148
34404SOL    HW1 6167  10.347   2.320   4.144 -0.4727  1.0671  0.9504
34404SOL    HW2 6168  10.254   2.429   4.095 -1.9987 -1.1778 -1.4435
34405SOL     OW 6169  10.357  10.662   1.965 -0.2990 -0.0088  0.2314
34405SOL    HW1 6170  10.366  10.583   2.018 -1.4453  1.2231  2.4148
34405SOL    HW2 6171  10.436  10.713   1.985 -0.4619  0.2188  0.2856
34406SOL     OW 6172   5.100   7.938   6.275  0.0464 -0.5082 -0.2234
34406SOL    HW1 6173   5.047   8.000   6.325 -0.0486 -2.2231  1.9708
34406SOL    HW2 6174   5.052   7.855   6.280  0.9967 -1.1879 -1.6052
34407SOL     OW 6175   1.831   6.867   3.763  0.0257  0.5130 -0.6048
34407SOL    HW1 6176   1.918   6.897   3.792  0.4191 -1.0338 -0.0663
34407SOL    HW2 6177   1.840   6.772   3.756 -1.8004  0.2569  0.0206
34408SOL     OW 6178   1.999   0.405   6.988  0.0458 -0.0766  0.0070
34408SOL    HW1 6179   2.088   0.437   6.971  0.1405 -0.8646 -1.0542
34408SOL    HW2 6180   2.009   0.345   7.062  0.4995 -0.6088 -0.4800
34409SOL     OW 6181   1.863  10.325   8.560  0.0693  0.3550 -0.0805
34409SOL    HW1 6182   1.797  10.258   8.578  0.6942  0.1286  1.5970
34409SOL    HW2 6183   1.934  10.278   8.518 -0.0432  0.2135 -0.1143
34410SOL     OW 6184   3.941   3.653   9.068 -0.2080 -0.0271  0.2513
34410SOL    HW1 6185   4.000   3.689   9.002  0.5375  1.2618  1.5730
34410SOL    HW2 6186   3.882   3.726   9.090 -1.6208 -0.9648 -0.2380
34411SOL     OW 6187   3.226   1.552   9.218  0.0648  0.2574  0.2898
34411SOL    HW1 6188   3.179   1.570   9.300  0.8753 -0.5844  0.9618
34411SOL    HW2 6189   3.262   1.637   9.193 -2.1125  1.0364 -0.4849
34412SOL     OW 6190   4.290   0.818   0.630 -0.3649  0.1984  0.0537
34412SOL    HW1 6191   4.293   0.900   0.579  1.1341 -1.0325 -2.0086
34412SOL    HW2 6192   4.297   0.847   0.721  1.0962  2.3740 -0.6372
34413SOL     OW 6193   2.214   1.238   4.541 -0.3758  0.4325  0.7281
34413SOL    HW1 6194   2.131   1.229   4.493  1.0312  0.3050 -1.8685
34413SOL    HW2 6195   2.206   1.176   4.614 -2.2500 -0.1233  0.1225
34414SOL     OW 6196   0.479   3.830   4.394 -0.2175  0.3854  0.3714
34414SOL    HW1 6197   0.427   3.902   4.359  2.9000  2.4697 -0.4735
34414SOL    HW2 6198   0.466   3.758   4.332 -1.9800  0.8024  0.2068
34415SOL     OW 6199   3.170   9.768   3.476 -0.5557  0.1155 -0.2398
34415SOL    HW1 6200   3.205   9.699   3.533 -1.0962  0.0776  0.0573
34415SOL    HW2 6201   3.150   9.723   3.394 -1.7108 -0.2847  0.2351
34416SOL     OW 6202   4.952   6.823   3.558  0.0267  0.1077 -0.1387
34416SOL    HW1 6203   5.019   6.787   3.616 -0.2178  0.0700  0.1228
34416SOL    HW2 6204   4.982   6.911   3.537 -0.0386  0.2340  0.2967
34417SOL     OW 6205   2.701   8.664   3.885  0.3404  0.3666  0.2141
34417SOL    HW1 6206   2.659   8.692   3.967  0.8735  1.5074  0.1203
34417SOL    HW2 6207   2.792   8.694   3.894 -0.1196  2.6502 -1.7277
34418SOL     OW 6208   5.294   9.807  10.377 -0.0582 -0.4973  0.1202
34418SOL    HW1 6209   5.305   9.733  10.317 -1.4484 -0.5905 -0.0605
34418SOL    HW2 6210   5.312   9.770  10.463 -0.6573 -1.0378  0.0230
34419SOL     OW 6211   8.489   3.277   0.048 -0.3153 -0.0614 -0.1345
34419SOL    HW1 6212   8.505   3.214  -0.022 -1.1989 -0.8422  0.3449
34419SOL    HW2 6213   8.411   3.325   0.020  0.6511  1.2036 -0.7423
34420SOL     OW 6214   5.158   2.682  10.182  0.7281 -0.2399 -0.0748
34420SOL    HW1 6215   5.229   2.744  10.196  1.0641 -0.9402  1.4531
34420SOL    HW2 6216   5.202   2.600  10.158  0.3386 -0.2320 -0.8643
34421SOL     OW 6217   9.425   9.402   5.357 -0.3259  0.2940 -0.2275
34421SOL    HW1 6218   9.384   9.316   5.347  1.0185 -0.4783  0.5427
34421SOL    HW2 6219   9.429   9.437   5.268  2.2451 -1.9860 -1.1643
34422SOL     OW 6220   8.606   7.096   1.250 -0.4538  0.2712 -0.0028
34422SOL    HW1 6221   8.639   7.013   1.283  0.8283  0.9464  0.5012
34422SOL    HW2 6222   8.607   7.087   1.155  1.4749  0.3253 -0.0301
34423SOL     OW 6223   0.063   3.390   6.173 -0.1528 -0.0769 -0.0403
34423SOL    HW1 6224   0.138   3.330   6.172 -1.0013 -1.1767  0.5374
34423SOL    HW2 6225   0.029   3.388   6.084  0.7200  0.7544 -0.4226
34424SOL     OW 6226   4.872   4.353   4.708 -0.0623 -0.3459  0.1883
34424SOL    HW1 6227   4.818   4.329   4.784  2.0296 -0.3132  1.7819
34424SOL    HW2 6228   4.902   4.269   4.674  0.4580 -0.3061  0.5385
34425SOL     OW 6229   2.411   6.438  10.122 -0.0078 -0.7075 -0.0385
34425SOL    HW1 6230   2.479   6.400  10.067  1.6915  0.6987  0.9744
34425SOL    HW2 6231   2.391   6.522  10.080 -1.0533 -1.0366 -0.2424
34426SOL     OW 6232  10.379   2.552   2.275 -0.1040 -0.2216 -1.0270
34426SOL    HW1 6233  10.362   2.586   2.187 -1.8843 -0.5952 -0.8678
34426SOL    HW2 6234  10.309   2.489   2.290  0.6935 -0.8258  0.3276
34427SOL     OW 6235   7.207   9.201   4.459  0.0971 -0.2674 -1.0916
34427SOL    HW1 6236   7.143   9.247   4.513  0.8531  2.4717 -2.3495
34427SOL    HW2 6237   7.228   9.122   4.508 -1.3723  0.6761  1.1914
34428SOL     OW 6238   6.468   0.678   8.401  0.0525  0.7064  0.1579
34428SOL    HW1 6239   6.462   0.682   8.305  0.6318 -0.3562  0.0603
34428SOL    HW2 6240   6.383   0.643   8.428 -1.0960  3.3578  0.2613
34429SOL     OW 6241   3.006   6.941   7.355  0.1736 -0.0349  0.0852
34429SOL    HW1 6242   3.014   6.896   7.439 -1.0225 -1.2805 -0.4277
34429SOL    HW2 6243   3.070   6.897   7.299 -1.1362 -1.3274 -0.4737
34430SOL     OW 6244   3.353   7.694   0.285  0.8162  0.0473  0.2652
34430SOL    HW1 6245   3.259   7.683   0.270  0.9468  0.3463 -0.8481
34430SOL    HW2 6246   3.359   7.754   0.359  0.1336 -0.2523  0.5668
34431SOL     OW 6247   9.217   7.171   0.337 -0.1197  0.1473 -0.6312
34431SOL    HW1 6248   9.191   7.223   0.261 -0.5896  1.7829  0.5777
34431SOL    HW2 6249   9.309   7.194   0.351 -0.5481  1.3692  0.3932
34432SOL     OW 6250   2.834   3.565   0.767  0.1285 -0.4418  0.1961
34432SOL    HW1 6251   2.778   3.576   0.690  1.4518  1.2938 -0.5955
34432SOL    HW2 6252   2.775   3.534   0.835 -1.2563 -1.2016 -1.2846
34433SOL     OW 6253   9.310  10.173   2.532 -0.1680  0.1040  0.1184
34433SOL    HW1 6254   9.357  10.103   2.578  0.9190  0.8097  0.1319
34433SOL    HW2 6255   9.218  10.147   2.536  0.1220 -0.8884  0.8674
34434SOL     OW 6256   5.964   6.341   0.837  0.0468 -0.6960  0.5980
34434SOL    HW1 6257   6.048   6.369   0.874 -0.1629  0.1765  0.4335
34434SOL    HW2 6258   5.969   6.245   0.836  0.4505 -0.7083  1.9413
34435SOL     OW 6259   2.010   8.597   2.166 -0.4772 -0.0258 -0.4699
34435SOL    HW1 6260   1.970   8.651   2.098 -0.9259 -0.6254 -0.6973
34435SOL    HW2 6261   2.092   8.566   2.127 -0.3559  0.2599 -0.4439
34436SOL     OW 6262   0.145   0.111   0.926 -0.0716  0.1474 -0.2225
34436SOL    HW1 6263   0.219   0.063   0.890  0.2232 -0.8356  1.5905
34436SOL    HW2 6264   0.170   0.129   1.016 -1.7191  0.5191  0.1833
34437SOL     OW 6265   1.102   4.696   3.406  0.6438  0.1558 -0.2084
34437SOL    HW1 6266   1.036   4.645   3.453  0.7201  0.1600 -0.0959
34437SOL    HW2 6267   1.110   4.652   3.321 -0.3711  0.8570 -0.6831
34438SOL     OW 6268   5.338   1.324   4.015  0.5243  0.0571  0.1944
34438SOL    HW1 6269   5.378   1.375   3.944  0.5705  0.6680  0.6556
34438SOL    HW2 6270   5.336   1.383   4.090  1.1545 -0.8102  0.9267
34439SOL     OW 6271   6.265   8.906   1.349  0.4683 -0.2711 -0.2866
34439SOL    HW1 6272   6.271   8.996   1.317  2.3925 -1.1410 -2.7112
34439SOL    HW2 6273   6.354   8.886   1.379  0.0170 -1.3143  0.3846
34440SOL     OW 6274   5.114   5.845   3.621  0.1175 -0.2304 -0.4903
34440SOL    HW1 6275   5.201   5.884   3.629  0.0549 -0.0624 -0.6226
34440SOL    HW2 6276   5.098   5.839   3.527  0.0267 -0.3531 -0.4687
34441SOL     OW 6277   2.746   3.155   0.019  0.3648  0.6465  0.0766
34441SOL    HW1 6278   2.776   3.081   0.073 -0.5769 -0.3447 -0.7151
34441SOL    HW2 6279   2.807   3.156  -0.055 -0.0772  0.1756 -0.2972
34442SOL     OW 6280   2.482   6.121   2.425 -0.2103 -0.1586  0.5501
34442SOL    HW1 6281   2.521   6.058   2.365 -0.4496 -0.5111  0.7557
34442SOL    HW2 6282   2.434   6.066   2.488 -0.9505  0.2546  0.3578
34443SOL     OW 6283   6.418   3.100   8.764  0.3129  0.0718 -0.1373
34443SOL    HW1 6284   6.478   3.041   8.718  0.1639 -0.1264 -0.0769
34443SOL    HW2 6285   6.474   3.169   8.800  0.3791  0.5314 -1.0793
34444SOL     OW 6286   6.005   9.036   1.442 -0.0920  0.4696  0.4371
34444SOL    HW1 6287   6.001   8.958   1.386 -0.5552  1.9114 -1.6345
34444SOL    HW2 6288   5.915   9.049   1.471 -0.2826  0.9604 -0.3274
34445SOL     OW 6289   0.961   8.701   7.689  0.5603  0.4064 -0.1231
34445SOL    HW1 6290   0.994   8.743   7.610 -1.6592  0.0467 -1.3290
34445SOL    HW2 6291   1.016   8.735   7.759  0.4914  3.3593 -1.3657
34446SOL     OW 6292   0.840   8.773   5.895 -0.2923 -0.6933 -0.1992
34446SOL    HW1 6293   0.794   8.791   5.813 -0.7373  1.4917  0.4792
34446SOL    HW2 6294   0.928   8.747   5.867 -0.7235 -0.9586 -1.3924
34447SOL     OW 6295   0.547   0.730   9.904  0.8620 -0.3683 -0.3349
34447SOL    HW1 6296   0.607   0.684   9.845  0.0622 -0.9696 -0.6942
34447SOL    HW2 6297   0.509   0.660   9.958 -1.5180 -0.3917 -1.8989
34448SOL     OW 6298   5.873   1.719   2.825 -0.5542  0.3493 -0.6035
34448SOL    HW1 6299   5.949   1.705   2.769  1.0097  1.4419  1.1612
34448SOL    HW2 6300   5.808   1.760   2.767  0.2639 -0.3162 -2.0527
34449SOL     OW 6301  10.192   7.199   6.829 -0.5233  0.0292 -0.4148
34449SOL    HW1 6302  10.250   7.124   6.834  1.6103  1.6085 -0.0804
34449SOL    HW2 6303  10.160   7.212   6.919  1.7006  1.3802  0.2536
34450SOL     OW 6304  10.237   9.908   1.358  0.0593 -0.9793  0.6601
34450SOL    HW1 6305  10.257   9.996   1.389 -0.5930 -0.8407  0.7072
34450SOL    HW2 6306  10.236   9.854   1.437 -0.9194 -0.7580  0.8097
34451SOL     OW 6307   6.270   0.646   0.054  0.2708  0.1925 -0.0361
34451SOL    HW1 6308   6.187   0.646   0.006  0.1564 -0.5186  0.1531
34451SOL    HW2 6309   6.328   0.591   0.002  0.1747 -0.5101  0.5774
34452SOL     OW 6310   6.141   4.325   8.373  0.5913  0.1512 -0.1380
34452SOL    HW1 6311   6.159   4.265   8.301 -0.4671 -3.0402  2.0396
34452SOL    HW2 6312   6.050   4.307   8.397  0.3643  2.3737  0.9283
34453SOL     OW 6313   9.022   6.119   9.193  0.2357 -0.1415 -0.1728
34453SOL    HW1 6314   9.018   6.032   9.152  2.0601  0.7335 -2.4154
34453SOL    HW2 6315   8.942   6.162   9.165  0.4712 -0.2884 -1.0936
34454SOL     OW 6316   9.411   0.829   7.757  0.6178 -0.2723  0.0761
34454SOL    HW1 6317   9.457   0.863   7.834 -1.6922 -0.4694  1.6459
34454SOL    HW2 6318   9.391   0.738   7.779 -1.1910  0.0370 -0.1892
34455SOL     OW 6319   4.241  10.668   7.289  0.1146 -0.0067 -0.0760
34455SOL    HW1 6320   4.296  10.747   7.296 -0.3844  0.2202  2.1640
34455SOL    HW2 6321   4.173  10.681   7.356 -0.1719 -2.1774  0.1066
34456SOL     OW 6322   1.920   2.472   9.434 -0.0804  0.8789 -0.5289
34456SOL    HW1 6323   1.830   2.441   9.441  0.3409 -0.0430  1.3849
34456SOL    HW2 6324   1.913   2.567   9.426 -1.2232  0.8362 -0.1381
34457SOL     OW 6325   3.078   0.027   4.728  0.6198 -0.4083  0.4936
34457SOL    HW1 6326   3.071   0.034   4.633 -0.4342  0.2319  0.6025
34457SOL    HW2 6327   3.085  -0.067   4.745 -0.7256 -0.6437 -0.1397
34458SOL     OW 6328   4.056   4.141   4.729  0.7340 -0.2503 -0.5540
34458SOL    HW1 6329   3.978   4.099   4.694 -0.3262  2.2236 -1.3772
34458SOL    HW2 6330   4.121   4.070   4.735 -1.2901 -2.2165 -0.5671
34459SOL     OW 6331   2.412   0.814   0.374 -0.5881 -0.5358  0.3108
34459SOL    HW1 6332   2.450   0.895   0.409 -1.6860  0.7095 -1.2483
34459SOL    HW2 6333   2.327   0.807   0.417 -0.1105 -1.4056  1.1504
34460SOL     OW 6334   6.253   4.544   1.187  0.3313  0.4685  0.2594
34460SOL    HW1 6335   6.212   4.479   1.130 -0.8709  1.4824 -0.0877
34460SOL    HW2 6336   6.295   4.493   1.256  2.6700 -0.8811 -1.9686
34461SOL     OW 6337   1.790   9.889   9.811  0.2952 -0.1859  0.5691
34461SOL    HW1 6338   1.842   9.816   9.779  1.8465  0.7520  0.8379
34461SOL    HW2 6339   1.777   9.871   9.904 -1.0835 -1.0915  0.2362
34462SOL     OW 6340   3.233   0.229   3.979  0.0152 -0.6736  0.3414
34462SOL    HW1 6341   3.287   0.202   3.905 -0.9601  0.3720 -0.8167
34462SOL    HW2 6342   3.147   0.190   3.962  0.0212 -1.2348  1.4657
34463SOL     OW 6343   4.220   0.313   7.491 -0.5853 -0.2326 -0.3866
34463SOL    HW1 6344   4.198   0.264   7.570 -0.4184  1.3418  0.6760
34463SOL    HW2 6345   4.138   0.354   7.465 -0.2511  0.7711  0.0879
34464SOL     OW 6346   9.714   5.393   1.649  0.0266  0.3699  0.4577
34464SOL    HW1 6347   9.764   5.312   1.649 -0.5884 -0.0170  0.8670
34464SOL    HW2 6348   9.631   5.370   1.609  1.1980  1.6963 -3.0746
34465SOL     OW 6349   4.285   5.868   3.301  0.2390 -0.2074 -0.1582
34465SOL    HW1 6350   4.213   5.923   3.271 -0.9792 -2.4163 -1.5985
34465SOL    HW2 6351   4.287   5.880   3.396 -2.6629 -0.7493  0.0532
34466SOL     OW 6352   4.766   7.616   4.154 -0.2675  0.0016  0.2664
34466SOL    HW1 6353   4.820   7.539   4.136  1.2889  1.4250 -1.6688
34466SOL    HW2 6354   4.772   7.668   4.074 -0.7444  2.4374  1.7144
34467SOL     OW 6355   0.821   6.442   0.220  0.0438 -0.5621 -0.2790
34467SOL    HW1 6356   0.874   6.453   0.299  1.9449 -0.5879 -1.4800
34467SOL    HW2 6357   0.799   6.531   0.193 -2.3407 -0.5915  1.3138
34468SOL     OW 6358   7.711   4.069   5.896 -0.5806 -0.2199 -0.6072
34468SOL    HW1 6359   7.715   3.991   5.840 -2.5915 -0.7580 -0.0540
34468SOL    HW2 6360   7.631   4.114   5.870 -0.1074  0.9997 -0.0359
34469SOL     OW 6361   2.958   2.721   4.143  0.1859 -0.7247 -0.7314
34469SOL    HW1 6362   2.866   2.717   4.167  0.8454 -0.5128  2.1967
34469SOL    HW2 6363   2.963   2.792   4.079 -1.5945 -0.3793 -0.5389
34470SOL     OW 6364   9.888   2.272   2.563 -0.0451  0.6820 -0.3793
34470SOL    HW1 6365   9.934   2.233   2.488 -0.5870  0.8344 -0.7961
34470SOL    HW2 6366   9.895   2.206   2.632 -1.3347 -0.3732 -1.2091
34471SOL     OW 6367   9.653   3.806   2.970 -0.4561  0.3379  0.2651
34471SOL    HW1 6368   9.573   3.757   2.951  0.3779 -1.1025  0.3574
34471SOL    HW2 6369   9.623   3.881   3.022 -2.2129  1.9003 -2.7043
34472SOL     OW 6370   0.064   3.750   7.899 -0.1144 -0.0230 -0.0176
34472SOL    HW1 6371   0.103   3.791   7.822  0.3068 -0.9180 -0.2940
34472SOL    HW2 6372  -0.003   3.691   7.864  0.2864 -0.6634  0.2751
34473SOL     OW 6373   7.233   5.243   2.609 -0.0287  0.4782 -0.0561
34473SOL    HW1 6374   7.328   5.248   2.612  0.0345 -0.7399  0.6739
34473SOL    HW2 6375   7.204   5.299   2.681  0.2924 -1.5611  1.7797
34474SOL     OW 6376  10.692   6.137   7.711  0.3526 -0.0063  0.0214
34474SOL    HW1 6377  10.688   6.042   7.704  2.1359 -0.0370 -1.1613
34474SOL    HW2 6378  10.603   6.163   7.737 -0.6662 -1.8552 -1.3919
34475SOL     OW 6379   9.202   3.519   1.633 -0.8305  0.5416  0.2272
34475SOL    HW1 6380   9.223   3.459   1.561 -3.2197 -1.4923  1.1001
34475SOL    HW2 6381   9.148   3.587   1.593 -0.6571  0.4252 -0.2116
34476SOL     OW 6382   7.437   2.900   8.874 -0.1526  0.2930 -0.4336
34476SOL    HW1 6383   7.343   2.915   8.866 -0.3321  1.8134  2.9548
34476SOL    HW2 6384   7.444   2.809   8.905 -0.5162  0.3108 -0.3030
34477SOL     OW 6385   8.116   0.759   5.793 -0.3381 -0.1344 -0.2418
34477SOL    HW1 6386   8.109   0.674   5.836  2.0276 -0.3646 -0.1887
34477SOL    HW2 6387   8.100   0.823   5.862  0.5143 -0.5410  0.3496
34478SOL     OW 6388   5.645   1.953   1.977  0.0330  0.4739  0.2788
34478SOL    HW1 6389   5.607   2.032   2.015 -0.3086  0.0121  0.9183
34478SOL    HW2 6390   5.604   1.944   1.891 -0.5605  0.5196  0.5580
34479SOL     OW 6391   7.061   7.716   9.024  0.7518 -0.4911  0.7282
34479SOL    HW1 6392   7.034   7.716   8.933  1.1527  1.5083  0.5727
34479SOL    HW2 6393   6.986   7.681   9.072 -0.1885  0.2339 -0.1816
34480SOL     OW 6394   7.122   4.653   4.292  0.0599  0.1394  0.2183
34480SOL    HW1 6395   7.146   4.615   4.208  1.9006 -1.2852  1.3042
34480SOL    HW2 6396   7.089   4.579   4.343  0.1518  0.7329  1.1603
34481SOL     OW 6397   2.075   2.670   8.503 -0.3772  0.6695 -0.5907
34481SOL    HW1 6398   2.133   2.743   8.485 -0.6085  0.4648 -2.3546
34481SOL    HW2 6399   2.133   2.594   8.511 -0.3238  0.6292 -1.3415
34482SOL     OW 6400   5.515   9.613   6.891  0.1955 -0.5667 -0.3111
34482SOL    HW1 6401   5.580   9.665   6.938  1.5850 -2.4220 -0.0553
34482SOL    HW2 6402   5.520   9.643   6.800 -1.0063  1.5780  0.2581
34483SOL     OW 6403   5.099   7.098   8.377  0.0220 -0.0767 -0.4688
34483SOL    HW1 6404   5.085   7.041   8.453 -2.3433 -0.7520 -1.3179
34483SOL    HW2 6405   5.062   7.049   8.304 -0.6663  1.8973 -1.5034
34484SOL     OW 6406   3.538   6.713   6.470  0.3055  0.1681  0.2341
34484SOL    HW1 6407   3.499   6.628   6.451  1.2543 -0.4254  0.8509
34484SOL    HW2 6408   3.565   6.746   6.385 -0.2021 -0.0755 -0.0263
34485SOL     OW 6409   6.374   2.054   3.768  0.1077 -0.1965  0.2048
34485SOL    HW1 6410   6.371   2.030   3.861  0.2530  2.6223  1.0248
34485SOL    HW2 6411   6.284   2.043   3.737  0.1265 -1.4770  0.5614
34486SOL     OW 6412  10.468   3.729   6.154  0.2682  0.3877  0.3151
34486SOL    HW1 6413  10.493   3.688   6.071  1.5328  1.4155  0.1552
34486SOL    HW2 6414  10.519   3.810   6.157  0.6054  0.1535  2.3114
34487SOL     OW 6415  10.473   5.571   1.084 -0.1332  0.3630  0.4837
34487SOL    HW1 6416  10.470   5.606   1.174 -1.1284  0.6030  0.3735
34487SOL    HW2 6417  10.483   5.477   1.096 -0.6207  0.3530  0.8650
34488SOL     OW 6418   0.284   3.868   4.905 -0.5364 -0.1145 -0.4740
34488SOL    HW1 6419   0.300   3.863   4.810 -0.3998 -0.5619 -0.4306
34488SOL    HW2 6420   0.297   3.960   4.926 -1.0641  0.0813 -0.9776
34489SOL     OW 6421   2.228   8.073   5.772  0.1544 -0.2134  0.0944
34489SOL    HW1 6422   2.135   8.094   5.784 -0.1181 -0.8145 -0.8797
34489SOL    HW2 6423   2.266   8.155   5.740  0.0025  0.0802  0.6409
34490SOL     OW 6424   2.210   6.599   7.387  0.5927 -0.5309 -0.1685
34490SOL    HW1 6425   2.294   6.643   7.377  0.1727  0.8155  1.6154
34490SOL    HW2 6426   2.229   6.507   7.370  2.1105 -0.0794 -1.1691
34491SOL     OW 6427   2.938   5.077   3.805  0.3796  0.3931 -0.0504
34491SOL    HW1 6428   2.954   5.136   3.878  1.2409 -0.3683  0.4042
34491SOL    HW2 6429   2.857   5.031   3.827  0.7576  0.0023  0.5453
34492SOL     OW 6430   1.026   8.741   1.166  0.3900  0.4016 -0.6503
34492SOL    HW1 6431   1.102   8.702   1.210 -0.1082  0.9012  0.7318
34492SOL    HW2 6432   1.044   8.835   1.169 -0.1058  0.4948 -0.6502
34493SOL     OW 6433   4.433   8.732   4.432  0.1753 -0.0262 -0.7003
34493SOL    HW1 6434   4.487   8.674   4.487 -2.3634 -0.7941  1.2000
34493SOL    HW2 6435   4.400   8.675   4.362  2.7404  0.7568 -2.6768
34494SOL     OW 6436   7.644   0.501   0.917  0.0176 -0.0182  0.2157
34494SOL    HW1 6437   7.692   0.464   0.991 -0.9558 -0.9399  0.4198
34494SOL    HW2 6438   7.616   0.424   0.866 -0.2517  0.5501 -0.5114
34495SOL     OW 6439   5.135   5.721   7.121 -0.2274  0.2397 -0.3393
34495SOL    HW1 6440   5.060   5.675   7.082 -0.1808 -0.1106 -0.0260
34495SOL    HW2 6441   5.209   5.696   7.065 -0.1555 -0.2855 -0.0176
34496SOL     OW 6442   9.885   6.747   5.608 -0.4672  0.3886 -0.1285
34496SOL    HW1 6443   9.971   6.703   5.608  0.0794  1.4048 -1.0232
34496SOL    HW2 6444   9.906   6.839   5.621 -1.2615  0.8792 -1.9841
34497SOL     OW 6445   4.495   7.801   9.376  0.3382 -0.2573 -0.0999
34497SOL    HW1 6446   4.489   7.746   9.455 -1.9419  1.1908  0.8202
34497SOL    HW2 6447   4.427   7.767   9.318 -0.2992  0.8173 -0.0037
34498SOL     OW 6448   5.142   5.153   7.182 -0.0085 -0.0918 -0.0309
34498SOL    HW1 6449   5.053   5.118   7.179  0.3245 -0.9580 -2.7249
34498SOL    HW2 6450   5.185   5.106   7.253 -0.9009 -1.8544 -0.6156
34499SOL     OW 6451   2.046   9.986   5.773  0.7118 -0.1444 -0.0418
34499SOL    HW1 6452   2.045   9.964   5.680  0.3944 -0.3660  0.0137
34499SOL    HW2 6453   2.000   9.914   5.815  0.2546  0.2945  0.2133
34500SOL     OW 6454   6.127   0.416   7.298  0.2832 -0.0116 -0.0844
34500SOL    HW1 6455   6.120   0.377   7.385 -1.5742  0.6339  0.0936
34500SOL    HW2 6456   6.054   0.378   7.248  0.8340  0.2415 -1.1115
34501SOL     OW 6457   3.079   2.254   9.805  0.2617 -0.0182  0.5154
34501SOL    HW1 6458   3.121   2.253   9.719 -0.9577  1.0652 -0.1325
34501SOL    HW2 6459   3.028   2.173   9.809  0.7284 -0.3192  0.4447
34502SOL     OW 6460   0.939   2.435   5.500 -0.1279  0.1166 -0.3006
34502SOL    HW1 6461   0.853   2.448   5.541  0.3195 -1.3622  1.1823
34502SOL    HW2 6462   0.952   2.514   5.447 -2.2231  0.5518 -0.2563
34503SOL     OW 6463   0.243   5.928   9.116  0.1557 -0.4131  0.2615
34503SOL    HW1 6464   0.282   5.904   9.032  0.4521  0.1673  0.2321
34503SOL    HW2 6465   0.291   5.876   9.181 -0.2885 -1.1078  0.0523
34504SOL     OW 6466   5.350   6.863   1.241 -0.6857  0.2488 -0.0399
34504SOL    HW1 6467   5.378   6.942   1.286 -0.8361  0.4991 -0.3875
34504SOL    HW2 6468   5.360   6.793   1.306  1.9565  0.1020 -0.5120
34505SOL     OW 6469   1.239   9.058   2.689 -0.0141 -0.3966  0.2139
34505SOL    HW1 6470   1.188   9.000   2.746  0.4802  0.0057  1.0936
34505SOL    HW2 6471   1.296   8.999   2.640  0.7823 -0.6607  1.4048
34506SOL     OW 6472   5.750   7.485   8.317 -0.7218  0.1556  1.0284
34506SOL    HW1 6473   5.824   7.544   8.328 -1.6553  1.1628  2.1859
34506SOL    HW2 6474   5.789   7.399   8.306  0.6608  0.9032 -0.2297
34507SOL     OW 6475   9.558   9.060   6.957 -0.0751 -0.1582  0.0463
34507SOL    HW1 6476   9.623   9.115   7.002 -1.3298  0.7500  0.8189
34507SOL    HW2 6477   9.564   8.975   7.001  1.7385 -0.6284 -1.0154
34508SOL     OW 6478   2.283   3.154   0.816  0.2030 -0.0773  0.3025
34508SOL    HW1 6479   2.221   3.136   0.745 -1.1089  1.1024  1.0962
34508SOL    HW2 6480   2.366   3.174   0.771 -0.2446 -0.6889 -0.8253
34509SOL     OW 6481   7.384   8.937   0.886 -0.1913 -1.2404  0.3254
34509SOL    HW1 6482   7.458   8.993   0.910 -0.8859 -0.4155  0.6011
34509SOL    HW2 6483   7.320   8.997   0.848 -1.4850 -1.6043  1.7990
34510SOL     OW 6484   8.121   1.558   1.210 -0.0125  0.1706 -0.5385
34510SOL    HW1 6485   8.140   1.633   1.155 -2.0300 -0.2318 -1.8701
34510SOL    HW2 6486   8.079   1.595   1.288 -0.2867  0.4956 -0.8387
34511SOL     OW 6487  10.408   3.106   9.539 -0.0719 -0.4059  0.1460
34511SOL    HW1 6488  10.362   3.075   9.460 -0.3630  1.2373 -0.3638
34511SOL    HW2 6489  10.355   3.073   9.612  0.9256 -3.1182 -0.2216
34512SOL     OW 6490   4.645   2.590   4.208 -0.1574 -0.2030  0.2422
34512SOL    HW1 6491   4.621   2.622   4.295 -3.0551  1.9773 -1.1561
34512SOL    HW2 6492   4.682   2.666   4.164 -0.4025 -0.7519 -0.9592
34513SOL     OW 6493   6.292   4.884   5.449  0.4631 -0.0121  0.2388
34513SOL    HW1 6494   6.276   4.880   5.355  0.9397  0.5545  0.1228
34513SOL    HW2 6495   6.207   4.903   5.488  0.0618 -1.3077  0.0194
34514SOL     OW 6496   4.128   7.354   5.452  0.1953 -0.2750  0.1561
34514SOL    HW1 6497   4.192   7.421   5.427  1.2980 -1.3824 -0.1057
34514SOL    HW2 6498   4.180   7.288   5.498 -0.7606 -1.2228 -0.1068
34515SOL     OW 6499   0.143   5.701   7.848  0.9206  0.1521  0.3494
34515SOL    HW1 6500   0.083   5.632   7.818  0.6593 -0.5288  2.3362
34515SOL    HW2 6501   0.090   5.781   7.844  0.5635 -0.0930  0.0448
34516SOL     OW 6502   6.589  10.548   0.300 -0.4011  0.4833 -0.7876
34516SOL    HW1 6503   6.582  10.636   0.337  0.6629  0.0688  0.4749
34516SOL    HW2 6504   6.677  10.519   0.323 -1.2350 -1.4968  0.2274
34517SOL     OW 6505   3.914   1.597   4.090  0.1143  0.0681 -0.2752
34517SOL    HW1 6506   3.913   1.514   4.042  0.4382  0.5972 -1.2227
34517SOL    HW2 6507   3.897   1.572   4.181 -1.0357 -0.9079 -0.7278
34518SOL     OW 6508   9.803  10.582   9.866  0.8347 -0.1814 -0.0884
34518SOL    HW1 6509   9.833  10.592   9.956  1.5284 -1.4773 -0.1549
34518SOL    HW2 6510   9.749  10.503   9.868  1.4720 -0.6463 -0.9527
34519SOL     OW 6511   1.471   6.852   1.003  0.0772 -0.3118  0.2786
34519SOL    HW1 6512   1.421   6.846   1.085 -0.0123 -0.9546  0.1862
34519SOL    HW2 6513   1.443   6.775   0.953  0.7307 -0.3613 -0.0183
34520SOL     OW 6514   2.420   4.640   3.253  0.2586 -0.0076  0.1020
34520SOL    HW1 6515   2.396   4.730   3.276 -0.2334  0.1654 -1.0568
34520SOL    HW2 6516   2.359   4.586   3.304  0.8633  0.2796  1.1674
34521SOL     OW 6517   2.655   8.845   0.573  0.1741  0.2873  0.5369
34521SOL    HW1 6518   2.635   8.925   0.526 -0.7880 -0.4223 -0.2966
34521SOL    HW2 6519   2.608   8.853   0.656 -0.5835  0.2517  0.1210
34522SOL     OW 6520   2.418   6.749   3.629 -0.2229 -0.5816  0.1468
34522SOL    HW1 6521   2.454   6.815   3.688  1.0872 -0.9029 -0.2672
34522SOL    HW2 6522   2.373   6.687   3.687 -1.4914  0.6492  0.5357
34523SOL     OW 6523   8.358   1.041   0.371 -0.0439  0.4194 -0.2057
34523SOL    HW1 6524   8.444   1.082   0.369 -0.0019  0.3380 -2.5938
34523SOL    HW2 6525   8.302   1.102   0.323 -1.7115  1.1831  2.5070
34524SOL     OW 6526   6.516   2.405   2.763  0.2034  0.6923 -0.8466
34524SOL    HW1 6527   6.513   2.500   2.778 -0.9382  0.7089 -1.1302
34524SOL    HW2 6528   6.506   2.367   2.851  0.6457  0.8298 -0.7341
34525SOL     OW 6529   5.515   2.675   2.168 -0.1382  0.0051  0.1046
34525SOL    HW1 6530   5.604   2.711   2.174  1.7310 -3.4507 -2.8289
34525SOL    HW2 6531   5.513   2.606   2.235 -0.5604 -0.0258  0.0632
34526SOL     OW 6532   9.731   3.229   1.613  0.2278 -0.5135 -0.6677
34526SOL    HW1 6533   9.750   3.140   1.585 -1.1507 -0.2653 -2.6158
34526SOL    HW2 6534   9.686   3.269   1.538  0.2900  1.6413  0.3580
34527SOL     OW 6535  10.441   1.449   0.003 -0.0422 -0.0208  0.3666
34527SOL    HW1 6536  10.386   1.440   0.081 -0.2606 -0.2719  0.1836
34527SOL    HW2 6537  10.525   1.412   0.029  0.4825  1.5625  1.0894
34528SOL     OW 6538   6.908   6.336   9.808 -0.1829  0.3327  0.0339
34528SOL    HW1 6539   6.895   6.253   9.852  1.4863 -1.0597 -1.8916
34528SOL    HW2 6540   7.000   6.357   9.824  0.1133  0.4305 -1.6351
34529SOL     OW 6541   2.134  10.289   3.672  0.2465  0.2126  0.0538
34529SOL    HW1 6542   2.146  10.302   3.578  0.2337  2.2430  0.2981
34529SOL    HW2 6543   2.041  10.303   3.686  0.4336  1.0298  0.5140
34530SOL     OW 6544   0.162   4.727   5.204  0.0954  0.1153  0.2602
34530SOL    HW1 6545   0.166   4.650   5.146  0.5899 -1.0162  1.7373
34530SOL    HW2 6546   0.085   4.776   5.174 -1.4241 -1.9820  0.4958
34531SOL     OW 6547   4.859   6.768   9.068 -0.8629  0.1514  0.4275
34531SOL    HW1 6548   4.928   6.706   9.091 -0.5042  0.1749 -0.4989
34531SOL    HW2 6549   4.786   6.714   9.039 -0.3787  0.1294 -0.8506
34532SOL     OW 6550   4.740   4.890   8.301 -0.8349  0.0925 -0.1799
34532SOL    HW1 6551   4.720   4.921   8.213  0.5005 -1.4312 -1.0896
34532SOL    HW2 6552   4.746   4.795   8.292  1.9342  0.0459  0.9178
34533SOL     OW 6553   0.299   5.066   5.976 -0.3010  0.2884  0.3042
34533SOL    HW1 6554   0.236   5.057   6.048  0.2662  1.1012  0.9167
34533SOL    HW2 6555   0.251   5.036   5.899 -1.4680  0.9094  0.7550
34534SOL     OW 6556   8.579  10.001   3.720  0.4483 -0.1250  0.4318
34534SOL    HW1 6557   8.620  10.046   3.795  1.5201 -0.2882 -0.0454
34534SOL    HW2 6558   8.652   9.978   3.663 -0.2069 -1.4195  0.0859
34535SOL     OW 6559   6.314   1.467   9.794  0.3187  0.0507  0.0626
34535SOL    HW1 6560   6.244   1.421   9.839  0.0014  0.3142 -0.1483
34535SOL    HW2 6561   6.388   1.466   9.855 -0.4122  1.2716  1.0087
34536SOL     OW 6562   5.757   6.777   2.851 -0.4163  0.0227 -0.2647
34536SOL    HW1 6563   5.712   6.697   2.879 -0.0746  0.6559  2.4324
34536SOL    HW2 6564   5.835   6.746   2.805 -0.2557 -1.2186  0.7918
34537SOL     OW 6565   8.376   2.832   2.041  0.0850  0.5212 -0.4929
34537SOL    HW1 6566   8.303   2.845   2.102  1.2869  1.5942  0.7876
34537SOL    HW2 6567   8.428   2.761   2.079  0.3639  0.5816 -0.7536
34538SOL     OW 6568   7.217   8.512   1.377  0.1688  0.0745 -0.2574
34538SOL    HW1 6569   7.230   8.492   1.284 -0.4643  2.3819 -0.9110
34538SOL    HW2 6570   7.284   8.461   1.422  0.7884 -0.7509 -2.0180
34539SOL     OW 6571   1.173   3.339   0.482  0.6568  0.1562  0.1004
34539SOL    HW1 6572   1.113   3.349   0.408  1.1985  0.5144 -0.2909
34539SOL    HW2 6573   1.260   3.331   0.443  0.8797 -0.3207  0.6682
34540SOL     OW 6574   6.276   0.984   6.704  0.3711 -0.6410 -0.1315
34540SOL    HW1 6575   6.202   0.925   6.690  0.3478 -0.9200  1.0468
34540SOL    HW2 6576   6.235   1.069   6.720  0.3567 -0.5643 -0.5557
34541SOL     OW 6577   9.947  10.638  10.115  0.3182 -0.0811  0.3000
34541SOL    HW1 6578   9.971  10.552  10.149 -2.1454 -1.8017 -1.9353
34541SOL    HW2 6579   9.891  10.676  10.183  1.4011 -0.2116  1.2916
34542SOL     OW 6580   9.653   0.358   8.174 -0.6015  0.1372  0.1242
34542SOL    HW1 6581   9.630   0.428   8.114  2.5471  1.3212  0.0927
34542SOL    HW2 6582   9.701   0.401   8.245 -0.7800 -1.6937  1.4442
34543SOL     OW 6583   6.469   5.718   8.771  0.0439  0.7796  0.2791
34543SOL    HW1 6584   6.451   5.733   8.678 -0.4916  1.9620  0.5580
34543SOL    HW2 6585   6.443   5.628   8.786  0.1408  0.5731 -0.7231
34544SOL     OW 6586   2.764   5.485   0.750 -0.2477  0.4234  0.4959
34544SOL    HW1 6587   2.804   5.511   0.666 -2.5299  0.1840 -0.7583
34544SOL    HW2 6588   2.837   5.452   0.802  1.2884  0.7271 -1.3265
34545SOL     OW 6589   4.229   9.350   4.222 -0.0233 -0.7041 -0.3290
34545SOL    HW1 6590   4.301   9.366   4.161  0.0591 -0.2111 -0.1106
34545SOL    HW2 6591   4.165   9.419   4.204  0.3038 -0.1364  0.5759
34546SOL     OW 6592   8.269   7.196   7.209  0.5388 -0.2640  0.4567
34546SOL    HW1 6593   8.212   7.211   7.285  1.2188  1.0794  0.7336
34546SOL    HW2 6594   8.357   7.202   7.245  0.8745 -1.7953 -0.0663
34547SOL     OW 6595   4.715   0.878  10.501  0.0969 -0.1675 -0.3406
34547SOL    HW1 6596   4.692   0.920  10.418 -0.4440 -1.0835 -0.6674
34547SOL    HW2 6597   4.811   0.883  10.505  0.0863  0.4463 -0.7091
34548SOL     OW 6598   3.637  10.548   7.987 -0.0653  0.4970 -0.1126
34548SOL    HW1 6599   3.705  10.602   7.950 -0.2078  0.5472 -0.3019
34548SOL    HW2 6600   3.632  10.472   7.929  0.2709  0.1833  0.2633
34549SOL     OW 6601   5.993   1.610   7.365 -0.4739  0.0546 -0.3310
34549SOL    HW1 6602   6.036   1.567   7.291  1.8768  0.4083  0.7405
34549SOL    HW2 6603   6.054   1.678   7.393 -1.4537  0.1829  1.7022
34550SOL     OW 6604   4.876   8.497   4.029 -0.2922 -0.1073  0.1123
34550SOL    HW1 6605   4.856   8.450   4.110  0.9403  0.6481  0.8828
34550SOL    HW2 6606   4.954   8.548   4.049 -0.0857  0.2736 -1.4944
34551SOL     OW 6607   2.548   0.394   5.594  0.5726  0.0299 -0.1919
34551SOL    HW1 6608   2.639   0.376   5.616  0.9294  0.4419 -1.2784
34551SOL    HW2 6609   2.550   0.425   5.503 -0.5662  0.7609  0.0053
34552SOL     OW 6610   9.003   4.039   0.405 -0.5002 -0.2170 -0.8724
34552SOL    HW1 6611   9.050   4.121   0.393 -1.4684  0.8858  1.9889
34552SOL    HW2 6612   9.061   3.972   0.369  1.5141  1.4465 -0.9037
34553SOL     OW 6613   2.157  10.509   5.065  0.5048  0.0545 -0.2780
34553SOL    HW1 6614   2.076  10.559   5.057 -0.5399 -1.2063  1.5976
34553SOL    HW2 6615   2.218  10.569   5.108 -0.5071 -0.0084  1.3159
34554SOL     OW 6616   4.646   6.082   2.705  0.5917  0.0616 -0.1433
34554SOL    HW1 6617   4.733   6.076   2.745 -0.3586 -0.7652  1.9964
34554SOL    HW2 6618   4.595   6.134   2.768 -1.1439 -1.7669  0.0644
34555SOL     OW 6619   1.086  10.314   3.483  0.2113 -0.1703 -0.0144
34555SOL    HW1 6620   1.107  10.372   3.555  0.8348  0.7568 -0.9101
34555SOL    HW2 6621   1.172  10.283   3.452 -0.0519 -0.6387 -0.2895
34556SOL     OW 6622   6.768   1.510   1.895  0.4657 -0.1506  0.2119
34556SOL    HW1 6623   6.757   1.599   1.861 -2.1843 -1.0673 -1.6170
34556SOL    HW2 6624   6.797   1.459   1.819  0.3631 -1.1734  0.8389
34557SOL     OW 6625   5.175   6.153   5.308  0.0042  0.6159  0.1781
34557SOL    HW1 6626   5.167   6.058   5.311  0.5579  0.5590 -0.0168
34557SOL    HW2 6627   5.085   6.185   5.312 -0.1853  0.0839  0.2271
34558SOL     OW 6628   2.265   3.619  10.282 -0.3516  0.5071 -0.2514
34558SOL    HW1 6629   2.213   3.560  10.228  0.7367 -0.9177  0.1671
34558SOL    HW2 6630   2.355   3.608  10.250  0.2861 -0.1872  1.5898
34559SOL     OW 6631   0.812   9.509   0.870 -0.1701  0.7083 -0.1164
34559SOL    HW1 6632   0.894   9.527   0.916  0.0972  1.0917 -0.7118
34559SOL    HW2 6633   0.836   9.513   0.777 -0.0954 -2.7681 -0.3561
34560SOL     OW 6634   9.273   9.621   0.728  0.1105 -0.0656 -0.5775
34560SOL    HW1 6635   9.267   9.567   0.650  1.6450 -1.3887  0.1534
34560SOL    HW2 6636   9.238   9.566   0.798  0.4679  0.3782 -0.0422
34561SOL     OW 6637   3.999   2.949   1.858  0.4105 -0.7786  0.1888
34561SOL    HW1 6638   3.983   2.963   1.765 -2.3872  0.2706  0.7180
34561SOL    HW2 6639   4.083   2.991   1.875 -0.6620  2.2426 -1.2519
34562SOL     OW 6640   3.094   0.445   1.824 -0.6945 -0.2538  0.2275
34562SOL    HW1 6641   3.031   0.380   1.794 -1.6054  1.1749 -1.1696
34562SOL    HW2 6642   3.050   0.529   1.810  1.1954  0.7570 -0.0170
34563SOL     OW 6643   0.074   6.879   3.916 -0.4621 -0.3795 -0.4460
34563SOL    HW1 6644   0.027   6.810   3.963 -1.2641  0.1884 -0.3875
34563SOL    HW2 6645   0.090   6.842   3.829 -1.9279 -0.2388 -0.8036
34564SOL     OW 6646   1.530   8.679   7.100 -0.3989 -0.0495  0.0831
34564SOL    HW1 6647   1.521   8.692   7.194  1.4732 -1.4568  0.5126
34564SOL    HW2 6648   1.582   8.754   7.070  0.3799 -0.4166  0.4793
34565SOL     OW 6649   1.865   0.992   5.296  0.5039  0.7715  0.0500
34565SOL    HW1 6650   1.859   0.996   5.391  1.1905  0.0958  0.1359
34565SOL    HW2 6651   1.777   0.971   5.266  0.3766  0.5642  0.5669
34566SOL     OW 6652   2.314   1.327   8.775  0.6433  0.3146  0.4960
34566SOL    HW1 6653   2.320   1.414   8.814  1.8746  0.0611  0.9034
34566SOL    HW2 6654   2.404   1.297   8.768  0.2312 -0.9963  0.5069
34567SOL     OW 6655   4.692   5.302   2.850  0.1113 -0.5325  0.0253
34567SOL    HW1 6656   4.753   5.376   2.850  0.2855 -0.6528  1.3432
34567SOL    HW2 6657   4.649   5.306   2.935 -0.1778 -1.7061 -0.0448
34568SOL     OW 6658   8.687   8.828   6.660 -0.2521 -0.1824 -0.1031
34568SOL    HW1 6659   8.710   8.796   6.747  1.6525 -0.8820 -0.8183
34568SOL    HW2 6660   8.591   8.821   6.657 -0.6904  2.2820  2.8265
34569SOL     OW 6661   6.717   9.074  10.207  0.0497  0.2413 -0.2064
34569SOL    HW1 6662   6.776   9.146  10.230 -1.1138  0.6134  1.8697
34569SOL    HW2 6663   6.655   9.113  10.145 -0.5440  1.0651  0.8711
34570SOL     OW 6664   8.397   9.351   4.967 -0.1524  0.2077 -0.3885
34570SOL    HW1 6665   8.381   9.428   4.913 -2.1442 -2.1137 -3.5662
34570SOL    HW2 6666   8.320   9.345   5.024 -1.4607 -0.7357 -2.1152
34571SOL     OW 6667   3.659   8.245   6.964  0.3970  0.0657  0.0491
34571SOL    HW1 6668   3.636   8.338   6.965  1.7094  0.4173 -0.5268
34571SOL    HW2 6669   3.716   8.233   7.040  0.7832 -0.1048 -0.2629
34572SOL     OW 6670   5.262   1.367   9.408  0.4388 -0.3437  0.0489
34572SOL    HW1 6671   5.208   1.315   9.349  0.4220  1.5248 -1.6959
34572SOL    HW2 6672   5.236   1.339   9.496 -2.8496 -0.0797 -0.7107
34573SOL     OW 6673   4.866   1.764   6.462  0.0278  0.2784  0.4958
34573SOL    HW1 6674   4.871   1.696   6.395 -2.2076 -0.3006  0.8332
34573SOL    HW2 6675   4.886   1.718   6.544  0.8359  0.5734  0.4780
34574SOL     OW 6676   7.728   3.468   6.780  0.0224  0.3731 -0.2407
34574SOL    HW1 6677   7.670   3.455   6.705  0.1047  0.1684 -0.2707
34574SOL    HW2 6678   7.674   3.447   6.857 -0.0422  0.5164 -0.2472
34575SOL     OW 6679   1.181   1.251   3.011  0.3691 -0.1925 -0.5361
34575SOL    HW1 6680   1.102   1.305   3.020  1.5264  1.5263 -0.2041
34575SOL    HW2 6681   1.223   1.256   3.098  0.9752 -0.8614 -0.7818
34576SOL     OW 6682   9.512   9.210   9.800 -0.0010 -0.7847 -0.2415
34576SOL    HW1 6683   9.453   9.135   9.797 -0.7809 -0.1632 -1.7614
34576SOL    HW2 6684   9.593   9.178   9.762  0.3107 -1.3579  0.8758
34577SOL     OW 6685   6.400   8.356   1.680 -0.7634 -0.4418 -0.7342
34577SOL    HW1 6686   6.431   8.269   1.704  0.4785  0.2228  0.1502
34577SOL    HW2 6687   6.331   8.339   1.616 -1.0456 -2.1028 -0.0603
34578SOL     OW 6688  10.396   1.029   7.968  0.5587  0.0273 -0.1929
34578SOL    HW1 6689  10.307   1.005   7.993  0.0933  0.3311 -1.4484
34578SOL    HW2 6690  10.387   1.118   7.933  1.3672  0.0867 -0.2602
34579SOL     OW 6691   3.799   5.619   6.682 -0.1911 -0.4898  0.1122
34579SOL    HW1 6692   3.851   5.573   6.748  0.9163 -0.5387 -0.7712
34579SOL    HW2 6693   3.806   5.711   6.706 -1.2828 -0.6350  1.0845
34580SOL     OW 6694   1.994   9.674   9.688  0.5675 -0.2898 -0.5937
34580SOL    HW1 6695   2.058   9.610   9.656 -0.2950 -0.3350 -2.3081
34580SOL    HW2 6696   1.985   9.653   9.781  2.4238 -0.7980 -0.4754
34581SOL     OW 6697   0.087   4.039   0.211  0.0492  0.2366  0.2152
34581SOL    HW1 6698   0.132   4.025   0.294  0.7941  1.3121  0.0198
34581SOL    HW2 6699   0.129   3.978   0.150  1.0803  1.0242  0.1054
34582SOL     OW 6700   4.279   3.926   3.741  0.5545 -0.6624 -0.5340
34582SOL    HW1 6701   4.283   3.963   3.829 -0.3274 -0.0595 -0.7331
34582SOL    HW2 6702   4.195   3.957   3.705  1.3838  0.0442 -1.9805
34583SOL     OW 6703   7.025   5.043   3.138 -0.5640 -0.4954  0.6638
34583SOL    HW1 6704   7.041   5.030   3.232  0.4367 -2.3810  0.2842
34583SOL    HW2 6705   7.078   4.976   3.095 -2.7497 -1.1944 -1.1498
34584SOL     OW 6706  10.050   0.487   9.253  0.6833 -0.6988 -0.0808
34584SOL    HW1 6707  10.016   0.489   9.164  1.2364 -2.5947 -0.3967
34584SOL    HW2 6708  10.016   0.405   9.291  0.2911  0.1630  1.5262
34585SOL     OW 6709   7.951   5.569   5.224  0.3283  0.2334 -0.0345
34585SOL    HW1 6710   8.002   5.645   5.195  1.2346 -1.1446 -2.2619
34585SOL    HW2 6711   8.015   5.514   5.269 -0.2532  0.5457  1.2455
34586SOL     OW 6712   3.912   1.956   0.738  0.2483  0.2241  0.1440
34586SOL    HW1 6713   3.843   1.962   0.804  0.8576 -0.5315  0.8643
34586SOL    HW2 6714   3.865   1.967   0.655 -0.8648 -0.8745  0.5775
34587SOL     OW 6715   9.633   3.878   7.836  0.3219 -0.5146  0.6335
34587SOL    HW1 6716   9.546   3.859   7.799 -0.1148 -0.1052  1.4254
34587SOL    HW2 6717   9.658   3.961   7.794  0.3744 -0.6756  0.3396
34588SOL     OW 6718   0.273   9.167  10.046 -0.7407 -0.5880 -0.5506
34588SOL    HW1 6719   0.281   9.169  10.142 -0.6710 -2.2906 -0.4870
34588SOL    HW2 6720   0.279   9.258  10.020  1.0324 -0.2071  0.9363
34589SOL     OW 6721   0.169   9.482   6.995  0.7532  0.1654 -0.1140
34589SOL    HW1 6722   0.210   9.561   6.960  2.5947 -0.6899  0.0381
34589SOL    HW2 6723   0.140   9.508   7.083  1.8265  0.5228  0.1408
34590SOL     OW 6724   0.495  10.598   8.058  0.2255 -0.2855 -0.2019
34590SOL    HW1 6725   0.476  10.555   8.141 -0.5738  1.1170  0.3918
34590SOL    HW2 6726   0.452  10.543   7.992  1.9020 -2.0781  0.1344
34591SOL     OW 6727   8.556   3.273   0.313 -0.2917  0.1339 -0.1935
34591SOL    HW1 6728   8.602   3.357   0.321  1.2645 -0.5420 -1.4255
34591SOL    HW2 6729   8.532   3.268   0.220  0.0601 -0.9786 -0.2384
34592SOL     OW 6730  10.642   7.971   4.935 -0.9420 -0.2770  0.1324
34592SOL    HW1 6731  10.552   7.986   4.963 -0.5052  1.4878  0.7497
34592SOL    HW2 6732  10.688   7.943   5.014 -1.0937 -2.0486 -0.3664
34593SOL     OW 6733   3.609   3.673   6.164 -0.0462  0.3453 -0.6139
34593SOL    HW1 6734   3.555   3.727   6.107 -3.6282 -2.4624 -0.2186
34593SOL    HW2 6735   3.679   3.641   6.107 -0.7180  1.4198 -2.1179
34594SOL     OW 6736   1.190   6.919   9.394 -0.1583  0.4206  0.9581
34594SOL    HW1 6737   1.271   6.868   9.399 -0.7107 -0.4940  0.6705
34594SOL    HW2 6738   1.128   6.872   9.449 -0.5532  1.0321  1.0454
34595SOL     OW 6739   3.423  10.667   5.257 -0.0639 -0.1640 -0.6116
34595SOL    HW1 6740   3.498  10.624   5.217  0.4981 -1.9600  2.1346
34595SOL    HW2 6741   3.353  10.658   5.192  1.3851 -0.7663 -2.1563
34596SOL     OW 6742   6.321   5.267   5.030 -0.0307 -0.1885 -0.0896
34596SOL    HW1 6743   6.316   5.362   5.016 -0.3877 -0.5593 -3.2504
34596SOL    HW2 6744   6.413   5.249   5.046  0.1157  0.6393  0.0339
34597SOL     OW 6745   4.619   9.649   6.239  0.7355 -0.0648 -0.3156
34597SOL    HW1 6746   4.640   9.583   6.304  1.7571 -0.0962 -0.6688
34597SOL    HW2 6747   4.668   9.623   6.161 -2.2952 -1.4384 -1.9621
34598SOL     OW 6748   1.002   3.790   5.789 -0.3683 -0.1968 -0.2030
34598SOL    HW1 6749   0.955   3.854   5.735 -1.2592  0.5766  1.4064
34598SOL    HW2 6750   1.006   3.830   5.876 -0.0172 -1.8773  0.6006
34599SOL     OW 6751   6.232   6.629   1.334 -0.1817  0.0626 -0.0668
34599SOL    HW1 6752   6.306   6.571   1.351  0.0326 -0.2687 -1.8851
34599SOL    HW2 6753   6.165   6.572   1.296 -0.7382  0.6413  0.0295
34600SOL     OW 6754   9.146   7.363   2.350  0.1252  0.3945  0.3369
34600SOL    HW1 6755   9.121   7.295   2.412  0.9151  1.2450  1.6542
34600SOL    HW2 6756   9.241   7.354   2.341  0.3522  1.7371  1.0965
34601SOL     OW 6757   6.936   2.673   8.537 -0.0977  0.1219 -0.0150
34601SOL    HW1 6758   6.927   2.579   8.554 -0.5822  0.3015  0.7899
34601SOL    HW2 6759   6.862   2.695   8.481 -0.6182  0.2182  0.6906
34602SOL     OW 6760   2.729   7.329   6.580 -0.4535  0.1007  0.3358
34602SOL    HW1 6761   2.637   7.349   6.564 -0.7082 -1.5157 -0.4742
34602SOL    HW2 6762   2.732   7.233   6.586  1.5377 -0.1499 -2.5052
34603SOL     OW 6763   1.900   0.675   8.935 -0.7238  0.0927 -0.0097
34603SOL    HW1 6764   1.903   0.605   9.000 -1.5075  0.8910  0.9318
34603SOL    HW2 6765   1.849   0.745   8.978  0.8899  1.6422 -0.4901
34604SOL     OW 6766   1.647   1.050   4.137  0.3145 -0.4198  0.0268
34604SOL    HW1 6767   1.579   1.041   4.203 -2.5830  0.7821 -2.5486
34604SOL    HW2 6768   1.674   1.142   4.141 -1.7093  0.3540 -1.9284
34605SOL     OW 6769   0.943   8.117   9.999  0.7918  0.0119 -0.1362
34605SOL    HW1 6770   1.026   8.130  10.045  1.4357  0.4092 -1.3346
34605SOL    HW2 6771   0.876   8.117  10.067  1.9172 -1.9714  1.0291
34606SOL     OW 6772   2.773   9.131   7.746 -0.6110  0.3597  0.3432
34606SOL    HW1 6773   2.776   9.226   7.744  2.2503  0.3396 -0.7126
34606SOL    HW2 6774   2.782   9.108   7.838  0.2428  1.1234  0.4648
34607SOL     OW 6775   5.361   9.245   5.022 -0.8855  0.2538  0.1612
34607SOL    HW1 6776   5.307   9.248   5.101 -3.3708 -0.1009 -1.3916
34607SOL    HW2 6777   5.320   9.308   4.963  0.5012  0.0534 -1.0843
34608SOL     OW 6778   0.126   4.163   0.868  0.6221 -0.4027 -0.3612
34608SOL    HW1 6779   0.112   4.210   0.950  2.0707 -0.1247 -0.2435
34608SOL    HW2 6780   0.090   4.221   0.801  1.6937  0.5717 -0.1363
34609SOL     OW 6781   2.122   2.798   4.347  0.1362 -0.2011 -0.0386
34609SOL    HW1 6782   2.090   2.730   4.406  0.3686  0.9174  1.4236
34609SOL    HW2 6783   2.213   2.775   4.330  0.1147 -0.4354  0.1614
34610SOL     OW 6784  10.584   0.612   9.309 -0.2051 -0.2122 -0.2155
34610SOL    HW1 6785  10.492   0.622   9.284 -0.4959 -0.8391  0.5636
34610SOL    HW2 6786  10.606   0.696   9.351 -0.4102 -0.0453 -0.4378
34611SOL     OW 6787   6.846   1.434   7.848  0.1336 -0.0937  0.2086
34611SOL    HW1 6788   6.795   1.431   7.767  0.6665 -0.7800 -0.1166
34611SOL    HW2 6789   6.904   1.357   7.843  0.6658  0.2458  0.9153
34612SOL     OW 6790   5.949   4.833   9.230 -0.0413 -0.3089 -0.0681
34612SOL    HW1 6791   5.909   4.846   9.144 -0.4417 -1.6918 -0.1181
34612SOL    HW2 6792   5.879   4.796   9.283  0.0570  0.9956  1.0256
34613SOL     OW 6793   7.349   7.165   4.694 -0.5342  0.5440  0.2161
34613SOL    HW1 6794   7.440   7.190   4.679 -0.5497 -0.2645 -1.5715
34613SOL    HW2 6795   7.330   7.100   4.625 -1.4682 -1.8838  2.5711
34614SOL     OW 6796   1.299   2.062   8.824 -0.1952  0.0539  0.5806
34614SOL    HW1 6797   1.326   2.138   8.772  0.7538  0.3148  1.4305
34614SOL    HW2 6798   1.244   2.011   8.764  1.8290 -0.2827 -1.1045
34615SOL     OW 6799   9.599   7.223   4.234 -0.4050  0.0902  0.0068
34615SOL    HW1 6800   9.605   7.313   4.264 -1.5491 -0.3486  1.7214
34615SOL    HW2 6801   9.669   7.177   4.282 -0.6781 -0.1722  0.1601
34616SOL     OW 6802  10.369   1.037   9.251  0.2722  0.1806  0.1539
34616SOL    HW1 6803  10.434   0.992   9.305  0.2347  0.9770  0.8931
34616SOL    HW2 6804  10.295   1.051   9.310  0.4869  1.6657  0.1077
34617SOL     OW 6805   8.457   3.745   6.849 -0.1093 -0.1220  0.0972
34617SOL    HW1 6806   8.511   3.767   6.924 -0.9294  1.3151  0.2921
34617SOL    HW2 6807   8.506   3.675   6.804  0.4457 -0.9352  1.8670
34618SOL     OW 6808   8.235   5.569   9.496 -0.1101 -0.3551  0.1102
34618SOL    HW1 6809   8.213   5.661   9.478  1.2091 -0.0796 -0.1829
34618SOL    HW2 6810   8.262   5.568   9.588  1.0673 -0.1889 -0.2129
34619SOL     OW 6811   9.807   0.996   5.072  0.2779  0.4961  0.0117
34619SOL    HW1 6812   9.750   0.933   5.027 -0.1505  0.4485  0.5965
34619SOL    HW2 6813   9.781   1.081   5.037  1.8653  0.2726 -1.8653
34620SOL     OW 6814   6.917   3.206   0.565 -0.0609  0.0771 -0.3809
34620SOL    HW1 6815   6.995   3.251   0.532  2.0636 -1.7527  1.8293
34620SOL    HW2 6816   6.910   3.234   0.656 -2.0430  0.1629 -0.5119
34621SOL     OW 6817   2.700   0.528   0.817  0.5709  0.1184  0.1640
34621SOL    HW1 6818   2.779   0.580   0.829 -0.1742  1.0926  1.1575
34621SOL    HW2 6819   2.633   0.576   0.865 -0.4050 -1.2138  0.1911
34622SOL     OW 6820   2.352   3.499   3.707  0.6036 -0.2030 -0.2621
34622SOL    HW1 6821   2.314   3.577   3.745  2.2620  0.8691 -0.6821
34622SOL    HW2 6822   2.297   3.480   3.631  1.1438  1.5968 -1.1582
34623SOL     OW 6823   4.916   2.232   2.091  0.6813 -0.0734  0.2611
34623SOL    HW1 6824   4.969   2.312   2.086  2.1274 -1.0535 -0.6241
34623SOL    HW2 6825   4.957   2.172   2.030 -1.5041 -0.8922 -0.4905
34624SOL     OW 6826   5.512   7.368   4.929  0.0275  0.2767 -0.5824
34624SOL    HW1 6827   5.580   7.301   4.938 -2.9945 -2.9233  0.8744
34624SOL    HW2 6828   5.431   7.319   4.919 -2.4823  3.7606  0.6071
34625SOL     OW 6829   7.908   0.270   2.194 -0.5581  0.1417  0.1005
34625SOL    HW1 6830   7.965   0.194   2.179  0.1554  0.8787 -1.0695
34625SOL    HW2 6831   7.960   0.327   2.251 -0.3239  0.6037 -0.5781
34626SOL     OW 6832   6.155   9.825   7.034 -0.3486  0.9715 -0.0332
34626SOL    HW1 6833   6.075   9.784   7.067 -0.0794 -0.1382 -0.7345
34626SOL    HW2 6834   6.164   9.904   7.087 -1.6636  0.8800  0.3585
34627SOL     OW 6835   7.968   3.815   0.780  0.0757 -0.5710 -0.5720
34627SOL    HW1 6836   7.875   3.828   0.799  0.0923 -0.8273 -0.3043
34627SOL    HW2 6837   7.970   3.764   0.700 -0.0416 -1.8281  0.2094
34628SOL     OW 6838   6.287   4.822   2.877  0.3132 -0.3593  0.6898
34628SOL    HW1 6839   6.309   4.764   2.805  1.5539  1.7523 -0.7490
34628SOL    HW2 6840   6.192   4.814   2.887 -0.4382  1.4865 -3.2873
34629SOL     OW 6841  10.495   1.444   5.331  0.6474  0.7510 -0.2776
34629SOL    HW1 6842  10.525   1.446   5.422  2.2955  0.5064 -0.7907
34629SOL    HW2 6843  10.457   1.531   5.317  3.0029  1.8683 -0.1668
34630SOL     OW 6844  10.605  10.199   7.086  0.4194  0.0981 -0.3630
34630SOL    HW1 6845  10.681  10.213   7.030 -0.4322 -2.0759 -2.2344
34630SOL    HW2 6846  10.613  10.109   7.117 -0.5029  0.4080  0.8839
34631SOL     OW 6847   4.255   7.315   6.205 -0.3023 -0.5064  0.1242
34631SOL    HW1 6848   4.318   7.295   6.136 -1.7077 -0.4204 -1.2343
34631SOL    HW2 6849   4.307   7.356   6.274  1.0306  0.0530 -1.1692
34632SOL     OW 6850   6.485   4.384   4.963 -0.0306 -0.2468 -0.4235
34632SOL    HW1 6851   6.414   4.422   4.912 -0.1960 -0.3328 -0.2584
34632SOL    HW2 6852   6.442   4.342   5.038  0.2181 -0.0376 -0.1603
34633SOL     OW 6853   9.852   7.038   2.356  0.1495  0.2326 -0.3370
34633SOL    HW1 6854   9.774   7.028   2.302  0.1230  1.9775 -0.6629
34633SOL    HW2 6855   9.876   6.948   2.381 -1.6918 -0.3577 -0.5841
34634SOL     OW 6856   4.235   3.467   0.592 -0.2113  0.3577  0.1148
34634SOL    HW1 6857   4.215   3.552   0.633  0.1374  0.6904 -0.3908
34634SOL    HW2 6858   4.149   3.425   0.582 -0.6014  1.4247 -1.2889
34635SOL     OW 6859   2.154   2.147   7.593  0.3520 -0.1192 -0.2049
34635SOL    HW1 6860   2.181   2.055   7.586 -0.1859 -0.1639 -3.1532
34635SOL    HW2 6861   2.236   2.195   7.606  0.6398 -0.9659  1.3745
34636SOL     OW 6862   8.264  10.320   8.848 -0.0862  0.2796  0.2003
34636SOL    HW1 6863   8.192  10.280   8.897 -2.2232  3.0946 -0.3709
34636SOL    HW2 6864   8.268  10.270   8.767 -0.9079 -0.4116  0.5645
34637SOL     OW 6865   5.780   7.094   2.106 -0.2037 -0.2854 -0.2385
34637SOL    HW1 6866   5.720   7.105   2.033 -0.7607  0.4729  0.3196
34637SOL    HW2 6867   5.727   7.110   2.184  0.9012  1.3148  0.2284
34638SOL     OW 6868   0.919   5.441   0.636  0.2950  0.4524  0.0144
34638SOL    HW1 6869   0.861   5.368   0.659  1.8254 -1.2429 -1.1714
34638SOL    HW2 6870   0.992   5.399   0.592  0.8398  2.8327 -1.4910
34639SOL     OW 6871   7.067   2.120   3.895 -0.4320 -0.3437  0.0441
34639SOL    HW1 6872   7.161   2.134   3.891 -0.4258  0.6502  2.1443
34639SOL    HW2 6873   7.057   2.025   3.905  0.5547 -0.2844  2.2651
34640SOL     OW 6874   1.964   5.645   0.763  0.1149  0.4084 -0.1305
34640SOL    HW1 6875   1.913   5.659   0.842  0.9442 -0.5087  0.5921
34640SOL    HW2 6876   2.046   5.606   0.793  0.6359  0.4453 -1.4005
34641SOL     OW 6877   3.176   7.484   1.130  0.6096 -0.0462  0.0628
34641SOL    HW1 6878   3.174   7.580   1.132  0.1920  0.0705 -2.2788
34641SOL    HW2 6879   3.251   7.463   1.074 -0.1534 -1.0226 -0.6223
34642SOL     OW 6880   4.749   4.983   3.704  0.7690 -0.4215 -0.0907
34642SOL    HW1 6881   4.751   4.887   3.694 -0.7467 -0.4685 -0.2121
34642SOL    HW2 6882   4.718   4.997   3.793  0.0079 -0.0626 -0.4001
34643SOL     OW 6883   8.083   7.508   7.226  0.2665  0.4956  0.1090
34643SOL    HW1 6884   7.994   7.505   7.192  0.6690 -0.5581 -0.9171
34643SOL    HW2 6885   8.074   7.549   7.312 -1.3590 -0.5477  0.4879
34644SOL     OW 6886   4.425  10.353   5.741  0.6182 -0.2021  0.6734
34644SOL    HW1 6887   4.358  10.303   5.788 -1.1797  1.3000 -0.1772
34644SOL    HW2 6888   4.427  10.438   5.785  0.6687  0.3647 -0.3934
34645SOL     OW 6889   8.149   2.284   8.295 -0.3941 -0.7492 -0.6727
34645SOL    HW1 6890   8.089   2.227   8.248  1.2620 -1.0152 -2.6277
34645SOL    HW2 6891   8.229   2.231   8.305  0.3638  0.4161 -0.3579
34646SOL     OW 6892   7.996   4.323   3.082 -0.1737 -0.2852  0.1699
34646SOL    HW1 6893   8.067   4.312   3.018 -1.2156  0.8231 -1.2646
34646SOL    HW2 6894   8.039   4.356   3.160  1.0523 -0.8702 -0.2260
34647SOL     OW 6895   7.250   3.239   6.370 -0.0649 -0.1636  0.2703
34647SOL    HW1 6896   7.237   3.323   6.325 -0.3263 -0.0294  0.5916
34647SOL    HW2 6897   7.344   3.223   6.364 -0.0808 -0.1031 -0.2417
34648SOL     OW 6898   4.255   1.755   4.049  0.0329  0.5815  0.5688
34648SOL    HW1 6899   4.243   1.684   4.111 -0.3171 -0.4695 -0.6620
34648SOL    HW2 6900   4.346   1.782   4.060  0.8174 -1.4978 -0.3971
34649SOL     OW 6901   9.291  10.462  10.254 -0.1553 -0.0067 -0.3148
34649SOL    HW1 6902   9.257  10.491  10.338  0.1679  0.4775 -0.3469
34649SOL    HW2 6903   9.227  10.494  10.190 -0.2573 -0.1347 -0.2766
34650SOL     OW 6904   0.954   3.799   4.773  0.4314  0.3855 -0.7574
34650SOL    HW1 6905   1.008   3.839   4.841  0.6228  0.5499 -1.0060
34650SOL    HW2 6906   0.864   3.823   4.796  0.3767 -0.5694  0.1199
34651SOL     OW 6907   6.855   8.238   7.489 -0.7472 -0.2581 -0.1363
34651SOL    HW1 6908   6.832   8.200   7.574  0.7545 -1.7172 -0.3269
34651SOL    HW2 6909   6.916   8.175   7.450  1.7912  2.2291 -0.5574
34652SOL     OW 6910   4.492   0.171   8.596  0.2117 -0.1295 -0.0989
34652SOL    HW1 6911   4.546   0.248   8.618  1.1755 -0.1316 -2.1715
34652SOL    HW2 6912   4.453   0.145   8.679  2.1709  0.8497  1.2273
34653SOL     OW 6913   9.149   8.680   8.149 -0.0540 -0.5800  0.2738
34653SOL    HW1 6914   9.225   8.643   8.105 -0.4635  0.5488 -1.4649
34653SOL    HW2 6915   9.087   8.608   8.156 -0.0596 -0.7361 -1.2347
34654SOL     OW 6916   1.602   4.559   9.150  0.2324 -0.9022 -0.3427
34654SOL    HW1 6917   1.643   4.636   9.111  1.1595 -1.2673 -0.1146
34654SOL    HW2 6918   1.513   4.558   9.114  0.5644 -0.3586 -1.2075
34655SOL     OW 6919   8.596   1.550   7.892  0.1931  0.2960 -0.1684
34655SOL    HW1 6920   8.598   1.515   7.803  1.2370  0.0081 -0.0407
34655SOL    HW2 6921   8.670   1.610   7.896 -0.3909  1.0076  0.2341
34656SOL     OW 6922   0.064   0.730   2.263 -0.3013  0.3464  0.4352
34656SOL    HW1 6923   0.124   0.679   2.317 -0.2704 -0.1081 -0.0096
34656SOL    HW2 6924  -0.013   0.744   2.318 -2.4436 -4.3517 -0.8223
34657SOL     OW 6925   9.216   7.861   8.278 -0.2569 -0.0756 -0.1379
34657SOL    HW1 6926   9.245   7.893   8.363  0.7024  1.1358 -0.8835
34657SOL    HW2 6927   9.253   7.774   8.271 -0.5574 -0.2861  0.7843
34658SOL     OW 6928   8.942   6.848   7.909 -0.5499 -0.4342 -0.0821
34658SOL    HW1 6929   8.897   6.926   7.875 -2.1633 -1.1910  0.2450
34658SOL    HW2 6930   8.921   6.846   8.002 -0.3080 -1.1340 -0.0379
34659SOL     OW 6931   8.414   0.353   6.851 -0.3571  0.1422  0.6802
34659SOL    HW1 6932   8.357   0.349   6.928 -2.1977  0.0373 -0.6034
34659SOL    HW2 6933   8.479   0.420   6.873 -0.7562  0.0378  2.3518
34660SOL     OW 6934   0.272   6.879   1.398  0.3405 -0.4151  0.4784
34660SOL    HW1 6935   0.180   6.904   1.407  0.0065 -1.0661 -0.8143
34660SOL    HW2 6936   0.293   6.835   1.480 -0.7136 -0.8645  0.5234
34661SOL     OW 6937   5.673   7.219   0.178 -0.1796 -0.8984 -0.0532
34661SOL    HW1 6938   5.721   7.300   0.158  0.0901 -0.9238  0.4736
34661SOL    HW2 6939   5.738   7.149   0.167 -0.4847 -1.0758 -0.7836
34662SOL     OW 6940   0.858   5.576  10.189  0.0626 -0.2039  0.2580
34662SOL    HW1 6941   0.953   5.566  10.177  0.1751 -0.4639  1.2442
34662SOL    HW2 6942   0.844   5.557  10.282 -0.7846  1.1778  0.4363
34663SOL     OW 6943   6.334   7.224   5.712 -0.0552  0.3030  0.1840
34663SOL    HW1 6944   6.388   7.294   5.748 -1.2420  1.8449 -0.8747
34663SOL    HW2 6945   6.275   7.200   5.784 -0.5410  1.3809  0.1703
34664SOL     OW 6946   4.187   8.508   0.859 -0.5839 -0.4968  0.5797
34664SOL    HW1 6947   4.145   8.423   0.866  1.1187 -1.3925  0.6205
34664SOL    HW2 6948   4.141   8.552   0.788 -1.3442 -1.5439  0.4010
34665SOL     OW 6949  10.179   8.908   3.845 -0.3719  0.0313 -0.3483
34665SOL    HW1 6950  10.223   8.930   3.927  0.9245  1.8826 -1.4759
34665SOL    HW2 6951  10.090   8.944   3.855  0.0889  1.1364 -0.1309
34666SOL     OW 6952  10.612   0.665  10.125  0.0227  0.0084  0.2434
34666SOL    HW1 6953  10.618   0.652  10.220 -0.3225  3.3738  0.8847
34666SOL    HW2 6954  10.520   0.688  10.111  0.1900  0.0565 -0.8179
34667SOL     OW 6955  10.129   1.224   8.899 -0.4300 -0.1579  0.4235
34667SOL    HW1 6956  10.096   1.304   8.858  1.4755 -0.1756 -1.2879
34667SOL    HW2 6957  10.194   1.255   8.963 -0.7771 -0.2914  0.8472
34668SOL     OW 6958   4.194   4.303   5.786 -0.1356 -0.1616 -0.0461
34668SOL    HW1 6959   4.268   4.363   5.794  0.7140 -1.2520  0.5451
34668SOL    HW2 6960   4.172   4.279   5.876 -1.3843  0.3428 -0.2017
34669SOL     OW 6961  10.115   9.981   3.151  0.1399  0.0520  0.4005
34669SOL    HW1 6962  10.098   9.905   3.096  0.5855 -0.1871  0.5877
34669SOL    HW2 6963  10.190  10.024   3.109  0.2316  0.0867  0.6030
34670SOL     OW 6964   8.311   6.720   9.595  0.3906 -0.2234 -0.6413
34670SOL    HW1 6965   8.367   6.692   9.523  0.9944  0.7381 -0.5566
34670SOL    HW2 6966   8.331   6.658   9.666 -0.2124 -1.1758 -1.2782
34671SOL     OW 6967   4.299   6.130   0.776  0.6552 -0.2114  0.2524
34671SOL    HW1 6968   4.388   6.162   0.769 -0.3003  2.4847 -1.0251
34671SOL    HW2 6969   4.271   6.114   0.686 -0.8119  1.2475  0.3773
34672SOL     OW 6970   9.782   4.832   1.505 -0.0396  0.0826 -0.1075
34672SOL    HW1 6971   9.746   4.912   1.468 -0.3359  0.0614  0.1350
34672SOL    HW2 6972   9.742   4.826   1.592 -0.3391 -0.5515 -0.2895
34673SOL     OW 6973   0.892   3.783   8.775  0.3521 -0.2466 -0.2425
34673SOL    HW1 6974   0.918   3.703   8.730  0.8444 -0.4636  0.3998
34673SOL    HW2 6975   0.951   3.850   8.742  0.6187 -0.3754 -0.0370
34674SOL     OW 6976   0.926   5.031   5.695  0.6579  0.0029  0.4827
34674SOL    HW1 6977   0.957   4.947   5.729 -0.3276 -0.7720 -0.4354
34674SOL    HW2 6978   0.858   5.058   5.756  2.0070  0.9309  1.6328
34675SOL     OW 6979   7.919   4.010   1.025  0.1953 -0.6410 -0.2189
34675SOL    HW1 6980   7.840   4.051   0.990 -0.5217 -2.5234 -0.9525
34675SOL    HW2 6981   7.892   3.921   1.046  1.4123 -0.4982  2.2993
34676SOL     OW 6982   3.587   9.796   7.556 -0.3085 -0.7765 -0.1379
34676SOL    HW1 6983   3.584   9.884   7.592 -2.0011 -0.2626 -1.3728
34676SOL    HW2 6984   3.677   9.784   7.528 -0.1478  0.7531 -0.3518
34677SOL     OW 6985   4.180   4.473   9.472  0.1921 -0.3472  0.1729
34677SOL    HW1 6986   4.160   4.540   9.407  2.2085  1.5415  1.3755
34677SOL    HW2 6987   4.102   4.468   9.526 -1.6910 -2.2352 -2.4659
34678SOL     OW 6988  10.155   6.953   9.548 -0.7263 -0.1311  0.7371
34678SOL    HW1 6989  10.112   6.896   9.611 -1.6648  0.2588  0.4794
34678SOL    HW2 6990  10.132   6.916   9.462  0.1262 -0.3722  0.6026
34679SOL     OW 6991   3.284   4.819   5.765 -0.0460  0.4498  0.4534
34679SOL    HW1 6992   3.269   4.726   5.779  1.8628 -0.0457 -0.4598
34679SOL    HW2 6993   3.207   4.850   5.718  0.0436 -1.0474 -0.7276
34680SOL     OW 6994   6.329   3.663   7.863 -0.3423  0.3932  0.0794
34680SOL    HW1 6995   6.243   3.703   7.863 -0.1947  0.7092  0.1624
34680SOL    HW2 6996   6.312   3.571   7.842 -0.6308  0.5986 -0.6120
34681SOL     OW 6997   3.362   2.180  10.229 -0.0866  0.3497 -0.3378
34681SOL    HW1 6998   3.375   2.253  10.170 -0.9815  1.2430  0.5377
34681SOL    HW2 6999   3.398   2.210  10.313 -2.3087  0.6305  0.5875
34682SOL     OW 7000   2.873   8.143   1.364  0.2199  0.3416  0.9134
34682SOL    HW1 7001   2.874   8.191   1.447 -1.0188  0.4680  0.8623
34682SOL    HW2 7002   2.818   8.067   1.381  1.1729 -0.4410  0.6260
34683SOL     OW 7003   5.610  10.583   7.909 -0.3644  0.1033 -0.4789
34683SOL    HW1 7004   5.587  10.649   7.844 -1.1128  1.8497  1.4407
34683SOL    HW2 7005   5.605  10.629   7.993 -1.0615 -2.4270  0.9903
34684SOL     OW 7006   8.644   6.885   0.833  0.3341 -0.4253  0.4933
34684SOL    HW1 7007   8.647   6.950   0.904  0.3637 -1.2553  1.2713
34684SOL    HW2 7008   8.724   6.833   0.845  0.1328 -0.8349  0.0975
34685SOL     OW 7009   5.884   2.599   3.514 -0.4332  0.2682  0.0770
34685SOL    HW1 7010   5.912   2.659   3.444  0.1608 -0.1245 -0.0276
34685SOL    HW2 7011   5.857   2.657   3.585  0.8708  0.6808  0.2645
34686SOL     OW 7012   2.331   1.919   7.677 -0.4592  1.0738  0.2093
34686SOL    HW1 7013   2.340   1.873   7.761  2.3621  2.0928  0.5557
34686SOL    HW2 7014   2.416   1.908   7.634 -0.8752  3.0174 -1.2294
34687SOL     OW 7015   2.802   4.052   4.004 -0.0915 -0.1958  1.0849
34687SOL    HW1 7016   2.873   4.115   3.996 -0.7725  0.6097  1.3188
34687SOL    HW2 7017   2.840   3.969   3.973  1.1761  0.0401  1.9500
34688SOL     OW 7018   9.070   7.559   8.498  0.5385  0.3163  0.6741
34688SOL    HW1 7019   9.036   7.607   8.574  0.9130  0.5861  0.6720
34688SOL    HW2 7020   9.041   7.469   8.512 -2.2574  0.9292 -0.5001
34689SOL     OW 7021   7.841   2.434   4.584  0.2963 -0.1850 -0.2856
34689SOL    HW1 7022   7.888   2.516   4.567 -2.0225  0.7749 -2.8929
34689SOL    HW2 7023   7.862   2.379   4.508  0.1047 -1.1565  0.3532
34690SOL     OW 7024   0.389   7.076   0.605 -0.1143  0.0199  0.5505
34690SOL    HW1 7025   0.337   6.996   0.595  0.9987 -0.6871  0.2145
34690SOL    HW2 7026   0.457   7.053   0.669  0.8166  0.3578 -0.2791
34691SOL     OW 7027   6.531   1.153   7.873 -0.1934  0.0257 -0.6707
34691SOL    HW1 7028   6.462   1.101   7.832 -0.5711 -0.0019 -0.0096
34691SOL    HW2 7029   6.612   1.105   7.854 -0.2682  0.3409 -1.9205
34692SOL     OW 7030  10.252   4.826  10.675  0.5974 -0.1318  0.2404
34692SOL    HW1 7031  10.317   4.894  10.695 -0.0668  0.3740  0.7195
34692SOL    HW2 7032  10.274   4.754  10.734  1.3513 -0.3743 -0.3214
34693SOL     OW 7033   5.843   5.716   1.915  0.1114 -0.6390  0.2648
34693SOL    HW1 7034   5.841   5.788   1.979  0.1246 -1.1812  0.8892
34693SOL    HW2 7035   5.920   5.664   1.940  1.5836  0.4794 -1.7069
34694SOL     OW 7036   2.312   3.871   5.187 -0.1685  0.2617  0.0816
34694SOL    HW1 7037   2.223   3.848   5.162 -0.0873 -0.0877  0.1163
34694SOL    HW2 7038   2.335   3.809   5.256 -0.3418  1.1253  0.9376
34695SOL     OW 7039   0.313   6.361  10.096 -0.3673 -0.0338 -0.2262
34695SOL    HW1 7040   0.243   6.381  10.158 -1.1908  1.5519 -1.5893
34695SOL    HW2 7041   0.271   6.305  10.030 -0.1836  0.3902 -0.7097
34696SOL     OW 7042   2.556   2.771   1.242  0.1460  0.6463  0.2371
34696SOL    HW1 7043   2.493   2.780   1.314  0.0277  2.0811 -0.0101
34696SOL    HW2 7044   2.541   2.848   1.187  2.4691  1.3510  0.4595
34697SOL     OW 7045   7.383   0.688   2.065  0.1527  0.3719 -0.0869
34697SOL    HW1 7046   7.397   0.614   2.124 -1.1333 -0.2702 -0.5558
34697SOL    HW2 7047   7.341   0.755   2.120  0.1209  0.2549  0.0306
34698SOL     OW 7048   1.008   2.242   2.007 -0.7260  0.0434 -0.2819
34698SOL    HW1 7049   1.076   2.176   1.989 -0.2273  0.3372  0.4827
34698SOL    HW2 7050   0.954   2.202   2.075 -1.0732 -0.0130 -0.5876
34699SOL     OW 7051   4.210   5.085   4.603  0.2494 -0.0026 -0.3650
34699SOL    HW1 7052   4.135   5.043   4.646 -0.7159  0.3650 -1.6448
34699SOL    HW2 7053   4.283   5.026   4.621 -0.5433 -0.8985  0.0529
34700SOL     OW 7054   9.547   5.728   4.639 -0.2296 -0.6152  0.0856
34700SOL    HW1 7055   9.615   5.703   4.576 -1.2663 -0.5308 -1.1124
34700SOL    HW2 7056   9.508   5.645   4.665 -0.6588 -0.5656 -0.3896
34701SOL     OW 7057   1.237   2.241  10.611 -0.1033  0.6611 -0.1325
34701SOL    HW1 7058   1.301   2.244  10.539 -0.0326  3.0664 -0.0206
34701SOL    HW2 7059   1.238   2.329  10.648 -1.5198 -0.0153  1.6395
34702SOL     OW 7060   7.532   4.156   8.194 -0.2499 -0.1434  0.1085
34702SOL    HW1 7061   7.459   4.123   8.141  0.1414 -0.1090 -0.4580
34702SOL    HW2 7062   7.496   4.233   8.239  0.1573  1.5386 -2.2642
34703SOL     OW 7063   9.992   2.762   0.140 -0.3238  0.6006 -0.3160
34703SOL    HW1 7064  10.045   2.837   0.166  0.3758 -0.0790  0.2988
34703SOL    HW2 7065   9.979   2.772   0.046  2.7538 -0.3071 -0.9536
34704SOL     OW 7066   4.261   1.176   0.260 -0.2609  0.1692  0.1862
34704SOL    HW1 7067   4.276   1.082   0.251 -2.1483 -0.3822  2.0001
34704SOL    HW2 7068   4.203   1.199   0.188  0.5345  0.0660 -0.5034
34705SOL     OW 7069   6.809   8.502   5.730  0.4471  0.2645  0.1956
34705SOL    HW1 7070   6.714   8.515   5.728  0.2333 -0.8430  1.5735
34705SOL    HW2 7071   6.833   8.515   5.822  1.2895 -1.4990  0.2701
34706SOL     OW 7072   1.387   6.852   5.127  0.0600 -0.4461  0.0381
34706SOL    HW1 7073   1.317   6.868   5.064  0.4505 -1.4245 -0.6690
34706SOL    HW2 7074   1.372   6.916   5.196 -0.0401  1.0493 -1.3161
34707SOL     OW 7075   0.223   3.579   7.601  0.3818  0.1983  0.1947
34707SOL    HW1 7076   0.266   3.609   7.681  0.5812  0.6044 -0.0610
34707SOL    HW2 7077   0.177   3.656   7.569  1.3447  0.3879 -0.7692
34708SOL     OW 7078   7.506   1.918   6.383 -0.2754  0.3384  0.2144
34708SOL    HW1 7079   7.577   1.870   6.340 -0.4399 -0.5189  0.8782
34708SOL    HW2 7080   7.503   1.882   6.471 -0.4672  1.5217  0.7072
34709SOL     OW 7081   6.875   5.865   5.630 -0.0387 -0.1261  0.2843
34709SOL    HW1 7082   6.917   5.807   5.694  0.4511  0.1799  0.2459
34709SOL    HW2 7083   6.785   5.872   5.661 -0.2356 -1.2751  0.0283
34710SOL     OW 7084   1.484  10.046   4.580 -0.2169 -0.0568 -0.2269
34710SOL    HW1 7085   1.507  10.071   4.669 -0.6390 -4.8450  1.5495
34710SOL    HW2 7086   1.389  10.057   4.576 -0.1779  0.3182 -0.1599
34711SOL     OW 7087   5.945  10.064   7.226  0.6866  0.2141  0.2487
34711SOL    HW1 7088   5.911   9.981   7.193  0.2424  0.5856 -0.2424
34711SOL    HW2 7089   6.014  10.087   7.164  0.2612  0.6102 -0.0857
34712SOL     OW 7090   1.742   5.756   6.158 -0.1240 -0.7263  0.1826
34712SOL    HW1 7091   1.720   5.769   6.066 -2.1723 -1.0930  0.5812
34712SOL    HW2 7092   1.678   5.810   6.205 -1.2087 -3.0094  1.4678
34713SOL     OW 7093   8.660   6.299   1.198  0.0603  0.3424  0.2922
34713SOL    HW1 7094   8.596   6.313   1.268  1.5981  1.0146  1.6352
34713SOL    HW2 7095   8.731   6.250   1.240 -0.2036 -1.7510 -1.5342
34714SOL     OW 7096   2.373   6.444   6.698  0.5576 -0.1957 -0.5978
34714SOL    HW1 7097   2.450   6.390   6.681  0.8753 -0.2973  0.9937
34714SOL    HW2 7098   2.334   6.406   6.777 -0.7547  0.2574 -1.0068
34715SOL     OW 7099   0.397   2.294   9.172 -0.6169 -0.5364  0.0282
34715SOL    HW1 7100   0.385   2.236   9.097 -1.2580 -1.8823  1.1286
34715SOL    HW2 7101   0.476   2.344   9.150 -1.0481 -0.5459 -1.7301
34716SOL     OW 7102   4.157   6.027   6.850  0.7065 -0.0675  0.2984
34716SOL    HW1 7103   4.107   6.105   6.823 -0.9254 -0.5355  1.7859
34716SOL    HW2 7104   4.203   6.000   6.771 -2.0306 -0.0282 -1.4502
34717SOL     OW 7105   7.865   6.186   2.783 -0.1595  0.2245  0.3833
34717SOL    HW1 7106   7.829   6.130   2.852 -1.8270 -0.8911 -1.2767
34717SOL    HW2 7107   7.820   6.270   2.794 -0.9381 -0.1671  0.2564
34718SOL     OW 7108   3.698   9.188   0.611  0.0715  0.1381  0.1918
34718SOL    HW1 7109   3.676   9.131   0.538 -0.1719  0.2518  0.1770
34718SOL    HW2 7110   3.646   9.154   0.685  0.5209 -0.1453  0.3820
34719SOL     OW 7111   7.036   0.749   3.405  0.3737 -0.4533  0.1489
34719SOL    HW1 7112   7.019   0.840   3.377  0.9116 -0.7474 -1.2289
34719SOL    HW2 7113   7.112   0.755   3.461 -0.5691  0.1314  1.4151
34720SOL     OW 7114   9.730   6.910   9.554  0.0891  0.4619  0.1122
34720SOL    HW1 7115   9.694   6.821   9.557  0.3545  0.3706  0.8337
34720SOL    HW2 7116   9.788   6.909   9.478  0.3699 -0.0980  0.3237
34721SOL     OW 7117   2.083  10.451   7.154  0.0562 -0.1891  0.1476
34721SOL    HW1 7118   2.073  10.362   7.187 -0.6711 -1.0929 -2.3461
34721SOL    HW2 7119   1.995  10.489   7.160 -0.4253 -0.8706 -2.0160
34722SOL     OW 7120   6.162   0.004   7.278 -0.6316  0.0691 -0.5089
34722SOL    HW1 7121   6.228   0.014   7.347 -1.0802  4.4922 -0.4678
34722SOL    HW2 7122   6.211   0.014   7.196 -0.7280 -0.7230 -0.6719
34723SOL     OW 7123   5.162   3.877   9.431  0.2495  0.2921 -0.1506
34723SOL    HW1 7124   5.114   3.959   9.418 -0.3150 -0.2224 -1.6018
34723SOL    HW2 7125   5.121   3.837   9.507 -0.8815  0.4033 -0.6785
34724SOL     OW 7126   4.498   0.085   6.041 -0.3450 -0.3062  0.0679
34724SOL    HW1 7127   4.432   0.046   5.984 -0.5380  1.3939 -0.9617
34724SOL    HW2 7128   4.530   0.161   5.991 -0.9782  1.6543  2.4809
34725SOL     OW 7129   1.094   8.811   0.442  0.5301 -0.2923 -0.2061
34725SOL    HW1 7130   1.131   8.815   0.530 -0.0667  2.1457  0.0275
34725SOL    HW2 7131   1.007   8.775   0.454  0.4670 -0.0072  0.2159
34726SOL     OW 7132  10.000   4.749   0.093 -0.1674  0.8978  0.4284
34726SOL    HW1 7133  10.089   4.719   0.076 -0.9710 -0.1001 -2.6940
34726SOL    HW2 7134  10.010   4.817   0.160  2.5459 -1.1491  2.3476
34727SOL     OW 7135   7.901   4.787   4.537 -0.1120  0.0736 -0.5010
34727SOL    HW1 7136   7.915   4.764   4.628 -1.0020 -0.3455 -0.4598
34727SOL    HW2 7137   7.989   4.790   4.499  0.1371 -2.8780 -0.3914
34728SOL     OW 7138   5.287   0.886   3.479  0.0984  0.3063 -1.0150
34728SOL    HW1 7139   5.327   0.958   3.527 -1.7301  1.2763 -0.8411
34728SOL    HW2 7140   5.351   0.863   3.412  1.9556  0.1064  0.7435
34729SOL     OW 7141   6.765   9.268   8.061  0.4022 -0.3622  0.1920
34729SOL    HW1 7142   6.846   9.317   8.046  0.4324 -0.1539  1.0075
34729SOL    HW2 7143   6.713   9.324   8.118  0.9417 -1.7410  2.1566
34730SOL     OW 7144   2.975   2.728   7.504  0.8749  0.6431 -0.2639
34730SOL    HW1 7145   2.971   2.719   7.409  0.9150 -0.9809 -0.1319
34730SOL    HW2 7146   2.885   2.715   7.533  1.1026 -0.4088  0.0179
34731SOL     OW 7147   3.426   6.414   9.262 -0.1974 -0.4618 -0.0879
34731SOL    HW1 7148   3.516   6.404   9.233 -0.2172 -1.3516  0.1432
34731SOL    HW2 7149   3.400   6.501   9.230  0.4522 -0.5565 -0.8993
34732SOL     OW 7150   0.472   3.248   3.345 -0.1161 -0.5418 -0.4918
34732SOL    HW1 7151   0.469   3.340   3.320 -1.0008 -0.5799 -0.5462
34732SOL    HW2 7152   0.389   3.232   3.390  0.7483 -0.8815  1.0638
34733SOL     OW 7153   1.720  10.514   0.386  0.4071 -0.0203  0.7760
34733SOL    HW1 7154   1.664  10.437   0.388 -3.6571  2.4336 -2.0990
34733SOL    HW2 7155   1.788  10.493   0.321  0.2096 -1.6135  1.0660
34734SOL     OW 7156  10.620   3.919   8.640  0.6526  0.1389  0.3760
34734SOL    HW1 7157  10.556   3.990   8.643  1.0154  0.5080 -0.3939
34734SOL    HW2 7158  10.691   3.948   8.696  1.7166  1.3210 -1.4919
34735SOL     OW 7159  10.215   2.659   6.625  1.1072 -0.0826  0.0631
34735SOL    HW1 7160  10.239   2.738   6.576  2.4001 -2.6095 -3.8906
34735SOL    HW2 7161  10.134   2.628   6.584  1.1744 -1.3296  0.8139
34736SOL     OW 7162   9.310   3.115   2.782 -0.0968 -0.3292 -0.5113
34736SOL    HW1 7163   9.341   3.026   2.765  0.6303 -0.5765  1.7364
34736SOL    HW2 7164   9.280   3.112   2.873  1.0956  2.0210  0.0158
34737SOL     OW 7165   3.789   6.083   3.189  0.2970 -0.0389  0.3982
34737SOL    HW1 7166   3.836   6.013   3.233 -1.1813 -1.4601 -0.2029
34737SOL    HW2 7167   3.797   6.158   3.248  2.4615 -0.4708  0.7596
34738SOL     OW 7168   3.685   8.502   6.918  0.2206  0.0028 -0.1355
34738SOL    HW1 7169   3.673   8.537   6.830 -0.5699  0.3695  0.1150
34738SOL    HW2 7170   3.754   8.556   6.955 -0.3107  0.6597 -0.0972
34739SOL     OW 7171   3.930   7.676   3.401 -0.0032 -0.7196 -0.1224
34739SOL    HW1 7172   3.986   7.724   3.340 -0.2398 -0.0857  0.1587
34739SOL    HW2 7173   3.843   7.676   3.359 -0.4673  0.8066  0.7791
34740SOL     OW 7174   5.274   9.045   1.810  0.4403  0.4802  0.2786
34740SOL    HW1 7175   5.320   9.090   1.881 -0.0574 -0.4062  1.1721
34740SOL    HW2 7176   5.187   9.026   1.845  0.6053 -1.1170 -0.1003
34741SOL     OW 7177   6.656   1.918   2.252  0.4535  0.3934 -0.6699
34741SOL    HW1 7178   6.599   1.852   2.291  1.8475 -0.6288 -0.2887
34741SOL    HW2 7179   6.657   1.897   2.159 -0.0613  0.6355 -0.7338
34742SOL     OW 7180   4.926   4.950   9.039 -0.0229  1.1788 -1.1136
34742SOL    HW1 7181   4.839   4.979   9.064 -0.0819 -0.3273  0.6622
34742SOL    HW2 7182   4.912   4.873   8.984  0.0515 -1.0395  1.7038
34743SOL     OW 7183  10.038   1.101  10.258  0.2526 -0.2080  0.2662
34743SOL    HW1 7184  10.034   1.113  10.353  0.2325  1.0287  0.1221
34743SOL    HW2 7185  10.104   1.032  10.246 -1.2247 -1.8769  1.2564
34744SOL     OW 7186   1.476   8.670   2.494 -0.3353 -0.0892  0.1921
34744SOL    HW1 7187   1.474   8.611   2.569  0.3460  1.0153  1.1267
34744SOL    HW2 7188   1.384   8.693   2.479 -0.3932  0.7282  1.5895
34745SOL     OW 7189   5.854   1.732   4.857  0.3375 -0.3551  0.4893
34745SOL    HW1 7190   5.888   1.650   4.892 -1.5864 -1.6053 -0.3924
34745SOL    HW2 7191   5.882   1.732   4.765 -1.0527 -0.8857  0.0411
34746SOL     OW 7192   7.924   8.617   7.775 -0.3073 -0.0556  0.8570
34746SOL    HW1 7193   7.859   8.684   7.797  1.3116  1.3160  1.7042
34746SOL    HW2 7194   7.952   8.581   7.859  0.1637 -0.4806  0.5268
34747SOL     OW 7195   2.458   7.810   7.217  0.8761  0.7024  0.6557
34747SOL    HW1 7196   2.499   7.891   7.248 -0.2954  0.7574  2.1709
34747SOL    HW2 7197   2.389   7.793   7.280  0.6263 -1.0994 -0.0591
34748SOL     OW 7198   9.525   0.949   2.008 -0.3899  0.2270 -0.5492
34748SOL    HW1 7199   9.523   0.870   1.954 -0.4246 -0.2195  0.0882
34748SOL    HW2 7200   9.452   1.002   1.976 -0.7195 -0.2551 -0.6152
34749SOL     OW 7201   6.621   9.592   5.091 -0.2933  0.8478  0.1729
34749SOL    HW1 7202   6.655   9.527   5.030 -1.4945  0.4335 -0.0933
34749SOL    HW2 7203   6.533   9.611   5.058 -0.8718  0.7978  1.6291
34750SOL     OW 7204   6.740   0.308   7.366  0.0676 -0.2225 -0.2576
34750SOL    HW1 7205   6.696   0.364   7.303 -0.2541 -0.4721 -0.2582
34750SOL    HW2 7206   6.824   0.287   7.324  0.3049  0.4816 -0.1313
34751SOL     OW 7207   0.007   5.721   5.535  0.0952  0.6180 -0.1850
34751SOL    HW1 7208   0.070   5.786   5.566  0.9703  0.3496 -1.3053
34751SOL    HW2 7209  -0.031   5.684   5.614  1.3770  0.7766  0.5344
34752SOL     OW 7210   5.979   6.693   2.713  0.7178 -0.3345  0.1109
34752SOL    HW1 7211   6.073   6.676   2.715  1.2117  1.7759 -1.7571
34752SOL    HW2 7212   5.946   6.640   2.640  0.3756 -1.2320  0.8914
34753SOL     OW 7213  10.514   3.620   5.884 -0.1636  0.0021  0.1543
34753SOL    HW1 7214  10.427   3.602   5.847 -0.2397 -1.1519  0.8439
34753SOL    HW2 7215  10.556   3.535   5.889  0.1587  0.2179  1.9071
34754SOL     OW 7216   4.462   1.938   7.801 -0.1280  0.1612  0.8304
34754SOL    HW1 7217   4.394   1.999   7.770 -1.1496 -1.9344 -1.4157
34754SOL    HW2 7218   4.539   1.961   7.750 -0.9442 -1.2941 -1.1779
34755SOL     OW 7219   3.479   0.988   3.645 -0.3174  0.2158 -0.4601
34755SOL    HW1 7220   3.450   1.051   3.710  0.1597  2.2060 -2.0971
34755SOL    HW2 7221   3.568   0.964   3.674 -1.0925 -1.0209  1.0477
34756SOL     OW 7222   0.409   5.730   7.028  0.5017  0.4726  0.1256
34756SOL    HW1 7223   0.410   5.823   7.053 -0.5565  1.0348 -1.7024
34756SOL    HW2 7224   0.317   5.705   7.035  0.5147  0.0610 -0.9861
34757SOL     OW 7225  10.530   7.317   5.262 -0.3305 -0.2620 -0.4032
34757SOL    HW1 7226  10.581   7.262   5.202  0.1713  1.2268 -1.4066
34757SOL    HW2 7227  10.470   7.365   5.205 -0.8074  0.1785  0.4569
34758SOL     OW 7228   3.543   6.792   5.780  0.2269  0.1435  0.0167
34758SOL    HW1 7229   3.576   6.724   5.721 -0.6519 -0.5182  0.2777
34758SOL    HW2 7230   3.583   6.773   5.864  0.8351  0.6054 -0.1583
34759SOL     OW 7231   1.668   1.089   3.848  0.2735  0.9237  0.0205
34759SOL    HW1 7232   1.639   1.097   3.939  0.5157 -1.5079  0.3585
34759SOL    HW2 7233   1.761   1.069   3.854  0.1626  0.1473 -0.7290
34760SOL     OW 7234   7.234   5.727   8.100  0.0524  0.0864  0.8693
34760SOL    HW1 7235   7.240   5.819   8.127  1.6115 -0.1557  1.4388
34760SOL    HW2 7236   7.318   5.689   8.124  0.3232 -0.9495 -1.4284
34761SOL     OW 7237   8.657   9.066   9.650  0.1045  0.2946  0.3560
34761SOL    HW1 7238   8.682   9.132   9.714  0.9319  0.6263 -0.2922
34761SOL    HW2 7239   8.564   9.080   9.635 -0.7236 -1.2910  3.2117
34762SOL     OW 7240   3.212   1.334   9.026  0.0955  0.1808  0.5934
34762SOL    HW1 7241   3.208   1.376   8.940 -0.4870 -0.6764  0.1927
34762SOL    HW2 7242   3.253   1.400   9.083  1.1612  0.4882 -0.4940
34763SOL     OW 7243   4.596  10.564   9.424  0.0630  0.2424 -0.0465
34763SOL    HW1 7244   4.572  10.651   9.454  0.5214  0.1315  0.6556
34763SOL    HW2 7245   4.686  10.573   9.392 -0.0373  0.1177 -0.3695
34764SOL     OW 7246   4.474   1.801   0.841 -0.5216  0.5226 -0.3455
34764SOL    HW1 7247   4.505   1.718   0.875 -0.0963  1.0214  0.5378
34764SOL    HW2 7248   4.408   1.778   0.776 -1.5372 -0.4884  0.9787
34765SOL     OW 7249   6.717   9.724   7.706 -0.1494 -0.6412 -0.2982
34765SOL    HW1 7250   6.798   9.675   7.723 -1.4962 -2.1364  2.2945
34765SOL    HW2 7251   6.727   9.755   7.616  2.9107 -1.5067 -0.3765
34766SOL     OW 7252   9.294   7.837   0.276 -0.2686 -0.0679  0.1776
34766SOL    HW1 7253   9.378   7.811   0.314  1.2229  0.9853 -2.1688
34766SOL    HW2 7254   9.235   7.765   0.297  1.2754 -0.9864  1.6293
34767SOL     OW 7255   1.198   4.104   7.906  0.0062  0.2663  0.2062
34767SOL    HW1 7256   1.194   4.149   7.990  0.7179 -0.1567  0.4687
34767SOL    HW2 7257   1.206   4.011   7.928 -2.7438 -0.1879 -0.3165
34768SOL     OW 7258   7.118   0.956   6.393  0.0410  0.5511  0.0158
34768SOL    HW1 7259   7.157   0.890   6.335 -1.5638 -0.2544 -0.2114
34768SOL    HW2 7260   7.192   1.012   6.418  1.4018 -1.1078 -0.0681
34769SOL     OW 7261   2.811   7.409   7.798 -0.2968  0.2956 -0.2207
34769SOL    HW1 7262   2.729   7.423   7.845  0.4216  0.5656  1.0035
34769SOL    HW2 7263   2.829   7.492   7.753  0.3211  0.9468  1.1773
34770SOL     OW 7264   6.441   8.354   0.855  0.0556 -0.3999 -0.1299
34770SOL    HW1 7265   6.376   8.341   0.785 -0.9750 -0.5688  0.8295
34770SOL    HW2 7266   6.524   8.367   0.809 -0.4465 -1.3734 -1.3651
34771SOL     OW 7267   7.717   3.429   4.605  0.0612 -0.3572 -0.4548
34771SOL    HW1 7268   7.724   3.517   4.570 -1.9808  0.5116  1.0977
34771SOL    HW2 7269   7.781   3.426   4.677  1.6660 -0.9326 -1.8385
34772SOL     OW 7270   1.991   1.379   4.075  0.0192  0.5757 -0.7163
34772SOL    HW1 7271   2.076   1.421   4.086  0.2528 -0.3033  1.1908
34772SOL    HW2 7272   2.011   1.288   4.054 -0.4956  0.7201 -1.9772
34773SOL     OW 7273   9.330   7.867   4.067 -0.1621 -0.4333 -0.1387
34773SOL    HW1 7274   9.308   7.800   4.131  0.4143 -0.0345  0.4950
34773SOL    HW2 7275   9.271   7.939   4.087 -1.6034 -1.1617 -1.5808
34774SOL     OW 7276   5.108   3.304   1.811  0.0165 -0.4988 -0.2257
34774SOL    HW1 7277   5.110   3.309   1.716 -1.6891  0.5503 -0.2470
34774SOL    HW2 7278   5.036   3.244   1.830 -2.0481  1.9964  0.3672
34775SOL     OW 7279   5.153   5.858   2.711  0.3053  0.0069 -0.5833
34775SOL    HW1 7280   5.134   5.796   2.781 -0.0127  1.3431  0.5697
34775SOL    HW2 7281   5.217   5.813   2.656 -1.0491 -1.9178 -0.6882
34776SOL     OW 7282   0.183   7.822   4.555  0.1644  0.4478  0.4474
34776SOL    HW1 7283   0.134   7.905   4.555 -1.8950 -0.6959 -0.2717
34776SOL    HW2 7284   0.180   7.793   4.646  0.5599  0.9733  0.6302
34777SOL     OW 7285   1.003   7.783   6.428 -0.4012 -0.0739  0.2276
34777SOL    HW1 7286   1.032   7.702   6.469  0.5427  0.1148 -0.0549
34777SOL    HW2 7287   1.016   7.770   6.334  1.6570  1.1064  0.2982
34778SOL     OW 7288   4.376   8.132   7.483  0.5292 -0.1855  0.2741
34778SOL    HW1 7289   4.369   8.062   7.417 -0.4515 -0.0818  0.2552
34778SOL    HW2 7290   4.464   8.167   7.470  0.8640 -1.0973 -0.0407
34779SOL     OW 7291   2.218   0.476   8.518 -0.3727  0.1245  0.4616
34779SOL    HW1 7292   2.293   0.426   8.551  0.4557  0.6181 -0.6317
34779SOL    HW2 7293   2.146   0.454   8.578  0.7180 -0.1149  1.7099
34780SOL     OW 7294   0.086   2.920   0.044 -0.5021 -0.1784 -0.0470
34780SOL    HW1 7295   0.071   3.013   0.029  1.5781 -0.0508 -1.8168
34780SOL    HW2 7296   0.028   2.898   0.117 -0.8439  2.5433  0.6166
34781SOL     OW 7297   1.828   1.530   7.648 -0.0262  0.4019  0.2576
34781SOL    HW1 7298   1.767   1.565   7.584  1.2403  0.4296 -0.9782
34781SOL    HW2 7299   1.897   1.489   7.596  0.0345 -1.3884  1.6203
34782SOL     OW 7300   0.508   2.472   7.397  0.1247  0.0433  0.4314
34782SOL    HW1 7301   0.526   2.534   7.468 -2.0703  1.2238  0.0453
34782SOL    HW2 7302   0.513   2.525   7.318 -1.4982 -0.3028  0.0687
34783SOL     OW 7303   8.981   8.464   5.243  0.2021  0.0575  0.3582
34783SOL    HW1 7304   8.996   8.513   5.163 -1.4127 -0.3060 -0.2073
34783SOL    HW2 7305   9.020   8.378   5.226  0.4136  0.1798  0.2168
34784SOL     OW 7306   5.314   7.096   2.988  0.0651 -0.1253 -0.5715
34784SOL    HW1 7307   5.331   7.123   3.078 -0.0250  2.3361 -1.2230
34784SOL    HW2 7308   5.252   7.024   2.996  0.3075 -0.1895  1.3327
34785SOL     OW 7309   8.970   9.251   7.825 -0.2591  0.1101  0.0600
34785SOL    HW1 7310   9.066   9.244   7.828 -0.3217 -0.6474  0.9312
34785SOL    HW2 7311   8.946   9.212   7.742  0.1144 -0.8588  0.3956
34786SOL     OW 7312   5.615   3.868   9.079 -0.5310 -0.0108  0.2894
34786SOL    HW1 7313   5.691   3.868   9.136 -1.5274 -1.8658  1.7273
34786SOL    HW2 7314   5.542   3.844   9.135 -1.9604  0.3068 -1.3313
34787SOL     OW 7315   7.667   5.302   1.937 -0.1005 -0.1213  0.1982
34787SOL    HW1 7316   7.740   5.338   1.887 -0.7054 -0.3370 -0.8625
34787SOL    HW2 7317   7.589   5.343   1.898 -0.8335 -2.6566 -1.1791
34788SOL     OW 7318   4.678  10.179   3.279 -0.0969  0.6262  0.2981
34788SOL    HW1 7319   4.667  10.273   3.291  0.2977  0.7863 -0.4950
34788SOL    HW2 7320   4.773  10.164   3.287 -0.1397  0.3291  0.2711
34789SOL     OW 7321   2.065   9.405   4.160 -0.5236  0.1485  0.1857
34789SOL    HW1 7322   2.109   9.364   4.235  0.2478  1.3790  0.4383
34789SOL    HW2 7323   2.019   9.480   4.198 -1.2739 -0.0252 -0.3737
34790SOL     OW 7324   0.475   3.197   1.301 -0.4414 -0.6453 -0.7369
34790SOL    HW1 7325   0.421   3.172   1.226 -1.5837 -1.8032  0.4099
34790SOL    HW2 7326   0.472   3.121   1.360  1.4821 -0.2871 -0.0703
34791SOL     OW 7327  10.117   8.740   1.818  0.0008 -0.1250  0.0324
34791SOL    HW1 7328  10.091   8.693   1.897  0.0663  1.7493  1.2238
34791SOL    HW2 7329  10.184   8.685   1.778  2.3412  0.3438  3.0077
34792SOL     OW 7330   3.668   6.048   4.757 -0.1098 -0.1569 -0.1592
34792SOL    HW1 7331   3.703   6.018   4.674  0.6656  1.0055 -0.2736
34792SOL    HW2 7332   3.710   6.133   4.772 -1.3367  0.3378  0.6972
34793SOL     OW 7333   6.138   7.532   9.059 -0.0238 -0.1643 -0.0564
34793SOL    HW1 7334   6.083   7.513   9.136 -0.6003  0.5236 -0.2838
34793SOL    HW2 7335   6.190   7.453   9.047 -1.2432 -0.9938 -0.0618
34794SOL     OW 7336   0.101   3.204   3.698  0.2236 -0.4828 -0.2820
34794SOL    HW1 7337   0.187   3.197   3.740 -0.5843  0.5461  1.6444
34794SOL    HW2 7338   0.097   3.294   3.665 -0.5901 -0.1229  0.7652
34795SOL     OW 7339   5.754   0.458   4.766 -0.3951 -0.2078 -0.5889
34795SOL    HW1 7340   5.745   0.441   4.672  1.4372 -1.7207 -0.5360
34795SOL    HW2 7341   5.828   0.518   4.773 -0.7435  0.1858 -0.0983
34796SOL     OW 7342   7.636   4.168   7.217  0.1645 -0.3110 -0.0276
34796SOL    HW1 7343   7.646   4.223   7.295  4.6313 -0.0929 -0.5264
34796SOL    HW2 7344   7.646   4.228   7.144  1.4133 -1.2082 -0.6327
34797SOL     OW 7345   2.854   7.653   9.102 -0.0503 -0.5042  0.5379
34797SOL    HW1 7346   2.773   7.677   9.057 -0.6342 -0.8209  1.4046
34797SOL    HW2 7347   2.919   7.715   9.069 -0.9799  0.7334  0.9560
34798SOL     OW 7348   7.265   8.293   4.381  0.1022  0.0858  0.0502
34798SOL    HW1 7349   7.250   8.295   4.286  0.0006  0.3641  0.0732
34798SOL    HW2 7350   7.258   8.200   4.404 -2.5314  0.2480  0.2089
34799SOL     OW 7351   2.257   8.071   8.261  0.5902  0.1421  0.2002
34799SOL    HW1 7352   2.214   8.121   8.191  0.4602 -0.7039 -0.3386
34799SOL    HW2 7353   2.277   8.136   8.328  0.3296  0.9007 -0.4390
34800SOL     OW 7354   6.805   0.302   0.946 -0.1234 -0.0429  0.0032
34800SOL    HW1 7355   6.861   0.317   1.022 -1.4316  0.3310  0.9166
34800SOL    HW2 7356   6.826   0.375   0.887 -0.5015  0.7768  0.8601
34801SOL     OW 7357   0.987   7.825   0.135  0.3741  0.0063 -0.5805
34801SOL    HW1 7358   0.911   7.782   0.096  1.0605 -0.0973 -1.8686
34801SOL    HW2 7359   1.062   7.783   0.093  1.0887  2.4810 -1.9907
34802SOL     OW 7360   6.022   0.281   0.581 -0.3502 -0.1378  0.0690
34802SOL    HW1 7361   5.976   0.222   0.640  0.2524 -0.7071 -0.0103
34802SOL    HW2 7362   6.021   0.366   0.625  0.9704 -0.7657  1.3885
34803SOL     OW 7363   0.959   2.144   2.993 -0.4791  0.0829  0.6553
34803SOL    HW1 7364   0.874   2.103   3.006 -0.2274 -0.4509  0.6694
34803SOL    HW2 7365   0.940   2.224   2.945 -1.0141  0.0951  0.8834
34804SOL     OW 7366   2.156   0.421  10.351 -0.0269  0.0147  0.5441
34804SOL    HW1 7367   2.117   0.440  10.265 -2.3570 -1.7623  1.0826
34804SOL    HW2 7368   2.228   0.484  10.360  0.5135  0.0451 -2.8189
34805SOL     OW 7369   1.253  10.587   4.038  0.3581 -0.1075 -0.2860
34805SOL    HW1 7370   1.210  10.504   4.019 -0.7928  0.1343  1.1047
34805SOL    HW2 7371   1.302  10.571   4.119 -1.2945  1.0059  0.9887
34806SOL     OW 7372   1.831   6.638   9.521 -0.3081 -0.1714  1.0840
34806SOL    HW1 7373   1.740   6.609   9.510 -0.1495  0.2716 -2.5698
34806SOL    HW2 7374   1.824   6.730   9.546 -0.9526  0.4077 -1.0698
34807SOL     OW 7375   3.849   3.216   2.127 -0.4168  0.3818  0.3399
34807SOL    HW1 7376   3.795   3.237   2.204  0.6019 -0.7059  1.4062
34807SOL    HW2 7377   3.881   3.301   2.096  1.4980  0.7392  2.9309
34808SOL     OW 7378   9.011   5.173   2.318 -0.0428  0.3323  0.6857
34808SOL    HW1 7379   8.974   5.258   2.292  1.9125  0.7320 -1.0718
34808SOL    HW2 7380   8.971   5.110   2.259  0.7584  0.5104 -0.0627
34809SOL     OW 7381   2.897   7.683   9.380  0.8782  0.7992  0.4680
34809SOL    HW1 7382   2.865   7.643   9.299  0.3294  2.2685 -0.0610
34809SOL    HW2 7383   2.993   7.678   9.373  0.8288 -0.0987  0.2685
34810SOL     OW 7384   4.987   7.846  10.605 -0.4617 -0.2680 -0.0498
34810SOL    HW1 7385   5.048   7.911  10.570  0.9424 -0.9956  0.9829
34810SOL    HW2 7386   4.948   7.889  10.681 -0.2973 -0.2663  0.0333
34811SOL     OW 7387   5.977   8.443   1.066  0.2875  0.0553 -0.4145
34811SOL    HW1 7388   5.896   8.490   1.046  0.8929  0.4512 -2.0591
34811SOL    HW2 7389   6.039   8.472   0.999  1.8224 -0.1988  0.8514
34812SOL     OW 7390   3.582   7.415  10.101 -0.1934 -0.0482 -1.0310
34812SOL    HW1 7391   3.518   7.486  10.103  0.3938  0.4939 -0.7954
34812SOL    HW2 7392   3.532   7.337  10.080 -1.1603  0.0959  0.6429
34813SOL     OW 7393   7.096   0.580   5.345 -0.1438  0.2283  0.4806
34813SOL    HW1 7394   7.097   0.506   5.284  1.2308  1.5473 -1.2132
34813SOL    HW2 7395   7.003   0.601   5.355 -0.4421  2.0227 -3.9328
34814SOL     OW 7396   2.130   5.517   1.547  0.0950 -0.4324  0.0251
34814SOL    HW1 7397   2.171   5.467   1.476  0.4109  0.1893 -0.2360
34814SOL    HW2 7398   2.037   5.519   1.524  0.2480  0.0755 -0.5651
34815SOL     OW 7399   1.444   3.962   3.509  0.2121 -0.1002 -0.4483
34815SOL    HW1 7400   1.510   3.942   3.443  1.8124  1.4740  0.5890
34815SOL    HW2 7401   1.490   3.957   3.593 -1.1182  0.4742  0.3681
34816SOL     OW 7402   1.614   1.712   5.673  0.8364 -0.2338  0.9527
34816SOL    HW1 7403   1.581   1.782   5.618  0.5853 -1.2324 -0.2065
34816SOL    HW2 7404   1.700   1.742   5.702  1.1915  0.1012 -0.4044
34817SOL     OW 7405   9.190   3.942   5.644  0.4105  0.1935 -0.4811
34817SOL    HW1 7406   9.260   3.922   5.582  2.2125  0.8775  1.2111
34817SOL    HW2 7407   9.111   3.950   5.590  1.8358  0.5313 -2.6425
34818SOL     OW 7408   6.731  10.520   4.794 -0.9895 -0.0082 -0.3075
34818SOL    HW1 7409   6.696  10.436   4.765 -2.4059  0.5320 -0.2259
34818SOL    HW2 7410   6.826  10.513   4.778 -0.8587 -2.1054  0.9724
34819SOL     OW 7411   6.366   3.545   4.324 -0.2976  0.4105  0.3409
34819SOL    HW1 7412   6.395   3.474   4.267  0.0065  0.8387 -0.0464
34819SOL    HW2 7413   6.286   3.511   4.365 -1.7082  0.8105 -1.8776
34820SOL     OW 7414   9.967   8.024   3.863 -0.0653  0.2939  0.2322
34820SOL    HW1 7415   9.989   8.041   3.955 -0.1523 -1.6666  0.6479
34820SOL    HW2 7416   9.991   7.933   3.849 -1.7198  0.0229 -1.1789
34821SOL     OW 7417   6.853   2.200   4.737  0.6517 -0.5399 -0.1277
34821SOL    HW1 7418   6.935   2.234   4.771 -1.1425  0.8549  3.2466
34821SOL    HW2 7419   6.795   2.276   4.733 -2.2471 -2.2231  3.6428
34822SOL     OW 7420   8.559   5.664   9.498 -0.6453  0.0558 -0.1882
34822SOL    HW1 7421   8.609   5.733   9.453  0.6901 -0.7829 -0.0436
34822SOL    HW2 7422   8.476   5.661   9.452  0.6025 -0.6603 -2.5837
34823SOL     OW 7423   7.201   2.144   3.535 -0.5297  0.2874 -0.4967
34823SOL    HW1 7424   7.169   2.055   3.518 -0.1620 -0.1194  0.8067
34823SOL    HW2 7425   7.287   2.131   3.574  0.0842  1.2797 -1.4578
34824SOL     OW 7426  10.277   6.097   1.425 -0.0035 -0.0670 -0.2053
34824SOL    HW1 7427  10.333   6.150   1.481 -1.4225 -0.2331  1.4531
34824SOL    HW2 7428  10.201   6.154   1.407 -1.3069 -1.2682  1.1766
34825SOL     OW 7429   7.790   2.337   5.763 -0.2781  0.2362  0.1678
34825SOL    HW1 7430   7.716   2.281   5.741 -0.6492  0.4695  0.7919
34825SOL    HW2 7431   7.793   2.336   5.859 -0.6715  1.7472  0.2225
34826SOL     OW 7432   5.811   5.249   3.084 -0.3601 -0.2901  0.3133
34826SOL    HW1 7433   5.837   5.293   3.004 -0.7695 -0.1265  0.2637
34826SOL    HW2 7434   5.838   5.308   3.154  0.9111 -0.8969  0.3596
34827SOL     OW 7435   8.807   6.420   2.752 -0.0016 -0.6703 -0.1654
34827SOL    HW1 7436   8.860   6.496   2.728  0.9972 -0.6934  1.7639
34827SOL    HW2 7437   8.833   6.352   2.690  1.0390 -0.1873 -0.2870
34828SOL     OW 7438   1.669   3.850   5.120  0.2531 -0.0956  0.0317
34828SOL    HW1 7439   1.708   3.871   5.205  0.7685 -2.1883  0.3772
34828SOL    HW2 7440   1.611   3.776   5.137  0.1427 -0.3753 -1.3844
34829SOL     OW 7441   4.946   5.348   8.301 -0.1177  0.0198  0.6824
34829SOL    HW1 7442   4.936   5.395   8.384 -0.3259 -0.1054  0.7300
34829SOL    HW2 7443   4.880   5.387   8.243 -0.0758  0.0018  0.6228
34830SOL     OW 7444   9.552   6.362   0.099 -0.1758 -0.1399 -0.1990
34830SOL    HW1 7445   9.527   6.287   0.153 -1.5129 -0.5731 -1.3561
34830SOL    HW2 7446   9.507   6.347   0.016  2.5201  0.0252 -1.7925
34831SOL     OW 7447   4.418   8.837   7.648  1.1491 -0.2556 -0.4081
34831SOL    HW1 7448   4.411   8.786   7.729  3.0652  0.4280  0.2516
34831SOL    HW2 7449   4.498   8.804   7.607  2.0454  1.6711 -0.3140
34832SOL     OW 7450   2.223   5.939   3.163  0.1487 -0.2338 -0.5158
34832SOL    HW1 7451   2.239   6.011   3.224  0.8977  1.0534 -2.1450
34832SOL    HW2 7452   2.150   5.969   3.109  0.3403 -0.7672 -1.0864
34833SOL     OW 7453   7.465   1.382   7.505 -0.4407  0.3729 -0.1261
34833SOL    HW1 7454   7.541   1.417   7.459 -0.6483 -0.1152 -0.8493
34833SOL    HW2 7455   7.392   1.393   7.443 -0.8249  0.1977  0.2895
34834SOL     OW 7456   7.809   5.417   5.061 -0.1054 -0.0058  0.3117
34834SOL    HW1 7457   7.868   5.424   5.136  0.0318  0.1256  0.1919
34834SOL    HW2 7458   7.723   5.439   5.096 -0.3739 -1.7511  0.8614
34835SOL     OW 7459   4.711   5.487   8.757  0.5945 -0.5839  0.0199
34835SOL    HW1 7460   4.629   5.531   8.733 -0.0152 -0.8766  1.4400
34835SOL    HW2 7461   4.689   5.394   8.756  0.5068 -0.6128  1.6769
34836SOL     OW 7462   9.647   8.693  10.669  0.0998 -0.2372  0.4065
34836SOL    HW1 7463   9.602   8.771  10.701 -2.5731 -1.2875 -0.4648
34836SOL    HW2 7464   9.622   8.687  10.576  0.1677 -2.1125  0.4549
34837SOL     OW 7465   5.051   5.565   4.110 -0.3469 -0.4451  0.4654
34837SOL    HW1 7466   5.084   5.634   4.168  1.8419 -0.4220 -0.6950
34837SOL    HW2 7467   5.054   5.603   4.022 -1.0647 -1.3588  0.0236
34838SOL     OW 7468   9.724   3.482   0.599 -0.2972 -0.0680 -0.2675
34838SOL    HW1 7469   9.674   3.449   0.525 -2.8494  0.1457  1.2129
34838SOL    HW2 7470   9.759   3.566   0.570  0.9411 -1.1399 -2.0063
34839SOL     OW 7471  10.007   1.143   6.789 -0.4907 -0.4628 -0.0508
34839SOL    HW1 7472   9.963   1.069   6.831 -2.2606 -0.3174 -1.5334
34839SOL    HW2 7473  10.083   1.104   6.746 -1.3698 -1.4381 -0.7717
34840SOL     OW 7474   9.400   5.020   4.246 -0.3071  0.0259 -0.1472
34840SOL    HW1 7475   9.413   5.106   4.286 -0.7640  0.1045 -0.1585
34840SOL    HW2 7476   9.393   5.038   4.152  1.1587 -0.2019 -0.3181
34841SOL     OW 7477   1.981   5.654   9.112  0.3269 -0.0592  0.5380
34841SOL    HW1 7478   1.974   5.715   9.185 -0.9964  0.6946 -0.1675
34841SOL    HW2 7479   1.891   5.623   9.098  0.9225 -2.0120  0.7151
34842SOL     OW 7480   4.280   0.877   1.382 -0.2306 -0.1083  0.5852
34842SOL    HW1 7481   4.321   0.857   1.298  0.7588  1.4590  0.6524
34842SOL    HW2 7482   4.205   0.933   1.360  1.6601  2.7075  0.8354
34843SOL     OW 7483   1.599   4.250   4.447 -0.6742  0.1119  0.3628
34843SOL    HW1 7484   1.510   4.240   4.482 -0.4394 -2.6076  0.3978
34843SOL    HW2 7485   1.588   4.235   4.353 -0.3063  0.1163  0.3203
34844SOL     OW 7486   2.325   2.376   3.195 -0.3070  0.3714 -0.6073
34844SOL    HW1 7487   2.245   2.324   3.201 -0.8344  1.2337  0.1137
34844SOL    HW2 7488   2.392   2.320   3.234 -0.9291  0.3299  0.4573
34845SOL     OW 7489   5.743   2.207   4.799 -0.2186 -0.0787 -0.2205
34845SOL    HW1 7490   5.666   2.240   4.847  0.9274  0.7874  1.0996
34845SOL    HW2 7491   5.757   2.119   4.834 -0.4169 -0.1168 -0.2363
34846SOL     OW 7492   7.487   9.478   3.633  0.5495 -0.2615 -0.2478
34846SOL    HW1 7493   7.416   9.442   3.687  1.2859 -1.1474  0.1363
34846SOL    HW2 7494   7.460   9.460   3.543 -0.5061  0.8918 -0.1898
34847SOL     OW 7495   5.183   6.770   7.664 -0.7602 -0.5597 -0.1471
34847SOL    HW1 7496   5.149   6.860   7.666  2.6766  0.9012  0.4414
34847SOL    HW2 7497   5.152   6.731   7.745 -2.5511 -0.0478 -0.5433
34848SOL     OW 7498   5.951   3.838  10.255  0.1915 -0.1512  0.3936
34848SOL    HW1 7499   5.944   3.903  10.326 -0.8990  0.1282  0.0560
34848SOL    HW2 7500   6.010   3.879  10.192 -0.2423  0.3855  0.3265
34849SOL     OW 7501   3.918   4.104   2.813  0.5359 -0.7251  0.2558
34849SOL    HW1 7502   3.968   4.182   2.833  1.0920 -1.0936  0.3230
34849SOL    HW2 7503   3.907   4.059   2.897  0.2113 -0.7196  0.2200
34850SOL     OW 7504   9.000   4.976   2.861 -0.4143 -0.3825  0.8103
34850SOL    HW1 7505   8.988   5.068   2.883 -0.9423 -0.2117 -0.1304
34850SOL    HW2 7506   9.066   4.977   2.792 -1.3380 -0.5716 -0.1129
34851SOL     OW 7507   8.328   6.826   0.976  0.0497 -0.1942 -0.1290
34851SOL    HW1 7508   8.387   6.879   1.031 -0.2621 -0.9263  0.9410
34851SOL    HW2 7509   8.242   6.868   0.986  0.2288  0.4399 -1.1114
34852SOL     OW 7510   6.601   0.274   5.325  0.1277  0.3737  0.1631
34852SOL    HW1 7511   6.636   0.312   5.405 -0.2661  0.7184  0.1763
34852SOL    HW2 7512   6.603   0.179   5.340  0.1287  0.4359  0.5478
34853SOL     OW 7513   3.670   5.021   9.156 -0.1542  0.1458 -0.3799
34853SOL    HW1 7514   3.598   5.076   9.187  1.6115  1.0367  2.5906
34853SOL    HW2 7515   3.715   4.994   9.236  2.4945 -0.8301 -2.0668
34854SOL     OW 7516   2.018   3.067   4.995  0.1366 -0.3634 -0.0444
34854SOL    HW1 7517   2.067   3.104   4.922  0.4076 -0.9369 -0.1571
34854SOL    HW2 7518   1.927   3.091   4.977  0.1740 -0.6846 -0.6868
34855SOL     OW 7519   9.363   1.236   1.154 -0.1187 -0.0756  0.2426
34855SOL    HW1 7520   9.431   1.169   1.160 -0.6030 -0.6689 -0.6840
34855SOL    HW2 7521   9.362   1.261   1.062 -1.0643  0.0256  0.2708
34856SOL     OW 7522   2.798   8.236   2.784  0.0159 -0.3694 -0.1876
34856SOL    HW1 7523   2.852   8.157   2.788  0.0707 -0.4053 -1.3110
34856SOL    HW2 7524   2.847   8.301   2.835 -0.1031 -1.0879  0.8661
34857SOL     OW 7525   4.408   6.582   5.674  0.1507  0.2120  0.0709
34857SOL    HW1 7526   4.464   6.656   5.695  0.0304  0.4967 -0.5837
34857SOL    HW2 7527   4.328   6.598   5.723  0.5710 -0.1141  0.8832
34858SOL     OW 7528   5.703   5.601   5.227  0.4621  0.2728  0.1367
34858SOL    HW1 7529   5.705   5.666   5.297  1.0960  0.4572 -0.0429
34858SOL    HW2 7530   5.786   5.614   5.180  0.6845 -0.7788  0.2100
34859SOL     OW 7531   6.827   4.498   1.808  0.3673 -0.3817  0.1149
34859SOL    HW1 7532   6.834   4.533   1.719  0.1301 -0.8177 -0.0749
34859SOL    HW2 7533   6.735   4.476   1.817  0.7528 -2.3026 -0.2733
34860SOL     OW 7534   2.993   5.431   0.878 -0.1869  0.7009 -0.0918
34860SOL    HW1 7535   3.052   5.361   0.850  1.3766  1.8022  0.2992
34860SOL    HW2 7536   2.950   5.396   0.956  0.2770  0.0323 -0.1258
34861SOL     OW 7537   1.047   5.881   8.314  0.1445  0.2017 -0.0169
34861SOL    HW1 7538   0.973   5.839   8.270  0.4382 -0.3357 -0.0044
34861SOL    HW2 7539   1.010   5.918   8.394 -0.0048 -0.5721  0.2810
34862SOL     OW 7540   0.204   7.094  10.668 -0.2462  0.2404 -0.0602
34862SOL    HW1 7541   0.208   7.047  10.752  2.1284  1.9912  0.8934
34862SOL    HW2 7542   0.270   7.052  10.613  2.3066  2.6034  0.9898
34863SOL     OW 7543   0.395   2.227   7.328  0.2737  0.5465  0.0135
34863SOL    HW1 7544   0.455   2.182   7.268  0.0699  0.0024  0.2130
34863SOL    HW2 7545   0.424   2.318   7.326  1.0792  0.2990  0.0759
34864SOL     OW 7546   9.637   8.899   0.320  0.3269 -0.5838 -0.0731
34864SOL    HW1 7547   9.713   8.957   0.311 -0.3676  0.5211  0.7519
34864SOL    HW2 7548   9.591   8.906   0.237 -0.5654  1.3258  0.5185
34865SOL     OW 7549   4.062   0.747   7.234 -0.4019 -0.0955  0.1397
34865SOL    HW1 7550   4.027   0.821   7.284 -0.4177 -0.8277  1.2491
34865SOL    HW2 7551   4.133   0.784   7.182 -0.7442  0.7896  0.2764
34866SOL     OW 7552   8.879   9.390   2.288  0.1866  0.0311 -0.4206
34866SOL    HW1 7553   8.847   9.460   2.346  1.2267  0.7915 -0.7215
34866SOL    HW2 7554   8.859   9.422   2.200 -0.0485 -0.4283 -0.5342
34867SOL     OW 7555   5.864   3.684   4.777 -0.0983  0.4849  0.1674
34867SOL    HW1 7556   5.834   3.593   4.776 -1.5999  0.9524  0.1726
34867SOL    HW2 7557   5.818   3.723   4.851 -1.0218  1.7294 -1.0154
34868SOL     OW 7558   3.494   5.926   5.886  0.0508  0.1224 -0.4511
34868SOL    HW1 7559   3.569   5.984   5.899 -0.0846  0.3295 -0.5773
34868SOL    HW2 7560   3.420   5.976   5.921  0.2571 -0.8998  1.5767
34869SOL     OW 7561   2.566   9.173   6.657 -0.5154 -0.3486  0.2647
34869SOL    HW1 7562   2.657   9.191   6.632 -0.4392 -1.7536 -0.5739
34869SOL    HW2 7563   2.515   9.208   6.584 -0.6937  0.7323  0.8859
34870SOL     OW 7564  10.540   6.560  10.691 -0.3620 -0.1002 -0.1079
34870SOL    HW1 7565  10.477   6.588  10.757 -1.4823 -0.2717 -1.0696
34870SOL    HW2 7566  10.490   6.503  10.633  1.1158 -1.6532  0.0769
34871SOL     OW 7567   0.916   8.019   0.324  0.4548  0.3131  0.9424
34871SOL    HW1 7568   0.934   7.943   0.270  2.0391  0.1987  1.5899
34871SOL    HW2 7569   0.883   8.085   0.263  0.3846 -0.4341  0.1633
34872SOL     OW 7570   4.053   2.924   3.116  0.0487  0.3450 -0.0824
34872SOL    HW1 7571   4.090   2.992   3.173 -1.6535  0.5709  0.8097
34872SOL    HW2 7572   4.010   2.973   3.046 -1.9248  0.2901  1.0204
34873SOL     OW 7573   8.929   4.949   1.753  0.1645  0.1149 -0.0820
34873SOL    HW1 7574   9.009   4.902   1.730 -0.4218 -0.0029 -2.1234
34873SOL    HW2 7575   8.861   4.904   1.704 -0.7992  1.5925 -0.1392
34874SOL     OW 7576   3.324   0.440   9.340  0.4027  0.0492 -0.0524
34874SOL    HW1 7577   3.241   0.470   9.304  0.5015  0.2116 -0.1465
34874SOL    HW2 7578   3.335   0.489   9.422 -0.0024 -0.5929  0.3962
34875SOL     OW 7579   6.586   7.385   0.750 -0.4410 -0.5939  0.2388
34875SOL    HW1 7580   6.518   7.453   0.753 -0.8538 -0.9561 -0.4929
34875SOL    HW2 7581   6.615   7.385   0.659 -0.1145 -1.0830  0.3419
34876SOL     OW 7582   8.091   9.109   6.448 -0.0143  0.2485 -0.0381
34876SOL    HW1 7583   8.012   9.158   6.473  0.2745  0.2138  1.0142
34876SOL    HW2 7584   8.063   9.018   6.449  0.4548  0.0572  2.2552
34877SOL     OW 7585   4.879   2.613   2.521  0.1517 -0.1525  0.1215
34877SOL    HW1 7586   4.807   2.550   2.518  0.6321 -0.7014 -0.0735
34877SOL    HW2 7587   4.867   2.667   2.443 -0.0407 -0.2466  0.0848
34878SOL     OW 7588   8.212   2.637   3.590 -0.1904  0.0659  0.2604
34878SOL    HW1 7589   8.244   2.721   3.557 -0.5931  0.3377  0.5485
34878SOL    HW2 7590   8.246   2.572   3.528 -1.2493  0.5960 -0.9167
34879SOL     OW 7591  10.337   4.142  10.252 -0.4678 -0.2664 -0.2783
34879SOL    HW1 7592  10.325   4.148  10.347  0.9012 -0.3692 -0.0758
34879SOL    HW2 7593  10.349   4.049  10.235  1.3709 -0.0772 -0.2332
34880SOL     OW 7594   5.838   4.094   4.493 -0.3163  0.0473  0.3826
34880SOL    HW1 7595   5.841   4.106   4.588  0.8626 -0.4557  0.4299
34880SOL    HW2 7596   5.898   4.021   4.477 -0.8122 -0.1284 -0.7108
34881SOL     OW 7597   2.715   4.309   2.083 -0.3111 -0.2079 -0.2064
34881SOL    HW1 7598   2.696   4.303   2.176  0.1765  1.5295  0.0374
34881SOL    HW2 7599   2.638   4.272   2.040 -0.6730 -0.7284  0.8596
34882SOL     OW 7600   8.360   9.854   3.656  0.5004 -0.3855 -0.0289
34882SOL    HW1 7601   8.376   9.866   3.562 -0.2505 -0.8976 -0.2271
34882SOL    HW2 7602   8.435   9.896   3.698  1.6172 -1.4179 -0.8971
34883SOL     OW 7603   0.137   6.745   9.731 -0.3352 -0.0793  0.1513
34883SOL    HW1 7604   0.169   6.812   9.671  0.8981  1.2114  2.1490
34883SOL    HW2 7605   0.084   6.793   9.795 -0.9446 -1.2919  0.5891
34884SOL     OW 7606   2.968   8.115   9.549  0.1791  0.2151 -0.0005
34884SOL    HW1 7607   2.903   8.046   9.542  2.3178 -1.8420 -1.1030
34884SOL    HW2 7608   3.037   8.078   9.604  1.4102  1.4473 -0.6507
34885SOL     OW 7609   9.928   7.813   2.022  0.0361  0.1193 -0.0400
34885SOL    HW1 7610  10.005   7.763   1.995 -1.0347 -1.1682 -0.8557
34885SOL    HW2 7611   9.963   7.895   2.057  1.7287 -0.1143 -1.0904
34886SOL     OW 7612   1.275   2.037   5.236 -0.3503 -0.1372  0.2911
34886SOL    HW1 7613   1.326   2.070   5.163 -0.1369  0.9001  0.8848
34886SOL    HW2 7614   1.214   2.108   5.257 -0.4562 -0.4408  1.0691
34887SOL     OW 7615   1.839   3.061   2.179 -0.1968  0.7075 -0.4655
34887SOL    HW1 7616   1.800   3.002   2.243 -0.0558 -0.4707 -1.4381
34887SOL    HW2 7617   1.871   3.135   2.231  0.3109 -0.4173  0.8717
34888SOL     OW 7618   6.219   5.183   9.429 -0.4596  0.0311  0.6655
34888SOL    HW1 7619   6.312   5.193   9.407 -0.6109  0.7504  0.3311
34888SOL    HW2 7620   6.175   5.251   9.378 -1.0365  0.4858  1.7433
34889SOL     OW 7621   1.394   9.521   4.100  0.3287  0.2712 -0.3426
34889SOL    HW1 7622   1.381   9.510   4.006  0.4728 -2.4053 -0.1368
34889SOL    HW2 7623   1.488   9.537   4.110  0.4925 -0.4819 -0.6097
34890SOL     OW 7624   6.107   5.908   2.055  0.1580  0.1026 -0.7774
34890SOL    HW1 7625   6.031   5.946   2.100  0.2768 -0.9959  0.3939
34890SOL    HW2 7626   6.094   5.932   1.963 -2.1951 -0.9886 -0.7957
34891SOL     OW 7627   6.251   6.329   2.810  0.3271 -0.2238 -0.8573
34891SOL    HW1 7628   6.230   6.405   2.755  0.4275  0.1763 -0.3527
34891SOL    HW2 7629   6.257   6.365   2.899  3.5439 -0.2099 -0.9579
34892SOL     OW 7630   4.316   5.239   8.935  0.3161  0.6588  0.0206
34892SOL    HW1 7631   4.241   5.206   8.886 -0.6875  1.0528  1.2495
34892SOL    HW2 7632   4.311   5.334   8.925  1.5950  0.6419 -1.1967
34893SOL     OW 7633   8.307   0.628   2.540 -0.9417 -0.0264 -0.4235
34893SOL    HW1 7634   8.332   0.599   2.452  1.7054 -0.1788  0.3002
34893SOL    HW2 7635   8.335   0.557   2.597 -2.4940  0.1412  0.6065
34894SOL     OW 7636   5.565   1.551   4.008 -0.1169  0.2312  0.4030
34894SOL    HW1 7637   5.612   1.625   4.046  0.5692 -0.4036  0.8141
34894SOL    HW2 7638   5.539   1.581   3.921  0.4447  0.8405  0.4365
34895SOL     OW 7639   0.346   4.700  10.393 -0.2681  0.0992 -0.1583
34895SOL    HW1 7640   0.269   4.703  10.450  0.3089  0.4903  0.6163
34895SOL    HW2 7641   0.409   4.758  10.435  0.9068 -1.1699 -0.1293
34896SOL     OW 7642   5.279   3.756   1.769 -0.3144 -0.2864 -0.4385
34896SOL    HW1 7643   5.212   3.698   1.732 -1.3951 -0.0748  1.0998
34896SOL    HW2 7644   5.235   3.841   1.778 -0.0080 -0.2587  1.0030
34897SOL     OW 7645   4.757   7.074   4.607 -0.3186  0.0544  0.3937
34897SOL    HW1 7646   4.755   7.118   4.692 -1.3053  1.1553 -0.1656
34897SOL    HW2 7647   4.677   7.102   4.563  1.2883  1.5428 -1.8623
34898SOL     OW 7648   0.903   2.993   4.041 -0.4429  0.4537 -0.6620
34898SOL    HW1 7649   0.929   3.058   3.977 -0.4238  0.4585 -0.6496
34898SOL    HW2 7650   0.932   3.029   4.125 -2.9111  1.7926 -0.2873
34899SOL     OW 7651   2.363  10.227   8.446  0.3870  0.0092  0.3248
34899SOL    HW1 7652   2.293  10.281   8.484  1.3933  1.7475 -0.1766
34899SOL    HW2 7653   2.394  10.173   8.519 -1.5712 -0.9718  0.5140
34900SOL     OW 7654   0.801   5.997   0.944 -0.2053  0.7362 -0.0077
34900SOL    HW1 7655   0.743   6.006   0.868 -1.3187  1.6492  0.9077
34900SOL    HW2 7656   0.749   6.031   1.017  0.8370 -0.1222  1.1684
34901SOL     OW 7657   7.751   1.537   8.337 -0.1058  0.0842 -0.8574
34901SOL    HW1 7658   7.808   1.495   8.272  1.0411 -0.6906  0.5880
34901SOL    HW2 7659   7.812   1.577   8.399 -1.1034 -1.0244  0.9041
34902SOL     OW 7660   4.829   8.921   9.713  0.1694  0.5245  0.2829
34902SOL    HW1 7661   4.757   8.884   9.663  1.6723  1.2043 -2.6047
34902SOL    HW2 7662   4.792   8.937   9.800 -2.0384 -2.5957  0.0857
34903SOL     OW 7663  10.251   7.907   6.383 -0.0650  0.1014  0.3661
34903SOL    HW1 7664  10.234   7.820   6.421  1.9343 -0.3859  0.2495
34903SOL    HW2 7665  10.305   7.951   6.448 -0.4094  0.9804  0.0652
34904SOL     OW 7666   4.375   5.282   2.602 -0.1040  0.3121 -0.7766
34904SOL    HW1 7667   4.352   5.234   2.681  0.1059 -1.0847 -1.5376
34904SOL    HW2 7668   4.436   5.225   2.555  2.1693  2.3835 -0.5358
34905SOL     OW 7669   7.597   5.024   0.576  0.2421 -0.7004 -0.0868
34905SOL    HW1 7670   7.584   5.099   0.635  0.2805 -0.0791 -0.8601
34905SOL    HW2 7671   7.536   5.040   0.504 -0.8306 -2.1719  0.4436
34906SOL     OW 7672   7.747   7.874   5.796  0.3834  0.1364 -0.4412
34906SOL    HW1 7673   7.804   7.805   5.760  1.1220  0.1539  0.6607
34906SOL    HW2 7674   7.659   7.838   5.787  0.7142 -0.7345 -0.3777
34907SOL     OW 7675   6.275   6.589   2.728 -0.6974 -0.4615  0.3833
34907SOL    HW1 7676   6.291   6.583   2.634  0.9282 -0.0361  0.5936
34907SOL    HW2 7677   6.325   6.666   2.755 -1.3949 -0.4040  1.5543
34908SOL     OW 7678   7.169   8.749   5.462  0.2154 -0.8235  0.3111
34908SOL    HW1 7679   7.082   8.718   5.439  0.6012 -1.2167 -0.6735
34908SOL    HW2 7680   7.157   8.799   5.543 -0.7626 -1.6817  0.7099
34909SOL     OW 7681   4.845   9.208   5.662 -0.3494  0.7908  0.7596
34909SOL    HW1 7682   4.769   9.149   5.657  0.4146 -0.0626 -2.1419
34909SOL    HW2 7683   4.901   9.182   5.589  2.8877  1.2887  2.8768
34910SOL     OW 7684   4.913   3.749   6.963  0.1851  0.2540  0.3305
34910SOL    HW1 7685   4.979   3.718   6.901 -0.6641  0.5987 -0.7815
34910SOL    HW2 7686   4.891   3.837   6.934 -1.2461 -0.0973  0.2445
34911SOL     OW 7687   1.172   0.123   3.678 -0.1427 -0.5120 -0.2252
34911SOL    HW1 7688   1.202   0.198   3.627 -1.2071  0.4060  0.4756
34911SOL    HW2 7689   1.080   0.113   3.655 -0.7603  0.1658  1.7700
34912SOL     OW 7690   0.749   1.544  10.411  0.4129 -0.0857  0.5748
34912SOL    HW1 7691   0.668   1.526  10.362  0.2290 -0.0233  0.8546
34912SOL    HW2 7692   0.790   1.459  10.421  0.7608 -0.0235 -0.2233
34913SOL     OW 7693   7.882   2.522   0.933  0.1862 -0.2280 -0.0112
34913SOL    HW1 7694   7.848   2.463   0.865 -0.6008  0.6621 -0.4331
34913SOL    HW2 7695   7.823   2.509   1.007 -0.2587  0.3176 -0.2575
34914SOL     OW 7696   5.917   9.482   5.637  0.0479  0.1017  0.6094
34914SOL    HW1 7697   5.842   9.443   5.593 -0.7966  0.8608  1.3536
34914SOL    HW2 7698   5.981   9.498   5.567 -0.7450  0.0758 -0.1277
34915SOL     OW 7699   9.915   7.255   7.306  0.0147 -0.1049  0.1835
34915SOL    HW1 7700   9.988   7.194   7.321 -1.1616 -1.3538  1.0726
34915SOL    HW2 7701   9.879   7.228   7.222  0.2525  0.1855 -0.0142
34916SOL     OW 7702   1.064   9.075   5.666  0.7514 -0.1157 -0.3661
34916SOL    HW1 7703   1.081   8.983   5.642 -0.5112  0.1750 -2.6446
34916SOL    HW2 7704   1.021   9.112   5.589 -2.9176  1.2198  2.0803
34917SOL     OW 7705   4.171   1.372   4.784 -0.0005  0.0548  0.2259
34917SOL    HW1 7706   4.173   1.363   4.689  2.8812 -1.0579  0.2799
34917SOL    HW2 7707   4.222   1.451   4.802 -1.7518  1.0901  0.8401
34918SOL     OW 7708   0.352   7.553   9.652  0.1408  0.7150 -0.0618
34918SOL    HW1 7709   0.414   7.492   9.612 -0.6347 -0.6115  0.6892
34918SOL    HW2 7710   0.329   7.613   9.582  3.2610  2.1367 -0.0663
34919SOL     OW 7711   7.323   4.444   5.013 -0.2284  0.2188 -0.2971
34919SOL    HW1 7712   7.244   4.490   5.042  1.0491  0.9327  2.3975
34919SOL    HW2 7713   7.317   4.442   4.918 -2.6060  1.8164 -0.2500
34920SOL     OW 7714   6.164   1.567   3.539  0.3790  0.0345 -0.4668
34920SOL    HW1 7715   6.254   1.540   3.557  0.1933  1.4077  3.6209
34920SOL    HW2 7716   6.111   1.518   3.601 -1.5788  0.2425 -1.8739
34921SOL     OW 7717   4.157   1.727   2.592  0.0136 -0.5472 -0.3654
34921SOL    HW1 7718   4.165   1.740   2.687  0.7986 -0.7743 -0.3951
34921SOL    HW2 7719   4.063   1.731   2.576 -0.0288  2.0173  0.0509
34922SOL     OW 7720  10.142   3.290   7.927  0.9127  0.0107  0.0014
34922SOL    HW1 7721  10.084   3.255   7.859  1.2318  0.8099 -0.6954
34922SOL    HW2 7722  10.092   3.279   8.008 -0.0818  0.3901 -0.5375
34923SOL     OW 7723   1.688   0.955   7.886 -0.4364 -0.3439  0.6490
34923SOL    HW1 7724   1.757   0.896   7.856 -0.1206 -0.1018  0.8921
34923SOL    HW2 7725   1.649   0.910   7.960  1.0582  0.5606  2.0591
34924SOL     OW 7726   6.006   7.671   1.596 -0.0264  0.2414  0.2289
34924SOL    HW1 7727   5.978   7.742   1.537  0.4639  1.0457  0.9403
34924SOL    HW2 7728   6.055   7.612   1.540  0.6511  1.1273 -0.1337
34925SOL     OW 7729   2.352   5.112  10.072 -0.2722  0.2133 -0.6407
34925SOL    HW1 7730   2.397   5.035  10.108 -0.1851  1.7607  3.0373
34925SOL    HW2 7731   2.419   5.180  10.073 -1.4142  1.3476  0.2147
34926SOL     OW 7732   9.834   5.902   3.752 -0.6592  0.0817  0.2143
34926SOL    HW1 7733   9.792   5.984   3.725 -0.3786  0.4108  0.7534
34926SOL    HW2 7734   9.928   5.921   3.751 -0.5390 -0.4959 -0.4834
34927SOL     OW 7735   5.653   0.215   8.398  0.4656 -0.0400  0.5020
34927SOL    HW1 7736   5.647   0.142   8.459 -2.0471  0.1116  0.5322
34927SOL    HW2 7737   5.608   0.287   8.443 -1.1564  0.1710 -1.3448
34928SOL     OW 7738   3.493   5.217   6.527  0.6143  0.1587 -0.4704
34928SOL    HW1 7739   3.500   5.310   6.546  1.1132  0.1484 -0.5945
34928SOL    HW2 7740   3.400   5.203   6.508  0.6503  0.7539 -1.1062
34929SOL     OW 7741   0.423   4.479   2.841  0.5459  0.0884  0.2001
34929SOL    HW1 7742   0.466   4.561   2.815  0.3066  0.1055 -0.1447
34929SOL    HW2 7743   0.350   4.507   2.897  0.5913  0.0956  0.2566
34930SOL     OW 7744   1.564   9.903   6.667 -0.2724  0.2857 -0.3897
34930SOL    HW1 7745   1.516   9.921   6.747  0.9328 -0.3935  0.5175
34930SOL    HW2 7746   1.650   9.871   6.696  0.5655  0.9935 -1.9420
34931SOL     OW 7747   4.112   1.842   9.305 -0.2104  0.2236  0.0292
34931SOL    HW1 7748   4.116   1.892   9.387 -1.5332 -0.5670  0.6237
34931SOL    HW2 7749   4.201   1.841   9.272 -0.1442  2.9966 -0.0447
34932SOL     OW 7750   6.912   6.360   9.531 -0.6344  0.4033 -0.0700
34932SOL    HW1 7751   6.928   6.328   9.620 -0.1458  1.5871  0.2957
34932SOL    HW2 7752   6.897   6.281   9.479  0.1226 -0.3770  0.8572
34933SOL     OW 7753   4.333   8.351   8.638  0.0578 -0.2580  0.7523
34933SOL    HW1 7754   4.248   8.322   8.670  0.4954 -0.1314  2.1000
34933SOL    HW2 7755   4.315   8.435   8.597 -0.2706  0.4793  2.3279
34934SOL     OW 7756   2.727   6.703   5.244 -0.7622  0.4410 -0.2117
34934SOL    HW1 7757   2.790   6.715   5.172  1.0040 -1.5005  0.8919
34934SOL    HW2 7758   2.750   6.772   5.307  3.4256 -2.6488  2.1524
34935SOL     OW 7759   4.451   2.203   3.484  0.1819  0.1179  0.2381
34935SOL    HW1 7760   4.446   2.227   3.392  0.2019 -1.3747 -0.1799
34935SOL    HW2 7761   4.544   2.184   3.498 -0.1470 -1.9532 -0.0886
34936SOL     OW 7762   3.141   2.895   6.092 -0.4101  0.1680  0.7241
34936SOL    HW1 7763   3.045   2.894   6.089 -0.4282  0.0693  1.2495
34936SOL    HW2 7764   3.166   2.969   6.037 -0.8272  0.8988  1.4933
34937SOL     OW 7765   2.502   8.647   0.185  0.4131  0.3001 -0.2113
34937SOL    HW1 7766   2.459   8.561   0.180 -1.1720  0.9528  1.1823
34937SOL    HW2 7767   2.577   8.632   0.243  0.1663 -0.1656 -0.0017
34938SOL     OW 7768   5.914   5.924   7.753 -0.3996 -0.4597 -0.3154
34938SOL    HW1 7769   5.979   5.926   7.824 -1.2465 -0.6744  0.4863
34938SOL    HW2 7770   5.966   5.918   7.673  0.6261  1.1185  0.1927
34939SOL     OW 7771   0.484   8.299   8.686 -0.0400 -0.2395 -0.3804
34939SOL    HW1 7772   0.458   8.208   8.669 -0.1395 -0.4014  0.6056
34939SOL    HW2 7773   0.490   8.305   8.781 -0.1528  0.8227 -0.4309
34940SOL     OW 7774   5.923   0.510   3.188  0.3783 -0.5198  0.6034
34940SOL    HW1 7775   5.853   0.573   3.203 -0.1160 -0.6726 -0.8301
34940SOL    HW2 7776   5.992   0.561   3.144  0.8115 -0.5551  1.2350
34941SOL     OW 7777   9.737   1.873   9.040 -0.7542 -0.5371  0.3155
34941SOL    HW1 7778   9.726   1.842   9.129 -0.5907  0.2719  0.6265
34941SOL    HW2 7779   9.828   1.854   9.018 -0.5614 -0.0077  0.6230
34942SOL     OW 7780   5.274   4.839   2.588 -0.0264  0.3441 -0.1217
34942SOL    HW1 7781   5.310   4.857   2.501  0.0933  0.6760 -0.0036
34942SOL    HW2 7782   5.322   4.898   2.647 -0.8949  0.9303  0.0091
34943SOL     OW 7783   6.925   1.212   2.057 -0.0153 -0.0808 -0.3803
34943SOL    HW1 7784   6.914   1.141   1.994  1.0744 -0.9234  0.3347
34943SOL    HW2 7785   6.899   1.290   2.010  0.6843 -0.6960 -1.8592
34944SOL     OW 7786   3.053  10.315   5.886 -0.4654  0.0478  0.5263
34944SOL    HW1 7787   3.045  10.234   5.935  1.1975 -0.5041 -0.0651
34944SOL    HW2 7788   3.140  10.312   5.847 -0.8992  1.4714 -0.6636
34945SOL     OW 7789  10.568  10.456   4.265 -0.8179 -0.3340 -0.0544
34945SOL    HW1 7790  10.544  10.387   4.203 -2.0671 -0.0845  0.1364
34945SOL    HW2 7791  10.503  10.525   4.251 -0.9610 -0.1596  1.3360
34946SOL     OW 7792   6.688   6.175   7.804 -0.4015 -0.6046 -0.5141
34946SOL    HW1 7793   6.741   6.096   7.794 -0.4215 -0.7580  0.5377
34946SOL    HW2 7794   6.744   6.245   7.770  0.4072 -0.7961  0.3874
34947SOL     OW 7795   4.324   5.290   9.312 -0.0192  0.2872 -0.9863
34947SOL    HW1 7796   4.417   5.311   9.323  0.3356 -1.2694 -0.8136
34947SOL    HW2 7797   4.293   5.353   9.247  1.3895  0.2344 -1.7534
34948SOL     OW 7798   2.415   0.634   6.456 -0.4005  0.1930 -0.1271
34948SOL    HW1 7799   2.341   0.609   6.512 -0.1850 -1.6831 -0.6330
34948SOL    HW2 7800   2.478   0.673   6.517 -1.1730  0.4278  0.5479
34949SOL     OW 7801   6.072  10.051   8.790 -0.5390  0.3090  0.1872
34949SOL    HW1 7802   5.985  10.028   8.758 -0.6604 -0.7317  1.1967
34949SOL    HW2 7803   6.056  10.118   8.857 -0.3886  1.4680 -0.8851
34950SOL     OW 7804   0.118   5.904   1.319  0.1952 -0.1332  0.6544
34950SOL    HW1 7805   0.026   5.914   1.293  0.4396 -0.4209 -0.3243
34950SOL    HW2 7806   0.151   5.993   1.323 -0.3506  0.0383  1.8797
34951SOL     OW 7807   0.851   7.264   3.030  0.1295 -0.0291 -0.0305
34951SOL    HW1 7808   0.874   7.324   2.960  0.8210  0.5952  0.7079
34951SOL    HW2 7809   0.833   7.321   3.105 -0.0438 -0.7075  0.4525
34952SOL     OW 7810   2.040   8.756   7.151 -0.4828  0.3625  0.0923
34952SOL    HW1 7811   1.999   8.669   7.145 -0.0188  0.0523  1.2402
34952SOL    HW2 7812   2.060   8.778   7.060 -1.5246 -0.2798 -0.3161
34953SOL     OW 7813   0.534   4.907   5.991  0.1673  0.0553 -0.5575
34953SOL    HW1 7814   0.555   4.827   5.944  1.7869  1.1101 -1.7231
34953SOL    HW2 7815   0.446   4.931   5.961  0.1870 -0.6036 -1.1448
34954SOL     OW 7816   4.958   5.825   9.543  0.5396 -0.2530 -0.0595
34954SOL    HW1 7817   4.978   5.744   9.497 -1.0024 -1.3309  1.0376
34954SOL    HW2 7818   4.868   5.846   9.516  1.2300  1.6485 -1.0457
34955SOL     OW 7819   6.696   1.077   0.308  0.5059  1.0225 -0.2479
34955SOL    HW1 7820   6.663   0.990   0.333  0.2255  1.1703 -0.0915
34955SOL    HW2 7821   6.628   1.112   0.250  0.0335  1.6192  0.6389
34956SOL     OW 7822   0.065   9.603   1.029  0.5230 -0.2794 -0.4277
34956SOL    HW1 7823   0.067   9.676   0.967  2.9584 -0.3438 -0.5128
34956SOL    HW2 7824   0.110   9.635   1.106 -0.1033 -1.0837  0.2958
34957SOL     OW 7825   4.768   0.747   2.059  0.3851 -0.3631 -0.3135
34957SOL    HW1 7826   4.824   0.760   1.983 -0.0122  1.0279 -0.3991
34957SOL    HW2 7827   4.681   0.775   2.029  0.2383  0.2493  0.6468
34958SOL     OW 7828   0.934   9.705   7.147 -0.2288 -0.0347  0.2426
34958SOL    HW1 7829   0.922   9.660   7.063  1.2822 -0.1499  0.0743
34958SOL    HW2 7830   0.909   9.796   7.129  2.1347  0.4482 -0.9535
34959SOL     OW 7831   4.650   4.322   2.650 -0.3393 -0.2590 -0.2328
34959SOL    HW1 7832   4.724   4.324   2.589  0.0682 -1.2295  0.1909
34959SOL    HW2 7833   4.651   4.408   2.692  0.0108  0.0497 -0.8671
34960SOL     OW 7834   3.101   6.386   7.250  0.1103  0.7859 -0.4373
34960SOL    HW1 7835   3.165   6.337   7.198  0.4342  0.0414  0.6123
34960SOL    HW2 7836   3.154   6.447   7.302  0.2159 -0.8858  1.5913
34961SOL     OW 7837  10.140   8.460   4.613 -0.0443  0.4036 -0.0818
34961SOL    HW1 7838  10.110   8.399   4.680 -2.3477  0.1184 -1.2663
34961SOL    HW2 7839  10.060   8.505   4.584  0.9394  0.8976 -2.2341
34962SOL     OW 7840   5.792  10.138   6.723  0.1141 -0.1747 -0.0544
34962SOL    HW1 7841   5.798  10.043   6.733 -0.1323 -0.4111 -1.7912
34962SOL    HW2 7842   5.713  10.162   6.771 -0.5233 -1.0318 -0.6434
34963SOL     OW 7843   4.457   0.483   9.414  0.0387  0.6620 -0.4167
34963SOL    HW1 7844   4.500   0.479   9.328 -0.0335 -2.2446 -0.4053
34963SOL    HW2 7845   4.526   0.511   9.474  1.0271 -0.5838 -0.9333
34964SOL     OW 7846   4.004   7.668   7.433  0.2520  0.5355  0.3010
34964SOL    HW1 7847   4.044   7.749   7.403  0.1124  0.1579 -0.9636
34964SOL    HW2 7848   4.031   7.660   7.525  0.7103  1.7191  0.2847
34965SOL     OW 7849   1.637   4.971   5.074  0.4551  0.3226 -0.2739
34965SOL    HW1 7850   1.628   4.879   5.052 -0.7653  0.8822 -2.2986
34965SOL    HW2 7851   1.596   4.979   5.160  1.8513 -1.2311  0.6045
34966SOL     OW 7852   4.399   8.652   5.608  0.3615  0.2983  0.1838
34966SOL    HW1 7853   4.312   8.614   5.593 -0.4689  1.3194  2.0298
34966SOL    HW2 7854   4.445   8.587   5.661  0.1075  0.4700  0.6195
34967SOL     OW 7855   5.360   1.878   9.661 -0.6454 -0.4201  0.2526
34967SOL    HW1 7856   5.265   1.882   9.650 -0.3472  1.0637 -3.1906
34967SOL    HW2 7857   5.393   1.843   9.578  1.8566  0.4957  0.7510
34968SOL     OW 7858   7.119   2.560   6.226  0.4839 -0.0869  0.1383
34968SOL    HW1 7859   7.186   2.559   6.158  0.1784 -0.0569 -0.1702
34968SOL    HW2 7860   7.110   2.469   6.253 -2.4683 -0.9484 -2.9779
34969SOL     OW 7861   1.466  10.575   0.632 -0.2654  0.0152  0.0947
34969SOL    HW1 7862   1.398  10.611   0.575 -2.7986 -3.4855  0.5125
34969SOL    HW2 7863   1.545  10.623   0.609 -2.1256  1.9755 -2.9684
34970SOL     OW 7864   0.917   6.845   3.500  0.1748  0.5901 -0.3013
34970SOL    HW1 7865   0.938   6.919   3.559 -0.6049  0.2990  0.3626
34970SOL    HW2 7866   0.989   6.784   3.513 -0.4614  0.0947  1.1130
34971SOL     OW 7867   2.869   0.324   6.182 -0.1845 -0.6361  0.3903
34971SOL    HW1 7868   2.854   0.242   6.229 -0.8373 -0.9101 -0.2689
34971SOL    HW2 7869   2.957   0.316   6.146 -0.4253 -1.2639 -0.0769
34972SOL     OW 7870   6.888   3.482  10.496 -0.1630 -0.2038 -0.4342
34972SOL    HW1 7871   6.969   3.438  10.470 -0.0619 -2.2675  2.8326
34972SOL    HW2 7872   6.916   3.552  10.556 -0.6778  1.2826 -1.8294
34973SOL     OW 7873   9.786   8.752   2.651  0.2721 -0.4951  0.7441
34973SOL    HW1 7874   9.825   8.803   2.580 -0.0318 -0.1550  0.8204
34973SOL    HW2 7875   9.796   8.807   2.729  0.3845 -0.7620  0.9188
34974SOL     OW 7876   9.083  10.557   3.281 -0.1796  0.3693 -0.0232
34974SOL    HW1 7877   9.011  10.620   3.292 -0.2704  0.1505  0.6535
34974SOL    HW2 7878   9.119  10.546   3.369 -0.1379 -0.5007 -0.1410
34975SOL     OW 7879   9.634   4.551   9.777  0.3441  0.0605 -0.5800
34975SOL    HW1 7880   9.606   4.554   9.686  0.2005  0.8020 -0.5160
34975SOL    HW2 7881   9.729   4.566   9.773  0.4168 -0.4064 -0.6426
34976SOL     OW 7882   3.117   5.051   3.028 -0.0343  0.0488 -0.1170
34976SOL    HW1 7883   3.084   5.140   3.044 -0.1987  0.1612 -0.9955
34976SOL    HW2 7884   3.210   5.056   3.050 -0.5875 -0.3669  2.7431
34977SOL     OW 7885  10.390   1.416   7.427  0.0316  0.1453  0.1661
34977SOL    HW1 7886  10.475   1.385   7.395  0.0291 -2.4436  2.2216
34977SOL    HW2 7887  10.400   1.416   7.522 -1.2586  3.1939  0.3895
34978SOL     OW 7888   9.852   8.281   7.854  0.3299  0.2770  0.1549
34978SOL    HW1 7889   9.936   8.325   7.862  0.5559 -0.0843 -0.1652
34978SOL    HW2 7890   9.812   8.289   7.941 -0.3310  2.4680 -0.3070
34979SOL     OW 7891  10.005   1.751  10.651 -0.0254  0.3731  0.2548
34979SOL    HW1 7892   9.948   1.827  10.634  0.1451  0.3955 -0.2404
34979SOL    HW2 7893  10.015   1.749  10.746  0.3104  1.2225  0.2420
34980SOL     OW 7894   7.226   5.021   7.526  0.1969  0.0102  0.1096
34980SOL    HW1 7895   7.151   4.989   7.576 -0.2224  0.9496  0.1071
34980SOL    HW2 7896   7.252   5.102   7.571  0.2775  0.4741 -0.7498
34981SOL     OW 7897   4.367   2.046   5.800 -0.1682 -0.1461  0.0090
34981SOL    HW1 7898   4.369   2.054   5.705  0.6852 -0.8649 -0.0493
34981SOL    HW2 7899   4.328   2.127   5.830 -1.2157 -0.2529 -0.9897
34982SOL     OW 7900  10.509   1.860   7.559 -0.1753 -0.3601 -0.1181
34982SOL    HW1 7901  10.468   1.795   7.502  0.7538 -1.7087  0.6873
34982SOL    HW2 7902  10.600   1.863   7.529 -0.2901  0.8493 -0.3724
34983SOL     OW 7903   6.675   4.637   1.048  0.8140 -0.3471  0.4947
34983SOL    HW1 7904   6.675   4.618   0.954  0.1988 -1.6089  0.7345
34983SOL    HW2 7905   6.767   4.635   1.073  0.9173 -0.9443  0.0915
34984SOL     OW 7906   1.194   3.864  10.350  0.5946 -0.2453 -0.6094
34984SOL    HW1 7907   1.140   3.786  10.353  0.4453 -0.1121  0.7160
34984SOL    HW2 7908   1.154   3.924  10.413  3.1561 -0.7417  1.6842
34985SOL     OW 7909   2.547   8.929   0.830 -0.4495  0.3422 -0.0647
34985SOL    HW1 7910   2.520   8.860   0.890 -0.8519 -1.2616 -1.9782
34985SOL    HW2 7911   2.466   8.958   0.788  0.0467 -0.4191 -1.6622
34986SOL     OW 7912   4.767   6.536  10.263  0.3536 -0.5689  0.4721
34986SOL    HW1 7913   4.821   6.605  10.223 -0.0096 -0.4659  0.1535
34986SOL    HW2 7914   4.731   6.488  10.189  0.7802 -1.2429  0.6974
34987SOL     OW 7915  10.016   8.176   0.034 -0.1021 -0.0002 -0.8839
34987SOL    HW1 7916  10.024   8.272   0.033  0.5196 -0.0493 -0.8156
34987SOL    HW2 7917   9.972   8.157   0.117 -0.2996  0.2316 -0.9343
34988SOL     OW 7918   9.912   8.616   5.575  0.1904  0.2223  0.3464
34988SOL    HW1 7919   9.960   8.559   5.635 -0.8127 -1.6630 -0.5597
34988SOL    HW2 7920   9.972   8.630   5.501  0.1994 -0.1866  0.2786
34989SOL     OW 7921   6.801   7.227   9.773  0.3137 -0.6520 -0.0208
34989SOL    HW1 7922   6.869   7.168   9.740  1.9760  0.9994  0.2757
34989SOL    HW2 7923   6.765   7.268   9.694  1.0196 -0.1450 -0.0945
34990SOL     OW 7924   8.643   2.729   9.148  0.3386  0.3806  0.0653
34990SOL    HW1 7925   8.572   2.728   9.083  1.0000  0.8816 -0.6879
34990SOL    HW2 7926   8.621   2.660   9.209 -0.1145 -0.3697 -0.9236
34991SOL     OW 7927   4.214   3.372   8.294 -0.0846  0.0261 -0.4634
34991SOL    HW1 7928   4.230   3.445   8.355 -0.3899  0.4882 -0.9329
34991SOL    HW2 7929   4.274   3.388   8.221  1.4879 -1.4179  0.4335
34992SOL     OW 7930   1.501   7.689   3.555  0.2285  0.3952  0.1600
34992SOL    HW1 7931   1.483   7.599   3.584  1.4317 -0.0762 -0.4820
34992SOL    HW2 7932   1.585   7.710   3.595  0.4628  0.8380 -0.5508
34993SOL     OW 7933   5.458   8.954   3.254 -0.5733 -0.0444  0.3188
34993SOL    HW1 7934   5.507   8.872   3.259 -1.3383 -0.4528  2.7465
34993SOL    HW2 7935   5.366   8.928   3.259 -0.8469  0.9027  0.4567
34994SOL     OW 7936   3.292   3.246   4.644 -0.2985  0.1227 -1.0091
34994SOL    HW1 7937   3.225   3.203   4.697  0.7636  0.8650  1.0374
34994SOL    HW2 7938   3.308   3.186   4.571  1.8322 -3.5488  2.1660
34995SOL     OW 7939   3.666   3.199   9.190  0.5680  0.1812 -0.6953
34995SOL    HW1 7940   3.752   3.157   9.184  0.5170  0.0466 -0.5171
34995SOL    HW2 7941   3.651   3.235   9.103  1.0442  0.6811 -0.5775
34996SOL     OW 7942   5.272   5.152   5.737  0.1458  0.5218 -0.2586
34996SOL    HW1 7943   5.250   5.202   5.659  1.7392 -1.4402 -2.0801
34996SOL    HW2 7944   5.368   5.155   5.741  0.0998  0.6517  1.6993
34997SOL     OW 7945   0.291   5.764   9.332  0.2389  0.1558 -0.0850
34997SOL    HW1 7946   0.243   5.695   9.377 -0.0505 -0.6812 -1.6141
34997SOL    HW2 7947   0.373   5.723   9.304 -0.4750  0.0156 -2.1092
34998SOL     OW 7948   4.556   0.440   5.563  0.5879  0.2686  0.2683
34998SOL    HW1 7949   4.574   0.350   5.590 -3.0892 -0.4144  1.0519
34998SOL    HW2 7950   4.497   0.432   5.489  0.3048  2.0334  0.2526
34999SOL     OW 7951   5.105   0.740   0.992 -0.2863  0.0350  0.0010
34999SOL    HW1 7952   5.064   0.687   0.924  2.3280 -1.6898 -0.3858
34999SOL    HW2 7953   5.109   0.682   1.068  0.7374  0.4005  0.2402
35000SOL     OW 7954   7.223   4.332   2.120  0.5298 -0.0757 -0.1514
35000SOL    HW1 7955   7.235   4.251   2.071  1.2546 -1.1653  1.6970
35000SOL    HW2 7956   7.146   4.316   2.174  0.5827  0.5371  0.1140
35001SOL     OW 7957   9.163   9.010   0.548 -0.0633 -0.0342  0.9642
35001SOL    HW1 7958   9.255   9.029   0.528 -0.5516  1.4513 -0.0389
35001SOL    HW2 7959   9.124   9.096   0.563 -1.6137 -0.5161 -0.0974
35002SOL     OW 7960   5.725   2.150   0.345 -0.5363 -0.2552  0.4585
35002SOL    HW1 7961   5.788   2.078   0.349 -0.5914 -0.3291  0.0814
35002SOL    HW2 7962   5.645   2.115   0.385 -0.8759 -0.7446 -0.5958
35003SOL     OW 7963  10.050   5.255   3.646  0.2770 -0.0362  0.2963
35003SOL    HW1 7964  10.110   5.255   3.721  0.6170 -1.6013  0.0612
35003SOL    HW2 7965   9.963   5.255   3.686  0.3696  2.2236  0.6419
35004SOL     OW 7966   0.208   9.521  10.296 -0.2493  0.0478  0.1400
35004SOL    HW1 7967   0.134   9.502  10.355 -0.7561  0.6631 -0.2771
35004SOL    HW2 7968   0.170   9.577  10.228  0.7808  1.0967  0.3866
35005SOL     OW 7969   4.562   6.151   1.377  0.1254 -0.2833 -0.0055
35005SOL    HW1 7970   4.540   6.143   1.469 -0.4105 -2.2958 -0.2574
35005SOL    HW2 7971   4.655   6.172   1.377  0.6070 -2.1172  1.0364
35006SOL     OW 7972   0.106   8.049   8.167 -0.0032 -0.1096  0.3361
35006SOL    HW1 7973   0.173   8.034   8.101 -1.1715  1.3869 -1.2776
35006SOL    HW2 7974   0.081   7.961   8.197  1.4081 -0.7524 -0.3016
35007SOL     OW 7975   8.817   4.726   2.033  0.4548 -0.2343  0.3612
35007SOL    HW1 7976   8.829   4.636   2.061  0.7651 -0.0649  0.7864
35007SOL    HW2 7977   8.837   4.725   1.939 -2.9168 -1.2788 -0.4840
35008SOL     OW 7978   3.517   9.392   6.347 -0.1942  0.7193 -0.4267
35008SOL    HW1 7979   3.474   9.377   6.431  2.4676  1.1738  1.1466
35008SOL    HW2 7980   3.565   9.311   6.330  2.1239  1.8542  0.3694
35009SOL     OW 7981   8.272   0.981   3.496  0.3937 -0.7485  0.2156
35009SOL    HW1 7982   8.350   1.033   3.518 -0.1554 -0.0079  0.4721
35009SOL    HW2 7983   8.306   0.902   3.455  1.2394  0.3758 -1.3742
35010SOL     OW 7984   2.770   8.383   6.325  0.0789  0.5498 -0.1443
35010SOL    HW1 7985   2.782   8.306   6.381 -0.7884  0.4053 -0.1484
35010SOL    HW2 7986   2.777   8.349   6.235 -1.9769  0.1516 -0.1918
35011SOL     OW 7987   6.987   8.873   3.486  0.1803 -0.1927  0.3421
35011SOL    HW1 7988   6.972   8.963   3.515  1.3696 -0.3897  1.6864
35011SOL    HW2 7989   6.952   8.818   3.556  0.0243 -0.7903 -0.1815
35012SOL     OW 7990   9.618  10.108  10.415 -0.5858 -0.5460  0.1128
35012SOL    HW1 7991   9.600  10.181  10.474  1.1746 -0.5355  0.6897
35012SOL    HW2 7992   9.597  10.029  10.466  1.2045 -0.5466  0.8875
35013SOL     OW 7993   9.842   1.584   5.595  0.6448 -0.1569  0.2240
35013SOL    HW1 7994   9.899   1.566   5.521  1.7187  0.3204  0.9098
35013SOL    HW2 7995   9.788   1.658   5.566  1.5478  0.4955  0.1531
35014SOL     OW 7996   5.964   0.643   5.317  0.8874  0.4533 -0.4610
35014SOL    HW1 7997   5.924   0.725   5.345 -2.4245 -0.8165 -0.9591
35014SOL    HW2 7998   5.988   0.599   5.398  2.4272  1.7185 -0.1807
35015SOL     OW 7999   0.084   3.083   6.117  0.1820 -0.8025 -0.3497
35015SOL    HW1 8000   0.009   3.087   6.058 -1.3738 -1.2757  1.4987
35015SOL    HW2 8001   0.114   2.992   6.111 -0.0687 -0.8886 -0.3200
35016SOL     OW 8002   8.559   5.826   3.584 -0.9226  0.1171 -0.2903
35016SOL    HW1 8003   8.513   5.743   3.573 -0.2262 -0.2800 -0.3204
35016SOL    HW2 8004   8.641   5.814   3.536 -0.2699  0.3640  0.7162
35017SOL     OW 8005   6.180   8.418   5.250 -0.5666  0.2609  0.5364
35017SOL    HW1 8006   6.266   8.458   5.236 -0.0047 -1.6337 -2.2517
35017SOL    HW2 8007   6.122   8.461   5.187 -0.9306 -0.4648  0.3623
35018SOL     OW 8008   4.385   0.123   2.779  0.4378 -0.0705  0.1401
35018SOL    HW1 8009   4.454   0.188   2.782  0.7062 -0.3936  1.2185
35018SOL    HW2 8010   4.348   0.131   2.691 -1.6608  3.7411  1.1479
35019SOL     OW 8011   1.097  10.400   6.945  0.0533  0.4305  0.1847
35019SOL    HW1 8012   1.174  10.423   6.997 -0.1275  3.2511 -0.6357
35019SOL    HW2 8013   1.028  10.383   7.009  0.1945  2.4814  0.9564
35020SOL     OW 8014   3.720   8.291   9.719 -0.0713  0.0226 -0.3031
35020SOL    HW1 8015   3.794   8.337   9.758  1.4987 -1.9313 -0.8259
35020SOL    HW2 8016   3.653   8.292   9.787  1.2464 -0.0772  1.0464
35021SOL     OW 8017   3.105   6.451   2.935 -0.2815 -0.6419  0.0214
35021SOL    HW1 8018   3.103   6.420   3.025 -1.1240 -0.1018  0.1952
35021SOL    HW2 8019   3.084   6.374   2.882 -0.1959 -0.8611  0.3064
35022SOL     OW 8020   3.093   7.178   5.974 -0.0888  0.3086 -0.1824
35022SOL    HW1 8021   3.117   7.271   5.982  1.7585  0.0719 -2.2483
35022SOL    HW2 8022   3.133   7.150   5.892 -2.1172 -1.8951 -0.5142
35023SOL     OW 8023   6.395  10.478   2.339  0.1765 -0.8381  0.0301
35023SOL    HW1 8024   6.415  10.568   2.364 -3.4473 -0.1809  1.2550
35023SOL    HW2 8025   6.446  10.423   2.399 -0.0736  0.5080  1.5282
35024SOL     OW 8026   3.882  10.122   9.920 -0.3074  0.5048  0.4336
35024SOL    HW1 8027   3.939  10.198   9.917 -1.0815  1.0851  0.0409
35024SOL    HW2 8028   3.876  10.100  10.013 -0.4859  1.2368  0.6012
35025SOL     OW 8029   9.490  10.675   2.029  0.3054  0.3347 -0.5642
35025SOL    HW1 8030   9.577  10.663   2.067 -0.0850 -0.6718  0.0423
35025SOL    HW2 8031   9.430  10.673   2.104 -0.2987  0.4004 -1.0356
35026SOL     OW 8032   1.729   0.558   5.137  0.1170 -0.0738  0.4815
35026SOL    HW1 8033   1.815   0.535   5.174 -0.0419 -1.1835  0.2062
35026SOL    HW2 8034   1.681   0.597   5.210  0.2035 -1.1938  1.1568
35027SOL     OW 8035   5.246   4.627   5.452  0.2550 -0.1263  0.3011
35027SOL    HW1 8036   5.184   4.613   5.524  1.4572  0.1308  1.4096
35027SOL    HW2 8037   5.269   4.720   5.459  0.9710 -0.2841  0.0623
35028SOL     OW 8038   1.582   2.721  10.197  0.3936 -0.1817 -0.3818
35028SOL    HW1 8039   1.554   2.632  10.176 -0.9825 -0.0355  0.6568
35028SOL    HW2 8040   1.545   2.775  10.126  0.4623 -0.3257 -0.5285
35029SOL     OW 8041   1.076   0.276  10.571  0.3328  0.2645 -0.1242
35029SOL    HW1 8042   1.060   0.316  10.657 -0.2835  0.5492 -0.3604
35029SOL    HW2 8043   1.017   0.201  10.568  0.5083  0.1292 -0.2154
35030SOL     OW 8044   4.635   5.210   2.103  0.1498 -0.1285  0.4398
35030SOL    HW1 8045   4.690   5.139   2.136  0.6528  0.1168  0.1394
35030SOL    HW2 8046   4.685   5.289   2.122  1.1174 -0.0354 -2.1065
35031SOL     OW 8047   6.257   8.035   4.984 -0.0483 -0.3531  0.0618
35031SOL    HW1 8048   6.243   8.078   5.068 -0.1062  0.7240 -0.4841
35031SOL    HW2 8049   6.324   7.968   5.003  0.9319  0.7644  0.6922
35032SOL     OW 8050   4.343   1.750   9.866 -0.1042 -0.7551  0.2979
35032SOL    HW1 8051   4.334   1.844   9.882 -1.6012 -0.9111  0.5111
35032SOL    HW2 8052   4.409   1.721   9.929 -0.1673  0.0341  0.7343
35033SOL     OW 8053   3.471   1.594   6.910 -0.4145  0.0322  0.2322
35033SOL    HW1 8054   3.515   1.522   6.865 -0.0090  0.5949 -0.2886
35033SOL    HW2 8055   3.539   1.632   6.966 -0.5627  0.1543  0.3290
35034SOL     OW 8056   4.927   7.638   7.811  0.3160 -0.0950  0.1690
35034SOL    HW1 8057   5.006   7.614   7.762  0.7396  1.5249  0.0179
35034SOL    HW2 8058   4.938   7.595   7.896  0.1341 -1.9664 -0.6899
35035SOL     OW 8059   3.048   8.688   1.299 -0.3150  0.2626  0.5724
35035SOL    HW1 8060   3.076   8.779   1.297  1.9138 -0.3559 -0.7501
35035SOL    HW2 8061   3.013   8.671   1.211 -0.5021 -0.2134  0.7335
35036SOL     OW 8062   4.246   5.598   3.305  0.7108  0.5152  0.6771
35036SOL    HW1 8063   4.289   5.562   3.228  0.6309 -0.9226  1.2809
35036SOL    HW2 8064   4.260   5.693   3.298 -0.3452  0.5692 -1.7273
35037SOL     OW 8065   7.438   0.455   8.629  0.4247  0.5263  0.3353
35037SOL    HW1 8066   7.415   0.372   8.586 -1.4525  0.7478  0.7946
35037SOL    HW2 8067   7.448   0.431   8.721  1.4258  0.5619  0.2405
35038SOL     OW 8068   8.155   2.207   2.365  0.6056 -0.2799 -0.2215
35038SOL    HW1 8069   8.220   2.167   2.424  0.8364 -0.3011 -0.4866
35038SOL    HW2 8070   8.083   2.144   2.362 -0.9364  1.1561  2.6532
35039SOL     OW 8071   1.719   6.115   8.004  0.0683  0.2346 -0.3904
35039SOL    HW1 8072   1.718   6.204   8.038  0.9437  0.0834  0.0617
35039SOL    HW2 8073   1.658   6.067   8.060 -1.0964  0.7292 -1.1981
35040SOL     OW 8074   1.184   4.355   8.674 -0.6925 -0.3210  0.1388
35040SOL    HW1 8075   1.221   4.283   8.624  0.8691 -0.2929  1.1686
35040SOL    HW2 8076   1.093   4.330   8.689 -0.4938 -1.5135 -0.5160
35041SOL     OW 8077   6.935   9.616   8.966 -0.1839 -0.2739 -0.1539
35041SOL    HW1 8078   6.860   9.560   8.948  0.2315 -0.9941  0.2928
35041SOL    HW2 8079   6.928   9.687   8.903 -0.6234 -0.9306 -0.8646
35042SOL     OW 8080   0.869   5.706   3.496 -0.0655  0.2104 -0.2199
35042SOL    HW1 8081   0.912   5.632   3.538 -0.8974 -0.6488 -0.8591
35042SOL    HW2 8082   0.825   5.752   3.567 -0.3716 -0.4796  0.0402
35043SOL     OW 8083   3.388   1.191   4.274  0.4816  0.0659  0.2264
35043SOL    HW1 8084   3.458   1.145   4.320  0.6565  0.6658  0.5715
35043SOL    HW2 8085   3.418   1.197   4.183 -0.0438 -1.4786 -0.0823
35044SOL     OW 8086   6.406   6.797  10.085 -0.4997  0.0178  0.4745
35044SOL    HW1 8087   6.478   6.859  10.094 -0.2925 -0.2051  0.3868
35044SOL    HW2 8088   6.431   6.723  10.140 -1.8699  0.9945  2.4946
35045SOL     OW 8089   5.596   2.776   4.888  0.4710 -0.6422  0.0314
35045SOL    HW1 8090   5.531   2.821   4.834  0.5109 -0.2353  0.3186
35045SOL    HW2 8091   5.593   2.685   4.858 -0.4113 -0.6847  0.2176
35046SOL     OW 8092   7.219   8.813   8.435  0.1113 -0.3080 -0.6509
35046SOL    HW1 8093   7.221   8.717   8.432  0.0071 -0.3758  0.6429
35046SOL    HW2 8094   7.292   8.836   8.493  0.1709  0.4004 -0.9999
35047SOL     OW 8095   6.751   8.109   7.201 -0.5143 -0.6936 -0.4647
35047SOL    HW1 8096   6.681   8.158   7.243 -1.2779 -1.2950 -1.0086
35047SOL    HW2 8097   6.740   8.019   7.233  0.1329 -0.7525 -0.3964
35048SOL     OW 8098   7.228  10.286   1.980  0.2296 -0.3557  0.0189
35048SOL    HW1 8099   7.259  10.323   2.063 -0.3085  0.8169 -0.2762
35048SOL    HW2 8100   7.269  10.200   1.975  2.2639  0.5222  0.3449
35049SOL     OW 8101   5.652   9.188   4.529 -0.1322 -0.0435 -0.5710
35049SOL    HW1 8102   5.562   9.220   4.533 -0.2371 -0.3659 -0.3912
35049SOL    HW2 8103   5.687   9.203   4.617  0.1809  0.6304 -0.7977
35050SOL     OW 8104   8.695   6.300   4.309  0.1875  0.8361  0.0720
35050SOL    HW1 8105   8.646   6.220   4.288 -0.8009  1.2903  0.5536
35050SOL    HW2 8106   8.751   6.315   4.233 -0.6117  0.4227 -0.6125
35051SOL     OW 8107   9.971   1.042   7.799  0.3737 -0.0881 -0.2799
35051SOL    HW1 8108   9.980   1.130   7.762  1.3241 -0.8410 -1.9415
35051SOL    HW2 8109   9.926   0.992   7.731  0.7550 -1.1418  0.2245
35052SOL     OW 8110   1.313   8.839   8.507 -0.0734 -0.0620  0.1409
35052SOL    HW1 8111   1.325   8.826   8.413  0.5041  1.5356 -0.0495
35052SOL    HW2 8112   1.286   8.931   8.515 -1.1114 -0.4493  1.4710
35053SOL     OW 8113   0.321   3.354   5.361  0.6622 -0.5648  0.0138
35053SOL    HW1 8114   0.410   3.367   5.395  0.3419 -0.0364  0.6608
35053SOL    HW2 8115   0.272   3.430   5.391  0.4682  0.1925 -2.0485
35054SOL     OW 8116   3.809   5.355   7.316 -0.1037  0.5459 -0.2323
35054SOL    HW1 8117   3.720   5.341   7.348 -0.1374 -2.6688 -1.4391
35054SOL    HW2 8118   3.809   5.321   7.226  2.7385 -1.4129  0.3595
35055SOL     OW 8119   0.935   1.489   6.489  0.5109 -0.1875  0.4555
35055SOL    HW1 8120   0.952   1.492   6.394  0.4355  1.2785  0.4665
35055SOL    HW2 8121   0.991   1.558   6.525 -0.8207  0.5291  1.2408
35056SOL     OW 8122   5.469   8.527   1.810  0.2027  0.6200  0.5024
35056SOL    HW1 8123   5.556   8.550   1.777 -0.5593  2.2624 -0.4803
35056SOL    HW2 8124   5.422   8.610   1.813 -1.5110 -0.3106  0.4501
35057SOL     OW 8125   6.312   7.064   7.349 -0.1069 -0.0429  0.0621
35057SOL    HW1 8126   6.274   7.127   7.411 -0.7535 -1.3858  1.0629
35057SOL    HW2 8127   6.343   6.992   7.403  2.1876  0.1404 -0.9153
35058SOL     OW 8128   9.137   5.502   1.204  0.0954 -0.2106 -0.2218
35058SOL    HW1 8129   9.201   5.456   1.150 -0.0329  0.3266 -0.8353
35058SOL    HW2 8130   9.089   5.432   1.249  0.4294 -0.6441 -0.5367
35059SOL     OW 8131   7.918  10.131   5.072  0.7950  0.4417 -0.0868
35059SOL    HW1 8132   7.870  10.050   5.055 -0.8985  1.3445  0.1758
35059SOL    HW2 8133   7.919  10.177   4.988  0.0586  0.9937  0.1958
35060SOL     OW 8134   6.825   2.534   3.898  0.2184 -0.1796 -0.2159
35060SOL    HW1 8135   6.784   2.557   3.982  0.0445  0.0573 -0.3662
35060SOL    HW2 8136   6.805   2.607   3.840 -0.6471 -0.8657 -0.8042
35061SOL     OW 8137   1.782  10.101   5.402  0.5055 -0.4075 -0.2354
35061SOL    HW1 8138   1.769  10.150   5.483 -0.1633 -2.3895  0.9168
35061SOL    HW2 8139   1.745  10.157   5.333 -0.2973  0.6666  1.0353
35062SOL     OW 8140   4.319   4.147   3.179  0.5193 -0.0441  0.3450
35062SOL    HW1 8141   4.303   4.232   3.220  0.5527  0.6908 -1.1007
35062SOL    HW2 8142   4.273   4.085   3.235 -3.1737  1.3884 -0.7740
35063SOL     OW 8143   6.903   7.227   6.822 -0.5823  0.4493 -0.2417
35063SOL    HW1 8144   6.826   7.282   6.835 -0.0344  1.7513 -2.1133
35063SOL    HW2 8145   6.917   7.185   6.907 -1.9159  2.0532  0.8295
35064SOL     OW 8146  10.568   5.101   4.754  0.1083 -0.4234  0.1758
35064SOL    HW1 8147  10.563   5.195   4.738  1.5882 -0.2306  0.7111
35064SOL    HW2 8148  10.651   5.074   4.715 -0.6806 -1.6840 -0.6998
35065SOL     OW 8149   0.828   6.931   5.962  0.2561  0.1181 -0.3118
35065SOL    HW1 8150   0.917   6.894   5.963 -0.3311 -1.3715 -0.4011
35065SOL    HW2 8151   0.802   6.935   6.054  0.0209 -0.4959 -0.3440
35066SOL     OW 8152   2.792   4.858   5.687  0.2479 -0.0458 -0.0906
35066SOL    HW1 8153   2.834   4.940   5.661  1.1067 -0.9646 -1.7782
35066SOL    HW2 8154   2.859   4.791   5.671 -0.3310 -1.0728  1.5244
35067SOL     OW 8155   0.340   1.495   4.791  0.8054 -0.0583  0.1927
35067SOL    HW1 8156   0.303   1.467   4.707  0.6976 -0.2407  0.3003
35067SOL    HW2 8157   0.270   1.545   4.833  0.4035 -1.0249  0.7185
35068SOL     OW 8158   9.680   2.013  10.391  0.1501  0.0221  0.0415
35068SOL    HW1 8159   9.712   2.013  10.301 -1.2044  0.9701 -0.4596
35068SOL    HW2 8160   9.611   1.947  10.392  0.4202 -0.2652  0.5050
35069SOL     OW 8161  10.608   1.270   6.668  0.1134  0.2985 -0.2744
35069SOL    HW1 8162  10.682   1.315   6.709  0.4343 -0.9804  0.5657
35069SOL    HW2 8163  10.648   1.203   6.613 -0.4225 -1.2712  1.1910
35070SOL     OW 8164   1.696   5.449   8.041  0.4392 -0.0623  0.9268
35070SOL    HW1 8165   1.712   5.543   8.041  0.3373 -0.0438  0.6260
35070SOL    HW2 8166   1.783   5.409   8.038  0.5035  0.0147  1.5997
35071SOL     OW 8167   5.508   4.764  10.058 -0.6945 -0.3948  0.3079
35071SOL    HW1 8168   5.591   4.779  10.105 -0.5638 -0.5475  0.1294
35071SOL    HW2 8169   5.510   4.671  10.036 -0.7017 -0.3019 -0.0971
35072SOL     OW 8170   5.674   1.714   1.503  0.4367  0.0710 -0.6222
35072SOL    HW1 8171   5.711   1.633   1.470  1.3793  0.5518 -0.7644
35072SOL    HW2 8172   5.668   1.702   1.598  0.6247 -0.1411 -0.6386
35073SOL     OW 8173   6.896   6.336  10.508  0.1210  0.4530  0.3199
35073SOL    HW1 8174   6.959   6.401  10.539 -1.3030  2.2222 -0.2999
35073SOL    HW2 8175   6.916   6.325  10.415 -1.7999  2.7899 -0.4801
35074SOL     OW 8176   2.650  10.492   6.005 -0.0410 -0.1915  0.2034
35074SOL    HW1 8177   2.633  10.425   5.939 -0.2530  1.2424 -1.2677
35074SOL    HW2 8178   2.727  10.540   5.972 -1.3432  1.8172 -0.0929
35075SOL     OW 8179   1.152  10.467   8.300  0.0228  1.2017 -0.2817
35075SOL    HW1 8180   1.110  10.506   8.377  0.6294  0.0995  0.6370
35075SOL    HW2 8181   1.087  10.404   8.268 -0.0546  1.3503 -0.4195
35076SOL     OW 8182   5.192   1.197   5.085  0.4678 -0.0033  0.6681
35076SOL    HW1 8183   5.109   1.201   5.133  1.2349 -0.7722  2.1084
35076SOL    HW2 8184   5.199   1.106   5.056 -0.3185  0.5810 -1.6245
35077SOL     OW 8185   4.130   4.240   4.180 -0.2969  0.1864  0.2442
35077SOL    HW1 8186   4.121   4.190   4.261 -0.7969 -0.7798 -0.3936
35077SOL    HW2 8187   4.067   4.312   4.189 -0.4302  0.0178  0.6652
35078SOL     OW 8188   2.328   5.396   4.870  0.2258  0.0132  0.4258
35078SOL    HW1 8189   2.375   5.475   4.843  2.8123 -1.6886 -0.5502
35078SOL    HW2 8190   2.291   5.417   4.955  0.4611  2.3868 -0.0073
35079SOL     OW 8191   1.198   8.459   9.179  0.0513  0.2294 -0.6849
35079SOL    HW1 8192   1.291   8.458   9.154  0.1756  0.1221 -0.2321
35079SOL    HW2 8193   1.151   8.445   9.097  0.4754 -0.8852 -0.7536
35080SOL     OW 8194  10.286   3.060   1.289  0.3198 -0.6170  0.3104
35080SOL    HW1 8195  10.279   3.045   1.195 -0.3444  0.7377  0.1195
35080SOL    HW2 8196  10.318   3.150   1.297  2.2530 -1.3454  1.3859
35081SOL     OW 8197   8.612   0.316   4.639  0.0732 -0.0384 -0.8122
35081SOL    HW1 8198   8.701   0.307   4.671 -0.5780  1.8867  1.8930
35081SOL    HW2 8199   8.620   0.359   4.554  1.6802  1.2934 -0.0208
35082SOL     OW 8200   3.830   5.786   4.259  0.0188  0.1546 -0.0608
35082SOL    HW1 8201   3.845   5.876   4.289 -1.6624  0.0860  1.0994
35082SOL    HW2 8202   3.759   5.753   4.314  0.6595 -1.9420 -0.3824
35083SOL     OW 8203   9.761   5.192   5.330  0.3390  0.0383  0.5596
35083SOL    HW1 8204   9.708   5.250   5.274  1.0333  1.3111  1.1913
35083SOL    HW2 8205   9.737   5.215   5.419  1.9725  0.6816  0.8656
35084SOL     OW 8206   7.942   9.335   2.454 -0.4670 -0.2224 -0.0238
35084SOL    HW1 8207   8.016   9.361   2.510 -0.6437 -1.9911  1.1221
35084SOL    HW2 8208   7.878   9.405   2.465  1.0421  1.4088 -1.1397
35085SOL     OW 8209   8.802   4.870   5.163  0.2829  0.3196  0.0986
35085SOL    HW1 8210   8.775   4.835   5.078  2.3683 -1.6678  0.1565
35085SOL    HW2 8211   8.838   4.956   5.142 -0.0419  0.2262 -0.9187
35086SOL     OW 8212   9.840   6.237   9.385  0.1010  0.2443 -0.0543
35086SOL    HW1 8213   9.808   6.295   9.316  0.1449  0.1675 -0.1380
35086SOL    HW2 8214   9.935   6.247   9.384  0.0594  0.7976  0.4742
35087SOL     OW 8215   2.251   7.523   6.338 -0.6058 -0.2235 -0.0698
35087SOL    HW1 8216   2.157   7.539   6.328 -0.5743 -0.7534 -1.5000
35087SOL    HW2 8217   2.292   7.599   6.296 -0.3767  0.3782  1.2184
35088SOL     OW 8218   3.287   1.261   7.433  0.5472  0.0342 -0.3446
35088SOL    HW1 8219   3.207   1.301   7.467  0.5285  0.0919 -0.4524
35088SOL    HW2 8220   3.327   1.219   7.508 -0.0971 -0.8642 -0.4867
35089SOL     OW 8221   7.428   6.620   7.091  0.6376 -0.5487  0.6430
35089SOL    HW1 8222   7.335   6.604   7.071  0.1197  0.8835  1.7163
35089SOL    HW2 8223   7.475   6.580   7.019 -0.8080 -1.4896  0.1680
35090SOL     OW 8224   3.032   9.886   2.105 -0.4812  0.0874 -0.5662
35090SOL    HW1 8225   3.126   9.901   2.115 -0.8092  1.9268  0.2641
35090SOL    HW2 8226   3.014   9.808   2.157  0.6124 -0.3493 -0.8435
35091SOL     OW 8227   3.754   0.951  10.088  0.1100  0.3150 -0.1923
35091SOL    HW1 8228   3.783   1.042  10.082 -0.5901  0.5245 -0.4941
35091SOL    HW2 8229   3.681   0.953  10.150  1.8651 -0.5026  2.0658
35092SOL     OW 8230   0.124   5.623   0.854 -0.2076  0.0248  0.2080
35092SOL    HW1 8231   0.106   5.643   0.946 -2.5719 -1.3221  0.1317
35092SOL    HW2 8232   0.079   5.540   0.839  0.9790 -0.2874 -1.9336
35093SOL     OW 8233   4.333   5.834   7.663 -0.4971 -0.5212  0.0441
35093SOL    HW1 8234   4.424   5.806   7.664 -0.6501 -1.0570 -0.5399
35093SOL    HW2 8235   4.311   5.849   7.755 -0.0831 -1.2532  0.2613
35094SOL     OW 8236   6.168   9.851   8.114  0.2115 -0.0712 -0.2217
35094SOL    HW1 8237   6.110   9.890   8.049  0.2739 -0.4757 -0.5292
35094SOL    HW2 8238   6.108   9.812   8.179  0.1349 -0.3593 -0.4600
35095SOL     OW 8239   0.926   2.979   6.357  0.4290 -0.3056 -0.3111
35095SOL    HW1 8240   0.971   2.938   6.283  1.4228  0.3185 -0.0683
35095SOL    HW2 8241   0.929   3.073   6.338  1.2638 -0.0819  0.8052
35096SOL     OW 8242   9.334   5.681   9.757  0.3760  0.0104 -0.0760
35096SOL    HW1 8243   9.265   5.712   9.815 -0.2803 -1.1527 -0.2013
35096SOL    HW2 8244   9.288   5.662   9.675  0.9246 -0.3709 -0.2958
35097SOL     OW 8245  10.310   9.922   0.640  0.7591  0.5418 -0.2785
35097SOL    HW1 8246  10.243   9.892   0.579  0.8192  1.2428 -0.7102
35097SOL    HW2 8247  10.275   9.904   0.727  0.7574 -0.6557 -0.5155
35098SOL     OW 8248   7.050   0.562   8.624 -0.4167 -0.0424 -0.2144
35098SOL    HW1 8249   6.982   0.543   8.688  0.2030 -0.8879  0.2146
35098SOL    HW2 8250   7.046   0.657   8.611  0.1468  0.3088  1.8845
35099SOL     OW 8251   8.143  10.424   1.360  0.1973 -0.3478  0.3818
35099SOL    HW1 8252   8.064  10.372   1.377 -0.3812  0.1845 -0.5597
35099SOL    HW2 8253   8.148  10.484   1.434  0.1752 -0.9229  0.8566
35100SOL     OW 8254  10.628   5.893   7.788  0.3997 -0.1527  0.0616
35100SOL    HW1 8255  10.545   5.862   7.752  1.2017 -1.5028 -0.7040
35100SOL    HW2 8256  10.604   5.939   7.869 -1.0421 -1.0066  0.1437
35101SOL     OW 8257  10.686   3.956   4.905 -0.3239  0.0382  0.0374
35101SOL    HW1 8258  10.774   3.973   4.872 -0.6179  0.3096 -0.6364
35101SOL    HW2 8259  10.657   3.878   4.856 -0.8724  0.6157 -0.5827
35102SOL     OW 8260   0.445   5.517   2.692  0.5712  0.2963  0.1011
35102SOL    HW1 8261   0.511   5.572   2.650 -0.7084  2.0809  0.3078
35102SOL    HW2 8262   0.365   5.568   2.687 -0.5408 -1.2903  0.9392
35103SOL     OW 8263  10.171   2.481   4.388  0.1214  0.5769  0.4193
35103SOL    HW1 8264  10.167   2.506   4.295  0.3285  1.2633  0.5918
35103SOL    HW2 8265  10.233   2.542   4.427 -0.2523  0.5420  1.0910
35104SOL     OW 8266   2.231   9.332   7.280  0.1984 -0.1958  0.5273
35104SOL    HW1 8267   2.324   9.314   7.288  0.2722 -0.1472 -0.1120
35104SOL    HW2 8268   2.226   9.405   7.218 -0.2217  0.3491  1.2002
35105SOL     OW 8269  10.203   4.580   5.367 -0.1337  0.4590 -0.6418
35105SOL    HW1 8270  10.159   4.523   5.430 -1.7902 -1.0108 -2.9810
35105SOL    HW2 8271  10.165   4.666   5.381  0.3369  0.4362  1.0398
35106SOL     OW 8272   4.491   1.085   4.214 -0.5113 -0.3146  0.0107
35106SOL    HW1 8273   4.418   1.028   4.240 -2.1488  0.7594 -1.9983
35106SOL    HW2 8274   4.548   1.028   4.163 -2.0798 -0.2858 -1.8980
35107SOL     OW 8275   7.357   4.030   8.015 -0.4367 -0.3812  0.2236
35107SOL    HW1 8276   7.377   4.039   7.922  0.4396 -0.9218  0.3567
35107SOL    HW2 8277   7.364   3.937   8.033  0.7266 -0.1442  1.1139
35108SOL     OW 8278   1.707   5.613   7.470 -0.2986 -0.0177  0.1292
35108SOL    HW1 8279   1.693   5.669   7.394 -0.4912  0.2319  0.3474
35108SOL    HW2 8280   1.785   5.650   7.513  0.0029 -0.3514 -0.1194
35109SOL     OW 8281   9.914   0.211   0.855  0.5930  0.3677 -0.6086
35109SOL    HW1 8282   9.933   0.158   0.778 -1.4601  1.1295 -1.7098
35109SOL    HW2 8283   9.841   0.267   0.829  0.7930  1.6991  1.4338
35110SOL     OW 8284   9.620   7.186   5.431 -0.3811  0.4044 -0.1524
35110SOL    HW1 8285   9.715   7.181   5.420 -0.2969  0.6170  0.4253
35110SOL    HW2 8286   9.600   7.280   5.428 -0.5679  0.3616 -0.2518
35111SOL     OW 8287   2.124   5.929  10.156  0.2645  0.3140  0.1681
35111SOL    HW1 8288   2.115   6.022  10.177  0.4965  0.1899  0.8278
35111SOL    HW2 8289   2.094   5.884  10.234  0.9047 -0.1585  0.1436
35112SOL     OW 8290   8.898   4.846   8.653  0.8031  0.2729  0.3682
35112SOL    HW1 8291   8.870   4.858   8.744  0.3508 -1.4755  0.4931
35112SOL    HW2 8292   8.941   4.761   8.652 -0.7515 -0.5780 -1.3673
35113SOL     OW 8293   4.660   3.001   1.602  0.8765  0.4419  0.1710
35113SOL    HW1 8294   4.651   3.096   1.603  1.3523  0.4906 -0.0510
35113SOL    HW2 8295   4.595   2.970   1.665  0.3816  0.8867 -0.1101
35114SOL     OW 8296   1.034  10.060   0.805  0.3212 -0.2169 -0.5927
35114SOL    HW1 8297   1.121  10.096   0.787 -0.0019  1.3310  0.7728
35114SOL    HW2 8298   1.051   9.968   0.825  1.8308  0.3138  0.8189
35115SOL     OW 8299   7.327   1.633   5.758  0.0856 -0.5780 -0.1910
35115SOL    HW1 8300   7.263   1.704   5.746 -0.8155 -1.2322  0.5450
35115SOL    HW2 8301   7.394   1.650   5.692  0.0974  1.1666  0.2114
35116SOL     OW 8302  10.636   1.806   7.172  0.1951 -0.1512  0.1967
35116SOL    HW1 8303  10.589   1.845   7.098 -0.3852 -1.6521 -0.2826
35116SOL    HW2 8304  10.675   1.880   7.218 -1.4140  1.0415 -0.2541
35117SOL     OW 8305   4.803   8.183   2.074 -0.4337  0.3926  0.2916
35117SOL    HW1 8306   4.887   8.202   2.032 -0.8779 -0.7441 -1.2088
35117SOL    HW2 8307   4.823   8.182   2.168  1.1066  0.6966 -0.0020
35118SOL     OW 8308  10.674   2.198   2.391  0.3698 -0.2215 -0.1775
35118SOL    HW1 8309  10.736   2.171   2.324 -1.7170 -0.8995 -1.9406
35118SOL    HW2 8310  10.590   2.162   2.363 -0.8783  0.7015  2.0586
35119SOL     OW 8311   5.426   1.782   8.516  0.0011  0.5804  0.4556
35119SOL    HW1 8312   5.358   1.791   8.582 -3.9638  1.1096 -3.2362
35119SOL    HW2 8313   5.457   1.871   8.500 -1.1579  0.8776 -0.2759
35120SOL     OW 8314   9.485   8.239   4.197  0.0451  0.1551  0.1348
35120SOL    HW1 8315   9.475   8.321   4.245  0.1138  1.2727 -1.6685
35120SOL    HW2 8316   9.503   8.266   4.107  2.4547 -1.8242 -0.0960
35121SOL     OW 8317   9.086   4.446   2.290 -1.2111 -0.9810  0.4523
35121SOL    HW1 8318   9.137   4.507   2.236 -1.0833  0.1640  1.8115
35121SOL    HW2 8319   9.152   4.386   2.326 -1.1777 -1.1589  0.1043
35122SOL     OW 8320   0.814   4.603   7.112 -0.2080  0.0885  0.7947
35122SOL    HW1 8321   0.766   4.678   7.075  0.2488  0.0629  0.1537
35122SOL    HW2 8322   0.873   4.643   7.176  0.5428  0.3540 -0.0534
35123SOL     OW 8323   0.420   0.376   8.407  0.1223  1.1086 -0.6535
35123SOL    HW1 8324   0.361   0.300   8.402  0.4594  0.4378  2.8092
35123SOL    HW2 8325   0.506   0.340   8.388  0.3255  0.4345  1.2761
35124SOL     OW 8326   7.756   9.134   9.258  0.0183 -0.1057 -0.1918
35124SOL    HW1 8327   7.848   9.109   9.263  0.1316 -0.1175 -1.7533
35124SOL    HW2 8328   7.755   9.227   9.283  0.2135 -0.4858  1.3210
35125SOL     OW 8329   8.609   7.589   3.637 -0.2174  0.0174 -0.5666
35125SOL    HW1 8330   8.594   7.497   3.657 -0.3566 -0.2204 -1.6836
35125SOL    HW2 8331   8.660   7.622   3.711 -0.7786 -0.7722  0.1882
35126SOL     OW 8332   6.890   2.115   8.832  0.2061 -0.1550  0.1198
35126SOL    HW1 8333   6.924   2.068   8.756 -0.8082 -3.4831  1.5807
35126SOL    HW2 8334   6.960   2.108   8.898  0.2445  0.9096  0.2198
35127SOL     OW 8335   2.324   9.364   1.680  0.3497  0.2704 -0.2902
35127SOL    HW1 8336   2.358   9.385   1.593  0.4895  0.2306 -0.2470
35127SOL    HW2 8337   2.391   9.398   1.741 -0.1020  0.9678 -0.1685
35128SOL     OW 8338   3.578   3.794   8.879 -0.1165  0.6638 -0.4687
35128SOL    HW1 8339   3.522   3.850   8.933 -0.6424  1.2088 -1.5666
35128SOL    HW2 8340   3.607   3.725   8.939 -0.5046  1.3790  0.5680
35129SOL     OW 8341   9.941   9.266   1.554  0.5173  0.0555 -0.0373
35129SOL    HW1 8342   9.865   9.248   1.499  0.9100  0.5824 -0.7715
35129SOL    HW2 8343  10.007   9.204   1.525  0.8748  0.6343 -0.4803
35130SOL     OW 8344   0.529   1.536   2.316 -0.0816  0.1008 -0.1728
35130SOL    HW1 8345   0.491   1.479   2.383 -3.1310  0.1153 -1.7227
35130SOL    HW2 8346   0.496   1.502   2.233  1.8929  1.3215 -1.5476
35131SOL     OW 8347   1.598   7.218   1.367 -0.1096 -0.1234 -0.4979
35131SOL    HW1 8348   1.505   7.204   1.351  0.1124 -0.0104 -2.0071
35131SOL    HW2 8349   1.615   7.174   1.450 -1.1906 -1.4724 -0.9529
35132SOL     OW 8350   6.355   2.232   4.536  0.4274 -0.4694 -0.2723
35132SOL    HW1 8351   6.359   2.325   4.557 -0.2566 -0.3811 -0.5253
35132SOL    HW2 8352   6.439   2.197   4.567  0.5075  0.1439  0.2228
35133SOL     OW 8353   3.632   3.458   0.818 -0.0269  0.1185 -0.2850
35133SOL    HW1 8354   3.613   3.421   0.732  0.1270  0.6123 -0.5338
35133SOL    HW2 8355   3.560   3.429   0.873  0.1216 -0.5974 -0.4623
35134SOL     OW 8356   3.816   4.631   9.557 -0.1977  0.1474  0.0634
35134SOL    HW1 8357   3.731   4.673   9.550  0.1979  0.8497 -0.9022
35134SOL    HW2 8358   3.815   4.562   9.490  0.2552  0.6770 -0.5086
35135SOL     OW 8359   6.531   8.705   8.593  0.0226  0.3126  0.0091
35135SOL    HW1 8360   6.533   8.609   8.590 -0.9239  0.3009 -0.6259
35135SOL    HW2 8361   6.484   8.730   8.514  0.7203  1.3277 -0.0937
35136SOL     OW 8362   6.105   2.894   0.895  0.6132 -0.6920 -0.0270
35136SOL    HW1 8363   6.069   2.971   0.851 -0.1875 -0.5735  0.7959
35136SOL    HW2 8364   6.189   2.923   0.931 -0.1323  0.1211  1.1336
35137SOL     OW 8365   7.850   9.248   6.077  0.4330 -0.7123  0.3029
35137SOL    HW1 8366   7.832   9.224   5.986  1.2224 -0.2352  0.0128
35137SOL    HW2 8367   7.774   9.300   6.103  0.1529 -0.9372 -0.0413
35138SOL     OW 8368   4.801   5.495   4.060 -0.2761 -0.1007  0.5568
35138SOL    HW1 8369   4.791   5.581   4.019  1.3539 -0.3240 -0.3664
35138SOL    HW2 8370   4.893   5.491   4.087 -0.5414 -1.2138  1.3782
35139SOL     OW 8371   9.180   1.406   9.315 -0.1663 -0.4400  0.3531
35139SOL    HW1 8372   9.175   1.440   9.225  1.0268 -1.4901 -0.1473
35139SOL    HW2 8373   9.092   1.372   9.332 -1.3800  2.6419  0.8358
35140SOL     OW 8374   1.142   7.144   1.212  0.2030 -0.8230 -0.1619
35140SOL    HW1 8375   1.191   7.124   1.132 -1.0585 -1.1139 -0.8993
35140SOL    HW2 8376   1.147   7.064   1.264  0.4137 -0.8862 -0.2781
35141SOL     OW 8377   0.017   7.840   9.720  0.4960  0.3818 -0.2259
35141SOL    HW1 8378   0.111   7.829   9.735  0.1625 -1.3100  0.8594
35141SOL    HW2 8379  -0.020   7.753   9.732 -1.2734  1.0734 -0.3062
35142SOL     OW 8380   2.189   5.432   7.261  0.9070  0.0036  0.3566
35142SOL    HW1 8381   2.107   5.425   7.310  0.7684  2.3895  0.5503
35142SOL    HW2 8382   2.254   5.460   7.326  1.3369  0.4998 -0.2816
35143SOL     OW 8383   3.239   6.816   9.481 -0.0648 -0.2787 -0.2378
35143SOL    HW1 8384   3.290   6.880   9.531  1.2347 -2.4083  1.3021
35143SOL    HW2 8385   3.149   6.827   9.512 -0.0570  1.3801 -0.6934
35144SOL     OW 8386   4.562  10.476   6.174  0.0966 -0.2526  0.1702
35144SOL    HW1 8387   4.479  10.491   6.129  1.2068  0.5458 -1.6980
35144SOL    HW2 8388   4.597  10.396   6.135  1.2691  0.6775 -0.7495
35145SOL     OW 8389   4.967   8.156   9.375 -0.7541  0.4380  0.4727
35145SOL    HW1 8390   4.875   8.158   9.348 -0.7527  0.9006  0.4835
35145SOL    HW2 8391   4.966   8.184   9.466 -0.6960 -0.5266  0.7767
35146SOL     OW 8392   9.126   9.022   9.196  0.2614  0.3343  0.3282
35146SOL    HW1 8393   9.133   8.994   9.105  0.7539  0.0303  0.4576
35146SOL    HW2 8394   9.197   8.977   9.241 -0.1812  0.2270  0.9315
35147SOL     OW 8395   7.788   9.668   7.969  0.3860 -0.4699  0.1198
35147SOL    HW1 8396   7.768   9.591   7.915  0.5209 -0.2981 -0.1781
35147SOL    HW2 8397   7.856   9.637   8.029  1.0568 -0.3551 -0.5675
35148SOL     OW 8398   1.731   5.972   4.180 -0.0038 -0.0044 -0.2741
35148SOL    HW1 8399   1.804   6.034   4.181 -0.7683  0.9069  0.1684
35148SOL    HW2 8400   1.658   6.022   4.144 -0.4321 -0.8935 -0.6669
35149SOL     OW 8401  10.260   6.136   5.339  0.0568  0.1798 -0.0449
35149SOL    HW1 8402  10.298   6.078   5.405  2.9048  0.3018 -1.4385
35149SOL    HW2 8403  10.217   6.077   5.277 -1.7582  0.0072  1.2935
35150SOL     OW 8404   6.328   0.912   3.206 -0.0394 -0.5981  0.0703
35150SOL    HW1 8405   6.242   0.931   3.243 -1.2514 -0.5083 -2.5211
35150SOL    HW2 8406   6.371   0.997   3.199 -0.4018 -0.4252 -0.0785
35151SOL     OW 8407   0.470   5.702   4.817  0.1149 -0.0628  0.4711
35151SOL    HW1 8408   0.431   5.653   4.889  2.6760 -0.2963  1.8057
35151SOL    HW2 8409   0.452   5.649   4.739 -0.7230 -1.0047  1.2797
35152SOL     OW 8410   2.703   7.629   6.705  0.3357  0.0713  0.1494
35152SOL    HW1 8411   2.672   7.691   6.771  0.3915  0.4811 -0.2041
35152SOL    HW2 8412   2.710   7.546   6.752 -0.7988  0.0770  0.3617
35153SOL     OW 8413   7.526   3.958   7.089 -0.3685  0.3157 -0.4205
35153SOL    HW1 8414   7.587   4.006   7.144  0.5517 -1.6559  0.3848
35153SOL    HW2 8415   7.581   3.905   7.032 -1.3373  0.4771 -1.5525
35154SOL     OW 8416   4.291   6.508   9.407 -0.3081  0.4799 -0.1588
35154SOL    HW1 8417   4.287   6.601   9.386 -0.4440  0.4122 -0.4489
35154SOL    HW2 8418   4.349   6.471   9.341 -0.8373  0.2399 -0.5026
35155SOL     OW 8419  10.070  10.667   4.484 -0.1075 -0.3127  0.2930
35155SOL    HW1 8420  10.097  10.718   4.407  0.0157  0.8989  1.1056
35155SOL    HW2 8421  10.003  10.721   4.526 -0.0832 -0.8960  1.0958
35156SOL     OW 8422   6.060   9.785   4.294  0.4094 -0.0485  0.3888
35156SOL    HW1 8423   5.969   9.799   4.322  1.4827  2.4061  3.0308
35156SOL    HW2 8424   6.079   9.695   4.319 -0.6639  0.0823  1.7871
35157SOL     OW 8425   7.627   3.894  10.022  0.2160 -0.5726  0.2775
35157SOL    HW1 8426   7.589   3.975  10.055  2.3357  0.1934  0.9842
35157SOL    HW2 8427   7.587   3.826  10.077 -1.6871 -0.0736 -0.4178
35158SOL     OW 8428   5.658   0.373   5.909  0.3400 -0.2892 -0.2595
35158SOL    HW1 8429   5.579   0.329   5.940 -1.2192  1.7163 -1.1283
35158SOL    HW2 8430   5.709   0.303   5.867 -1.9306 -1.3517 -1.4718
35159SOL     OW 8431   0.906   9.535  10.593 -0.2588  0.3234 -0.0819
35159SOL    HW1 8432   0.855   9.549  10.513  0.8355 -2.7824 -1.4877
35159SOL    HW2 8433   0.995   9.560  10.569  0.2304 -1.3814 -0.1957
35160SOL     OW 8434   9.238   9.063   2.910 -0.1855 -0.1097 -0.2986
35160SOL    HW1 8435   9.291   9.137   2.939  1.1766 -1.2535  0.2357
35160SOL    HW2 8436   9.264   8.991   2.967 -0.1225 -1.4949 -1.9954
35161SOL     OW 8437   4.925   6.681   7.097 -0.1272 -0.2748  0.7469
35161SOL    HW1 8438   4.927   6.591   7.130  1.2494 -0.9587 -0.9975
35161SOL    HW2 8439   4.837   6.712   7.117 -0.4471 -1.8065  1.9169
35162SOL     OW 8440   7.043   3.603   8.925  0.0887  0.1573 -0.1285
35162SOL    HW1 8441   7.098   3.630   8.852  1.0347 -0.2157  0.4205
35162SOL    HW2 8442   7.048   3.675   8.987 -0.1440  0.1738 -0.1281
35163SOL     OW 8443   6.890   6.555   5.103  0.1271 -0.0725  0.4454
35163SOL    HW1 8444   6.828   6.577   5.173 -1.2275  0.4960 -0.8790
35163SOL    HW2 8445   6.835   6.523   5.032  1.2542  1.4114 -1.1671
35164SOL     OW 8446   3.376   4.847   3.045 -0.1604 -0.2153 -0.3273
35164SOL    HW1 8447   3.424   4.923   3.078 -0.3710 -0.1308 -0.2145
35164SOL    HW2 8448   3.444   4.780   3.031 -0.1334 -0.4553  0.8425
35165SOL     OW 8449   1.017   4.228   6.096  0.5348 -0.0236  0.1285
35165SOL    HW1 8450   1.053   4.231   6.007 -2.1076 -0.4285 -1.0442
35165SOL    HW2 8451   1.052   4.306   6.138  2.7117 -0.3905 -0.8761
35166SOL     OW 8452   2.241   6.776   5.054 -0.4503 -0.0975  0.0867
35166SOL    HW1 8453   2.192   6.811   5.129 -0.2751 -1.5087  0.9069
35166SOL    HW2 8454   2.210   6.827   4.979  0.3868  2.3445  1.2769
35167SOL     OW 8455   7.109   5.804   2.131 -0.4093 -0.2719 -0.4435
35167SOL    HW1 8456   7.175   5.774   2.195 -3.6057 -0.2564  3.2570
35167SOL    HW2 8457   7.096   5.896   2.153 -2.5188 -0.6031 -0.1114
35168SOL     OW 8458   2.462  10.624   8.935 -0.3002 -0.4141 -0.4385
35168SOL    HW1 8459   2.527  10.580   8.881  0.0654 -2.2545  1.3722
35168SOL    HW2 8460   2.406  10.554   8.969 -1.3735  0.7990  0.4510
35169SOL     OW 8461  10.049   1.206  10.509 -0.2045 -0.3573 -0.3772
35169SOL    HW1 8462   9.984   1.225  10.576 -1.1500 -1.4466 -0.9530
35169SOL    HW2 8463  10.133   1.206  10.555 -0.9185 -2.0495  1.0212
35170SOL     OW 8464   5.881   9.996   2.856  0.2935  0.5003 -0.2298
35170SOL    HW1 8465   5.813  10.007   2.790 -0.3816  1.3627  0.5682
35170SOL    HW2 8466   5.952  10.055   2.829  1.0950 -0.9761 -1.4840
35171SOL     OW 8467   9.546   1.647   0.494  0.1421  1.0114 -0.6302
35171SOL    HW1 8468   9.513   1.640   0.404 -0.6626 -2.0243 -0.2193
35171SOL    HW2 8469   9.495   1.582   0.543  2.5134  0.5409  1.3965
35172SOL     OW 8470   7.167  10.354   7.489 -0.0653  1.0065 -0.2142
35172SOL    HW1 8471   7.261  10.355   7.468 -0.1603  0.7993 -0.6773
35172SOL    HW2 8472   7.126  10.321   7.409 -0.4957  0.6918  0.1331
35173SOL     OW 8473   2.127   3.026   3.449  0.3902  0.6645 -0.0361
35173SOL    HW1 8474   2.089   2.984   3.526 -0.3971  0.9470 -0.2526
35173SOL    HW2 8475   2.079   2.988   3.375  1.4525  0.0543 -0.4271
35174SOL     OW 8476   7.834   8.127   1.615  0.5396  0.4232  0.6383
35174SOL    HW1 8477   7.837   8.073   1.536  1.4671  2.3157 -0.7028
35174SOL    HW2 8478   7.795   8.071   1.682  1.8585 -2.0298 -0.5325
35175SOL     OW 8479   1.227   2.956   6.450 -0.3164 -0.2787  0.7363
35175SOL    HW1 8480   1.196   2.869   6.425 -0.4249  0.2971 -1.4109
35175SOL    HW2 8481   1.149   3.001   6.484 -0.0803 -1.2320  2.6574
35176SOL     OW 8482   1.084   0.591   5.171  0.1557  0.5239 -0.0886
35176SOL    HW1 8483   1.153   0.547   5.221  0.3484  0.0074 -0.7998
35176SOL    HW2 8484   1.085   0.548   5.085 -0.9678  0.5954 -0.1507
35177SOL     OW 8485  10.578   9.192   9.529  0.0461  0.3013 -0.0234
35177SOL    HW1 8486  10.639   9.141   9.475  0.8730  0.4144  0.7763
35177SOL    HW2 8487  10.566   9.138   9.608 -2.3160 -0.5768 -0.8887
35178SOL     OW 8488   1.839   8.555   7.652 -0.0246  0.5163  0.0100
35178SOL    HW1 8489   1.885   8.568   7.735 -1.6197  0.9255  0.8645
35178SOL    HW2 8490   1.843   8.460   7.638  3.2012  0.7144 -1.2630
35179SOL     OW 8491   1.630   4.215  10.642 -0.6404  0.1517  0.0512
35179SOL    HW1 8492   1.681   4.136  10.623 -0.3147  1.0783 -3.5782
35179SOL    HW2 8493   1.548   4.203  10.594 -1.0756  1.5164  0.4039
35180SOL     OW 8494   8.018   1.084   0.943  0.0944  0.3175  0.0386
35180SOL    HW1 8495   8.030   1.148   1.013  1.9846 -1.6831  1.6563
35180SOL    HW2 8496   7.947   1.027   0.974 -0.1704  0.3685 -0.4527
35181SOL     OW 8497   4.412   1.372   1.913 -0.1040  0.5279 -0.0464
35181SOL    HW1 8498   4.369   1.457   1.899  1.2651  1.1247 -0.8514
35181SOL    HW2 8499   4.340   1.310   1.922 -1.1351  1.6422 -0.3098
35182SOL     OW 8500   1.546   5.446   7.632 -0.7448 -0.1059 -0.0847
35182SOL    HW1 8501   1.458   5.477   7.609 -0.1065  0.8442 -1.3576
35182SOL    HW2 8502   1.605   5.504   7.585  0.5908 -0.5887  0.9319
35183SOL     OW 8503   3.210  10.555  10.634  0.0695 -0.2793  0.2955
35183SOL    HW1 8504   3.226  10.614  10.708  1.3033 -0.2575  0.0483
35183SOL    HW2 8505   3.298  10.534  10.602 -0.4412  0.8347 -2.0573
35184SOL     OW 8506   6.946   3.971  10.361 -0.0378 -0.0049  0.2973
35184SOL    HW1 8507   6.926   4.053  10.404  1.5225 -1.0828  3.3597
35184SOL    HW2 8508   6.918   3.984  10.270  0.5792  4.0281  0.5054
35185SOL     OW 8509   3.505   9.297   3.894 -0.7551 -0.0235 -0.0467
35185SOL    HW1 8510   3.595   9.265   3.883 -0.5822  0.1669  0.7608
35185SOL    HW2 8511   3.507   9.386   3.860 -0.6709 -0.0697 -0.1638
35186SOL     OW 8512   7.213   9.488   0.532 -0.4242  0.2591  0.6430
35186SOL    HW1 8513   7.290   9.432   0.535 -0.4434  0.0958 -0.9823
35186SOL    HW2 8514   7.141   9.429   0.507 -0.6605  0.7885  0.0414
35187SOL     OW 8515   7.119   9.176   1.822  0.0519  0.6315 -0.2619
35187SOL    HW1 8516   7.134   9.270   1.835 -2.1064  0.9760  0.2572
35187SOL    HW2 8517   7.089   9.145   1.908 -0.9266 -0.1244 -0.8466
35188SOL     OW 8518   5.017   5.485   1.578 -0.1116 -0.1310 -0.3101
35188SOL    HW1 8519   5.069   5.512   1.654  0.3884  0.7445 -0.9539
35188SOL    HW2 8520   4.960   5.416   1.612  0.2477  0.1054  0.8174
35189SOL     OW 8521   5.942   1.940   1.298  0.3583 -0.5756  0.6162
35189SOL    HW1 8522   6.018   1.979   1.341 -0.2568 -1.5401  2.7546
35189SOL    HW2 8523   5.926   1.859   1.347 -2.0903 -0.3443  0.3213
35190SOL     OW 8524   0.227   7.630   9.872  0.2872 -0.0036 -0.1261
35190SOL    HW1 8525   0.267   7.609   9.788  2.8556  1.0652  0.7177
35190SOL    HW2 8526   0.202   7.546   9.909 -0.1534 -0.5457 -1.6244
35191SOL     OW 8527   2.356   7.474   8.924  0.5349 -0.0834 -0.6565
35191SOL    HW1 8528   2.325   7.439   9.007  1.1236 -0.9468 -0.7988
35191SOL    HW2 8529   2.380   7.397   8.872  1.5852  0.5028 -1.0718
35192SOL     OW 8530  10.621   2.084   3.775 -0.5737  0.1028 -0.1901
35192SOL    HW1 8531  10.577   2.125   3.700 -0.3410 -1.1218 -1.0186
35192SOL    HW2 8532  10.597   1.992   3.771 -1.1854  0.1265  1.7243
35193SOL     OW 8533   4.394   3.038   5.832  0.0917  0.7356 -0.2068
35193SOL    HW1 8534   4.375   2.995   5.748  1.6345  0.1719 -0.2984
35193SOL    HW2 8535   4.353   2.982   5.897 -0.8172  0.9848 -0.5508
35194SOL     OW 8536   1.570   7.648   1.504  0.0337  0.8814 -0.6469
35194SOL    HW1 8537   1.639   7.585   1.483  1.1135  1.5796  0.6355
35194SOL    HW2 8538   1.503   7.596   1.550  0.1511  0.3854 -1.0263
35195SOL     OW 8539   5.666   4.562   4.642  0.2555 -0.1092 -0.0647
35195SOL    HW1 8540   5.705   4.546   4.727  0.5874  0.9236 -0.0133
35195SOL    HW2 8541   5.693   4.487   4.589  0.2682 -0.6244  0.6530
35196SOL     OW 8542   2.595   5.793   0.219 -0.2305 -0.1251 -0.3408
35196SOL    HW1 8543   2.511   5.832   0.244 -0.0714  0.8106 -1.1783
35196SOL    HW2 8544   2.614   5.830   0.133  1.0406 -0.3163 -0.1681
35197SOL     OW 8545   4.823   7.508   8.540 -0.8937  0.0651  0.0537
35197SOL    HW1 8546   4.743   7.556   8.516 -0.1177  1.6475  0.4466
35197SOL    HW2 8547   4.827   7.514   8.635  0.0546  0.6651 -0.0085
35198SOL     OW 8548   4.831   6.218   7.715  0.5063 -0.3396 -0.2161
35198SOL    HW1 8549   4.811   6.198   7.807  1.3628 -0.5901 -0.0706
35198SOL    HW2 8550   4.834   6.132   7.673 -1.3906 -0.1431 -0.8233
35199SOL     OW 8551   7.602   2.165   2.662 -0.3548 -0.3289  0.0049
35199SOL    HW1 8552   7.534   2.120   2.713 -1.2254  0.2004 -0.6467
35199SOL    HW2 8553   7.644   2.095   2.612 -0.8965 -0.5925 -0.0995
35200SOL     OW 8554   3.157   5.706   6.208  0.1736  0.3253  0.2678
35200SOL    HW1 8555   3.169   5.800   6.220 -0.4799  0.3737  0.5622
35200SOL    HW2 8556   3.133   5.674   6.295 -1.6663  0.2048 -0.2589
35201SOL     OW 8557   2.031  10.529   5.887 -0.3394 -0.0595  0.6448
35201SOL    HW1 8558   1.998  10.443   5.861 -0.3336  0.3441 -0.7830
35201SOL    HW2 8559   2.122  10.513   5.912 -0.1211 -0.3888 -0.2857
35202SOL     OW 8560   6.946   3.003   8.045  0.3635  0.4500 -0.3497
35202SOL    HW1 8561   6.861   3.041   8.024  0.4661  2.1982  2.0612
35202SOL    HW2 8562   6.928   2.941   8.115  1.3321  3.1089  2.4372
35203SOL     OW 8563   7.770   8.455   8.480  0.2330 -0.2521  0.0700
35203SOL    HW1 8564   7.676   8.471   8.471  0.1423 -1.0793 -0.5931
35203SOL    HW2 8565   7.776   8.384   8.544  0.5403  1.2567  1.7741
35204SOL     OW 8566   3.025   5.224   4.126  0.2036  0.4109 -0.7198
35204SOL    HW1 8567   3.042   5.236   4.220  0.8312 -0.7446 -0.6730
35204SOL    HW2 8568   2.945   5.275   4.110  1.4175  2.6433 -0.0873
35205SOL     OW 8569   9.684   8.802   9.290 -0.6330  0.1063 -0.0868
35205SOL    HW1 8570   9.658   8.861   9.361 -1.4951 -0.2549 -0.0919
35205SOL    HW2 8571   9.651   8.843   9.211  1.5539  1.2380 -0.4886
35206SOL     OW 8572   6.625   4.106  10.283  0.2607 -0.6876 -0.1154
35206SOL    HW1 8573   6.611   4.012  10.274 -0.5349 -0.4742 -1.3251
35206SOL    HW2 8574   6.583   4.128  10.366 -0.0892 -1.3011 -0.1230
35207SOL     OW 8575   2.346   8.722   0.461 -0.3250  0.4509 -0.3357
35207SOL    HW1 8576   2.413   8.701   0.395  0.5224  0.4889  0.4929
35207SOL    HW2 8577   2.376   8.804   0.500 -1.0731  0.6741 -0.2174
35208SOL     OW 8578   8.329   0.919   9.275 -0.5818  0.4383 -0.4920
35208SOL    HW1 8579   8.373   0.966   9.345 -0.9051  0.1952 -0.1273
35208SOL    HW2 8580   8.381   0.939   9.197 -1.0971  1.9644 -0.4881
35209SOL     OW 8581   4.286   5.876   0.882  0.7721 -0.7378  0.3050
35209SOL    HW1 8582   4.319   5.960   0.914  0.2127 -0.4270  0.0824
35209SOL    HW2 8583   4.317   5.871   0.792 -1.6362  0.6384 -0.7140
35210SOL     OW 8584   2.215   7.998   3.847  0.3881 -0.1018  0.7072
35210SOL    HW1 8585   2.255   8.002   3.760  1.2575  0.1808  1.1131
35210SOL    HW2 8586   2.157   8.074   3.851  0.0954 -0.2985  0.2570
35211SOL     OW 8587   5.384   2.259   5.708 -0.3692  0.1490 -0.1358
35211SOL    HW1 8588   5.387   2.353   5.724 -1.5624  0.4080 -1.2432
35211SOL    HW2 8589   5.321   2.226   5.772  1.6617 -0.3011  1.7609
35212SOL     OW 8590   3.439   1.013   9.550  0.1694 -0.5075  0.1657
35212SOL    HW1 8591   3.508   0.951   9.527  0.4870  0.4728 -1.6964
35212SOL    HW2 8592   3.440   1.078   9.479  1.4135  2.9668  3.0426
35213SOL     OW 8593   5.661   0.042   6.453 -0.5856 -0.2496 -0.1218
35213SOL    HW1 8594   5.741   0.012   6.410 -0.0240 -1.5671  1.7025
35213SOL    HW2 8595   5.611   0.085   6.384  1.5391  0.3240 -1.3826
35214SOL     OW 8596   7.205   2.215   1.236  0.2710 -0.3936 -0.3387
35214SOL    HW1 8597   7.117   2.245   1.212  0.5362  0.9178  0.2413
35214SOL    HW2 8598   7.250   2.205   1.152 -0.0384  0.2236 -0.5906
35215SOL     OW 8599   0.678   1.331   9.918  0.4257  0.2720  0.6325
35215SOL    HW1 8600   0.734   1.260   9.887 -0.7457 -0.6342  0.5171
35215SOL    HW2 8601   0.637   1.366   9.838  4.4016  4.2837 -0.0303
35216SOL     OW 8602   4.675   1.027   5.171 -0.2761  0.0700  0.2598
35216SOL    HW1 8603   4.625   0.969   5.114 -0.8581 -0.6766  1.4812
35216SOL    HW2 8604   4.709   1.095   5.113  0.6237 -1.6048 -1.2406
35217SOL     OW 8605   5.808   4.763   3.704 -0.2721  0.8101 -0.1486
35217SOL    HW1 8606   5.755   4.686   3.684  1.3958 -0.6438  0.8012
35217SOL    HW2 8607   5.744   4.829   3.732 -1.5657 -1.3746  2.5280
35218SOL     OW 8608   6.196   8.632   2.176  0.0430 -0.4922  0.0508
35218SOL    HW1 8609   6.276   8.673   2.143  0.6616 -1.6538  0.0534
35218SOL    HW2 8610   6.201   8.541   2.146 -1.4451 -0.5034 -0.2335
35219SOL     OW 8611   1.540   7.387   0.634 -0.6342 -0.3493  0.0389
35219SOL    HW1 8612   1.576   7.335   0.706 -0.5570 -2.5363 -1.4772
35219SOL    HW2 8613   1.559   7.478   0.658  1.2474 -1.1212  1.7637
35220SOL     OW 8614   4.833   6.896   3.219  0.3561 -0.6280  0.0897
35220SOL    HW1 8615   4.891   6.966   3.248  0.0157 -0.2727 -0.0767
35220SOL    HW2 8616   4.840   6.829   3.287  0.1061 -0.1091  0.6346
35221SOL     OW 8617   2.820   6.667   8.529  0.0491 -0.2913 -0.3677
35221SOL    HW1 8618   2.860   6.716   8.457 -0.9175 -0.0366 -0.7458
35221SOL    HW2 8619   2.894   6.640   8.584  0.5524  2.6037  0.5359
35222SOL     OW 8620  10.456   0.919   0.120  0.1003 -0.3123 -0.0206
35222SOL    HW1 8621  10.453   0.860   0.196  0.4963  0.5344  0.6702
35222SOL    HW2 8622  10.516   0.989   0.147  1.0359 -0.5058 -1.4888
35223SOL     OW 8623   7.943   7.754   6.352  0.0944  0.4049 -0.8342
35223SOL    HW1 8624   7.923   7.835   6.399  0.0903  1.2173 -2.1930
35223SOL    HW2 8625   7.980   7.696   6.418  0.6868  1.7358  0.0277
35224SOL     OW 8626   9.406   5.446   9.390  0.0637  0.0063  0.3949
35224SOL    HW1 8627   9.438   5.411   9.473 -1.0730 -1.0907  0.3967
35224SOL    HW2 8628   9.311   5.452   9.402 -0.3171 -1.7395 -1.3697
35225SOL     OW 8629   3.813   2.065   2.976 -0.1425 -0.4465 -0.1167
35225SOL    HW1 8630   3.864   1.986   2.992  0.3139 -0.5055 -1.7175
35225SOL    HW2 8631   3.878   2.136   2.982 -0.3641 -0.2724  0.3096
35226SOL     OW 8632   8.967   7.957   0.580  0.5308 -0.3069  0.7892
35226SOL    HW1 8633   9.058   7.980   0.561  0.6424 -0.2409  1.3797
35226SOL    HW2 8634   8.952   7.988   0.670 -0.2526  0.1966  0.4961
35227SOL     OW 8635   4.956  10.076   0.062  0.7554 -0.1026  0.0253
35227SOL    HW1 8636   5.033  10.076   0.005 -0.0635 -2.7325 -1.2758
35227SOL    HW2 8637   4.979  10.014   0.132  0.5875  0.7302  0.8286
35228SOL     OW 8638   2.802   0.555   2.440 -0.8217 -0.0314 -0.2611
35228SOL    HW1 8639   2.751   0.588   2.366 -1.9169 -1.0126  0.0373
35228SOL    HW2 8640   2.740   0.502   2.491 -0.3352  1.2653  1.8156
35229SOL     OW 8641   3.420   4.967   7.114 -0.7464  0.1889 -0.2058
35229SOL    HW1 8642   3.445   4.876   7.101  0.8081  0.3874  1.1503
35229SOL    HW2 8643   3.325   4.964   7.123 -0.6718 -1.3676  0.3528
35230SOL     OW 8644   2.408   9.492   8.164 -0.5865 -0.1982 -0.3628
35230SOL    HW1 8645   2.486   9.495   8.219 -0.7165  1.0133 -0.2143
35230SOL    HW2 8646   2.357   9.419   8.200  0.8775 -1.6215 -1.0687
35231SOL     OW 8647   1.253   0.935   4.759  0.8084 -0.4749  0.7094
35231SOL    HW1 8648   1.321   1.002   4.756  1.3834 -1.0510  0.5887
35231SOL    HW2 8649   1.258   0.900   4.848 -1.8043  1.9501  1.9504
35232SOL     OW 8650   4.926   6.763   4.460  0.5568  0.1792  0.7462
35232SOL    HW1 8651   4.835   6.748   4.486 -0.1078 -1.5633 -2.1704
35232SOL    HW2 8652   4.923   6.776   4.365  3.2940  0.7909  0.6465
35233SOL     OW 8653   9.021   6.098  10.561  0.6592  0.0165  0.4029
35233SOL    HW1 8654   9.108   6.066  10.541  1.3435  2.5917 -1.2132
35233SOL    HW2 8655   9.001   6.160  10.491 -1.7862  0.7416  1.6042
35234SOL     OW 8656   9.401   3.828   2.701  0.4922  0.0719 -0.0575
35234SOL    HW1 8657   9.440   3.839   2.615  0.9447  0.0557  0.1452
35234SOL    HW2 8658   9.361   3.913   2.720 -1.9756 -0.6753 -1.4354
35235SOL     OW 8659   9.583   5.446   1.242 -0.3000  0.6921  0.0443
35235SOL    HW1 8660   9.676   5.456   1.224  0.4532 -1.1256  2.4000
35235SOL    HW2 8661   9.580   5.403   1.327 -3.3040  0.3968 -0.1173
35236SOL     OW 8662  10.112   5.588  10.107 -0.1825 -0.0034 -0.7643
35236SOL    HW1 8663  10.077   5.528  10.174  0.3009  0.1844 -0.3428
35236SOL    HW2 8664  10.036   5.609  10.053 -0.7516  0.4352  0.1750
35237SOL     OW 8665   7.922   2.449   4.072  0.1371 -0.0626 -0.5925
35237SOL    HW1 8666   7.978   2.411   4.005 -0.4320 -1.3084 -0.3800
35237SOL    HW2 8667   7.833   2.426   4.046 -0.1482  0.1985  0.1265
35238SOL     OW 8668   6.958   1.408   2.379 -0.2762 -0.2837  0.2568
35238SOL    HW1 8669   6.908   1.346   2.431  0.4830  0.1470  1.5611
35238SOL    HW2 8670   6.900   1.433   2.308 -0.1789 -3.3796 -1.0378
35239SOL     OW 8671   1.219   6.983   7.842  0.7608 -0.2226 -0.2205
35239SOL    HW1 8672   1.149   7.027   7.889  0.7694  0.0268 -0.4388
35239SOL    HW2 8673   1.296   6.993   7.899  0.8716  0.4544 -0.4828
35240SOL     OW 8674   0.747   9.534   0.503 -0.5761 -0.3006 -0.5004
35240SOL    HW1 8675   0.734   9.574   0.417  0.9722 -1.5183 -1.3484
35240SOL    HW2 8676   0.732   9.440   0.488  1.9961 -0.8650 -0.0456
35241SOL     OW 8677   9.656   5.899   0.297  0.1706 -0.2023 -0.3571
35241SOL    HW1 8678   9.594   5.828   0.285  0.9406 -0.9587  0.0635
35241SOL    HW2 8679   9.627   5.945   0.375 -0.5397  0.1842 -0.8365
35242SOL     OW 8680   2.178   3.971   1.664  0.2469 -0.3227  0.6598
35242SOL    HW1 8681   2.111   3.936   1.722  0.4475  1.4923  2.0859
35242SOL    HW2 8682   2.150   4.060   1.646  1.3635 -0.1236 -0.1831
35243SOL     OW 8683   4.031   8.758   8.438  0.1772 -0.3545 -0.2557
35243SOL    HW1 8684   3.968   8.782   8.505 -0.9613 -0.8155 -1.1231
35243SOL    HW2 8685   4.055   8.668   8.457  1.7381  0.2647  0.9270
35244SOL     OW 8686   1.561   3.149   9.888  0.0433 -0.4120  0.3846
35244SOL    HW1 8687   1.572   3.147   9.983 -2.3945  0.8872  0.7683
35244SOL    HW2 8688   1.637   3.197   9.855  0.0979  0.5607  1.8540
35245SOL     OW 8689   7.405   9.344   7.795  0.5265  0.5312  0.0528
35245SOL    HW1 8690   7.491   9.386   7.791  1.0623 -0.5857 -3.1672
35245SOL    HW2 8691   7.422   9.252   7.775 -1.2319 -0.1482  1.3886
35246SOL     OW 8692   3.453   5.668   4.631  0.6605  0.2171 -0.3701
35246SOL    HW1 8693   3.398   5.607   4.582 -1.1135  1.7733 -0.4245
35246SOL    HW2 8694   3.392   5.729   4.672  2.2481  0.7916  1.3327
35247SOL     OW 8695   2.218   2.266  10.589  0.7301 -0.0012 -0.1207
35247SOL    HW1 8696   2.138   2.227  10.626  0.4478  1.4968  0.9237
35247SOL    HW2 8697   2.244   2.332  10.653  1.6974  0.9146 -1.4194
35248SOL     OW 8698   5.876   9.661   2.539  0.5799 -0.2896 -0.2659
35248SOL    HW1 8699   5.895   9.685   2.630  2.0013 -0.4161 -0.5027
35248SOL    HW2 8700   5.947   9.603   2.515  0.2867 -0.1560 -1.5104
35249SOL     OW 8701   0.707   5.229   8.355  0.0454  0.7056 -0.3891
35249SOL    HW1 8702   0.666   5.309   8.321 -0.2398  0.7655  0.0930
35249SOL    HW2 8703   0.800   5.239   8.332 -0.1220  0.7920 -1.0573
35250SOL     OW 8704   6.265   0.167   8.085 -0.2624  0.1367  0.3711
35250SOL    HW1 8705   6.327   0.179   8.013 -1.2808 -1.0217 -0.7321
35250SOL    HW2 8706   6.249   0.256   8.117 -1.3323  0.9468 -2.1628
35251SOL     OW 8707   2.970   2.725   9.157 -0.1733  0.4688 -0.0251
35251SOL    HW1 8708   2.993   2.779   9.081 -1.4860  2.3361  0.8276
35251SOL    HW2 8709   2.960   2.788   9.228 -2.7635 -0.7588  0.8143
35252SOL     OW 8710   3.818   5.727   5.084 -0.6966 -0.5283  0.4134
35252SOL    HW1 8711   3.880   5.763   5.147 -0.5861 -0.0818  0.0487
35252SOL    HW2 8712   3.746   5.791   5.083 -0.8081 -0.6572  0.2592
35253SOL     OW 8713   7.156   2.474   6.892  0.1752 -0.3005  0.1874
35253SOL    HW1 8714   7.193   2.486   6.804 -0.2070  0.9380  0.1767
35253SOL    HW2 8715   7.068   2.440   6.877 -0.2010  0.7107  0.0452
35254SOL     OW 8716   2.376   6.577   4.903  0.4376 -0.2633 -0.0288
35254SOL    HW1 8717   2.340   6.657   4.941  0.1428 -0.8328  0.9242
35254SOL    HW2 8718   2.305   6.514   4.909  1.4894 -1.3648  1.7409
35255SOL     OW 8719   7.072   2.432   3.851  0.3341  0.4479 -0.2162
35255SOL    HW1 8720   7.023   2.493   3.906 -0.1679 -0.3894  0.3009
35255SOL    HW2 8721   7.033   2.346   3.871  0.0295  0.1357 -1.9996
35256SOL     OW 8722   5.267   9.388   1.291  0.3781  0.3792 -0.0573
35256SOL    HW1 8723   5.316   9.457   1.335  0.4952 -0.1023  0.5844
35256SOL    HW2 8724   5.226   9.339   1.362  1.8224 -1.3643 -0.3587
35257SOL     OW 8725   9.512   6.846   0.714 -0.2793 -0.0989 -0.1436
35257SOL    HW1 8726   9.564   6.890   0.647 -0.2899  1.4108  0.7914
35257SOL    HW2 8727   9.577   6.815   0.778 -0.3171 -0.9813 -0.5160
35258SOL     OW 8728   2.367   2.603   0.619  0.6157  0.3745  0.3065
35258SOL    HW1 8729   2.297   2.662   0.647  0.7516  0.1601  1.1274
35258SOL    HW2 8730   2.425   2.596   0.695 -0.0993 -1.8593  0.7062
35259SOL     OW 8731   3.129   4.258   0.904  0.0537  0.5415 -0.0811
35259SOL    HW1 8732   3.044   4.294   0.931  0.0823  0.7446 -0.2634
35259SOL    HW2 8733   3.192   4.299   0.964 -0.0993 -0.4964  0.8359
35260SOL     OW 8734   2.451  10.125   9.364 -0.1754 -0.5094 -0.5818
35260SOL    HW1 8735   2.530  10.134   9.311 -0.5441  2.5671 -0.7907
35260SOL    HW2 8736   2.483  10.093   9.449  1.7164  2.4044 -0.0215
35261SOL     OW 8737   8.954  10.094   1.989 -0.3596  0.0530 -1.1132
35261SOL    HW1 8738   8.947  10.012   2.038  1.3237 -0.1834 -1.2400
35261SOL    HW2 8739   8.902  10.156   2.040 -0.2540 -0.6750 -0.0909
35262SOL     OW 8740  10.318   8.001   8.137 -0.3442 -0.1367  0.3668
35262SOL    HW1 8741  10.388   7.939   8.116 -0.8842 -1.1463  1.4211
35262SOL    HW2 8742  10.363   8.084   8.152  0.3410 -0.0899 -1.6492
35263SOL     OW 8743   5.160   7.551   8.134  0.0210  0.4077 -0.8370
35263SOL    HW1 8744   5.213   7.492   8.188  0.9627  1.8780 -0.0922
35263SOL    HW2 8745   5.114   7.606   8.197 -0.0305  1.1572 -1.5180
35264SOL     OW 8746   9.500   7.559   5.872 -0.6011 -0.1453  0.3179
35264SOL    HW1 8747   9.564   7.584   5.939  0.0324  0.1523 -0.3790
35264SOL    HW2 8748   9.458   7.480   5.908  0.1452 -0.3435  0.8007
35265SOL     OW 8749   6.382   8.634   4.642  0.0140 -0.4517 -0.1085
35265SOL    HW1 8750   6.412   8.543   4.646  0.5094 -0.2417  1.4824
35265SOL    HW2 8751   6.315   8.640   4.710 -1.8973 -0.2463 -1.8962
35266SOL     OW 8752  10.314   4.818   6.907  0.5095  0.5635  0.2469
35266SOL    HW1 8753  10.285   4.730   6.884  0.9071  0.7231 -0.9342
35266SOL    HW2 8754  10.234   4.871   6.909  0.5000  0.6912 -1.5414
35267SOL     OW 8755   0.671   0.481   0.122 -0.4294 -0.1974  0.3847
35267SOL    HW1 8756   0.730   0.495   0.196 -0.5034 -1.6421  0.7458
35267SOL    HW2 8757   0.627   0.398   0.141  0.8337 -1.5438 -2.1019
35268SOL     OW 8758   5.120   9.907   0.522 -0.0287 -0.1589 -0.0069
35268SOL    HW1 8759   5.175   9.963   0.578 -1.1625  0.0648  0.9423
35268SOL    HW2 8760   5.044   9.887   0.577 -0.4793 -1.1890 -0.9687
35269SOL     OW 8761   1.549   4.729   0.359  0.6505 -0.7449  0.1398
35269SOL    HW1 8762   1.572   4.713   0.268  0.0277 -0.8772 -0.0009
35269SOL    HW2 8763   1.584   4.815   0.378  1.9768 -1.2780  0.1899
35270SOL     OW 8764   9.045   7.588   6.910  0.5303  0.8612 -0.4141
35270SOL    HW1 8765   8.965   7.603   6.961 -0.6621 -1.8097 -1.3226
35270SOL    HW2 8766   9.078   7.676   6.892 -0.3914  1.9721  2.7031
35271SOL     OW 8767   3.506   9.211   2.877 -0.1220  0.0782 -0.2459
35271SOL    HW1 8768   3.546   9.183   2.795  0.3303 -1.0627  0.3409
35271SOL    HW2 8769   3.475   9.300   2.860 -0.2323 -0.2180 -1.7158
35272SOL     OW 8770   5.601   9.337   2.326  0.5756  0.4840  0.1139
35272SOL    HW1 8771   5.595   9.385   2.409 -1.6286  0.6289 -0.0691
35272SOL    HW2 8772   5.599   9.406   2.259  1.5539  0.3280 -0.0789
35273SOL     OW 8773   7.647   2.409   2.779  0.5098  0.2041  0.4336
35273SOL    HW1 8774   7.568   2.414   2.832  0.3350  0.7952  0.1295
35273SOL    HW2 8775   7.664   2.315   2.770 -0.8062  0.0152 -0.4412
35274SOL     OW 8776   9.064   8.033   4.166  0.5202 -0.1944  0.3751
35274SOL    HW1 8777   8.978   8.001   4.195 -0.1156  1.0533 -0.0523
35274SOL    HW2 8778   9.055   8.043   4.071 -0.2323  3.5761  0.6684
35275SOL     OW 8779   9.089   0.491   2.104 -0.1940  0.1207  0.7878
35275SOL    HW1 8780   9.126   0.550   2.170  0.8973 -2.0720  2.2580
35275SOL    HW2 8781   9.006   0.461   2.143 -0.1131 -0.2931  0.6452
35276SOL     OW 8782   9.816   0.262   6.034  0.2978  0.2655  0.3007
35276SOL    HW1 8783   9.819   0.171   6.062 -0.7960 -0.2583 -1.1651
35276SOL    HW2 8784   9.774   0.259   5.948 -0.3856  2.2237  0.5247
35277SOL     OW 8785   6.322   0.621   8.882 -0.0599 -0.2494 -0.3417
35277SOL    HW1 8786   6.314   0.536   8.838 -0.0692 -0.4830  0.1047
35277SOL    HW2 8787   6.255   0.676   8.841 -1.4563 -1.0571  0.7511
35278SOL     OW 8788   1.755   3.198   7.830  0.1659 -0.1411  0.1306
35278SOL    HW1 8789   1.844   3.173   7.856  0.1485  0.2497  0.5578
35278SOL    HW2 8790   1.763   3.289   7.803  0.0520 -0.3393 -0.6165
35279SOL     OW 8791   1.132   5.274   2.399 -0.4818  0.0662 -0.1345
35279SOL    HW1 8792   1.148   5.189   2.358  0.5972 -2.0996  4.1515
35279SOL    HW2 8793   1.207   5.327   2.373  2.3764 -2.5675  1.9987
35280SOL     OW 8794   8.846   8.545   8.838 -0.2880 -0.2835 -0.0761
35280SOL    HW1 8795   8.753   8.538   8.861 -0.8701 -0.3730 -2.2493
35280SOL    HW2 8796   8.870   8.634   8.863 -0.5087 -0.7301  1.8846
35281SOL     OW 8797   8.491   3.148   9.623 -0.1053  0.6123  0.5266
35281SOL    HW1 8798   8.414   3.135   9.569 -0.3162 -0.3918  1.0364
35281SOL    HW2 8799   8.457   3.148   9.713  0.5776 -0.9916  0.8287
35282SOL     OW 8800   0.734   6.992   2.418 -0.1518  0.4624  0.3883
35282SOL    HW1 8801   0.774   6.926   2.475 -0.6153 -0.0251  0.1658
35282SOL    HW2 8802   0.805   7.022   2.361 -0.3152 -1.2234 -0.7854
35283SOL     OW 8803  10.109   3.119   2.219 -0.4240  0.0043  0.4386
35283SOL    HW1 8804  10.131   3.130   2.126  0.5485  2.0907  0.8498
35283SOL    HW2 8805  10.014   3.109   2.220 -0.2516 -3.0055 -0.9364
35284SOL     OW 8806  10.596   0.935   1.732 -0.4346 -0.3636  0.4181
35284SOL    HW1 8807  10.539   0.958   1.659  1.6306  1.8814 -0.6160
35284SOL    HW2 8808  10.634   0.850   1.707  0.8537  0.7179 -1.6231
35285SOL     OW 8809   3.737   1.198   1.459  0.2734 -0.2434  0.0406
35285SOL    HW1 8810   3.715   1.239   1.375  1.5853 -0.8755 -0.6474
35285SOL    HW2 8811   3.739   1.104   1.439 -0.3489 -0.4727  1.0190
35286SOL     OW 8812  10.168   5.192   2.680 -0.5688  0.4678  0.1633
35286SOL    HW1 8813  10.115   5.177   2.602 -0.5492 -0.4919  0.3316
35286SOL    HW2 8814  10.132   5.134   2.746 -0.8869  1.6116  1.0233
35287SOL     OW 8815   6.079   3.329   1.327  0.3079 -0.0838  0.4788
35287SOL    HW1 8816   6.041   3.332   1.415  0.2215 -1.3710  0.5038
35287SOL    HW2 8817   6.156   3.386   1.331 -0.9321  1.6573  0.7470
35288SOL     OW 8818   2.770   6.566   1.037 -0.4273 -0.4115  0.2764
35288SOL    HW1 8819   2.731   6.498   1.092 -0.3835  0.0189  0.8505
35288SOL    HW2 8820   2.744   6.648   1.079  0.2533 -0.0944  0.0941
35289SOL     OW 8821   1.275   1.466   0.651  0.2186  0.2569  0.4222
35289SOL    HW1 8822   1.346   1.525   0.627  2.5061 -1.2426  2.8665
35289SOL    HW2 8823   1.304   1.380   0.620 -0.7120 -0.3258  1.1095
35290SOL     OW 8824   2.361   5.725   6.045  0.6486 -0.0933  0.0434
35290SOL    HW1 8825   2.410   5.709   5.964 -0.4019  0.1721 -0.6524
35290SOL    HW2 8826   2.274   5.750   6.016  0.0377 -0.7216  1.2809
35291SOL     OW 8827   0.872   4.143   8.292  0.3683  0.4369 -0.0078
35291SOL    HW1 8828   0.903   4.065   8.246 -1.5911 -0.3408 -0.0896
35291SOL    HW2 8829   0.786   4.160   8.254 -0.2968  1.1612  1.7664
35292SOL     OW 8830   9.493   5.451   4.729  0.1565  0.0019 -0.2541
35292SOL    HW1 8831   9.466   5.494   4.810 -2.0287  0.6663 -1.2821
35292SOL    HW2 8832   9.584   5.426   4.745  0.5374  2.2231  1.5312
35293SOL     OW 8833  10.079   2.360  10.246  0.6010 -0.1478 -0.4367
35293SOL    HW1 8834  10.023   2.316  10.182  0.7122 -2.2217  0.7811
35293SOL    HW2 8835  10.167   2.357  10.209  0.5962 -0.9619 -0.4081
35294SOL     OW 8836   5.560   3.677   3.722  0.5126 -0.0932 -0.3507
35294SOL    HW1 8837   5.584   3.708   3.809  1.4759  1.5123 -1.1291
35294SOL    HW2 8838   5.489   3.615   3.737  0.0326  0.8286  1.5039
35295SOL     OW 8839  10.194   4.036   4.719  0.7803  0.0128  0.1985
35295SOL    HW1 8840  10.184   4.130   4.736  1.4341 -0.1740  1.6941
35295SOL    HW2 8841  10.266   4.008   4.776  1.2434 -1.2176 -0.9244
35296SOL     OW 8842   3.774   7.698   2.186  0.5042  0.4946 -0.2846
35296SOL    HW1 8843   3.836   7.641   2.231 -0.6146 -0.0949  0.5577
35296SOL    HW2 8844   3.774   7.779   2.237  1.0846  0.7602 -0.6938
35297SOL     OW 8845   3.459   6.970   0.256  0.1864  0.5342 -0.2625
35297SOL    HW1 8846   3.492   7.025   0.185 -0.1324  0.6481 -0.3206
35297SOL    HW2 8847   3.524   6.981   0.326 -0.2010  1.4781 -0.0381
35298SOL     OW 8848   9.668   6.534   5.733  0.8731  0.1460  0.3816
35298SOL    HW1 8849   9.751   6.577   5.713  2.3476 -2.4571  0.5575
35298SOL    HW2 8850   9.660   6.465   5.667 -0.0168 -1.0770  1.7123
35299SOL     OW 8851   4.364   0.734   4.938 -0.1650 -0.2242 -0.2533
35299SOL    HW1 8852   4.317   0.661   4.977 -2.2378  0.3883 -1.4687
35299SOL    HW2 8853   4.349   0.808   4.997 -0.8946  0.0119 -0.7256
35300SOL     OW 8854   0.098   3.789   3.253 -0.0647 -0.7918 -0.2540
35300SOL    HW1 8855   0.053   3.842   3.187 -0.8780 -0.6552  0.4028
35300SOL    HW2 8856   0.030   3.736   3.293  0.4719 -1.1038  0.2653
35301SOL     OW 8857   7.688   3.881   7.576 -0.1871 -0.0949 -1.3860
35301SOL    HW1 8858   7.648   3.968   7.581 -2.9856 -1.3404  0.7946
35301SOL    HW2 8859   7.729   3.868   7.662 -0.7218 -1.2895 -1.2883
35302SOL     OW 8860   6.105   2.846   8.137 -0.5079 -0.2225  0.0892
35302SOL    HW1 8861   6.130   2.934   8.109 -0.6685  0.3272  1.6258
35302SOL    HW2 8862   6.189   2.802   8.152 -0.4285 -0.3272 -0.6159
35303SOL     OW 8863   3.078  10.488   5.193 -0.3018 -0.8034 -0.3626
35303SOL    HW1 8864   3.059  10.476   5.286  0.0544  0.2708 -0.1392
35303SOL    HW2 8865   3.096  10.399   5.161  0.0616 -1.1362  0.7075
35304SOL     OW 8866   2.490   7.635   1.767  0.4238 -0.1299  0.0722
35304SOL    HW1 8867   2.490   7.688   1.847 -1.7296  0.2162 -0.1011
35304SOL    HW2 8868   2.508   7.546   1.797 -0.8106 -0.0840  1.0455
35305SOL     OW 8869   6.968   6.358   4.690  0.0924 -0.0145 -0.2804
35305SOL    HW1 8870   6.917   6.427   4.647  0.7756  1.2675  0.8890
35305SOL    HW2 8871   6.919   6.340   4.771 -0.0101 -0.8145 -0.5182
35306SOL     OW 8872   1.194   6.196   1.036 -0.1294  0.4862  0.4287
35306SOL    HW1 8873   1.217   6.287   1.016  1.3303  0.2072  0.7155
35306SOL    HW2 8874   1.193   6.191   1.131  1.4759 -0.1569  0.4475
35307SOL     OW 8875   5.895   7.565   0.551 -0.2519  0.4726 -0.0662
35307SOL    HW1 8876   5.980   7.588   0.588  0.1193 -0.2966 -0.4289
35307SOL    HW2 8877   5.853   7.513   0.620  0.2858 -0.6346 -0.5566
35308SOL     OW 8878   3.784   0.927   1.308 -0.0599  0.4666  0.0442
35308SOL    HW1 8879   3.742   0.876   1.238  2.0514 -1.1445 -0.1504
35308SOL    HW2 8880   3.722   0.922   1.381 -0.2915 -1.8368 -0.2140
35309SOL     OW 8881   0.242   1.770   5.537  0.1424 -0.0110 -0.3958
35309SOL    HW1 8882   0.285   1.798   5.456 -0.2262  0.6211 -0.3830
35309SOL    HW2 8883   0.314   1.760   5.600  0.3273  0.6336 -0.4892
35310SOL     OW 8884   6.415   2.870   2.000 -0.3674  0.1319 -0.4150
35310SOL    HW1 8885   6.394   2.811   2.072 -1.1464  0.5797 -0.2616
35310SOL    HW2 8886   6.404   2.958   2.036  2.1391  0.4589 -0.2295
35311SOL     OW 8887   5.701   9.246   1.854 -0.2133  0.3405  0.2461
35311SOL    HW1 8888   5.730   9.181   1.919 -0.3421 -0.8016 -0.8055
35311SOL    HW2 8889   5.626   9.289   1.896 -0.5499 -0.6599  0.7087
35312SOL     OW 8890  10.331   9.720   2.433  0.1602  0.6229 -0.0832
35312SOL    HW1 8891  10.314   9.634   2.393  3.5067 -1.0071  1.5903
35312SOL    HW2 8892  10.297   9.711   2.522  1.0931  0.7374  0.2987
35313SOL     OW 8893   3.221  10.579   3.064  0.1333  0.5667  0.2019
35313SOL    HW1 8894   3.150  10.615   3.010 -1.0734 -0.4324  1.0501
35313SOL    HW2 8895   3.222  10.486   3.043  0.6111  0.4248  0.8278
35314SOL     OW 8896   8.692   8.795   8.272  0.3591  0.3971  0.0937
35314SOL    HW1 8897   8.623   8.746   8.228  1.6984 -0.6300 -0.9378
35314SOL    HW2 8898   8.660   8.886   8.272 -0.2681  0.2378 -1.8979
35315SOL     OW 8899   1.207   6.426   7.528 -0.1425 -0.7664  0.3069
35315SOL    HW1 8900   1.137   6.491   7.532  2.3323  2.3531 -1.8614
35315SOL    HW2 8901   1.259   6.440   7.607 -0.3766 -1.1171  0.5266
35316SOL     OW 8902   5.331   7.802   9.071  0.2961  0.2038  0.0579
35316SOL    HW1 8903   5.274   7.760   9.006  2.2426 -0.9418 -0.9896
35316SOL    HW2 8904   5.342   7.892   9.039 -0.9687  0.4807  0.3419
35317SOL     OW 8905   4.919   4.406   8.826 -0.1115  0.0852 -0.0268
35317SOL    HW1 8906   4.928   4.442   8.738 -0.0226 -0.6831 -0.3392
35317SOL    HW2 8907   4.945   4.314   8.817  2.2676  0.5543  1.2755
35318SOL     OW 8908   3.027   9.974  10.463  0.6046 -0.1734  0.0861
35318SOL    HW1 8909   2.989  10.038  10.402 -0.6733  0.0272  1.0627
35318SOL    HW2 8910   2.981   9.988  10.545 -0.0537 -2.6519  0.2235
35319SOL     OW 8911   3.163   3.161   2.384  0.0440 -0.1943 -0.3382
35319SOL    HW1 8912   3.164   3.213   2.304 -2.1476  1.2355  0.4815
35319SOL    HW2 8913   3.202   3.219   2.450  0.1043 -0.6459  0.0281
35320SOL     OW 8914   5.569   3.593   1.086  0.2314  0.1963  0.0030
35320SOL    HW1 8915   5.641   3.586   1.149  0.4081 -1.1433 -0.3189
35320SOL    HW2 8916   5.611   3.625   1.006  0.4235 -0.3266 -0.1064
35321SOL     OW 8917   0.628   4.188   7.152 -0.3966  0.0212  0.1597
35321SOL    HW1 8918   0.536   4.187   7.177 -0.4939  1.9253  0.0042
35321SOL    HW2 8919   0.634   4.124   7.081 -1.3532 -0.8974  0.8628
35322SOL     OW 8920   0.684   4.391   2.829 -0.3972 -0.6149  0.0030
35322SOL    HW1 8921   0.736   4.459   2.873  1.4511 -1.1891 -1.1436
35322SOL    HW2 8922   0.596   4.428   2.824  0.3911  1.4207  0.0180
35323SOL     OW 8923   3.414   7.214   4.442 -0.0102  0.1966  0.1292
35323SOL    HW1 8924   3.467   7.239   4.518  1.3456 -1.3031 -0.2656
35323SOL    HW2 8925   3.387   7.124   4.459  0.3299 -0.1720 -1.1564
35324SOL     OW 8926   1.929   5.562   2.036  0.3272  0.0797 -0.3719
35324SOL    HW1 8927   1.901   5.511   2.112  3.1797 -0.9462  0.1072
35324SOL    HW2 8928   1.878   5.526   1.963 -1.1170 -0.1753  0.7186
35325SOL     OW 8929  10.492   2.462   4.528  0.5024 -0.2218 -0.1741
35325SOL    HW1 8930  10.429   2.534   4.522  0.9712  0.3398  1.2219
35325SOL    HW2 8931  10.578   2.505   4.532  0.8703 -0.9107 -0.4110
35326SOL     OW 8932   6.482  10.560   8.702 -0.5668  0.1355  0.3096
35326SOL    HW1 8933   6.461  10.523   8.616 -0.5066  0.1398  0.2926
35326SOL    HW2 8934   6.399  10.596   8.733 -0.5681  0.2198  0.2105
35327SOL     OW 8935   4.397   7.127   0.677  0.1199  0.0781 -0.3087
35327SOL    HW1 8936   4.301   7.131   0.684  0.0716  0.7650 -1.2141
35327SOL    HW2 8937   4.422   7.211   0.640  1.0623 -0.1737 -0.2723
35328SOL     OW 8938   1.748   1.784   3.317  0.3892  0.3909  0.1804
35328SOL    HW1 8939   1.656   1.762   3.298  0.9660 -2.1116 -0.1075
35328SOL    HW2 8940   1.772   1.727   3.390  2.7142 -1.9204 -2.1502
35329SOL     OW 8941   5.777   3.868   8.577 -0.2265 -0.0896 -0.3787
35329SOL    HW1 8942   5.789   3.903   8.666 -0.6229 -1.0810  0.0722
35329SOL    HW2 8943   5.827   3.928   8.522 -1.5414  1.6703  0.2621
35330SOL     OW 8944   7.485   7.710   9.333 -0.9463  0.8092  0.1328
35330SOL    HW1 8945   7.455   7.782   9.277 -0.0254  2.0418  1.1496
35330SOL    HW2 8946   7.571   7.738   9.364  0.7132 -1.9753 -1.5652
35331SOL     OW 8947   4.825   7.887   8.470  0.4279  0.2838  0.0850
35331SOL    HW1 8948   4.781   7.838   8.400  1.0330 -0.8167  0.4432
35331SOL    HW2 8949   4.780   7.971   8.473 -0.0730  0.0783 -1.1493
35332SOL     OW 8950   3.624   2.936   7.063  0.5493  0.1036 -0.0634
35332SOL    HW1 8951   3.557   2.988   7.109 -0.1671 -1.6903  1.0187
35332SOL    HW2 8952   3.575   2.889   6.996 -0.1582 -3.9440  2.9160
35333SOL     OW 8953   3.230   6.159   0.860  0.0562 -0.3762  0.6473
35333SOL    HW1 8954   3.263   6.242   0.826  1.4890 -0.0251  2.7497
35333SOL    HW2 8955   3.212   6.176   0.952 -3.2293 -1.4268  0.3359
35334SOL     OW 8956   8.618   8.164   0.571  0.0612 -0.5628  0.5672
35334SOL    HW1 8957   8.638   8.073   0.549  1.3200  0.1411 -1.3765
35334SOL    HW2 8958   8.523   8.170   0.564  0.2011 -0.8273 -3.3107
35335SOL     OW 8959   8.266   8.202  10.444  0.0577  0.2074  0.2387
35335SOL    HW1 8960   8.345   8.176  10.490 -0.8698 -0.7032  1.3991
35335SOL    HW2 8961   8.236   8.280  10.490  1.1219  1.5592 -1.2410
35336SOL     OW 8962   6.471   9.122   0.618  0.2132  0.0768  0.1775
35336SOL    HW1 8963   6.540   9.072   0.574 -0.0753  0.4091 -0.6911
35336SOL    HW2 8964   6.417   9.056   0.660  0.5207 -0.2563  0.0553
35337SOL     OW 8965   2.443  10.471   3.340  0.2983 -0.1238  0.1038
35337SOL    HW1 8966   2.504  10.487   3.413 -1.1364 -0.7029  1.4758
35337SOL    HW2 8967   2.416  10.380   3.351 -0.6559  0.0662 -0.6142
35338SOL     OW 8968   1.637   1.564   2.989  0.0732 -0.2884  0.1706
35338SOL    HW1 8969   1.603   1.474   2.987  2.1444 -1.1664  0.6074
35338SOL    HW2 8970   1.640   1.586   3.082 -0.9326  0.4607  0.0316
35339SOL     OW 8971   4.504   6.564   8.501 -0.0005 -0.1395 -0.0247
35339SOL    HW1 8972   4.481   6.505   8.430 -0.4026  0.0920 -0.0907
35339SOL    HW2 8973   4.427   6.564   8.558 -0.0531  0.4045 -0.0861
35340SOL     OW 8974   2.281   9.913   1.018 -0.2537  0.0094  0.2816
35340SOL    HW1 8975   2.195   9.875   1.033  0.2433 -0.4912  2.1708
35340SOL    HW2 8976   2.340   9.837   1.014 -0.0141  0.2513 -2.3150
35341SOL     OW 8977   3.557   3.314   1.787  0.4589  0.2630 -0.2891
35341SOL    HW1 8978   3.572   3.221   1.776 -0.1724  0.0409  0.5252
35341SOL    HW2 8979   3.643   3.355   1.777  0.6830 -0.3706 -0.9713
35342SOL     OW 8980   1.788   6.660   3.561 -0.0193  0.7614  0.5833
35342SOL    HW1 8981   1.765   6.665   3.653 -0.8224  0.3592  0.4103
35342SOL    HW2 8982   1.709   6.688   3.514 -0.4977 -1.4009 -0.0439
35343SOL     OW 8983   6.908   3.490   5.042  0.0228  0.3625 -0.3202
35343SOL    HW1 8984   6.851   3.543   4.987 -0.5480  0.4835  0.3755
35343SOL    HW2 8985   6.851   3.423   5.079  0.2436  0.7097  0.6782
35344SOL     OW 8986   9.981   3.709   4.502  0.2485 -0.4265  0.4842
35344SOL    HW1 8987   9.998   3.737   4.412  0.1057 -0.0532  0.5675
35344SOL    HW2 8988  10.052   3.649   4.523  0.2533 -0.5598  0.1045
35345SOL     OW 8989   3.960   3.539   2.542 -0.5764 -0.0181  0.2139
35345SOL    HW1 8990   4.044   3.575   2.571 -0.5227 -1.7335  2.5419
35345SOL    HW2 8991   3.978   3.501   2.456  0.1038  2.6039 -0.8978
35346SOL     OW 8992   5.211   6.950   6.253 -0.6020 -0.6396 -0.1340
35346SOL    HW1 8993   5.131   6.979   6.209  0.4310 -1.2975 -2.5698
35346SOL    HW2 8994   5.228   6.863   6.216  0.2836 -1.3050  1.7105
35347SOL     OW 8995   9.923   8.693   0.128 -0.5956  0.9305 -0.3357
35347SOL    HW1 8996   9.834   8.675   0.097 -0.4605  0.9569 -0.7424
35347SOL    HW2 8997   9.911   8.751   0.203 -1.0056 -0.3212  0.6127
35348SOL     OW 8998   5.521   7.129  10.195 -0.7717 -0.7373  0.1053
35348SOL    HW1 8999   5.511   7.142  10.289  0.5236 -0.7610  0.2746
35348SOL    HW2 9000   5.611   7.096  10.185 -1.1336 -1.4317 -1.0752
35349SOL     OW 9001   5.822   4.502   2.648 -0.4771 -0.0856  0.0660
35349SOL    HW1 9002   5.871   4.516   2.729 -0.9108  1.0219  0.1536
35349SOL    HW2 9003   5.739   4.548   2.661 -1.5275 -1.7973 -0.1264
35350SOL     OW 9004   0.244   2.216   4.813  0.4740  0.4141  0.3932
35350SOL    HW1 9005   0.175   2.157   4.841  0.6744  0.8356  1.8270
35350SOL    HW2 9006   0.318   2.196   4.869  2.2005 -1.2542 -2.2462
35351SOL     OW 9007   6.217   0.390   8.227 -0.3825 -0.4067  0.2634
35351SOL    HW1 9008   6.218   0.437   8.310  0.4332 -1.2909  0.7799
35351SOL    HW2 9009   6.154   0.437   8.173  0.5766  1.4243  0.6647
35352SOL     OW 9010   7.080   2.465   2.330 -0.3219  0.3548 -0.3049
35352SOL    HW1 9011   7.146   2.504   2.273  0.3573 -0.4469 -0.0876
35352SOL    HW2 9012   7.090   2.370   2.318  0.5127  0.0936  1.7952
35353SOL     OW 9013   0.635   9.663   0.277  0.4109 -0.3451  0.4764
35353SOL    HW1 9014   0.703   9.644   0.211  0.7017  2.7840 -0.2806
35353SOL    HW2 9015   0.553   9.654   0.229  0.5923  1.2297 -0.1892
35354SOL     OW 9016  10.055   7.566   2.480 -0.3736 -0.4840  0.3037
35354SOL    HW1 9017   9.976   7.608   2.515 -0.5898  0.1670 -0.9134
35354SOL    HW2 9018  10.027   7.526   2.398  0.5708 -0.1343 -0.2156
35355SOL     OW 9019   5.616  10.238   2.401 -0.3077  0.1158 -0.2330
35355SOL    HW1 9020   5.611  10.219   2.308  1.6191 -1.6764 -0.0404
35355SOL    HW2 9021   5.703  10.275   2.413 -1.2157  2.1702  0.6324
35356SOL     OW 9022   3.614   7.762   5.629 -0.2093  0.1065 -0.6493
35356SOL    HW1 9023   3.641   7.724   5.545 -0.4365  1.1488 -1.2182
35356SOL    HW2 9024   3.640   7.698   5.694  0.3082 -0.5603 -1.4910
35357SOL     OW 9025   7.678   1.706   3.228 -0.2140  0.1364 -0.0050
35357SOL    HW1 9026   7.668   1.752   3.311  2.2218 -1.7503  1.4743
35357SOL    HW2 9027   7.741   1.757   3.178 -0.1421  0.1972  0.1515
35358SOL     OW 9028   4.756   1.531   8.304 -0.1447 -0.1304  0.9671
35358SOL    HW1 9029   4.805   1.460   8.264 -0.4736 -0.3743  0.9886
35358SOL    HW2 9030   4.733   1.498   8.391 -0.8267 -0.2450  0.7522
35359SOL     OW 9031   7.411   5.129   0.783 -0.1911  0.1716  0.3878
35359SOL    HW1 9032   7.387   5.221   0.774  0.9301  0.4578  0.0469
35359SOL    HW2 9033   7.329   5.083   0.800 -0.8731  1.1313 -0.2414
35360SOL     OW 9034   2.949   6.205   0.889 -0.2503 -0.3216  0.0944
35360SOL    HW1 9035   3.027   6.184   0.837 -2.3505 -0.1715 -3.4465
35360SOL    HW2 9036   2.959   6.298   0.911  0.8255 -0.4557  0.2285
35361SOL     OW 9037   0.957   2.397   9.308  0.8594 -0.8453 -0.0123
35361SOL    HW1 9038   1.037   2.431   9.349 -0.2763  1.5571  0.3930
35361SOL    HW2 9039   0.983   2.376   9.218  1.2851  3.4607 -1.1120
35362SOL     OW 9040   0.742   9.195   7.705 -0.3607 -0.1651  0.6930
35362SOL    HW1 9041   0.736   9.101   7.685 -1.5694  0.2243 -1.0860
35362SOL    HW2 9042   0.835   9.210   7.722  0.1128 -1.4228 -0.5251
35363SOL     OW 9043   1.575   0.507   6.268  0.3501 -0.2712  0.2721
35363SOL    HW1 9044   1.643   0.442   6.252  1.0417  0.1022  1.5759
35363SOL    HW2 9045   1.511   0.492   6.198  1.3836 -1.1304 -0.5269
35364SOL     OW 9046   1.358   2.303   4.119  0.2298  0.4385 -0.6222
35364SOL    HW1 9047   1.437   2.276   4.072  1.4719  0.4910  1.3154
35364SOL    HW2 9048   1.390   2.359   4.190 -1.3638 -0.7408  1.1363
35365SOL     OW 9049   8.245   3.839  10.403  0.6330 -0.5330 -0.1699
35365SOL    HW1 9050   8.277   3.928  10.392 -0.4232 -0.0725  0.3692
35365SOL    HW2 9051   8.252   3.800  10.316 -1.3695  0.9201 -1.0418
35366SOL     OW 9052   4.996  10.499   5.556  0.5724  0.3695  0.4540
35366SOL    HW1 9053   5.036  10.490   5.469  0.2894  2.0482  0.1127
35366SOL    HW2 9054   4.904  10.478   5.541  0.6175  0.1793  0.4455
35367SOL     OW 9055   9.088   9.304   9.191  0.2353  0.2182  0.4695
35367SOL    HW1 9056   9.122   9.219   9.218  2.4392  0.8154 -0.1582
35367SOL    HW2 9057   9.033   9.285   9.115  1.2297 -0.6194 -0.0739
35368SOL     OW 9058  10.606   5.446   2.364 -0.2043 -0.3825  0.2959
35368SOL    HW1 9059  10.560   5.417   2.285 -0.1596 -0.5576  0.3328
35368SOL    HW2 9060  10.668   5.512   2.333 -1.4180  0.8734  0.4241
35369SOL     OW 9061   0.452   6.484  10.662 -0.1610  0.2830  0.0100
35369SOL    HW1 9062   0.453   6.506  10.755  1.1224 -0.1918  0.1379
35369SOL    HW2 9063   0.399   6.552  10.621 -0.3215  0.7845  1.0245
35370SOL     OW 9064   7.041   1.363   5.704 -0.5411  0.2621  0.0239
35370SOL    HW1 9065   7.098   1.288   5.685  1.6829  2.0455 -0.7918
35370SOL    HW2 9066   6.979   1.365   5.631 -3.6628 -3.2737  2.2119
35371SOL     OW 9067   7.254   8.202   5.617  0.0888  0.2597  0.1595
35371SOL    HW1 9068   7.205   8.223   5.697  0.1707 -0.1086  0.3083
35371SOL    HW2 9069   7.324   8.144   5.647 -0.7916 -1.1331 -0.4165
35372SOL     OW 9070   0.010   7.676   4.349 -0.0235 -0.4077 -0.3450
35372SOL    HW1 9071   0.094   7.706   4.385 -0.8627  0.2602  1.1496
35372SOL    HW2 9072  -0.023   7.752   4.301  0.4716 -0.8604 -1.4287
35373SOL     OW 9073   2.970  10.445   5.442 -0.3822  0.1016 -0.2296
35373SOL    HW1 9074   2.894  10.477   5.393 -0.0344 -1.1550 -1.6831
35373SOL    HW2 9075   2.938  10.430   5.530 -1.5463  0.6243 -0.5511
35374SOL     OW 9076   1.952   1.941  10.011  0.0978 -0.1955 -0.4670
35374SOL    HW1 9077   1.997   2.025  10.019  0.4053 -0.2536 -1.4667
35374SOL    HW2 9078   1.881   1.958   9.950 -0.4171 -0.4389  0.0586
35375SOL     OW 9079   2.181   4.803   7.584  0.0509 -0.2779 -0.2516
35375SOL    HW1 9080   2.098   4.779   7.544 -0.1349  0.0318 -0.0580
35375SOL    HW2 9081   2.236   4.832   7.510  0.3543 -1.4736 -0.5110
35376SOL     OW 9082   2.624   1.154   5.468 -0.9155  0.2877  0.1640
35376SOL    HW1 9083   2.645   1.238   5.429  0.7545 -0.1391  0.0638
35376SOL    HW2 9084   2.679   1.149   5.547  1.3163 -1.8680 -1.3579
35377SOL     OW 9085   7.712   1.879   4.724  0.0207 -0.2111 -0.4388
35377SOL    HW1 9086   7.648   1.831   4.776 -0.2636  0.0360 -0.5555
35377SOL    HW2 9087   7.784   1.898   4.785 -1.1521  1.7867  0.4389
35378SOL     OW 9088   9.068   7.822   7.395 -0.3500  0.6222 -0.4271
35378SOL    HW1 9089   9.104   7.828   7.306  0.9935 -1.3844 -0.0860
35378SOL    HW2 9090   9.039   7.911   7.415  1.3356  1.6143 -2.0664
35379SOL     OW 9091   0.801   8.632   1.810  0.3497 -0.5962 -0.1655
35379SOL    HW1 9092   0.745   8.697   1.851  0.1592  0.1135 -1.4814
35379SOL    HW2 9093   0.740   8.568   1.772  0.4994 -0.9534  0.1949
35380SOL     OW 9094   4.700   7.805   3.944  0.1573 -0.6106 -0.0466
35380SOL    HW1 9095   4.727   7.829   3.855 -0.0600  3.7889  0.8427
35380SOL    HW2 9096   4.604   7.799   3.939  0.0452  0.7776  0.0370
35381SOL     OW 9097   7.712   5.325   9.493  0.7604 -0.5009 -0.0952
35381SOL    HW1 9098   7.691   5.274   9.571  2.8200 -1.5985 -0.1968
35381SOL    HW2 9099   7.793   5.371   9.515  3.0691 -3.0920 -2.4563
35382SOL     OW 9100   8.449   9.362   9.380  0.0248 -0.4284  0.3186
35382SOL    HW1 9101   8.545   9.367   9.371  0.0127  2.1981  0.9160
35382SOL    HW2 9102   8.431   9.403   9.465 -1.6077 -1.7618  0.6707
35383SOL     OW 9103   3.259   8.171   5.829  0.1977 -0.0187  0.9061
35383SOL    HW1 9104   3.239   8.162   5.735 -0.3234  2.2178  0.7537
35383SOL    HW2 9105   3.296   8.258   5.837  0.2592 -0.1873  2.8092
35384SOL     OW 9106   4.626   7.400   1.193  0.0523  0.1133  0.2565
35384SOL    HW1 9107   4.596   7.414   1.103 -3.0352  1.0780  1.3194
35384SOL    HW2 9108   4.565   7.449   1.247  1.1902 -1.2453  2.9806
35385SOL     OW 9109   0.739   1.954   3.125 -0.2153 -0.1732  0.2258
35385SOL    HW1 9110   0.806   1.917   3.183 -0.9380 -1.1159  0.4830
35385SOL    HW2 9111   0.714   2.036   3.168  0.2680 -0.1618  0.4984
35386SOL     OW 9112   6.870   3.349   6.402 -0.3994  0.2528 -0.6378
35386SOL    HW1 9113   6.946   3.297   6.428  0.7691  1.8849 -0.6414
35386SOL    HW2 9114   6.806   3.336   6.472  0.2748 -0.3361 -0.1199
35387SOL     OW 9115   1.374   8.717   6.051 -0.1556  0.7472  0.2186
35387SOL    HW1 9116   1.388   8.655   5.980 -1.4078  1.4623 -0.6856
35387SOL    HW2 9117   1.450   8.774   6.048  0.9283 -0.5843  0.9499
35388SOL     OW 9118   7.184   2.142   6.557 -0.2130  0.3912 -0.0772
35388SOL    HW1 9119   7.209   2.089   6.482 -1.4250 -1.5253  0.7947
35388SOL    HW2 9120   7.261   2.140   6.614 -0.1418 -0.2122 -0.1846
35389SOL     OW 9121   9.856   5.680   9.469  0.3218  0.1140 -0.1807
35389SOL    HW1 9122   9.783   5.712   9.416  1.0063  1.6651 -0.2387
35389SOL    HW2 9123   9.826   5.596   9.503 -1.2661  0.4567 -0.6618
35390SOL     OW 9124   5.881   2.613   0.938  0.4728 -0.4938 -0.2185
35390SOL    HW1 9125   5.957   2.589   0.992  2.2394  0.6378 -2.0661
35390SOL    HW2 9126   5.899   2.572   0.853 -0.0109  1.3848 -1.2641
35391SOL     OW 9127  10.322   6.406   1.302 -0.0161 -0.4588 -0.5301
35391SOL    HW1 9128  10.290   6.482   1.253 -0.4997 -1.2930 -1.5473
35391SOL    HW2 9129  10.242   6.364   1.335  0.2632 -0.3823  0.2579
35392SOL     OW 9130   3.877   4.826   1.359  0.1140 -0.1587 -0.3380
35392SOL    HW1 9131   3.915   4.889   1.421 -2.2236  1.8537 -0.7656
35392SOL    HW2 9132   3.935   4.750   1.363  2.4183  1.5307  1.1492
35393SOL     OW 9133   6.920   2.797   0.473  0.0660 -0.0590  0.2642
35393SOL    HW1 9134   6.851   2.733   0.456 -0.3927  0.6860 -0.8329
35393SOL    HW2 9135   6.876   2.867   0.522  0.1677  0.1493  0.0635
35394SOL     OW 9136   7.220   4.908   6.286  0.4058 -0.5892 -0.3533
35394SOL    HW1 9137   7.128   4.929   6.271  0.5343  0.0005 -0.3698
35394SOL    HW2 9138   7.221   4.859   6.368  0.1873  0.4268  0.2750
35395SOL     OW 9139   5.028   0.642   4.577 -0.3445 -0.1545  0.5154
35395SOL    HW1 9140   5.002   0.575   4.641 -1.5854  1.2243  1.5137
35395SOL    HW2 9141   5.030   0.595   4.493 -1.3191 -1.4231  1.1648
35396SOL     OW 9142   7.215   5.172   4.454 -0.1557 -0.0612  0.0795
35396SOL    HW1 9143   7.200   5.087   4.412 -2.5225  1.0798 -1.6427
35396SOL    HW2 9144   7.296   5.204   4.415 -0.6879 -0.3750 -1.3395
35397SOL     OW 9145   0.941   4.510   0.809  0.1391 -0.2050 -0.0171
35397SOL    HW1 9146   1.001   4.548   0.745  0.5776 -0.5466  0.1882
35397SOL    HW2 9147   0.997   4.457   0.866 -0.3661 -0.6021  0.1192
35398SOL     OW 9148   6.122   6.039   4.069  0.1286 -0.0731 -0.2413
35398SOL    HW1 9149   6.152   5.979   4.001  0.3139  0.1467 -0.3523
35398SOL    HW2 9150   6.111   5.983   4.146 -0.7577 -0.4599 -0.6237
35399SOL     OW 9151   7.593   8.264   5.962  0.0710  0.3241 -0.2890
35399SOL    HW1 9152   7.553   8.179   5.944  2.9637 -1.2841  0.2230
35399SOL    HW2 9153   7.630   8.291   5.878  1.5751 -0.3457  0.1371
35400SOL     OW 9154   8.768   6.577   6.964 -0.1315  0.1739 -0.2839
35400SOL    HW1 9155   8.835   6.526   7.009  1.8956  2.2250 -0.8373
35400SOL    HW2 9156   8.768   6.542   6.874  0.3358  0.3113 -0.3357
35401SOL     OW 9157   4.857  10.582   8.048 -0.1380  1.0088 -0.7325
35401SOL    HW1 9158   4.824  10.565   8.136  1.0973  1.6015 -0.1382
35401SOL    HW2 9159   4.792  10.541   7.990  0.2973 -1.6478  0.4937
35402SOL     OW 9160   3.386   7.870   1.518 -0.6542  0.8492  0.2742
35402SOL    HW1 9161   3.400   7.849   1.610 -1.2867 -0.4057  0.1058
35402SOL    HW2 9162   3.363   7.787   1.477  3.2854  0.5306 -1.8077
35403SOL     OW 9163   6.633   0.410   2.210  0.0017  0.3836  0.4560
35403SOL    HW1 9164   6.700   0.375   2.151  0.7869  2.2334  0.1592
35403SOL    HW2 9165   6.662   0.384   2.297  0.1515 -0.3100  0.2069
35404SOL     OW 9166   0.085  10.002  10.069  0.0904 -0.1099  0.0486
35404SOL    HW1 9167   0.037  10.018   9.988  1.5852 -0.5886 -0.9715
35404SOL    HW2 9168   0.061  10.076  10.126 -0.9568  0.2437 -0.8150
35405SOL     OW 9169   2.766   1.622   2.397  0.3327 -0.2146  0.1078
35405SOL    HW1 9170   2.687   1.625   2.343 -0.8467  2.9523  1.7777
35405SOL    HW2 9171   2.829   1.678   2.351  0.7159 -0.6369  0.1064
35406SOL     OW 9172   7.650   4.951   4.110  0.0388 -0.4441 -0.1514
35406SOL    HW1 9173   7.601   4.918   4.185 -1.0927 -1.0268 -1.1234
35406SOL    HW2 9174   7.742   4.948   4.138 -0.4248  0.4637  1.6215
35407SOL     OW 9175   6.098   4.615   7.269 -0.1624  0.8757  0.6900
35407SOL    HW1 9176   6.120   4.636   7.360  0.9805  0.7233  0.4650
35407SOL    HW2 9177   6.048   4.533   7.275  0.7826  0.3143  1.1177
35408SOL     OW 9178   7.526   1.661   1.958 -0.4906 -0.0148 -0.3374
35408SOL    HW1 9179   7.538   1.582   2.011  1.4298 -0.9269 -2.0123
35408SOL    HW2 9180   7.567   1.731   2.009  1.0162 -0.8094 -0.4000
35409SOL     OW 9181   6.388   9.282   7.964 -0.1364 -0.5271 -0.7564
35409SOL    HW1 9182   6.336   9.250   7.891  0.6878 -1.1227 -1.0999
35409SOL    HW2 9183   6.399   9.206   8.021  0.0793 -0.3256 -0.5282
35410SOL     OW 9184  10.474   9.121   4.879 -0.4998  0.4253  0.2997
35410SOL    HW1 9185  10.490   9.071   4.959 -2.6825 -4.1672 -1.7931
35410SOL    HW2 9186  10.558   9.119   4.832  0.5398  2.4043  1.8936
35411SOL     OW 9187   4.546   8.538   9.605 -0.2510 -0.0619  0.3686
35411SOL    HW1 9188   4.557   8.507   9.695 -0.2264  0.9278  0.7107
35411SOL    HW2 9189   4.562   8.460   9.551 -0.1886 -0.6436  1.2134
35412SOL     OW 9190   6.639   2.673   1.031 -0.3476 -0.2595  0.1820
35412SOL    HW1 9191   6.717   2.626   1.002  0.1558 -0.2801  1.4999
35412SOL    HW2 9192   6.664   2.765   1.030 -1.3880  0.0981 -2.5704
35413SOL     OW 9193   6.893   3.838   7.338 -0.0621  0.4212  0.4110
35413SOL    HW1 9194   6.857   3.919   7.302  0.3702  0.8442  0.9107
35413SOL    HW2 9195   6.987   3.857   7.348  0.4858 -0.9052 -1.5929
35414SOL     OW 9196   3.527   5.362   6.164 -0.1353  0.3411 -0.1817
35414SOL    HW1 9197   3.607   5.314   6.184  0.7188  1.7826 -0.0402
35414SOL    HW2 9198   3.480   5.305   6.103  0.0139 -1.4408  1.2797
35415SOL     OW 9199   0.034   6.372   5.748 -0.4805 -0.1025 -0.9360
35415SOL    HW1 9200  -0.056   6.357   5.775 -0.3016 -0.0798 -0.2952
35415SOL    HW2 9201   0.041   6.467   5.737 -0.1926  0.0580  0.3631
35416SOL     OW 9202   9.236   6.387   7.565 -0.0496  0.2335  0.1467
35416SOL    HW1 9203   9.263   6.478   7.568 -0.7864  0.4312  1.0564
35416SOL    HW2 9204   9.234   6.359   7.656  1.3458 -1.0619 -0.1677
35417SOL     OW 9205   6.968   2.593   3.289  0.3332 -0.4721  0.4628
35417SOL    HW1 9206   6.908   2.624   3.357  0.3129 -1.6884  1.0295
35417SOL    HW2 9207   6.935   2.632   3.208  1.0094  1.9045  1.2623
35418SOL     OW 9208   1.298   9.509   7.425  0.3224 -0.6669  0.3585
35418SOL    HW1 9209   1.223   9.548   7.472  0.5364 -1.8605  1.7507
35418SOL    HW2 9210   1.282   9.532   7.334 -0.8481  0.5669  0.8197
35419SOL     OW 9211   6.619   8.053  10.670 -0.3949 -0.1520  0.1686
35419SOL    HW1 9212   6.629   8.089  10.582 -1.5512  0.1283  0.1374
35419SOL    HW2 9213   6.563   7.976  10.658 -1.2998  0.3998  0.7627
35420SOL     OW 9214   2.657   9.016   5.150 -0.5832  0.1121  0.3192
35420SOL    HW1 9215   2.703   9.098   5.168  0.8748 -1.1853  3.1867
35420SOL    HW2 9216   2.607   8.998   5.230 -0.3503 -2.0798  0.0552
35421SOL     OW 9217   0.019   5.418   8.058 -0.2973  0.4641  0.0686
35421SOL    HW1 9218   0.009   5.513   8.068 -2.2413  0.1028  2.6859
35421SOL    HW2 9219  -0.036   5.396   7.983 -2.0246  1.1745  1.0657
35422SOL     OW 9220   4.879   7.972   0.124  0.6453  0.3092 -0.6929
35422SOL    HW1 9221   4.785   7.953   0.118  0.4634  0.2713  1.5320
35422SOL    HW2 9222   4.909   7.921   0.198  2.2837  0.9225 -0.8971
35423SOL     OW 9223   5.130   8.449   7.659  0.0449  0.2206  0.6764
35423SOL    HW1 9224   5.158   8.362   7.687  0.1760  0.0610  0.0605
35423SOL    HW2 9225   5.174   8.509   7.719  3.2063  0.1052 -1.3161
35424SOL     OW 9226   5.341   9.616  10.203  0.1438  0.0687 -0.1884
35424SOL    HW1 9227   5.318   9.585  10.116  0.7410  0.0742 -0.3485
35424SOL    HW2 9228   5.386   9.543  10.244  1.2895  0.5941 -0.4628
35425SOL     OW 9229   7.119   9.590   0.289  0.2430  0.3584 -0.2126
35425SOL    HW1 9230   7.182   9.651   0.327  2.0205  0.6172 -3.2246
35425SOL    HW2 9231   7.110   9.521   0.355  1.4946  1.7269  1.5036
35426SOL     OW 9232   8.137   6.499   3.367  0.1489 -0.2200 -0.2905
35426SOL    HW1 9233   8.104   6.498   3.277  0.1642 -1.5851 -0.3007
35426SOL    HW2 9234   8.061   6.475   3.420 -0.2917  2.1189  0.2621
35427SOL     OW 9235   8.606   3.977   9.689 -0.1986  0.4243 -0.9467
35427SOL    HW1 9236   8.560   4.039   9.633 -1.0239  1.4372  0.7684
35427SOL    HW2 9237   8.689   4.020   9.709  0.0116  0.1478 -1.2059
35428SOL     OW 9238   3.631   2.827   8.361  0.5692  0.0165  0.1744
35428SOL    HW1 9239   3.694   2.760   8.387 -0.5779 -0.4022  2.0502
35428SOL    HW2 9240   3.573   2.836   8.436 -1.0796  1.0276 -1.1457
35429SOL     OW 9241   5.322   0.605   8.286  0.1618  0.0369  0.1152
35429SOL    HW1 9242   5.243   0.580   8.333 -0.9204 -0.1137 -1.6870
35429SOL    HW2 9243   5.335   0.536   8.221 -0.3402  1.7931 -1.9924
35430SOL     OW 9244   3.575   4.179   7.619 -0.3062 -0.1990  0.7144
35430SOL    HW1 9245   3.598   4.172   7.526 -0.0658 -0.6445  0.8040
35430SOL    HW2 9246   3.549   4.090   7.644 -0.8483  0.0186  0.9522
35431SOL     OW 9247   0.843   1.547   2.197 -0.0538 -0.9581 -0.1454
35431SOL    HW1 9248   0.931   1.531   2.230 -0.8262 -1.8904  1.6206
35431SOL    HW2 9249   0.834   1.490   2.121  1.1261 -0.2255 -0.8541
35432SOL     OW 9250   1.263   5.653  10.602  0.3337  0.3348 -0.1197
35432SOL    HW1 9251   1.217   5.599  10.666  0.7725  0.5593  0.3926
35432SOL    HW2 9252   1.352   5.661  10.637  1.1802 -1.1871 -1.7481
35433SOL     OW 9253   3.465   2.879   3.112 -0.4990  0.3578  0.3393
35433SOL    HW1 9254   3.553   2.913   3.131 -0.6245  1.2815 -0.6508
35433SOL    HW2 9255   3.423   2.872   3.198  0.4939  0.0082  0.8113
35434SOL     OW 9256   5.048   6.212   6.095 -0.2248 -0.6122  0.0493
35434SOL    HW1 9257   5.095   6.142   6.050  1.5686  1.0012 -0.7405
35434SOL    HW2 9258   5.111   6.248   6.157 -1.3006 -0.0407  0.8616
35435SOL     OW 9259   5.489   5.638   0.030 -0.6972  0.0581 -0.1592
35435SOL    HW1 9260   5.403   5.619  -0.008 -0.8783 -0.4517  0.4885
35435SOL    HW2 9261   5.498   5.575   0.101 -0.2164  0.7671  0.4219
35436SOL     OW 9262   1.990   4.347   8.516  0.1402 -0.1207  0.3707
35436SOL    HW1 9263   1.975   4.438   8.543  0.7900  0.1769 -0.2343
35436SOL    HW2 9264   2.055   4.314   8.579  0.7758  0.2072 -0.0995
35437SOL     OW 9265   8.162   7.385   9.273  0.2323 -0.7975 -0.3901
35437SOL    HW1 9266   8.236   7.416   9.325  0.1090 -2.7819  1.0865
35437SOL    HW2 9267   8.121   7.317   9.327 -1.7238 -0.8729 -1.8382
35438SOL     OW 9268   5.759   8.442   7.188 -0.9516 -0.2974  0.0629
35438SOL    HW1 9269   5.685   8.493   7.155  0.0903 -0.5751 -3.0538
35438SOL    HW2 9270   5.809   8.503   7.242 -0.6408  1.5687 -2.1823
35439SOL     OW 9271   7.597   2.614   0.985 -0.3610 -0.2837  0.0522
35439SOL    HW1 9272   7.598   2.625   0.890  0.3091  1.2801  0.2207
35439SOL    HW2 9273   7.618   2.700   1.020  3.0403 -1.5571  1.5744
35440SOL     OW 9274   4.429   5.007   5.478  0.2788  0.7759  0.5550
35440SOL    HW1 9275   4.382   4.956   5.412 -0.4962  3.1923 -0.8462
35440SOL    HW2 9276   4.515   5.023   5.440  0.0207  1.7200  0.3651
35441SOL     OW 9277   5.822   7.580   6.475  0.4408 -0.1063 -0.2929
35441SOL    HW1 9278   5.867   7.613   6.552 -0.4577  1.7882 -0.4973
35441SOL    HW2 9279   5.889   7.577   6.407  0.8575 -0.0740  0.1115
35442SOL     OW 9280   8.343   8.371   9.414 -0.2347  0.5460 -0.2997
35442SOL    HW1 9281   8.311   8.283   9.437  1.6413  0.0612  0.6607
35442SOL    HW2 9282   8.277   8.430   9.448  0.6524 -0.3154  3.4152
35443SOL     OW 9283   5.120   8.900   0.424 -0.0488  0.2714 -0.0300
35443SOL    HW1 9284   5.080   8.987   0.434  1.3672  0.7478  2.5548
35443SOL    HW2 9285   5.080   8.847   0.493  0.8231 -0.4148 -0.0293
35444SOL     OW 9286   6.400   9.967   1.316 -0.4173 -0.1154 -0.2010
35444SOL    HW1 9287   6.472  10.026   1.340 -1.5069  0.1181  3.0637
35444SOL    HW2 9288   6.400   9.901   1.385 -2.0649 -1.3197 -1.2730
35445SOL     OW 9289   4.047   5.622   2.060  0.1158 -0.4743 -0.1403
35445SOL    HW1 9290   4.062   5.625   2.154 -0.5401 -0.9006 -0.0213
35445SOL    HW2 9291   3.997   5.702   2.041  0.0629 -0.4972 -0.0962
35446SOL     OW 9292   8.128   6.530   0.505 -0.2525  0.3082  0.4083
35446SOL    HW1 9293   8.176   6.594   0.453  2.2500 -1.3608  0.4461
35446SOL    HW2 9294   8.197   6.477   0.546 -2.1361 -0.0890  3.3647
35447SOL     OW 9295   9.115   9.068   5.099 -0.2127 -0.5265  1.0246
35447SOL    HW1 9296   9.194   9.053   5.152  0.1813  1.8092  1.2129
35447SOL    HW2 9297   9.105   9.163   5.099  0.2717 -0.2440 -3.7383
35448SOL     OW 9298   5.061   1.448   3.951 -0.0172  0.3934 -0.0357
35448SOL    HW1 9299   4.982   1.432   4.002  0.7870  0.5472  1.3277
35448SOL    HW2 9300   5.126   1.388   3.988  0.7274  0.8635 -0.5503
35449SOL     OW 9301   5.715   1.977  10.311 -0.1708  0.1274  0.3117
35449SOL    HW1 9302   5.695   2.067  10.338 -0.2786 -0.1792  1.2994
35449SOL    HW2 9303   5.630   1.934  10.306 -0.0592 -0.1362  0.6497
35450SOL     OW 9304   5.289   6.852   8.161 -0.1283 -0.1102 -0.5521
35450SOL    HW1 9305   5.311   6.905   8.085  1.2492  0.2132  0.0351
35450SOL    HW2 9306   5.328   6.899   8.235 -1.3349 -0.4728  0.3479
35451SOL     OW 9307   4.502   6.824   5.770  0.1316 -0.1077  0.4193
35451SOL    HW1 9308   4.487   6.886   5.841 -1.0382 -0.3731  0.4354
35451SOL    HW2 9309   4.526   6.879   5.695  0.7013  0.2258  0.8438
35452SOL     OW 9310   2.668   1.229   2.240 -0.1890  0.1664  0.0973
35452SOL    HW1 9311   2.645   1.253   2.330 -0.7409 -0.4623  0.1264
35452SOL    HW2 9312   2.604   1.163   2.215  0.1712  0.0842 -0.6428
35453SOL     OW 9313   7.013   8.234   3.937 -0.1881 -0.0258 -0.3681
35453SOL    HW1 9314   6.941   8.184   3.975 -0.1963  0.0205 -0.3244
35453SOL    HW2 9315   7.043   8.180   3.863 -0.6373  0.2177 -0.7364
35454SOL     OW 9316   4.636   3.258   8.493  0.1251  0.1516 -0.1583
35454SOL    HW1 9317   4.689   3.213   8.427 -0.4070 -0.9641  0.1574
35454SOL    HW2 9318   4.700   3.301   8.550  0.6983 -1.0807  0.1466
35455SOL     OW 9319   0.894   0.593   7.855 -0.1623 -0.4177  0.0628
35455SOL    HW1 9320   0.880   0.580   7.949  2.9502 -0.8905  0.5755
35455SOL    HW2 9321   0.952   0.522   7.830  2.2711  1.8772 -1.2824
35456SOL     OW 9322   7.929   9.522   5.236  0.3979 -0.1658  0.4267
35456SOL    HW1 9323   7.871   9.532   5.161  1.4600 -0.4084 -0.4586
35456SOL    HW2 9324   7.989   9.451   5.210  1.6548  0.6841  0.9172
35457SOL     OW 9325   5.386   1.128   3.588 -0.4409 -0.4682 -0.6302
35457SOL    HW1 9326   5.320   1.186   3.626 -0.9913  0.2164 -2.5189
35457SOL    HW2 9327   5.456   1.125   3.653 -1.2519  0.7878  0.3380
35458SOL     OW 9328   5.683   9.392   2.950  0.0186 -0.5050 -0.2372
35458SOL    HW1 9329   5.722   9.381   2.864 -1.3475 -0.9494 -0.8274
35458SOL    HW2 9330   5.724   9.325   3.004 -1.1776 -2.1820 -1.3086
35459SOL     OW 9331   2.886   0.358   5.373 -0.9982  0.7294  0.6082
35459SOL    HW1 9332   2.943   0.286   5.348 -1.0916  0.5509  0.9005
35459SOL    HW2 9333   2.888   0.357   5.469 -0.7110  1.3432  0.6144
35460SOL     OW 9334   7.499   1.458   2.447  0.1540 -0.0474  0.0877
35460SOL    HW1 9335   7.442   1.516   2.497 -0.2701 -1.5059  1.3831
35460SOL    HW2 9336   7.511   1.381   2.503  2.6480 -0.2166 -0.5213
35461SOL     OW 9337   7.536   4.395   7.829  0.8598  0.1234  0.3280
35461SOL    HW1 9338   7.600   4.466   7.824  1.3618 -0.2947  0.6019
35461SOL    HW2 9339   7.455   4.432   7.796  1.8309 -0.0235 -2.4624
35462SOL     OW 9340  10.304   1.400   0.233  0.2341 -0.1818 -0.6200
35462SOL    HW1 9341  10.215   1.408   0.267  0.1437  1.6789 -1.2238
35462SOL    HW2 9342  10.359   1.442   0.300  0.7410 -1.6927 -0.0451
35463SOL     OW 9343  10.179   6.342   3.418 -0.0821  0.3563  0.6748
35463SOL    HW1 9344  10.186   6.438   3.421  0.9123  0.2861  1.3288
35463SOL    HW2 9345  10.130   6.319   3.497 -0.4798  0.3290  0.4241
35464SOL     OW 9346   5.562   1.572   7.958  0.3449  0.5102 -0.3036
35464SOL    HW1 9347   5.473   1.591   7.988  0.3217 -0.2082  0.0930
35464SOL    HW2 9348   5.618   1.625   8.014  0.2921 -0.7037  0.9447
35465SOL     OW 9349   2.783   5.993   2.528 -0.4870  0.0924  0.2421
35465SOL    HW1 9350   2.735   6.076   2.528  0.4363  0.6477 -0.1535
35465SOL    HW2 9351   2.757   5.951   2.446  0.9780  1.1855 -0.8321
35466SOL     OW 9352   5.664   6.876   7.991 -0.2190 -0.5259 -0.3246
35466SOL    HW1 9353   5.603   6.888   7.918  2.6870  0.1467 -2.8473
35466SOL    HW2 9354   5.703   6.790   7.975  0.6300 -0.2601  0.2792
35467SOL     OW 9355   3.534   0.475  10.667  0.5501  0.1232 -0.3345
35467SOL    HW1 9356   3.485   0.450  10.588  2.2178 -1.1524 -1.0304
35467SOL    HW2 9357   3.596   0.542  10.636 -0.2163  1.2048  0.3859
35468SOL     OW 9358   4.027   7.621   7.709  0.0595 -0.8523  0.1458
35468SOL    HW1 9359   4.117   7.588   7.709  0.5153  0.3341  0.4499
35468SOL    HW2 9360   4.002   7.623   7.802  0.4026  0.5500  0.2322
35469SOL     OW 9361  10.509   2.358   9.622 -0.0245 -0.2339 -0.5629
35469SOL    HW1 9362  10.548   2.295   9.683 -1.5124  0.2879  1.0247
35469SOL    HW2 9363  10.471   2.425   9.678 -0.8167  0.6818 -2.1161
35470SOL     OW 9364   6.235   5.078   6.780 -0.1388  0.2287  0.1048
35470SOL    HW1 9365   6.325   5.055   6.759 -0.4234  0.1198 -1.0466
35470SOL    HW2 9366   6.230   5.173   6.768  0.0848  0.3993  1.2327
35471SOL     OW 9367   0.199   1.827   9.377 -0.4794  0.0303  0.3702
35471SOL    HW1 9368   0.278   1.802   9.330 -0.6191  0.9264 -0.3506
35471SOL    HW2 9369   0.201   1.922   9.381 -1.5387  0.0758  0.3150
35472SOL     OW 9370   6.452   5.692   2.150 -0.2029  0.6389  0.3327
35472SOL    HW1 9371   6.421   5.606   2.124  1.5144 -0.0481  0.4180
35472SOL    HW2 9372   6.429   5.749   2.077  0.9748 -0.4526 -0.9485
35473SOL     OW 9373   3.698   6.018   3.628 -0.6138 -0.4814 -0.5115
35473SOL    HW1 9374   3.676   5.993   3.538 -0.6622  0.1817 -0.6886
35473SOL    HW2 9375   3.695   5.935   3.677 -2.0266 -0.6441 -0.8243
35474SOL     OW 9376   3.398   2.258   9.893 -0.3296  0.2366 -0.3494
35474SOL    HW1 9377   3.349   2.332   9.858 -0.0015  0.1229 -1.0604
35474SOL    HW2 9378   3.488   2.288   9.898  0.2059 -0.7570 -2.6581
35475SOL     OW 9379   4.139   2.097   3.311 -0.1030  0.1518  0.0770
35475SOL    HW1 9380   4.180   2.122   3.228  2.2659  0.9263  1.3711
35475SOL    HW2 9381   4.082   2.171   3.333 -1.4084 -0.4302 -1.2144
35476SOL     OW 9382   6.789   0.612   4.170 -0.1562 -0.3548  0.3913
35476SOL    HW1 9383   6.832   0.689   4.132 -0.3952  0.2303  1.2972
35476SOL    HW2 9384   6.705   0.607   4.125 -0.5144  0.4433  0.9412
35477SOL     OW 9385   9.619   7.166   3.305 -0.5622  0.1760 -0.0492
35477SOL    HW1 9386   9.696   7.191   3.356 -0.3127 -0.4129 -0.1306
35477SOL    HW2 9387   9.553   7.231   3.328  0.1550  1.0763 -0.4809
35478SOL     OW 9388   8.630   9.515   4.472  0.2988 -0.4869  0.1836
35478SOL    HW1 9389   8.671   9.555   4.395 -2.5422  0.6226 -0.9092
35478SOL    HW2 9390   8.669   9.560   4.547  1.9081 -0.3774 -0.6953
35479SOL     OW 9391   1.360   0.474   8.536  0.1881  0.7533  0.0087
35479SOL    HW1 9392   1.299   0.467   8.463  1.1012  1.5320 -0.8539
35479SOL    HW2 9393   1.307   0.505   8.609 -0.5692  0.8197 -0.5606
35480SOL     OW 9394   0.474   4.121   5.493  0.1108  0.0981  0.3819
35480SOL    HW1 9395   0.474   4.034   5.452 -0.8060  0.4760 -0.4434
35480SOL    HW2 9396   0.499   4.180   5.422 -2.3235  0.8692  0.0802
35481SOL     OW 9397   3.877   7.551   8.606  0.0478  0.2386  0.0981
35481SOL    HW1 9398   3.897   7.552   8.512  1.9552  0.1820  0.4818
35481SOL    HW2 9399   3.800   7.609   8.614 -1.3215 -1.1995 -1.7077
35482SOL     OW 9400   7.448   5.790   0.609  0.3270 -0.6252  0.2308
35482SOL    HW1 9401   7.432   5.696   0.620  2.3898 -0.8153  2.5844
35482SOL    HW2 9402   7.544   5.797   0.610  0.2413  1.4249 -1.1126
35483SOL     OW 9403   9.992   1.762   9.014 -0.1007 -0.3050  0.2866
35483SOL    HW1 9404  10.037   1.846   9.026  0.1174 -0.3888  0.0719
35483SOL    HW2 9405  10.052   1.697   9.050 -0.1608 -0.3933  0.2282
35484SOL     OW 9406   4.506   3.260   3.752 -0.1474 -0.0196 -0.1649
35484SOL    HW1 9407   4.548   3.330   3.702 -0.8438  0.6648  0.1902
35484SOL    HW2 9408   4.413   3.274   3.741 -0.3861  0.9149  2.2591
35485SOL     OW 9409   7.975   4.684  10.074  0.5602  0.1764  0.0260
35485SOL    HW1 9410   7.981   4.701  10.168  2.2989  2.0084 -0.3389
35485SOL    HW2 9411   7.943   4.766  10.037 -2.5206 -1.2886 -0.8244
35486SOL     OW 9412   4.618   1.079   3.174  0.3103 -1.0522  0.5027
35486SOL    HW1 9413   4.691   1.136   3.199  0.8962 -1.4340 -0.3157
35486SOL    HW2 9414   4.570   1.065   3.256  0.7965 -0.2934  0.9255
35487SOL     OW 9415   1.275   2.798   8.238  0.3376 -0.2541  0.3802
35487SOL    HW1 9416   1.358   2.845   8.235  0.0793  0.3117  1.4146
35487SOL    HW2 9417   1.298   2.709   8.265  0.4240  0.5285  3.1792
35488SOL     OW 9418   7.805  10.280   5.775  0.1500  0.1241  0.3961
35488SOL    HW1 9419   7.813  10.349   5.841 -1.0492  1.2335 -0.5697
35488SOL    HW2 9420   7.855  10.311   5.700  0.1880 -0.3836  0.2054
35489SOL     OW 9421   2.820   0.014   9.523  0.6918  0.3193 -0.2413
35489SOL    HW1 9422   2.843  -0.078   9.533  1.6327  0.7333  1.8057
35489SOL    HW2 9423   2.900   0.056   9.492  0.8586  0.7442  0.7332
35490SOL     OW 9424   1.126   9.137  10.261  0.2576  0.1241  0.0581
35490SOL    HW1 9425   1.218   9.122  10.283  0.5418 -0.8031 -1.5971
35490SOL    HW2 9426   1.088   9.049  10.256 -0.6208  0.4782  0.2914
35491SOL     OW 9427   9.038   6.766  10.310 -0.6259  0.1790 -0.1318
35491SOL    HW1 9428   9.100   6.835  10.334  0.9087  0.0140 -3.1066
35491SOL    HW2 9429   8.952   6.801  10.333  0.2997  2.0183  0.7116
35492SOL     OW 9430   9.751   0.852   5.593 -0.0351  0.0842  0.2975
35492SOL    HW1 9431   9.783   0.867   5.505 -2.0680 -1.1434 -0.7405
35492SOL    HW2 9432   9.758   0.937   5.637  0.9214  0.7303 -1.0572
35493SOL     OW 9433   5.696   9.210   6.562 -0.1506 -0.2515  0.4563
35493SOL    HW1 9434   5.651   9.168   6.489  0.4698  0.9437 -0.6680
35493SOL    HW2 9435   5.785   9.225   6.530 -0.1501  1.2212  1.0516
35494SOL     OW 9436  10.273   7.410   3.665 -0.3278  0.0838 -0.2667
35494SOL    HW1 9437  10.324   7.356   3.725 -0.1202  0.3634 -0.1895
35494SOL    HW2 9438  10.190   7.426   3.711 -0.5711 -0.5396 -0.4769
35495SOL     OW 9439  10.546   0.415   4.448  0.0536  0.3425  0.0027
35495SOL    HW1 9440  10.517   0.506   4.442 -0.0861  0.2107 -3.2990
35495SOL    HW2 9441  10.642   0.420   4.445  0.0561  0.3669  0.0896
35496SOL     OW 9442   2.668   0.500   5.362  0.2350  0.0336  0.1522
35496SOL    HW1 9443   2.632   0.513   5.274 -0.1485  0.8571  0.4200
35496SOL    HW2 9444   2.746   0.447   5.348  0.3733  0.4432 -0.7287
35497SOL     OW 9445   4.526   1.049   0.597 -0.1268  0.4156 -0.4456
35497SOL    HW1 9446   4.552   0.967   0.554 -1.1252  0.0381 -0.3671
35497SOL    HW2 9447   4.526   1.027   0.690  0.4647  0.7673 -0.3602
35498SOL     OW 9448   5.030   1.716   6.145 -0.1029  0.0169  0.2750
35498SOL    HW1 9449   5.072   1.632   6.160  0.2923  0.0117 -0.7862
35498SOL    HW2 9450   5.035   1.729   6.050 -0.7916  0.9052  0.3441
35499SOL     OW 9451   0.783   4.210   3.498 -0.2817  0.0581  0.0837
35499SOL    HW1 9452   0.835   4.185   3.422 -1.5176 -1.2349 -0.3649
35499SOL    HW2 9453   0.783   4.306   3.496  1.1747  0.0786 -0.4998
35500SOL     OW 9454   4.194   9.779   6.498 -0.7271 -0.3487  0.3429
35500SOL    HW1 9455   4.184   9.863   6.543 -1.7379  1.1771 -2.5128
35500SOL    HW2 9456   4.121   9.726   6.531 -2.2490  1.1913 -0.3874
35501SOL     OW 9457   3.437   0.533   7.968 -0.0681 -0.4499 -0.3641
35501SOL    HW1 9458   3.472   0.620   7.945  0.5732 -0.5305  0.2939
35501SOL    HW2 9459   3.345   0.537   7.940  0.3765 -0.1535 -1.9111
35502SOL     OW 9460  10.498   4.393   9.436  0.1337  0.1898 -0.1384
35502SOL    HW1 9461  10.590   4.410   9.414  0.4430  0.7445  1.4349
35502SOL    HW2 9462  10.471   4.470   9.486 -0.5965 -0.8399  1.1046
35503SOL     OW 9463   0.947   8.892   5.292  0.0131 -0.4570  0.2119
35503SOL    HW1 9464   0.862   8.898   5.249 -0.0432  0.2745  0.3960
35503SOL    HW2 9465   0.966   8.799   5.297 -0.6678 -0.6137 -0.0488
35504SOL     OW 9466   9.773   7.792   1.787  0.2744  0.0420 -0.1582
35504SOL    HW1 9467   9.842   7.800   1.854 -0.4767  0.9847  0.5319
35504SOL    HW2 9468   9.811   7.734   1.721  1.4158 -0.1267  0.6062
35505SOL     OW 9469   9.617   3.257   1.845 -0.3068  0.1313  0.1149
35505SOL    HW1 9470   9.680   3.211   1.901 -1.7770 -1.6299  0.4292
35505SOL    HW2 9471   9.643   3.233   1.756  1.2662  1.9062  0.0468
35506SOL     OW 9472   7.929   7.444   6.464  0.3857 -0.6537 -0.7436
35506SOL    HW1 9473   7.901   7.413   6.378  0.6915 -2.9634 -0.0920
35506SOL    HW2 9474   7.948   7.364   6.513  0.7881  0.6102  1.2923
35507SOL     OW 9475   0.673   5.673   4.514 -0.0194  0.5886 -0.0304
35507SOL    HW1 9476   0.743   5.622   4.555 -0.2836 -0.5570 -0.9639
35507SOL    HW2 9477   0.705   5.693   4.427 -1.1642 -0.6625 -0.7684
35508SOL     OW 9478   5.647   3.354   4.017 -0.4128  0.4263  0.2535
35508SOL    HW1 9479   5.654   3.363   4.112  0.4301  0.9386  0.1549
35508SOL    HW2 9480   5.581   3.417   3.991 -0.6625  0.2691  0.5010
35509SOL     OW 9481   8.428   9.632   5.546  0.6927  0.0013 -0.0055
35509SOL    HW1 9482   8.515   9.597   5.529  0.0561 -1.3119 -0.6959
35509SOL    HW2 9483   8.437   9.682   5.628  2.1108  0.0236 -0.1655
35510SOL     OW 9484   1.980   4.026   6.745 -0.1849  0.0998  0.0174
35510SOL    HW1 9485   1.965   3.935   6.771 -0.6913 -0.2776 -1.5429
35510SOL    HW2 9486   1.972   4.075   6.827  1.8926 -1.4224  1.2256
35511SOL     OW 9487  10.065  10.554   4.765 -0.1977  0.0460  0.0115
35511SOL    HW1 9488  10.065  10.585   4.674 -0.5448 -0.1328 -0.0505
35511SOL    HW2 9489   9.981  10.511   4.775 -0.7797  1.3409  0.8726
35512SOL     OW 9490   0.314   8.693   9.191  0.0235  0.4049  0.3541
35512SOL    HW1 9491   0.405   8.720   9.186 -0.3435  1.5392 -1.8497
35512SOL    HW2 9492   0.306   8.623   9.126 -0.4671 -0.4589  1.3126
35513SOL     OW 9493   4.790   0.636   4.312  0.5484 -0.1668  0.0600
35513SOL    HW1 9494   4.803   0.562   4.252  3.4355  0.7089 -0.5353
35513SOL    HW2 9495   4.700   0.664   4.295  0.0671 -2.2367 -1.1898
35514SOL     OW 9496   4.523   4.210  10.020 -0.1463 -0.2027 -0.0543
35514SOL    HW1 9497   4.557   4.130  10.060 -1.4826 -1.9977 -2.2685
35514SOL    HW2 9498   4.599   4.252   9.980  0.6968  0.0888  1.7729
35515SOL     OW 9499   8.613   6.641   1.323 -0.5969  1.1006  0.3101
35515SOL    HW1 9500   8.594   6.616   1.232 -1.2539  0.0562  0.7294
35515SOL    HW2 9501   8.626   6.559   1.369 -4.1172  1.3496  2.0120
35516SOL     OW 9502   9.973   5.628   8.223  0.2741  0.2997  0.6452
35516SOL    HW1 9503   9.937   5.706   8.265 -0.8776 -0.5942  1.4021
35516SOL    HW2 9504   9.998   5.656   8.135 -0.2496  1.4709  0.8589
35517SOL     OW 9505   7.790   0.047   9.458  0.0275  0.4449 -0.3810
35517SOL    HW1 9506   7.863   0.072   9.402  2.4338 -0.6994  2.0062
35517SOL    HW2 9507   7.798  -0.048   9.466 -1.0522  0.4329  0.8130
35518SOL     OW 9508   2.560   7.896   6.124  0.1849  0.9347  0.1630
35518SOL    HW1 9509   2.511   7.968   6.082 -0.6053  0.7765  0.7956
35518SOL    HW2 9510   2.628   7.874   6.060 -0.3644  1.3819 -0.6034
35519SOL     OW 9511   0.420   9.783   6.650  0.1037  0.7086  0.4811
35519SOL    HW1 9512   0.373   9.792   6.568 -1.9849  0.6057  1.5958
35519SOL    HW2 9513   0.482   9.711   6.635 -1.8616 -0.9153 -0.3236
35520SOL     OW 9514   6.641   0.769   2.565 -0.3103  0.9631 -0.3827
35520SOL    HW1 9515   6.566   0.710   2.559 -0.0134  0.3531  1.2329
35520SOL    HW2 9516   6.688   0.758   2.482 -0.5489 -0.7124 -0.3198
35521SOL     OW 9517   4.013   0.787   5.961 -0.4054  0.3900  0.0512
35521SOL    HW1 9518   4.031   0.759   5.871 -1.6909  0.0334 -0.1201
35521SOL    HW2 9519   4.072   0.735   6.015  0.9410  1.1670 -0.6246
35522SOL     OW 9520   2.347   8.090   5.065 -0.4336  0.0870  0.1768
35522SOL    HW1 9521   2.431   8.103   5.108 -1.0656 -0.5795  1.6799
35522SOL    HW2 9522   2.342   7.996   5.049  0.1894  0.4060 -2.2962
35523SOL     OW 9523   8.781   9.461   7.527  0.3757  0.0757  0.1083
35523SOL    HW1 9524   8.858   9.465   7.584  0.2114  1.2766  0.2849
35523SOL    HW2 9525   8.749   9.371   7.536  2.3850 -0.7866 -0.8388
35524SOL     OW 9526   4.003   6.985   0.522  0.2404  0.1554 -0.0515
35524SOL    HW1 9527   4.063   6.975   0.596 -0.9247  1.5845  1.1486
35524SOL    HW2 9528   3.997   7.080   0.508 -2.8093  0.1959  0.8299
35525SOL     OW 9529   6.249   0.880  10.029 -0.0429 -0.6518 -0.0767
35525SOL    HW1 9530   6.258   0.918   9.941 -1.0328 -0.6324 -0.1843
35525SOL    HW2 9531   6.276   0.789  10.018  2.5223 -0.0090  0.2185
35526SOL     OW 9532   2.977   9.629   4.126 -0.0896  0.3616  0.2823
35526SOL    HW1 9533   2.952   9.621   4.034 -1.0024  2.3772  0.3031
35526SOL    HW2 9534   2.913   9.690   4.163  1.4865  1.2084  1.7571
35527SOL     OW 9535   4.568   4.099   2.008  0.2793  0.4726 -0.4491
35527SOL    HW1 9536   4.525   4.032   1.954 -1.8674  0.8286  0.7159
35527SOL    HW2 9537   4.626   4.144   1.947  0.1783 -1.0619 -1.7530
35528SOL     OW 9538   9.896   5.838   7.672 -0.3772 -0.3167  0.0096
35528SOL    HW1 9539   9.868   5.749   7.691  1.8340 -1.1406 -0.2479
35528SOL    HW2 9540   9.928   5.834   7.581  0.5460  0.5127  0.2765
35529SOL     OW 9541   2.078   1.032   4.161  0.8837 -0.3070 -0.5229
35529SOL    HW1 9542   2.158   0.980   4.176  1.8447  1.0384 -0.8277
35529SOL    HW2 9543   2.008   0.966   4.153  1.8041 -1.4844  0.6136
35530SOL     OW 9544   4.944   9.775   8.495 -0.4015 -0.3863 -0.5151
35530SOL    HW1 9545   5.012   9.814   8.440 -0.6804 -1.1013 -1.3953
35530SOL    HW2 9546   4.952   9.681   8.480 -0.3681 -0.6127  0.8315
35531SOL     OW 9547   6.930   2.518   4.270  0.0936  0.1323  0.5090
35531SOL    HW1 9548   6.970   2.435   4.246 -0.8635 -0.3961  0.7014
35531SOL    HW2 9549   6.998   2.564   4.319  0.5441 -0.6322  0.6149
35532SOL     OW 9550   7.470   8.661   4.271  0.1872  0.0639  0.2707
35532SOL    HW1 9551   7.472   8.580   4.322  0.3356  0.9016  1.6434
35532SOL    HW2 9552   7.559   8.671   4.237 -0.0144 -0.7081 -0.5480
35533SOL     OW 9553   4.463   4.383   5.500 -0.6166  0.0766  0.1691
35533SOL    HW1 9554   4.384   4.356   5.453 -0.5347  0.9513 -0.5125
35533SOL    HW2 9555   4.528   4.316   5.479 -1.2931 -0.9128  1.1289
35534SOL     OW 9556   4.741   3.061   7.083  0.8468 -0.6969 -0.1086
35534SOL    HW1 9557   4.766   2.969   7.084 -0.7685 -1.3237 -3.2608
35534SOL    HW2 9558   4.662   3.065   7.138  1.7469 -0.8184  1.2451
35535SOL     OW 9559   2.471   4.172   2.006 -0.2067 -0.4478  0.3937
35535SOL    HW1 9560   2.411   4.202   2.075 -0.8639  1.0831 -0.7870
35535SOL    HW2 9561   2.439   4.084   1.984 -0.7435 -0.4673  1.2008
35536SOL     OW 9562   7.366   2.596   6.587 -0.8703  0.1410  0.2695
35536SOL    HW1 9563   7.374   2.626   6.497  0.2236  0.4052  0.4311
35536SOL    HW2 9564   7.304   2.524   6.584  0.8640 -1.3950 -1.1167
35537SOL     OW 9565  10.635   4.235   3.209 -0.1883  0.0157 -0.3251
35537SOL    HW1 9566  10.721   4.249   3.169 -0.1973 -0.9691 -0.7153
35537SOL    HW2 9567  10.583   4.193   3.141 -1.2482  1.3300 -0.3594
35538SOL     OW 9568   5.148   0.882   6.294  0.3163 -0.1600  0.0184
35538SOL    HW1 9569   5.202   0.899   6.217  1.9171 -0.2853  1.0570
35538SOL    HW2 9570   5.164   0.789   6.314 -0.2113 -0.1731  0.3844
35539SOL     OW 9571   6.745   1.617   9.609  0.2115  0.6144  0.4633
35539SOL    HW1 9572   6.775   1.643   9.696 -2.1243  1.2724  1.1764
35539SOL    HW2 9573   6.653   1.646   9.606  0.3829  1.1980 -2.4674
35540SOL     OW 9574   7.219   9.514   1.548 -0.4756 -0.3228 -0.6671
35540SOL    HW1 9575   7.193   9.488   1.460  2.3712  0.5047 -1.8634
35540SOL    HW2 9576   7.293   9.457   1.570 -0.2363  0.4161  0.5880
35541SOL     OW 9577   9.259   6.497   2.382 -0.0541  0.1080 -0.0283
35541SOL    HW1 9578   9.345   6.466   2.353 -0.4905 -1.3504  0.1709
35541SOL    HW2 9579   9.279   6.555   2.455  0.9019  1.9128 -1.6425
35542SOL     OW 9580   4.605   5.449   6.719 -0.6923  0.2932  0.6849
35542SOL    HW1 9581   4.541   5.441   6.790  0.2605  3.7744  2.1352
35542SOL    HW2 9582   4.690   5.441   6.762 -0.0892 -0.2382 -0.5438
35543SOL     OW 9583   6.436   3.910   9.647 -0.5893 -0.3230 -0.0435
35543SOL    HW1 9584   6.383   3.868   9.579 -0.5475 -0.6430  0.1184
35543SOL    HW2 9585   6.525   3.911   9.612 -0.0613 -2.8062  1.0095
35544SOL     OW 9586   6.625   6.553   3.456  0.1966 -0.2871  0.0036
35544SOL    HW1 9587   6.642   6.647   3.453 -1.2329  0.2135  3.0759
35544SOL    HW2 9588   6.689   6.520   3.520  0.4283 -1.3405 -0.7539
35545SOL     OW 9589   6.407   5.751   9.604 -0.0239 -0.4269  0.0277
35545SOL    HW1 9590   6.338   5.799   9.649  0.4307 -1.3744  1.8350
35545SOL    HW2 9591   6.460   5.818   9.562 -1.8652  0.3369 -1.2246
35546SOL     OW 9592   5.461   3.799   9.598  0.0593 -0.3644 -0.0071
35546SOL    HW1 9593   5.396   3.732   9.575  0.5297 -0.2643 -1.7899
35546SOL    HW2 9594   5.514   3.759   9.667 -0.2417 -1.4725 -0.3975
35547SOL     OW 9595   2.015   1.493   3.055  0.0616 -0.3765  0.1766
35547SOL    HW1 9596   1.962   1.423   3.018 -1.1331 -0.5154  2.0293
35547SOL    HW2 9597   1.962   1.572   3.044 -0.1132 -0.3477  1.1542
35548SOL     OW 9598   5.085   9.806   7.612 -0.0450 -0.0438 -0.0470
35548SOL    HW1 9599   5.172   9.818   7.572  0.7767 -2.1982  0.9343
35548SOL    HW2 9600   5.070   9.712   7.608 -1.2282  0.0035  2.0156
35549SOL     OW 9601   4.331   8.458   4.938  0.1611 -0.1873  0.5632
35549SOL    HW1 9602   4.350   8.364   4.948 -0.6242 -0.3641  0.4461
35549SOL    HW2 9603   4.328   8.472   4.844  1.9691  0.3237  0.5480
35550SOL     OW 9604   1.568   2.265   2.105 -0.5038 -0.1470 -0.1676
35550SOL    HW1 9605   1.625   2.197   2.141  1.0468 -0.0756 -2.2767
35550SOL    HW2 9606   1.534   2.311   2.182 -0.1145 -2.0994  1.2544
35551SOL     OW 9607   5.480   5.094   6.436  0.1851 -0.2932  0.2146
35551SOL    HW1 9608   5.419   5.148   6.385 -0.4074  0.3368  1.5321
35551SOL    HW2 9609   5.558   5.088   6.382 -0.9232 -0.8408 -1.3849
35552SOL     OW 9610   3.411   2.261   4.492  0.3548 -0.1739  0.1606
35552SOL    HW1 9611   3.340   2.288   4.434  1.3658  1.1055 -0.5542
35552SOL    HW2 9612   3.490   2.290   4.447  1.2244  0.1246  1.8014
35553SOL     OW 9613   4.097   6.591   6.579  0.0419 -0.7699 -0.5766
35553SOL    HW1 9614   4.170   6.633   6.532  0.9874 -1.0287  0.5945
35553SOL    HW2 9615   4.137   6.516   6.622 -0.5846 -0.1314  1.2520
35554SOL     OW 9616   2.685   3.015   2.789 -0.3358  0.6024 -0.5714
35554SOL    HW1 9617   2.755   3.001   2.725  0.6469  0.4673  0.5057
35554SOL    HW2 9618   2.610   2.968   2.753  0.8204 -1.3732 -0.5616
35555SOL     OW 9619   3.287   5.088   6.096 -0.2930  0.3218 -0.5340
35555SOL    HW1 9620   3.256   5.007   6.055 -0.1793  0.4677 -0.9114
35555SOL    HW2 9621   3.332   5.058   6.175  0.0114 -0.0132 -0.8268
35556SOL     OW 9622   9.534   5.112   8.044 -0.0676 -0.5611 -0.4068
35556SOL    HW1 9623   9.553   5.178   7.977 -1.9049 -0.9078 -1.3398
35556SOL    HW2 9624   9.546   5.028   7.998 -0.8118 -0.8138 -0.1482
35557SOL     OW 9625   2.436   8.234   9.027  0.5823 -0.0074  0.2016
35557SOL    HW1 9626   2.359   8.217   9.081 -0.1873 -0.5613 -1.0158
35557SOL    HW2 9627   2.457   8.150   8.987  0.2838  0.6424 -1.3995
35558SOL     OW 9628   8.981   2.731   5.974  0.2174 -0.2203 -0.1474
35558SOL    HW1 9629   8.928   2.759   5.900  2.4715  1.6052 -1.1839
35558SOL    HW2 9630   8.973   2.802   6.038 -0.0126 -0.7962  0.4823
35559SOL     OW 9631   2.158   0.015   4.241  0.6841 -0.2138  0.1672
35559SOL    HW1 9632   2.199  -0.071   4.244  1.6081  0.2052 -0.2453
35559SOL    HW2 9633   2.230   0.076   4.229  0.0079  0.5970  0.1480
35560SOL     OW 9634   4.412   6.273   3.330  0.7185  1.0020  0.3390
35560SOL    HW1 9635   4.471   6.241   3.262 -0.6646 -1.8667  0.3629
35560SOL    HW2 9636   4.325   6.270   3.290  0.0374  0.5240  1.7813
35561SOL     OW 9637  10.592   8.801   7.502 -0.1077  0.9061  0.2323
35561SOL    HW1 9638  10.551   8.715   7.496 -1.9886  1.7238  0.6579
35561SOL    HW2 9639  10.586   8.825   7.594  0.1303  1.6289  0.0675
35562SOL     OW 9640   9.795   1.757   6.917  0.3878 -0.6281  0.5163
35562SOL    HW1 9641   9.778   1.845   6.884  0.5668 -1.5747 -2.3963
35562SOL    HW2 9642   9.716   1.734   6.966 -1.6591 -0.3613 -2.3536
35563SOL     OW 9643   8.341   6.594   8.605 -0.4624 -0.7207 -0.1527
35563SOL    HW1 9644   8.434   6.574   8.588  0.1706  1.2496  0.6590
35563SOL    HW2 9645   8.321   6.667   8.546 -1.2420 -0.5709  0.2809
35564SOL     OW 9646   0.448   8.164   3.792 -0.2610  0.4276  0.1320
35564SOL    HW1 9647   0.489   8.248   3.773 -0.2746  0.3767 -0.1255
35564SOL    HW2 9648   0.430   8.125   3.706  1.8369 -0.8657  0.2066
35565SOL     OW 9649  10.683   1.354   3.676  0.3120  0.1612  0.3914
35565SOL    HW1 9650  10.772   1.320   3.675  0.4598  0.5459  0.2126
35565SOL    HW2 9651  10.683   1.425   3.611 -0.3516 -0.4016 -0.2453
35566SOL     OW 9652   5.289  10.549   0.064 -0.3346 -0.0633  0.1390
35566SOL    HW1 9653   5.278  10.627   0.119 -0.4977 -0.1890  0.2835
35566SOL    HW2 9654   5.291  10.584  -0.025 -0.3793  0.1109  0.2047
35567SOL     OW 9655  10.283   5.746   4.072 -0.8871  0.4982 -0.5700
35567SOL    HW1 9656  10.230   5.787   4.004  1.2039  1.8131 -1.4958
35567SOL    HW2 9657  10.279   5.806   4.146  0.8458  1.6350 -1.3465
35568SOL     OW 9658   4.002   0.871   8.412  0.1857  0.0618 -0.1938
35568SOL    HW1 9659   4.072   0.832   8.360 -0.6398 -1.1911 -0.4217
35568SOL    HW2 9660   3.928   0.810   8.402 -0.1406 -0.0136  2.1180
35569SOL     OW 9661   4.883   9.428   2.284 -0.0959  0.0413  0.1445
35569SOL    HW1 9662   4.802   9.415   2.235 -0.0686  0.6127 -0.0615
35569SOL    HW2 9663   4.886   9.355   2.346 -0.6088 -0.1530 -0.0554
35570SOL     OW 9664   8.219   5.938   6.164 -0.2141  0.3986 -0.4523
35570SOL    HW1 9665   8.204   5.845   6.183 -0.0436  0.4219 -0.2017
35570SOL    HW2 9666   8.273   5.937   6.085  0.2349  0.2681 -0.1502
35571SOL     OW 9667   1.281   9.844   4.332  0.3614  0.5753  0.0940
35571SOL    HW1 9668   1.190   9.865   4.310  0.6002  1.0940 -0.4255
35571SOL    HW2 9669   1.275   9.782   4.405 -0.4628 -1.0710 -1.3025
35572SOL     OW 9670   8.421   0.668   6.918 -0.0909  0.1757  0.0051
35572SOL    HW1 9671   8.372   0.688   6.838 -0.3785 -0.7830 -0.0707
35572SOL    HW2 9672   8.395   0.735   6.980  0.1920  0.9828 -0.7232
35573SOL     OW 9673   3.524   0.249   9.836  0.0092 -0.5848  0.0702
35573SOL    HW1 9674   3.567   0.332   9.859  0.3004 -0.6047 -0.3824
35573SOL    HW2 9675   3.469   0.228   9.911 -0.9574  0.6067 -0.2836
35574SOL     OW 9676   5.530   2.880   4.031  0.6196  0.4478  0.3313
35574SOL    HW1 9677   5.564   2.836   3.953  0.8473  0.3092  0.5105
35574SOL    HW2 9678   5.607   2.911   4.078  0.4906  0.3081  0.6357
35575SOL     OW 9679   4.233   1.419   9.049  0.5996  0.5039  0.8585
35575SOL    HW1 9680   4.216   1.348   9.111 -0.0142 -0.2213 -0.1169
35575SOL    HW2 9681   4.268   1.375   8.971 -0.0132  1.2388  0.1472
35576SOL     OW 9682   5.774   6.845   0.300 -0.2509  0.0968  0.2297
35576SOL    HW1 9683   5.763   6.789   0.376 -0.5139 -0.1056  0.0445
35576SOL    HW2 9684   5.814   6.787   0.234  0.7954  0.4946  0.4924
35577SOL     OW 9685   5.442   3.311   7.216 -0.0441 -0.2337  0.1660
35577SOL    HW1 9686   5.537   3.298   7.223  0.3284  1.2727 -1.4281
35577SOL    HW2 9687   5.414   3.334   7.304  1.7185  2.8479  0.0631
35578SOL     OW 9688   9.422   2.590  10.204  0.1279 -1.1347 -0.7202
35578SOL    HW1 9689   9.390   2.518  10.149 -0.6028 -0.9434 -0.5554
35578SOL    HW2 9690   9.347   2.612  10.260  0.9972 -1.6287  0.6791
35579SOL     OW 9691   1.507   1.804   1.621 -0.6077  0.3900 -0.4425
35579SOL    HW1 9692   1.545   1.735   1.567  0.6668  1.4023 -0.9020
35579SOL    HW2 9693   1.458   1.757   1.689 -1.1996 -0.9183 -1.7263
35580SOL     OW 9694   1.991   1.644   7.843  0.2888  0.1983 -0.5363
35580SOL    HW1 9695   2.025   1.591   7.914 -0.2884  0.4232 -0.0848
35580SOL    HW2 9696   1.932   1.585   7.795 -1.1587  0.6977  0.5748
35581SOL     OW 9697   9.954   4.345   1.669  0.6004 -0.2979  0.4211
35581SOL    HW1 9698   9.918   4.276   1.725  2.8704  0.1481  2.5838
35581SOL    HW2 9699  10.006   4.399   1.727 -0.9593  3.2715 -1.2100
35582SOL     OW 9700   5.386   0.334   2.543 -0.2674  0.4250  0.0375
35582SOL    HW1 9701   5.388   0.414   2.596  0.0780  1.3694 -1.3384
35582SOL    HW2 9702   5.448   0.350   2.473  0.2168 -1.3063  0.0342
35583SOL     OW 9703   5.809   4.591   6.972 -0.2562  0.1630  0.3427
35583SOL    HW1 9704   5.789   4.612   6.881  1.3790  0.3324 -0.0013
35583SOL    HW2 9705   5.862   4.664   7.003  1.7009 -1.2534  0.4997
35584SOL     OW 9706   7.498   3.234   3.903  0.3056  0.4659  0.3265
35584SOL    HW1 9707   7.556   3.189   3.841 -2.3899 -2.8215 -0.0999
35584SOL    HW2 9708   7.508   3.185   3.984 -0.8546  0.6959  0.6257
35585SOL     OW 9709   7.223   7.592  10.282 -0.0840 -0.1117  0.1323
35585SOL    HW1 9710   7.158   7.638  10.335 -0.8540 -1.2064  0.1701
35585SOL    HW2 9711   7.220   7.502  10.313  3.4926  0.2678  2.1265
35586SOL     OW 9712   4.560   4.231   8.175 -0.6550  0.4182 -1.2858
35586SOL    HW1 9713   4.585   4.157   8.231 -2.5513  0.2624 -0.5623
35586SOL    HW2 9714   4.629   4.235   8.109  0.5297 -0.7496 -0.1909
35587SOL     OW 9715   0.067   4.079   7.110 -0.0098  0.2199  0.4838
35587SOL    HW1 9716   0.084   4.173   7.116 -0.3643  0.5242 -2.1851
35587SOL    HW2 9717  -0.029   4.071   7.111 -0.0035 -0.0161 -0.0650
35588SOL     OW 9718   7.813   9.860   1.262 -0.5126  0.0301  0.3392
35588SOL    HW1 9719   7.747   9.888   1.199  0.7872  0.4281 -0.8941
35588SOL    HW2 9720   7.802   9.920   1.336 -1.9427 -0.3261  0.4364
35589SOL     OW 9721   1.240   3.712   8.334  0.2773 -0.1968  0.4908
35589SOL    HW1 9722   1.230   3.731   8.427  0.1531 -0.7162  0.5890
35589SOL    HW2 9723   1.155   3.679   8.307  0.1311  0.5281  0.0457
35590SOL     OW 9724  10.202   7.770   4.577  0.2167 -0.7456  0.4316
35590SOL    HW1 9725  10.192   7.770   4.482  0.4400  0.8693  0.3725
35590SOL    HW2 9726  10.271   7.835   4.593 -1.8118  1.2019  1.8503
35591SOL     OW 9727   6.646   5.656   6.733 -0.7509 -0.3684 -0.1195
35591SOL    HW1 9728   6.587   5.610   6.793 -0.6138 -2.0034 -1.1871
35591SOL    HW2 9729   6.601   5.738   6.715 -1.3861 -0.3805  1.2298
35592SOL     OW 9730   9.687   2.399   3.395 -0.0487 -0.1205  0.1059
35592SOL    HW1 9731   9.776   2.367   3.379  0.3758  1.1703 -0.2677
35592SOL    HW2 9732   9.645   2.329   3.446  0.9008 -1.1163 -0.4284
35593SOL     OW 9733   9.279   0.924   0.398  0.6139  0.0330 -0.1053
35593SOL    HW1 9734   9.224   0.904   0.322  1.8446  0.3235 -1.1056
35593SOL    HW2 9735   9.232   0.886   0.473 -0.3869 -0.6772 -1.0695
35594SOL     OW 9736   1.426   3.284  10.327  0.2591  0.0775  0.0708
35594SOL    HW1 9737   1.401   3.226  10.255 -0.5789  0.7882 -0.2250
35594SOL    HW2 9738   1.484   3.348  10.287 -1.5080  1.4668 -0.3691
35595SOL     OW 9739   6.536   5.304   2.672 -0.1496 -0.3531 -0.1069
35595SOL    HW1 9740   6.484   5.224   2.682 -1.5113  0.5332  0.3576
35595SOL    HW2 9741   6.588   5.309   2.752 -0.7808 -0.3005  0.3089
35596SOL     OW 9742   4.549   5.689   3.605  0.2618 -0.8179  0.6009
35596SOL    HW1 9743   4.534   5.619   3.542  3.4143 -0.3945 -0.8032
35596SOL    HW2 9744   4.618   5.655   3.663  0.0102  0.1752  1.5265
35597SOL     OW 9745   8.241   5.273   8.881  0.0737 -0.3355 -0.1213
35597SOL    HW1 9746   8.208   5.187   8.857 -0.4611  0.0216 -0.7018
35597SOL    HW2 9747   8.335   5.260   8.896 -0.2279 -1.2832  1.1301
35598SOL     OW 9748   7.775   0.302   2.615  0.0785  0.1970  0.0428
35598SOL    HW1 9749   7.818   0.335   2.536 -2.6706  0.2171 -1.6001
35598SOL    HW2 9750   7.692   0.350   2.618 -1.0751 -1.7404  1.3989
35599SOL     OW 9751   4.794   8.942   1.777 -0.0657 -0.3924 -0.1019
35599SOL    HW1 9752   4.760   8.892   1.851 -0.6528  0.7388  0.4067
35599SOL    HW2 9753   4.876   8.980   1.809 -0.2052 -0.0860 -0.1089
35600SOL     OW 9754   7.295   7.537   2.101 -0.2639  0.1926  0.1644
35600SOL    HW1 9755   7.259   7.538   2.190 -2.1181  0.4976 -0.5466
35600SOL    HW2 9756   7.363   7.605   2.102 -1.0683  1.0181  1.0398
35601SOL     OW 9757   3.463   5.015   2.539  0.1093 -0.2923  0.2960
35601SOL    HW1 9758   3.553   5.034   2.516  0.2719 -3.2047 -2.0854
35601SOL    HW2 9759   3.418   5.003   2.454 -2.1555 -0.3494  1.4153
35602SOL     OW 9760   2.119   7.754   5.912  0.0970  0.1157  0.1025
35602SOL    HW1 9761   2.061   7.823   5.877  1.9780  0.8265 -1.8688
35602SOL    HW2 9762   2.093   7.745   6.004 -0.7841  2.8749  0.2212
35603SOL     OW 9763   6.919   0.045   1.221 -0.2788  0.3353  0.0547
35603SOL    HW1 9764   6.984   0.099   1.266 -1.0148  0.9311  0.4326
35603SOL    HW2 9765   6.970  -0.022   1.177  0.6895  1.4623 -0.6011
35604SOL     OW 9766   1.485  10.021   2.251  0.4027  0.4729  0.1152
35604SOL    HW1 9767   1.412  10.056   2.303 -0.1643  0.7018 -0.8090
35604SOL    HW2 9768   1.455   9.936   2.221  0.3867  0.6967 -0.5203
35605SOL     OW 9769   2.194   0.950   0.925 -0.4129 -0.3194 -0.0491
35605SOL    HW1 9770   2.099   0.954   0.926 -0.4075 -0.2589  0.2508
35605SOL    HW2 9771   2.222   0.999   1.002 -0.1225  0.0248 -0.3701
35606SOL     OW 9772   5.117   8.554   1.531 -0.2509 -0.4988  0.1432
35606SOL    HW1 9773   5.037   8.596   1.561 -1.2321 -1.3590 -1.1258
35606SOL    HW2 9774   5.098   8.527   1.441  1.5925 -0.4263 -0.3216
35607SOL     OW 9775   8.845   3.277   3.959 -0.3408 -0.4455  0.4570
35607SOL    HW1 9776   8.773   3.243   3.906 -0.2258 -1.9285  1.2025
35607SOL    HW2 9777   8.833   3.372   3.957 -2.2312 -0.6342  0.4217
35608SOL     OW 9778   3.020   1.679   1.090  0.4384 -0.1827  0.2524
35608SOL    HW1 9779   3.077   1.688   1.166  1.0185 -2.7477  0.2236
35608SOL    HW2 9780   2.959   1.609   1.114 -0.7226  0.3864 -0.8854
35609SOL     OW 9781   0.318   9.656   9.355  0.4459  0.0174 -0.0156
35609SOL    HW1 9782   0.245   9.643   9.415  0.0101 -0.3985 -0.6239
35609SOL    HW2 9783   0.289   9.725   9.295  0.7942  0.2860  0.1181
35610SOL     OW 9784   8.554   3.433   8.280 -0.4119 -0.1906  0.2515
35610SOL    HW1 9785   8.524   3.474   8.198  1.3053 -0.5273 -0.5910
35610SOL    HW2 9786   8.478   3.439   8.338 -1.8539 -0.3151 -1.4948
35611SOL     OW 9787   4.669   7.112  10.426 -0.3238 -0.0744 -0.3175
35611SOL    HW1 9788   4.722   7.048  10.473 -0.6219  0.3872  0.6618
35611SOL    HW2 9789   4.613   7.059  10.369  1.0777 -0.5770 -1.2833
35612SOL     OW 9790   2.046   3.091   8.638 -0.0348  0.0404 -0.0454
35612SOL    HW1 9791   2.018   3.001   8.653 -1.7380  0.7734  1.6062
35612SOL    HW2 9792   2.133   3.083   8.599 -1.0346 -2.3144 -2.0352
35613SOL     OW 9793   0.151   3.264   9.471  0.0532 -0.0630  0.3507
35613SOL    HW1 9794   0.246   3.261   9.459  0.0922  1.2385  0.1774
35613SOL    HW2 9795   0.120   3.325   9.404 -0.7201  0.6941  1.3596
35614SOL     OW 9796   1.648   1.763   4.670 -0.2879  0.6806  0.0844
35614SOL    HW1 9797   1.735   1.779   4.706 -0.1641 -0.3719  0.2852
35614SOL    HW2 9798   1.643   1.819   4.592  0.8825  0.1516 -0.3956
35615SOL     OW 9799   2.100   9.379  10.609  0.0751 -0.2198 -0.1751
35615SOL    HW1 9800   2.070   9.464  10.577 -0.6534 -0.3671  0.1017
35615SOL    HW2 9801   2.054   9.315  10.554  1.5856 -0.4438 -1.2478
35616SOL     OW 9802   2.718   3.331   6.931  0.1277 -0.0273 -0.5183
35616SOL    HW1 9803   2.728   3.336   7.026 -0.3819  1.7049 -0.5193
35616SOL    HW2 9804   2.807   3.326   6.897  0.3934  0.9010  0.0059
35617SOL     OW 9805   2.307   1.749   2.128 -0.4224  0.3328  0.0029
35617SOL    HW1 9806   2.339   1.784   2.045 -2.2074  0.5696 -0.6357
35617SOL    HW2 9807   2.220   1.715   2.108 -0.2902 -1.0026  1.4637
35618SOL     OW 9808   9.051   6.747   1.750 -0.3998 -0.0073 -0.4195
35618SOL    HW1 9809   9.027   6.670   1.803 -1.0793  1.6965  1.9132
35618SOL    HW2 9810   8.979   6.809   1.764  0.6171  1.4449 -1.3876
35619SOL     OW 9811   0.809   8.353   8.073 -0.0783  0.4612  0.2843
35619SOL    HW1 9812   0.796   8.418   8.142 -0.1826 -0.2458  0.9411
35619SOL    HW2 9813   0.903   8.351   8.058 -0.2519  2.5685 -1.5271
35620SOL     OW 9814   9.390   0.154   0.323  0.3666 -0.3460  0.1632
35620SOL    HW1 9815   9.371   0.238   0.365  1.9611 -1.4860  3.4785
35620SOL    HW2 9816   9.450   0.177   0.251 -2.4896  1.6860 -1.7722
35621SOL     OW 9817   7.204   2.343   9.092  0.4417  0.4456  0.2432
35621SOL    HW1 9818   7.135   2.394   9.049  0.4547 -0.9008 -1.4492
35621SOL    HW2 9819   7.270   2.409   9.117 -0.1511  1.4083 -0.6664
35622SOL     OW 9820   2.647   6.372   2.230  0.4798  0.3839 -0.1026
35622SOL    HW1 9821   2.561   6.392   2.266  0.9885  0.5491  1.0808
35622SOL    HW2 9822   2.703   6.445   2.258  1.2810 -0.3329  0.2404
35623SOL     OW 9823   0.271   7.879   5.743 -0.2125  0.4010  0.1507
35623SOL    HW1 9824   0.336   7.870   5.812  0.2286 -1.8785 -0.4884
35623SOL    HW2 9825   0.282   7.969   5.711  3.5132 -0.2097 -0.7626
35624SOL     OW 9826   7.296   6.903   7.238  0.9358 -0.2240  0.4911
35624SOL    HW1 9827   7.302   6.967   7.167  3.3489 -1.4433 -0.5516
35624SOL    HW2 9828   7.383   6.905   7.278  0.5557 -1.7185  1.4484
35625SOL     OW 9829   5.745   7.094  10.470 -0.8745 -0.3449 -0.0366
35625SOL    HW1 9830   5.742   7.000  10.449 -3.1682 -0.1810 -0.6670
35625SOL    HW2 9831   5.654   7.119  10.481 -0.4180  2.1601 -1.3326
35626SOL     OW 9832   3.901   5.581   8.137 -0.4043 -0.2480 -0.1984
35626SOL    HW1 9833   3.880   5.518   8.206 -1.2175  0.0778 -0.1387
35626SOL    HW2 9834   3.851   5.552   8.061  1.6894 -1.5229 -1.1849
35627SOL     OW 9835   1.553   7.387   8.322  0.0439 -0.2934  0.6154
35627SOL    HW1 9836   1.582   7.363   8.234  2.1011 -0.9680  1.4157
35627SOL    HW2 9837   1.458   7.397   8.314  0.2630  0.4051 -1.8211
35628SOL     OW 9838   2.692   3.686   7.180 -0.3273 -0.2396  0.1529
35628SOL    HW1 9839   2.615   3.630   7.189 -0.7961  0.4341  0.3628
35628SOL    HW2 9840   2.662   3.773   7.206 -0.3755  0.7453 -2.8029
35629SOL     OW 9841   9.046   5.888   4.703  0.8501 -0.1253  0.1753
35629SOL    HW1 9842   8.953   5.903   4.721  1.2983  3.6711  0.2214
35629SOL    HW2 9843   9.056   5.793   4.706 -3.4423 -0.9102 -1.9931
35630SOL     OW 9844   9.325   9.672   4.861  0.0724  0.5659  0.7021
35630SOL    HW1 9845   9.419   9.690   4.859  0.1288  0.1826 -0.4620
35630SOL    HW2 9846   9.301   9.654   4.770 -0.9989 -0.0358  1.0812
35631SOL     OW 9847   9.897   3.499   8.151  0.1513 -0.8648 -0.5643
35631SOL    HW1 9848   9.925   3.467   8.237  0.7247 -1.8612 -1.1014
35631SOL    HW2 9849   9.915   3.593   8.154 -0.1224 -0.8358  0.5076
35632SOL     OW 9850   0.948   0.189   1.955 -0.2375 -0.2487  0.1033
35632SOL    HW1 9851   0.902   0.273   1.960 -1.9965 -0.9891 -2.0046
35632SOL    HW2 9852   0.969   0.168   2.046 -0.3059  2.1550  0.7338
35633SOL     OW 9853   3.700   3.363   3.164 -0.0420 -0.2731  0.4324
35633SOL    HW1 9854   3.772   3.382   3.103  0.3999 -1.0391  0.6951
35633SOL    HW2 9855   3.717   3.420   3.239 -0.8588  1.0318 -0.3293
35634SOL     OW 9856   4.818   2.740   9.307 -0.2141  0.9843  0.1130
35634SOL    HW1 9857   4.838   2.651   9.336 -0.5297  1.2298  1.1157
35634SOL    HW2 9858   4.844   2.741   9.215 -1.6012 -0.5790 -0.3509
35635SOL     OW 9859   7.247   0.626   0.095  0.2686 -0.1337 -0.2122
35635SOL    HW1 9860   7.190   0.640   0.020 -1.5933 -0.1820  1.1168
35635SOL    HW2 9861   7.216   0.689   0.161  1.5469 -0.3908  0.6763
35636SOL     OW 9862   5.817   6.464   3.711  0.1226  0.1027 -0.2624
35636SOL    HW1 9863   5.879   6.392   3.723  0.2195  0.0833 -0.8449
35636SOL    HW2 9864   5.759   6.459   3.787  0.4400 -0.2760 -0.0411
35637SOL     OW 9865   4.322   1.418   7.621  0.3809 -0.7173 -0.2623
35637SOL    HW1 9866   4.413   1.407   7.647 -0.0364 -0.7629  1.3467
35637SOL    HW2 9867   4.306   1.512   7.629  0.1328 -0.7849  0.0697
35638SOL     OW 9868   3.239   0.912   3.497 -1.1172  0.1939 -0.1861
35638SOL    HW1 9869   3.330   0.929   3.519 -0.6068 -0.7148 -1.4474
35638SOL    HW2 9870   3.204   0.998   3.472 -0.2891  0.3755 -0.7635
35639SOL     OW 9871  10.691   2.855   8.869 -0.2953 -0.2013 -0.7699
35639SOL    HW1 9872  10.650   2.931   8.911 -0.3987 -1.4408  1.5371
35639SOL    HW2 9873  10.624   2.822   8.810 -1.7482 -0.6731  1.0347
35640SOL     OW 9874   6.756   9.971   4.472 -0.3636 -0.2425  0.0023
35640SOL    HW1 9875   6.701  10.048   4.487 -0.6572 -0.4305 -0.0831
35640SOL    HW2 9876   6.782   9.977   4.381 -0.2299 -0.1432  0.0482
35641SOL     OW 9877   8.484   4.394   2.791  0.3090  0.6770  0.3592
35641SOL    HW1 9878   8.409   4.377   2.733  0.3834 -0.7048  0.6448
35641SOL    HW2 9879   8.543   4.320   2.777  0.5701  0.5842  1.8038
35642SOL     OW 9880   1.918   5.307   1.757  0.5823  0.2582 -0.4928
35642SOL    HW1 9881   1.926   5.224   1.806 -1.7077 -0.3191 -0.9522
35642SOL    HW2 9882   2.000   5.353   1.774  1.6819 -1.8438  0.2750
35643SOL     OW 9883  10.312   5.352   7.996  0.0939  0.4768 -0.4338
35643SOL    HW1 9884  10.319   5.441   8.029 -1.4717 -0.0526  1.5566
35643SOL    HW2 9885  10.341   5.296   8.068 -0.7646 -0.6662 -0.9254
35644SOL     OW 9886   3.095   8.909   1.645 -0.2507 -0.5236  0.1320
35644SOL    HW1 9887   3.171   8.954   1.610 -0.6822 -0.1685 -0.3514
35644SOL    HW2 9888   3.073   8.956   1.726  0.5128 -1.1128  0.7019
35645SOL     OW 9889   0.529   1.356   6.836  0.5826 -0.3333  0.3414
35645SOL    HW1 9890   0.562   1.388   6.752 -0.6528 -1.3793 -0.5910
35645SOL    HW2 9891   0.600   1.300   6.870  0.9539 -0.1787 -0.1708
35646SOL     OW 9892   9.402   0.168   6.050 -0.0405 -0.1132 -0.3480
35646SOL    HW1 9893   9.435   0.113   5.979  3.1992 -0.6553  1.3695
35646SOL    HW2 9894   9.348   0.109   6.103 -3.7623  0.6449 -2.9007
35647SOL     OW 9895   6.312   4.327   2.982  0.2976  0.0298  0.2310
35647SOL    HW1 9896   6.271   4.241   2.984  0.1207  0.0841 -0.5599
35647SOL    HW2 9897   6.395   4.313   2.936  0.0993  0.3415 -0.2309
35648SOL     OW 9898   1.951   8.276   2.212 -0.4364  0.4331  0.4042
35648SOL    HW1 9899   1.970   8.367   2.190  2.0141  0.5027  2.4485
35648SOL    HW2 9900   1.887   8.249   2.146  0.5664  2.8814 -1.7529
35649SOL     OW 9901   7.324   7.369   2.764  0.0149 -0.2005 -0.0788
35649SOL    HW1 9902   7.360   7.298   2.817  0.4693  0.3404  0.3462
35649SOL    HW2 9903   7.311   7.330   2.677  3.0723 -0.0595 -0.7216
35650SOL     OW 9904   7.489   3.283   9.162 -0.1479  0.4352 -0.1288
35650SOL    HW1 9905   7.585   3.279   9.157 -0.0608  1.3876  0.5016
35650SOL    HW2 9906   7.459   3.230   9.089  0.8717  0.5740 -0.6651
35651SOL     OW 9907   7.234   6.533   3.398  0.2936  0.3757 -0.1577
35651SOL    HW1 9908   7.243   6.438   3.388 -0.0819  0.4429 -1.2514
35651SOL    HW2 9909   7.322   6.568   3.386 -0.0296  0.4075 -3.0410
35652SOL     OW 9910   0.321  10.320   9.992 -0.3720  0.7559 -0.4756
35652SOL    HW1 9911   0.336  10.272   9.911 -1.2168 -0.2431 -0.0644
35652SOL    HW2 9912   0.227  10.338   9.993 -0.6091 -0.3572  0.8484
35653SOL     OW 9913   2.854  10.338   7.579  0.0084 -0.4396  0.6136
35653SOL    HW1 9914   2.857  10.250   7.542 -0.4592  0.0000 -0.5125
35653SOL    HW2 9915   2.799  10.388   7.518  0.6107  0.7361  1.0083
35654SOL     OW 9916   3.058   0.784   3.337  0.1976  0.4645 -0.2310
35654SOL    HW1 9917   3.126   0.851   3.343 -0.0571  0.8095 -1.1338
35654SOL    HW2 9918   3.019   0.796   3.251  1.2770 -1.9425 -1.1516
35655SOL     OW 9919   0.622   2.278   6.137 -0.6075  0.2083  0.0588
35655SOL    HW1 9920   0.618   2.360   6.087  1.4881  0.0619 -0.4290
35655SOL    HW2 9921   0.607   2.209   6.072 -0.6261  0.1418  0.1342
35656SOL     OW 9922   4.542   0.070   3.021  0.6111 -0.4253  0.3839
35656SOL    HW1 9923   4.488   0.109   2.952  1.9910 -1.4989 -1.4063
35656SOL    HW2 9924   4.479   0.032   3.082 -0.6765  1.6593  0.4308
35657SOL     OW 9925  10.167   6.412   9.919  0.5701 -0.2306 -0.3725
35657SOL    HW1 9926  10.223   6.482   9.953 -0.7840  1.2074 -0.9652
35657SOL    HW2 9927  10.165   6.426   9.825 -0.0438 -0.8235 -0.4582
35658SOL     OW 9928   9.707   3.084   0.986 -0.1245 -0.0937  0.3751
35658SOL    HW1 9929   9.756   3.089   0.904  0.8277  0.7216  0.9696
35658SOL    HW2 9930   9.686   3.175   1.007  0.5432 -0.1879  1.5469
35659SOL     OW 9931   1.301   6.641   2.812  0.2178  0.0328 -0.3378
35659SOL    HW1 9932   1.258   6.565   2.774 -1.7383  0.4003  0.9875
35659SOL    HW2 9933   1.343   6.608   2.891 -1.2065  0.4021  0.6054
35660SOL     OW 9934   5.082  10.241   6.736  0.4675 -0.7405 -0.3578
35660SOL    HW1 9935   5.141  10.228   6.810 -0.9641 -1.7143  0.6718
35660SOL    HW2 9936   5.050  10.331   6.747  0.7319 -0.6742 -0.1280
35661SOL     OW 9937   7.497   9.864   2.319 -0.2459 -0.1666 -0.4334
35661SOL    HW1 9938   7.512   9.806   2.245  1.3186 -1.0329  0.5034
35661SOL    HW2 9939   7.585   9.880   2.355 -0.7899  1.6105  0.2091
35662SOL     OW 9940   8.703   4.098   5.746  0.2754 -0.3018  0.1390
35662SOL    HW1 9941   8.679   4.153   5.821  0.4325  1.8335 -1.3000
35662SOL    HW2 9942   8.625   4.098   5.691 -0.7055 -3.8202  1.2894
35663SOL     OW 9943  10.365   5.426   1.840  0.0842  0.6615 -0.0514
35663SOL    HW1 9944  10.291   5.438   1.899 -2.0041  0.6742 -2.5180
35663SOL    HW2 9945  10.351   5.340   1.801  0.5354  1.2933 -1.6640
35664SOL     OW 9946   2.242   0.736   0.610  0.0037 -0.1295 -0.1414
35664SOL    HW1 9947   2.242   0.680   0.688  2.0962  1.3290  0.9693
35664SOL    HW2 9948   2.259   0.824   0.643  2.1756  0.3660 -2.3262
35665SOL     OW 9949   5.793   9.824   0.437 -0.8859 -0.3433 -0.3440
35665SOL    HW1 9950   5.702   9.823   0.407 -0.3195 -2.6187 -2.2406
35665SOL    HW2 9951   5.843   9.788   0.364  1.6455  1.2701  0.4733
35666SOL     OW 9952   2.637   3.075   0.742  0.4565  0.1157  0.2746
35666SOL    HW1 9953   2.723   3.062   0.702 -0.2183  0.4621 -1.3285
35666SOL    HW2 9954   2.604   3.156   0.705 -0.3282  0.3100  1.3321
35667SOL     OW 9955   4.459   3.468   0.846  0.3484 -0.0187 -0.1762
35667SOL    HW1 9956   4.384   3.420   0.811  0.7974  0.1500 -1.4171
35667SOL    HW2 9957   4.431   3.495   0.934 -0.5890 -0.9697 -0.1580
35668SOL     OW 9958   6.942   0.888   0.409 -0.6401  0.6236  0.1189
35668SOL    HW1 9959   6.950   0.936   0.492 -0.6438 -0.9286  1.0511
35668SOL    HW2 9960   6.936   0.957   0.342  0.4241  1.9170  1.2911
35669SOL     OW 9961   3.583   5.071   8.716  0.0519 -0.2980  0.1221
35669SOL    HW1 9962   3.515   5.111   8.663 -0.5374 -0.9657  0.3670
35669SOL    HW2 9963   3.549   4.985   8.739  0.7540 -0.4398  0.6832
35670SOL     OW 9964   7.955   4.414  10.239  0.0539  0.1007 -0.1275
35670SOL    HW1 9965   7.940   4.429  10.333 -0.7298 -0.2921 -0.1836
35670SOL    HW2 9966   8.050   4.414  10.230  0.1532 -0.5926  0.7923
35671SOL     OW 9967   9.108   8.298   4.688 -0.6357 -0.3311  0.5723
35671SOL    HW1 9968   9.115   8.220   4.633  0.1600  0.3929 -0.3853
35671SOL    HW2 9969   9.198   8.317   4.713 -0.8786  0.0056  1.1975
35672SOL     OW 9970   9.505   8.511   0.940  0.0809 -0.2348 -0.3187
35672SOL    HW1 9971   9.560   8.589   0.946  0.7198 -0.7406  0.5420
35672SOL    HW2 9972   9.459   8.508   1.024 -0.9639 -0.0489 -0.8668
35673SOL     OW 9973  10.529   6.231   3.334  0.2941  0.7406  0.0276
35673SOL    HW1 9974  10.562   6.321   3.328 -1.6897  1.5520  0.3496
35673SOL    HW2 9975  10.473   6.221   3.257 -0.1104  0.0673  0.4001
35674SOL     OW 9976   3.077   9.653   3.214  0.6665 -0.0153  0.0081
35674SOL    HW1 9977   2.986   9.625   3.230 -0.2262  2.3134 -0.6443
35674SOL    HW2 9978   3.099   9.612   3.130  0.0755 -0.2647 -0.0364
35675SOL     OW 9979   6.453   4.928   6.773 -0.2312 -0.2468  0.1511
35675SOL    HW1 9980   6.533   4.919   6.721  0.5282  1.3420  0.9916
35675SOL    HW2 9981   6.392   4.865   6.734  0.7320 -0.0212 -1.8325
35676SOL     OW 9982   1.851   4.399   9.006 -0.2387  0.3957 -0.0978
35676SOL    HW1 9983   1.851   4.405   8.911 -0.4475  1.3767 -0.0501
35676SOL    HW2 9984   1.760   4.384   9.030  0.0721 -1.7356 -0.1300
35677SOL     OW 9985   4.032   8.515   5.088  0.3151 -0.0092  0.5065
35677SOL    HW1 9986   4.081   8.435   5.107  0.7970  0.0390 -0.4742
35677SOL    HW2 9987   4.093   8.569   5.038 -0.2118  0.7208  0.6385
35678SOL     OW 9988   6.015   4.854   7.695  1.1798 -0.1927 -0.1679
35678SOL    HW1 9989   5.926   4.882   7.717  0.9623 -1.2890  0.4612
35678SOL    HW2 9990   6.037   4.791   7.763  1.5155 -1.7320 -1.6265
35679SOL     OW 9991   1.418   7.115  10.618 -0.4319 -0.2743 -0.3970
35679SOL    HW1 9992   1.356   7.136  10.688  2.2446 -2.0006  2.7787
35679SOL    HW2 9993   1.395   7.026  10.590 -0.3705 -0.2996 -0.3680
35680SOL     OW 9994   0.070   5.318   3.561 -0.1064  0.3896 -0.8746
35680SOL    HW1 9995  -0.019   5.351   3.573 -0.2418 -0.6271  1.3226
35680SOL    HW2 9996   0.060   5.223   3.558  0.8110  0.2993 -1.9802
35681SOL     OW 9997   5.273   9.017   6.234 -0.0190  0.1148 -0.0560
35681SOL    HW1 9998   5.260   8.960   6.309 -1.5277  1.2250  0.5816
35681SOL    HW2 9999   5.316   9.095   6.270 -2.1003  1.2984  0.0109
35682SOL     OW10000   7.062   2.318   8.699 -0.1147 -0.1437 -0.3220
35682SOL    HW110001   7.136   2.354   8.748 -0.5977  0.9569 -0.3717
35682SOL    HW210002   7.024   2.253   8.758  0.5713 -0.3458 -0.0904
35683SOL     OW10003  10.203  10.164   7.730  1.1804  0.1181 -0.0398
35683SOL    HW110004  10.144  10.162   7.806  1.8909  1.3504  0.5677
35683SOL    HW210005  10.285  10.128   7.763  1.9263  1.9315  0.2075
35684SOL     OW10006   1.815   6.922   9.648 -0.3427 -0.0104  0.1222
35684SOL    HW110007   1.868   6.993   9.684  0.3778 -0.9043  0.8802
35684SOL    HW210008   1.728   6.960   9.636  0.6531  1.8347 -2.2060
35685SOL     OW10009   8.788   4.092   1.307  0.5431 -0.1046  0.0654
35685SOL    HW110010   8.874   4.121   1.338  0.1840  2.3528 -1.0121
35685SOL    HW210011   8.759   4.161   1.248 -2.5025 -0.4823  0.9413
35686SOL     OW10012   4.422   3.179   0.722 -0.2260  0.0514  0.0146
35686SOL    HW110013   4.381   3.135   0.797 -0.2961  2.2271  1.3330
35686SOL    HW210014   4.349   3.201   0.664 -0.2564 -0.9699 -0.3502
35687SOL     OW10015   4.083   8.674   5.503 -0.7247  0.2355  0.1495
35687SOL    HW110016   4.025   8.632   5.440 -1.1408 -0.8686  1.2398
35687SOL    HW210017   4.039   8.664   5.587 -0.0588  1.4584  0.6765
35688SOL     OW10018   7.834   1.723   4.529  0.3749 -0.0467 -0.6801
35688SOL    HW110019   7.745   1.694   4.510  0.5050  0.3634 -1.9847
35688SOL    HW210020   7.823   1.799   4.586 -0.1415  0.2922 -1.2167
35689SOL     OW10021   9.026   9.228   0.421 -0.0953 -0.1726 -0.6107
35689SOL    HW110022   8.984   9.255   0.339  0.6299 -0.7712 -1.1908
35689SOL    HW210023   8.955   9.194   0.475 -0.6727  0.7795 -0.7470
35690SOL     OW10024   9.771   0.383   9.512  0.2964  0.3299  0.1268
35690SOL    HW110025   9.777   0.478   9.522 -1.4306  0.5638 -0.7755
35690SOL    HW210026   9.740   0.352   9.598  1.8955  0.4207  0.7764
35691SOL     OW10027   0.564   3.839   6.747  0.0364  0.2866 -0.0408
35691SOL    HW110028   0.511   3.805   6.675  0.5513 -1.5183  0.3835
35691SOL    HW210029   0.534   3.930   6.759  0.3878  0.8585 -2.9214
35692SOL     OW10030   3.265   0.303   6.411  0.5226 -0.4297 -0.1041
35692SOL    HW110031   3.334   0.275   6.352  0.2347  0.7154 -1.0186
35692SOL    HW210032   3.311   0.354   6.479  0.8972 -2.0449  0.9150
35693SOL     OW10033   9.600   4.973   4.519  0.1435 -0.4378  0.2763
35693SOL    HW110034   9.657   4.933   4.453 -1.5994 -1.2135 -0.8379
35693SOL    HW210035   9.528   5.011   4.469 -0.9031 -0.4599  1.6973
35694SOL     OW10036   2.871   7.757   3.943 -0.9023  1.0614  0.8906
35694SOL    HW110037   2.878   7.665   3.920 -1.0002  1.2485  0.0620
35694SOL    HW210038   2.829   7.797   3.867  1.8603  2.3046 -0.1035
35695SOL     OW10039   2.595   3.558  10.424  0.1134 -0.2670  0.4390
35695SOL    HW110040   2.543   3.636  10.401  1.1208  0.2943  0.0029
35695SOL    HW210041   2.594   3.556  10.520  2.3772  1.9455  0.6107
35696SOL     OW10042   1.865   7.652   0.149 -0.3998  0.0933 -0.3678
35696SOL    HW110043   1.928   7.582   0.165 -1.7746 -0.9424  0.7725
35696SOL    HW210044   1.876   7.674   0.056  0.4569 -1.2268 -0.5983
35697SOL     OW10045   2.962   4.512   2.281  0.2574 -0.6989  0.4944
35697SOL    HW110046   2.965   4.463   2.199 -1.8615 -0.7961  0.4024
35697SOL    HW210047   2.902   4.585   2.263 -0.9348 -1.2005  2.1579
35698SOL     OW10048   7.088   2.079   9.008  0.3933  0.1029  0.4934
35698SOL    HW110049   7.113   2.167   9.037 -2.3100  0.4071  2.1992
35698SOL    HW210050   7.172   2.033   8.997  1.8352  2.5382  0.6002
35699SOL     OW10051   6.753   4.696   4.763 -0.0126  0.7963 -0.7800
35699SOL    HW110052   6.740   4.629   4.831  0.4644  0.3485 -1.1262
35699SOL    HW210053   6.711   4.775   4.799  1.0498  0.8381  0.4690
35700SOL     OW10054   2.262   1.237   0.591  0.3100  0.6028  0.0684
35700SOL    HW110055   2.271   1.276   0.678 -3.1079  2.8588 -0.3700
35700SOL    HW210056   2.251   1.312   0.532  1.5133 -0.8846 -2.2125
35701SOL     OW10057   2.301   8.740   5.105  0.0884  0.4485 -0.0989
35701SOL    HW110058   2.336   8.683   5.173  1.4868  1.6749  0.2487
35701SOL    HW210059   2.210   8.710   5.094  0.4738 -1.1597  0.7664
35702SOL     OW10060   4.088   4.064   6.428 -0.0800  0.1720  0.3188
35702SOL    HW110061   4.029   4.129   6.390  1.0926  1.3391  0.3976
35702SOL    HW210062   4.166   4.115   6.452  1.7915 -1.5927 -1.6145
35703SOL     OW10063   8.693   6.875   9.460  0.4857  0.1727  0.3696
35703SOL    HW110064   8.643   6.951   9.429 -1.8855 -1.0653  0.9352
35703SOL    HW210065   8.726   6.901   9.546  0.8296  0.9933  0.0065
35704SOL     OW10066   2.261   0.857   8.230 -0.4901  0.1215  0.2973
35704SOL    HW110067   2.354   0.861   8.210 -0.6712 -1.0783 -0.9290
35704SOL    HW210068   2.252   0.904   8.313  1.3626 -0.6626  0.9850
35705SOL     OW10069   8.521   1.220   1.516  0.3179 -0.3539 -0.0882
35705SOL    HW110070   8.534   1.220   1.611  2.1151 -0.2879 -0.2954
35705SOL    HW210071   8.548   1.132   1.489  1.3445  0.1256 -0.6886
35706SOL     OW10072   1.789   5.669   8.459  0.0543 -0.5756 -0.5304
35706SOL    HW110073   1.811   5.667   8.552 -1.0165  0.9560 -0.2044
35706SOL    HW210074   1.698   5.699   8.457 -0.1298 -1.1490 -2.0590
35707SOL     OW10075   5.033   1.432   7.953 -0.3080  0.1166 -0.0742
35707SOL    HW110076   5.001   1.519   7.926  2.0230  0.9426 -0.4311
35707SOL    HW210077   5.074   1.397   7.874  0.8473 -0.2645  0.6784
35708SOL     OW10078   8.660   9.441   4.929  0.1462 -0.4059 -0.4240
35708SOL    HW110079   8.687   9.350   4.920 -0.4704 -0.6271 -0.1149
35708SOL    HW210080   8.567   9.437   4.950  0.1871  0.2818 -0.0498
35709SOL     OW10081   7.317   4.338   4.167 -0.3522 -0.5051 -0.0636
35709SOL    HW110082   7.277   4.406   4.113 -0.8026  0.2633  1.2061
35709SOL    HW210083   7.271   4.257   4.142 -0.6747 -0.1373 -0.6784
35710SOL     OW10084   3.892  10.345   0.749  0.3608 -0.1413 -0.3139
35710SOL    HW110085   3.919  10.320   0.661  2.0098 -0.1607  0.1699
35710SOL    HW210086   3.884  10.263   0.797  0.3631 -0.0719 -0.1942
35711SOL     OW10087   3.409   1.934   2.382  0.3078  0.0666 -0.3842
35711SOL    HW110088   3.333   1.908   2.434  0.4926 -0.8335 -0.5493
35711SOL    HW210089   3.379   1.929   2.291  0.2802  0.6582 -0.4103
35712SOL     OW10090   9.925   2.589   2.531 -0.3048  1.0324 -0.1461
35712SOL    HW110091   9.993   2.529   2.562 -0.1668  0.8786 -0.7212
35712SOL    HW210092   9.867   2.534   2.477  0.6492  1.6616 -1.9090
35713SOL     OW10093   0.554   1.839   9.864  0.3442  0.2420  0.7182
35713SOL    HW110094   0.478   1.895   9.884 -0.6374 -0.3099 -1.2171
35713SOL    HW210095   0.554   1.773   9.933 -1.6292 -0.3820  0.1976
35714SOL     OW10096   0.382   4.274  10.142  0.2067 -0.0558  0.1401
35714SOL    HW110097   0.363   4.217  10.067  0.0683 -0.2776  0.3425
35714SOL    HW210098   0.448   4.335  10.110 -2.3318  2.1757 -1.2997
35715SOL     OW10099   6.017   2.380   7.323  0.2615  0.0040  0.0511
35715SOL    HW110100   5.993   2.312   7.259  0.5028  0.5059 -0.5820
35715SOL    HW210101   5.933   2.420   7.347  0.0893 -0.6675  0.6135
35716SOL     OW10102   9.451   3.886   2.441  0.4678  0.4875 -0.5728
35716SOL    HW110103   9.458   3.904   2.347  1.7520 -1.0470 -0.8294
35716SOL    HW210104   9.521   3.937   2.480  1.3433 -0.5237 -0.7611
35717SOL     OW10105   3.201   2.827   6.345  0.2936  0.0477 -0.3263
35717SOL    HW110106   3.183   2.843   6.252 -1.6543  0.1161  0.0253
35717SOL    HW210107   3.139   2.757   6.369 -0.5040  1.2728  1.3338
35718SOL     OW10108   8.864   0.534   3.844  0.6918 -0.5150  0.5603
35718SOL    HW110109   8.949   0.566   3.874  0.6101 -0.2825  0.5403
35718SOL    HW210110   8.816   0.515   3.925  0.6932 -0.4672  0.5722
35719SOL     OW10111   1.544   3.968   4.782 -0.3047 -0.6090 -0.0897
35719SOL    HW110112   1.458   3.937   4.754 -0.5450 -0.8690  0.8941
35719SOL    HW210113   1.598   3.889   4.787  0.0147 -0.4378 -0.7722
35720SOL     OW10114   1.949   7.842   6.140  0.8990 -0.4520  0.1382
35720SOL    HW110115   2.015   7.898   6.098  1.1095  1.0900  2.3557
35720SOL    HW210116   1.866   7.873   6.104  1.0926  0.6141  0.5730
35721SOL     OW10117   2.362   7.660   8.443  0.2611  0.0395 -0.1640
35721SOL    HW110118   2.299   7.686   8.376 -0.8767  0.9999  1.1964
35721SOL    HW210119   2.318   7.588   8.490  1.2072 -0.8890 -0.6682
35722SOL     OW10120   5.863   7.602   9.437 -0.3200 -0.1124 -0.4886
35722SOL    HW110121   5.897   7.654   9.511 -0.7266 -1.7005  0.8701
35722SOL    HW210122   5.789   7.653   9.404 -1.3887 -0.2707  1.5017
35723SOL     OW10123   2.641   3.423   7.495 -0.2885 -0.0442 -0.0815
35723SOL    HW110124   2.550   3.411   7.521 -0.1510 -0.3758  0.2579
35723SOL    HW210125   2.688   3.439   7.577  0.1259 -0.9566 -0.1278
35724SOL     OW10126   9.758   9.516   1.187  0.3083 -0.6739 -0.0569
35724SOL    HW110127   9.770   9.567   1.267  0.4080 -0.3614 -0.2688
35724SOL    HW210128   9.847   9.505   1.152  0.0723  1.2001 -1.3603
35725SOL     OW10129   1.535   6.702   9.540 -0.1264 -0.7655  0.1741
35725SOL    HW110130   1.539   6.607   9.529  1.3510 -1.1558  3.1555
35725SOL    HW210131   1.530   6.715   9.634 -0.3351  2.1694 -0.1494
35726SOL     OW10132   8.587   5.046  10.375 -0.5103  0.1912 -0.0262
35726SOL    HW110133   8.570   4.980  10.443  1.4582 -1.9303 -1.4670
35726SOL    HW210134   8.681   5.062  10.380 -0.5965  1.2017 -1.2321
35727SOL     OW10135   2.210   5.450   5.869 -0.0063 -0.7984 -0.1731
35727SOL    HW110136   2.250   5.371   5.906  0.0674 -0.7735 -0.2012
35727SOL    HW210137   2.224   5.443   5.775  1.1758 -0.0953 -0.0656
35728SOL     OW10138   4.372   3.956   5.299 -0.3108 -0.0257 -0.7686
35728SOL    HW110139   4.423   4.012   5.358 -2.0681 -0.4010  1.2327
35728SOL    HW210140   4.389   3.867   5.331 -2.9208 -0.0974  0.6691
35729SOL     OW10141   9.183  10.501   4.309 -0.1637 -0.3982 -0.4209
35729SOL    HW110142   9.205  10.412   4.334  0.6068 -0.1758 -0.2704
35729SOL    HW210143   9.120  10.492   4.238 -2.0232 -1.0507  1.2226
35730SOL     OW10144   1.286   3.300   6.360 -0.1012 -0.5016  0.5219
35730SOL    HW110145   1.326   3.219   6.326  2.6431 -0.7567  3.8384
35730SOL    HW210146   1.312   3.367   6.297  0.4922 -1.6722 -0.5292
35731SOL     OW10147   5.758   6.539   0.842 -0.7068  0.8030  0.4524
35731SOL    HW110148   5.692   6.510   0.779  1.4062  1.8323 -2.4901
35731SOL    HW210149   5.821   6.467   0.847  0.1760  1.4892 -0.2690
35732SOL     OW10150   6.603   3.545   6.328 -0.6730 -0.2607 -0.0381
35732SOL    HW110151   6.685   3.594   6.336 -0.0364 -1.3632  0.4708
35732SOL    HW210152   6.568   3.542   6.417 -2.3375  1.9319 -0.5615
35733SOL     OW10153   2.534   3.426   3.135  0.5355  0.2308 -0.0511
35733SOL    HW110154   2.570   3.341   3.160 -0.2609 -0.4411 -1.1074
35733SOL    HW210155   2.527   3.422   3.040 -1.4689  0.6626  0.0278
35734SOL     OW10156   8.453   4.866   1.458 -0.0624 -0.1628 -0.2122
35734SOL    HW110157   8.499   4.888   1.540  0.3880 -3.0339  0.4082
35734SOL    HW210158   8.364   4.846   1.485  0.2641 -1.8230 -0.2528
35735SOL     OW10159   9.250   3.843   6.099  0.5050 -0.2715  0.2760
35735SOL    HW110160   9.277   3.908   6.035 -0.1630 -0.6581 -0.4208
35735SOL    HW210161   9.246   3.891   6.182 -0.3055  0.6737 -0.2817
35736SOL     OW10162   1.666  10.366   3.480 -0.1136  0.2642 -0.4704
35736SOL    HW110163   1.695  10.452   3.449 -0.2231  0.1244 -0.9636
35736SOL    HW210164   1.574  10.378   3.503 -0.2339  0.1824 -0.9085
35737SOL     OW10165   5.247   3.279   8.299  0.0631 -0.0900  0.6819
35737SOL    HW110166   5.183   3.228   8.251  1.6120 -1.5444  0.0806
35737SOL    HW210167   5.199   3.358   8.326 -1.9937 -1.1874  0.4251
35738SOL     OW10168   2.613   9.694   2.644 -0.0445 -0.3410 -0.2820
35738SOL    HW110169   2.650   9.780   2.664 -1.3160 -0.1491  1.4386
35738SOL    HW210170   2.606   9.650   2.728 -2.5867 -0.7939 -0.6587
35739SOL     OW10171   7.224   9.224  10.504 -0.4999  0.1908 -0.2653
35739SOL    HW110172   7.223   9.147  10.561 -0.8587 -1.3802 -2.2668
35739SOL    HW210173   7.156   9.281  10.540 -0.3742 -0.5107  1.1396
35740SOL     OW10174   4.413   2.615   3.987  0.0211 -0.1133  0.3032
35740SOL    HW110175   4.439   2.586   3.900 -1.4819 -0.8201  0.0620
35740SOL    HW210176   4.421   2.537   4.042 -0.9785 -0.1889  0.3506
35741SOL     OW10177   7.861   0.451   1.699 -0.7156  0.4650  0.0479
35741SOL    HW110178   7.783   0.398   1.715 -0.7392  0.1085 -1.1634
35741SOL    HW210179   7.911   0.444   1.781 -0.6502 -1.5512 -0.0953
35742SOL     OW10180   9.563   4.212   5.699 -0.3024  0.2168 -0.2374
35742SOL    HW110181   9.532   4.202   5.789  1.4477 -1.6724  0.2345
35742SOL    HW210182   9.484   4.234   5.649 -1.5460  0.0683  1.5459
35743SOL     OW10183   9.168   2.570   7.740 -0.4061  0.0173  0.2124
35743SOL    HW110184   9.088   2.564   7.794  0.0219 -2.0032  0.7244
35743SOL    HW210185   9.220   2.495   7.768  1.4239  0.9620 -0.5534
35744SOL     OW10186   4.299   9.972   3.255 -0.3671  0.3704 -0.1638
35744SOL    HW110187   4.371  10.026   3.223  1.3158 -0.5263  1.8980
35744SOL    HW210188   4.227   9.991   3.195  1.5880  1.2071 -2.4115
35745SOL     OW10189   3.600   3.754   9.640  0.4779  0.7692  0.1310
35745SOL    HW110190   3.605   3.793   9.727  1.2772  0.0699  0.4152
35745SOL    HW210191   3.570   3.826   9.583 -0.2314  1.1808  1.0001
35746SOL     OW10192   3.390   1.850   7.251  0.0057 -0.5891  0.0622
35746SOL    HW110193   3.413   1.933   7.209 -0.9933  0.3028  1.2012
35746SOL    HW210194   3.382   1.871   7.344 -3.7526 -1.1013  0.0088
35747SOL     OW10195   5.498  10.287   4.361  0.0745  0.1899  0.4302
35747SOL    HW110196   5.570  10.287   4.298  0.3293 -0.2914  0.7122
35747SOL    HW210197   5.496  10.197   4.395 -0.2906  0.3504  0.8456
35748SOL     OW10198   5.130   0.985   2.038 -0.1617  0.4192  0.0711
35748SOL    HW110199   5.224   0.983   2.059  0.2918 -0.5751 -1.7909
35748SOL    HW210200   5.111   1.077   2.022  1.4309  0.3224 -3.0614
35749SOL     OW10201  10.451   4.110   5.415 -0.0589 -0.0604 -0.1706
35749SOL    HW110202  10.438   4.158   5.334  1.0185 -1.6322 -1.3391
35749SOL    HW210203  10.538   4.137   5.446  0.3104 -0.8088 -0.5332
35750SOL     OW10204   3.687   3.646   2.174 -0.0410  0.8038 -0.0661
35750SOL    HW110205   3.776   3.682   2.183  0.1379  0.8381 -1.5921
35750SOL    HW210206   3.651   3.692   2.098 -0.1665 -1.4532 -1.4905
35751SOL     OW10207   8.986   0.813   2.734 -0.1744  0.4551  0.0130
35751SOL    HW110208   9.076   0.846   2.728 -0.3905  1.0631  0.0467
35751SOL    HW210209   8.972   0.768   2.650  0.8306 -1.4017  0.7925
35752SOL     OW10210   6.061   3.041   1.538  0.3784 -0.3712 -0.4184
35752SOL    HW110211   6.134   3.103   1.533  0.2649 -0.2499 -0.5718
35752SOL    HW210212   6.034   3.044   1.630 -1.2110  1.6442 -0.8718
35753SOL     OW10213   5.787   3.424   4.764  0.7659  0.0193  0.4358
35753SOL    HW110214   5.781   3.425   4.859  1.1822  0.3720  0.4609
35753SOL    HW210215   5.841   3.347   4.744 -0.1347 -0.6264  0.4281
35754SOL     OW10216   1.884   6.097   9.883 -0.5162  0.1494  0.2774
35754SOL    HW110217   1.954   6.035   9.864 -1.7775 -0.9334 -1.1608
35754SOL    HW210218   1.929   6.179   9.904  1.1945 -1.2138  2.2608
35755SOL     OW10219   6.039   8.885   7.148 -1.1382 -0.0074 -0.3269
35755SOL    HW110220   6.096   8.810   7.133 -2.7749 -1.6977  1.3346
35755SOL    HW210221   6.089   8.941   7.208 -0.0111  0.1276 -1.3640
35756SOL     OW10222   9.698   3.064   5.350  0.5786  0.0589  0.7980
35756SOL    HW110223   9.736   3.085   5.435  0.6710 -1.9124  1.2868
35756SOL    HW210224   9.750   2.991   5.317 -0.0052  0.2129 -0.5516
35757SOL     OW10225   1.520   6.850   8.935  0.0099 -0.5320 -0.1226
35757SOL    HW110226   1.510   6.770   8.883  2.6150 -1.0573  0.0619
35757SOL    HW210227   1.441   6.853   8.989  0.3527 -3.6738  0.7534
35758SOL     OW10228   7.662   7.844   4.779  0.2403 -0.6497 -0.1579
35758SOL    HW110229   7.697   7.757   4.800 -0.3534 -0.7819  0.3475
35758SOL    HW210230   7.634   7.837   4.688  0.3143 -0.9546 -0.1606
35759SOL     OW10231   5.941   8.323   2.906 -0.2486 -0.3855 -0.2947
35759SOL    HW110232   5.990   8.297   2.984  1.2896 -0.3683 -1.2113
35759SOL    HW210233   5.919   8.240   2.863 -1.1096 -0.3952  0.1446
35760SOL     OW10234   7.050   4.134   8.893 -0.0803 -0.3771  0.0987
35760SOL    HW110235   7.082   4.076   8.823 -0.5673 -0.2381 -0.2421
35760SOL    HW210236   7.119   4.200   8.902 -0.4303  0.1512 -0.9028
35761SOL     OW10237   7.499   2.088   3.659  0.4331  0.2179 -0.4693
35761SOL    HW110238   7.570   2.135   3.616  2.8769 -0.8994  2.0311
35761SOL    HW210239   7.526   1.996   3.658 -0.1821 -0.0652  1.7628
35762SOL     OW10240   0.512   6.243   3.604  0.0019  0.1325  0.5150
35762SOL    HW110241   0.492   6.219   3.695  0.2979 -0.8307  0.3399
35762SOL    HW210242   0.579   6.310   3.611  0.1007 -0.0132  1.0123
35763SOL     OW10243   0.017   5.286   5.584 -0.2393 -0.0549 -0.0906
35763SOL    HW110244  -0.040   5.214   5.555 -1.7342  1.0610 -0.0691
35763SOL    HW210245   0.105   5.258   5.560 -0.9682 -1.0699 -1.8148
35764SOL     OW10246   6.109   0.329   4.810 -0.4026 -0.5623 -0.1094
35764SOL    HW110247   6.117   0.382   4.731 -2.2362  1.6209  1.0723
35764SOL    HW210248   6.154   0.380   4.878  0.5266 -2.0587  0.4544
35765SOL     OW10249   0.500   2.729  10.594  0.3517 -0.3838  0.2941
35765SOL    HW110250   0.463   2.708  10.680 -0.7903  0.9829  0.1790
35765SOL    HW210251   0.513   2.824  10.596  2.2092 -0.5767 -0.3463
35766SOL     OW10252   4.398  10.005   4.071  0.1507  0.2223 -0.2591
35766SOL    HW110253   4.477   9.964   4.107  0.3181  0.6165 -0.1650
35766SOL    HW210254   4.406   9.992   3.977 -0.2100 -0.6751 -0.1739
35767SOL     OW10255   6.405   9.569   9.619 -0.0534  0.0128 -0.0001
35767SOL    HW110256   6.339   9.571   9.550  1.4312  0.9399 -1.4676
35767SOL    HW210257   6.392   9.485   9.663 -1.9553  0.0277 -0.4645
35768SOL     OW10258   7.414   9.193   9.289  0.3350 -0.4551 -0.0324
35768SOL    HW110259   7.374   9.226   9.208  0.6056  1.8194  0.7033
35768SOL    HW210260   7.387   9.101   9.293 -0.3176 -0.4202 -2.3032
35769SOL     OW10261   6.030   0.068   3.586 -0.6518 -0.4020 -0.3613
35769SOL    HW110262   5.941   0.103   3.580 -0.8030 -0.7683 -0.3224
35769SOL    HW210263   6.023  -0.020   3.549 -0.2355 -0.3157 -0.6462
35770SOL     OW10264   9.897   7.914   6.444 -0.1601 -0.7728  0.2278
35770SOL    HW110265   9.955   7.967   6.390 -0.3918 -1.1955 -0.4492
35770SOL    HW210266   9.920   7.938   6.534  0.4369 -0.2801 -0.0445
35771SOL     OW10267   5.996   4.783   2.897  0.0051 -0.0414 -0.5712
35771SOL    HW110268   5.953   4.779   2.983  0.8686  0.8156 -0.0848
35771SOL    HW210269   5.930   4.822   2.839  0.2155  1.6124  0.2526
35772SOL     OW10270   7.831   3.669   5.425 -0.0369 -0.3474 -0.1435
35772SOL    HW110271   7.922   3.643   5.411 -0.4229 -1.3953 -0.8157
35772SOL    HW210272   7.830   3.762   5.403  1.3352  0.2789  2.1418
35773SOL     OW10273   9.480   2.988  10.327  0.4412 -0.1895  0.2681
35773SOL    HW110274   9.514   2.926  10.261 -0.5566  1.5739 -2.0255
35773SOL    HW210275   9.551   3.051  10.338  0.0317  0.3769 -0.3036
35774SOL     OW10276   6.496   4.403   8.018  0.5232  0.1868  0.4337
35774SOL    HW110277   6.415   4.357   7.996  1.0786 -0.0598 -1.1508
35774SOL    HW210278   6.491   4.485   7.970  0.3326  1.0705  1.8958
35775SOL     OW10279   5.933  10.321   7.556  0.1107 -0.2329  0.0895
35775SOL    HW110280   5.894  10.288   7.637  0.7374  0.0624  0.5184
35775SOL    HW210281   5.995  10.388   7.585  1.4950 -1.2058 -0.5229
35776SOL     OW10282   8.357   9.128   5.477  0.3687 -0.1572 -0.0007
35776SOL    HW110283   8.444   9.147   5.513  0.6173  0.1710 -0.7592
35776SOL    HW210284   8.296   9.167   5.539  0.6685 -1.9350  1.5220
35777SOL     OW10285   4.824   8.875   8.267  0.0687 -0.1604 -0.1175
35777SOL    HW110286   4.731   8.895   8.261  0.4470  2.4186  0.9400
35777SOL    HW210287   4.853   8.867   8.177 -1.1793 -1.0669 -0.4590
35778SOL     OW10288   6.028   5.986   9.162  0.3439 -0.3020 -0.1316
35778SOL    HW110289   6.029   5.935   9.243  0.7107  1.8767  1.2978
35778SOL    HW210290   6.016   5.920   9.093  0.8738 -2.3135  1.5903
35779SOL     OW10291   4.017   1.202   9.468  0.1493  0.3711  0.5299
35779SOL    HW110292   4.054   1.132   9.522  0.2183  0.8882  1.1634
35779SOL    HW210293   4.024   1.281   9.522  4.1454  1.8398 -1.7305
35780SOL     OW10294   1.567   3.552   6.422  0.0716 -0.0636  0.0050
35780SOL    HW110295   1.604   3.463   6.425  0.3118  0.0314 -0.0998
35780SOL    HW210296   1.477   3.542   6.455 -0.1337 -0.4677 -0.6606
35781SOL     OW10297   3.348   7.387   7.236  0.1172  0.1388 -0.2436
35781SOL    HW110298   3.325   7.477   7.258  0.2881  0.5115 -1.4765
35781SOL    HW210299   3.264   7.343   7.224 -0.0037  0.6438 -1.4797
35782SOL     OW10300   2.523   0.840   8.152  0.5672  0.0404  0.0391
35782SOL    HW110301   2.577   0.766   8.178  0.5940 -0.0946 -0.3883
35782SOL    HW210302   2.523   0.898   8.228  0.7006 -0.3081  0.3071
35783SOL     OW10303   2.683   1.219   4.275 -0.3937 -0.0579 -0.4665
35783SOL    HW110304   2.749   1.173   4.327 -1.3440  0.4996  1.3196
35783SOL    HW210305   2.731   1.292   4.235  0.1235  0.2319  0.6479
35784SOL     OW10306   9.838   7.857   6.930 -0.1106  0.9366 -0.0657
35784SOL    HW110307   9.902   7.789   6.907  0.2598  1.7159 -1.4076
35784SOL    HW210308   9.827   7.848   7.025  0.8944 -0.1602 -0.0321
35785SOL     OW10309   5.347   8.092   4.827  0.3234 -0.4240 -0.2521
35785SOL    HW110310   5.398   8.063   4.751  0.0845  0.3703 -0.7218
35785SOL    HW210311   5.337   8.013   4.880  0.4800 -0.9968 -1.0539
35786SOL     OW10312   5.353   1.619   1.450  0.5812 -0.3177 -0.1074
35786SOL    HW110313   5.353   1.524   1.449 -1.7835 -0.3761  0.0464
35786SOL    HW210314   5.379   1.643   1.539 -1.2329 -0.9324  0.6331
35787SOL     OW10315   2.184   3.086  10.522 -0.5370 -0.3492 -0.1083
35787SOL    HW110316   2.228   3.009  10.558  0.1907  0.1036 -0.0140
35787SOL    HW210317   2.255   3.148  10.504 -1.2077  0.7568  0.8937
35788SOL     OW10318   9.780   4.974  10.675 -0.5550 -0.1289 -0.3348
35788SOL    HW110319   9.872   5.001  10.669 -0.2668 -1.1545 -0.6699
35788SOL    HW210320   9.759   4.943  10.588 -0.9172 -0.8609  0.0087
35789SOL     OW10321   9.019   8.277   1.540  0.0236  0.5921  0.4177
35789SOL    HW110322   9.054   8.364   1.519  2.2188 -0.7782 -2.1789
35789SOL    HW210323   8.971   8.252   1.462 -0.9290 -0.4177  1.3023
35790SOL     OW10324   0.552   6.833   0.605 -0.0602 -0.4392 -0.2466
35790SOL    HW110325   0.543   6.850   0.698 -2.5255 -1.7244 -0.1430
35790SOL    HW210326   0.635   6.873   0.580 -0.5730  2.2773  1.9272
35791SOL     OW10327  10.477   6.104   8.481 -0.1538 -0.4148  0.1158
35791SOL    HW110328  10.485   6.109   8.576 -0.3213  2.4374  0.0655
35791SOL    HW210329  10.567   6.109   8.449 -0.1097 -1.1869  0.1131
35792SOL     OW10330   5.052  10.489   3.570 -0.2059  0.5945  0.2449
35792SOL    HW110331   5.090  10.403   3.587  0.9358  0.9177 -0.5816
35792SOL    HW210332   5.040  10.492   3.475 -0.8939  1.0907  0.3347
35793SOL     OW10333   7.566   8.854   1.329 -0.3854  0.0001  0.0270
35793SOL    HW110334   7.620   8.843   1.407 -1.2344  1.1648  0.8137
35793SOL    HW210335   7.624   8.898   1.266 -0.7193  2.5400  1.3443
35794SOL     OW10336  10.085   8.154   6.374  0.2284 -0.2727  0.1520
35794SOL    HW110337  10.033   8.231   6.354  2.1175  1.0028 -0.0594
35794SOL    HW210338  10.075   8.141   6.468 -0.2702  0.0741  0.1490
35795SOL     OW10339   8.866   4.584   6.985  0.4890  0.1341 -0.1039
35795SOL    HW110340   8.896   4.668   7.021  1.2342 -0.7374  1.3695
35795SOL    HW210341   8.772   4.597   6.972  0.3068  0.7452  1.5092
35796SOL     OW10342   1.760   8.863   3.122  0.3029  0.0699  0.4935
35796SOL    HW110343   1.758   8.880   3.028  0.2406 -0.5244  0.3818
35796SOL    HW210344   1.788   8.772   3.129 -0.1722 -0.0431  1.0311
35797SOL     OW10345   3.283   3.991   5.302  0.0372 -0.3481 -0.2891
35797SOL    HW110346   3.246   4.033   5.225 -3.3451  2.4008  2.4612
35797SOL    HW210347   3.327   4.062   5.349  0.0356 -1.4038  1.3856
35798SOL     OW10348   9.730   0.345   3.604  0.0775 -0.1914  0.5185
35798SOL    HW110349   9.786   0.420   3.617  2.2824 -1.4438 -1.0895
35798SOL    HW210350   9.771   0.275   3.654  0.3576 -1.2669 -1.1094
35799SOL     OW10351   4.188   6.527   7.194  0.5322  0.2172  0.0645
35799SOL    HW110352   4.164   6.571   7.276  0.6999  1.3821 -0.4941
35799SOL    HW210353   4.188   6.597   7.128  0.4194 -0.6961 -0.9330
35800SOL     OW10354   7.982  10.623   0.266 -0.3682 -0.2330 -0.0747
35800SOL    HW110355   8.059  10.640   0.319  0.4628  2.3991 -1.9049
35800SOL    HW210356   8.007  10.550   0.210 -0.2637 -1.2064  1.1927
35801SOL     OW10357  10.283   8.673   2.195  0.3067  0.1367 -0.1813
35801SOL    HW110358  10.284   8.591   2.244 -3.1816  0.3596  0.5328
35801SOL    HW210359  10.273   8.646   2.103  0.8035 -0.2545 -0.1184
35802SOL     OW10360   1.556   3.033   7.358  0.6599 -0.0450  0.4183
35802SOL    HW110361   1.582   2.975   7.287  2.8534  0.3065  0.8715
35802SOL    HW210362   1.631   3.034   7.418 -0.8152  0.2574  2.3754
35803SOL     OW10363   3.911  10.113   8.606  0.0917  0.2887  0.4000
35803SOL    HW110364   3.831  10.147   8.646 -0.1478  1.7322 -1.2321
35803SOL    HW210365   3.982  10.151   8.658 -0.2471 -0.2017  1.2373
35804SOL     OW10366   1.538   5.006   9.699  0.8153  0.6068 -0.0979
35804SOL    HW110367   1.476   4.950   9.653  2.0451 -0.6561 -0.3066
35804SOL    HW210368   1.509   5.005   9.790 -0.7316  1.8602 -0.5434
35805SOL     OW10369   3.301   6.958   6.111  0.0478  0.0656  0.0306
35805SOL    HW110370   3.261   7.025   6.166  0.7409  1.3030 -0.9016
35805SOL    HW210371   3.234   6.891   6.101 -0.1330 -0.1823  2.2758
35806SOL     OW10372   7.722   1.213   6.203 -0.5512 -0.1687 -0.3897
35806SOL    HW110373   7.775   1.222   6.124  0.2522  0.1856  0.1767
35806SOL    HW210374   7.713   1.119   6.217  1.3192 -0.2655  0.4002
35807SOL     OW10375   1.216   2.478   6.815  0.0537 -0.2825  0.0151
35807SOL    HW110376   1.249   2.533   6.886  0.0392 -2.0481  1.4664
35807SOL    HW210377   1.292   2.467   6.758  0.0627  1.1786 -0.3006
35808SOL     OW10378   6.472   0.371   0.379 -0.4124 -0.1864 -0.2627
35808SOL    HW110379   6.386   0.409   0.359 -0.7492 -0.3836  0.7419
35808SOL    HW210380   6.454   0.278   0.393 -0.2662 -0.0072  1.2411
35809SOL     OW10381   3.786   0.936   7.035  0.2475  0.8257  0.2178
35809SOL    HW110382   3.814   0.846   7.020 -3.1638 -0.0329 -2.5225
35809SOL    HW210383   3.728   0.930   7.111  0.2594  0.7188  0.2190
35810SOL     OW10384   7.216   1.288   6.073 -0.4382 -0.1252  0.0130
35810SOL    HW110385   7.306   1.278   6.040 -0.1288  0.6576  0.5918
35810SOL    HW210386   7.178   1.357   6.019 -0.5893 -0.2154  0.0017
35811SOL     OW10387   9.778   5.234   3.802 -0.4232 -0.2689  0.0155
35811SOL    HW110388   9.728   5.249   3.722 -0.3522 -0.2196 -0.0203
35811SOL    HW210389   9.750   5.304   3.861 -0.0682  0.0279 -0.1615
35812SOL     OW10390   9.299   1.449   5.811 -0.0013  0.2952  0.2579
35812SOL    HW110391   9.373   1.425   5.868 -0.3622  0.1302  0.6593
35812SOL    HW210392   9.278   1.368   5.765  0.0591  0.3390  0.1537
35813SOL     OW10393   8.288   3.101   8.987 -0.0074  0.0419 -0.3050
35813SOL    HW110394   8.360   3.164   8.985  0.1768 -0.1710 -0.4245
35813SOL    HW210395   8.220   3.144   9.038  0.2385  0.2097 -0.1175
35814SOL     OW10396  10.269   6.403  10.551 -0.2125  0.3709 -0.0103
35814SOL    HW110397  10.234   6.452  10.478 -0.6875  0.3935  0.2296
35814SOL    HW210398  10.273   6.312  10.520 -0.0620  0.4394 -0.1890
35815SOL     OW10399   4.906   7.356   2.991  0.1532  0.0233 -0.5085
35815SOL    HW110400   4.868   7.330   3.074  0.0258  0.3657 -0.4571
35815SOL    HW210401   4.999   7.368   3.009  0.1229  0.1111 -0.4139
35816SOL     OW10402   7.282   4.286   2.490 -0.4410 -0.4731  0.1343
35816SOL    HW110403   7.222   4.256   2.558 -1.8267  0.5694 -0.5915
35816SOL    HW210404   7.263   4.379   2.480  0.8631 -0.2618 -0.5694
35817SOL     OW10405   9.017  10.676   0.513  0.0416  0.2277 -0.0542
35817SOL    HW110406   9.079  10.644   0.448  0.4923 -1.8118  1.2788
35817SOL    HW210407   8.966  10.599   0.538 -1.1209  1.2678  0.9424
35818SOL     OW10408   5.059   4.064   1.445 -0.1864  0.0317 -0.8322
35818SOL    HW110409   5.151   4.056   1.422 -0.2956  0.3960 -1.4081
35818SOL    HW210410   5.059   4.077   1.540  0.4196  1.1438 -0.9705
35819SOL     OW10411   2.197   2.028   5.768  0.5531 -1.2060  0.2104
35819SOL    HW110412   2.211   1.993   5.856 -0.7222 -0.8024  0.5913
35819SOL    HW210413   2.112   2.071   5.772  1.4406  0.7406 -0.6128
35820SOL     OW10414   9.116   4.564   5.119  0.0585  0.6968  0.3870
35820SOL    HW110415   9.190   4.509   5.092 -0.4340  0.5032 -0.6193
35820SOL    HW210416   9.092   4.612   5.039 -0.9677  0.6691  0.6671
35821SOL     OW10417   3.405   5.016   2.283  0.1630 -0.0772 -0.5184
35821SOL    HW110418   3.447   5.067   2.213 -1.5549  1.6291 -0.3720
35821SOL    HW210419   3.351   4.952   2.237  0.7715 -0.4574 -0.7182
35822SOL     OW10420   4.752   3.621   6.005  0.2170  0.0702 -0.1412
35822SOL    HW110421   4.663   3.600   5.975  0.1680  0.7587 -0.5066
35822SOL    HW210422   4.805   3.546   5.977 -0.2170 -0.2640 -0.0788
35823SOL     OW10423   3.621   2.734   0.534 -0.3170 -0.1444 -0.0775
35823SOL    HW110424   3.575   2.745   0.617 -1.4323  0.5658 -0.7617
35823SOL    HW210425   3.577   2.660   0.492  1.6030 -1.8925  0.8189
35824SOL     OW10426  10.591   6.370   9.757  0.7456  0.1641 -0.1728
35824SOL    HW110427  10.495   6.367   9.760  0.6594 -0.0796 -1.9315
35824SOL    HW210428  10.611   6.440   9.695  1.7689  1.3034  1.3819
35825SOL     OW10429   6.651   9.124   6.540  0.2447 -0.6094  0.0741
35825SOL    HW110430   6.718   9.191   6.553 -1.3887  0.7119  2.3800
35825SOL    HW210431   6.683   9.072   6.466  3.7583 -0.0539  1.0292
35826SOL     OW10432   0.932   5.258   3.460 -0.4377  0.5797  0.5284
35826SOL    HW110433   0.924   5.189   3.526 -2.5597  0.7119  0.4809
35826SOL    HW210434   0.966   5.213   3.382  0.1474  0.0168  1.1002
35827SOL     OW10435   2.256   4.167   2.213  0.4122 -0.4316 -0.2907
35827SOL    HW110436   2.166   4.146   2.191  0.5075 -0.2201 -0.8802
35827SOL    HW210437   2.285   4.094   2.269  0.0208 -0.7166 -0.4594
35828SOL     OW10438  10.653   8.610   8.269  0.1228  0.1096  0.6943
35828SOL    HW110439  10.675   8.631   8.360  1.5752  1.2759  0.1185
35828SOL    HW210440  10.591   8.678   8.244 -0.9164 -0.6922  1.0376
35829SOL     OW10441   3.550   4.306   0.829  0.2603 -0.0531  0.4765
35829SOL    HW110442   3.474   4.248   0.827  0.0091  0.3055 -1.4291
35829SOL    HW210443   3.514   4.394   0.840  0.5422 -0.0618  1.5997
35830SOL     OW10444   6.587   2.077  10.170  0.3205  0.3738 -0.2097
35830SOL    HW110445   6.589   1.983  10.189 -1.8437  0.4589  0.7852
35830SOL    HW210446   6.602   2.118  10.255  0.4443  0.9114 -0.4911
35831SOL     OW10447   5.315   9.775   3.139  0.1420 -0.0062  0.3785
35831SOL    HW110448   5.385   9.778   3.074  0.4618  0.9496  0.7411
35831SOL    HW210449   5.278   9.687   3.131  2.2491 -1.0333  1.0981
35832SOL     OW10450   9.232   0.871   2.016  0.1151  0.1579  0.4603
35832SOL    HW110451   9.274   0.823   1.945  1.2417  1.3851  0.2491
35832SOL    HW210452   9.146   0.896   1.982 -0.6545 -1.9680  0.7201
35833SOL     OW10453   5.101   6.827   1.818 -0.4651  0.2928 -0.2354
35833SOL    HW110454   5.062   6.807   1.733 -0.4308  0.3100 -0.2551
35833SOL    HW210455   5.102   6.923   1.822 -1.4575  0.2961  0.2375
35834SOL     OW10456   9.314   7.974   8.486 -0.0333 -0.3677 -0.3628
35834SOL    HW110457   9.278   8.058   8.514  0.5118 -0.2632  0.0632
35834SOL    HW210458   9.409   7.986   8.492  0.0735 -0.7030 -1.2332
35835SOL     OW10459   5.574   5.808   7.504 -0.5052  0.6441 -0.1168
35835SOL    HW110460   5.506   5.815   7.436  1.6743  1.8848 -2.3645
35835SOL    HW210461   5.608   5.719   7.495  0.3920  1.0800 -1.4014
35836SOL     OW10462   5.783   5.155   6.838  0.7308 -0.6335 -0.3140
35836SOL    HW110463   5.848   5.086   6.834  1.2596 -0.1667  0.0847
35836SOL    HW210464   5.745   5.157   6.750 -0.2864 -2.3574  0.0554
35837SOL     OW10465   0.347   7.891   2.791  0.4528 -0.0820  0.4129
35837SOL    HW110466   0.363   7.909   2.699  0.2738  0.4441  0.4789
35837SOL    HW210467   0.252   7.881   2.798  0.0541  3.0822  1.0404
35838SOL     OW10468   7.022   7.052   1.004 -0.0506  0.0043 -0.2502
35838SOL    HW110469   6.939   7.007   0.990  0.2990 -1.2055  1.2795
35838SOL    HW210470   7.013   7.095   1.089  0.8468 -0.1123 -0.0776
35839SOL     OW10471   1.761   4.441   9.827  0.7558  0.4285  0.2835
35839SOL    HW110472   1.753   4.480   9.740 -0.5919  1.2695  0.7521
35839SOL    HW210473   1.825   4.496   9.872 -0.0186  1.1941  0.4559
35840SOL     OW10474   1.256   5.608   8.139  0.3220 -0.2193  0.0978
35840SOL    HW110475   1.317   5.648   8.076  1.5988 -1.8921  0.2036
35840SOL    HW210476   1.304   5.532   8.174 -1.3803 -0.8810  1.1125
35841SOL     OW10477   4.472   7.211   8.621 -0.4147 -0.1643  0.0990
35841SOL    HW110478   4.556   7.252   8.604  0.0451 -0.7879  0.7923
35841SOL    HW210479   4.409   7.284   8.621  0.2729  0.4470  0.5846
35842SOL     OW10480   9.190   0.915   8.011 -0.4638  0.5276  0.0631
35842SOL    HW110481   9.226   0.904   7.923  0.4811 -0.1566  0.5162
35842SOL    HW210482   9.199   0.829   8.052  1.7338  1.4530  1.7547
35843SOL     OW10483   6.722   9.616   8.211  0.3227  0.2991  0.7907
35843SOL    HW110484   6.669   9.536   8.221  0.2117  0.4467  1.4311
35843SOL    HW210485   6.682   9.661   8.137  0.5470 -0.3617  0.2553
35844SOL     OW10486   3.985   3.666   0.139 -0.2532  0.3993 -0.2088
35844SOL    HW110487   4.053   3.731   0.155  0.8491 -0.8518  0.4007
35844SOL    HW210488   3.977   3.663   0.043  1.2215 -0.0775 -0.3365
35845SOL     OW10489   0.243   7.190   6.220  0.3455  0.0867 -0.6556
35845SOL    HW110490   0.280   7.177   6.133  0.8504 -2.9167 -0.1001
35845SOL    HW210491   0.216   7.281   6.221  0.7196  0.3395 -3.7918
35846SOL     OW10492   4.001   5.973   2.415 -0.1399 -0.6390  0.4969
35846SOL    HW110493   4.034   5.976   2.505  0.4179 -0.0446  0.2849
35846SOL    HW210494   4.047   6.045   2.371 -0.4614 -0.8801 -0.2417
35847SOL     OW10495   9.235   3.589   9.619  0.2400  0.5867 -0.1449
35847SOL    HW110496   9.246   3.501   9.585 -0.3701  0.6354 -0.4881
35847SOL    HW210497   9.322   3.614   9.651  0.8484  0.5463 -1.6898
35848SOL     OW10498   3.439   6.643   3.866  0.0225 -0.3257  0.5958
35848SOL    HW110499   3.498   6.665   3.794  0.9368 -1.4513  0.9783
35848SOL    HW210500   3.366   6.705   3.857  0.4676  0.0209 -0.8548
35849SOL     OW10501   8.444   2.970  10.257  0.2782  0.1449 -0.3351
35849SOL    HW110502   8.508   2.898  10.254 -0.1603 -0.2564 -0.1937
35849SOL    HW210503   8.480   3.036  10.199 -0.0714 -0.8474 -1.7567
35850SOL     OW10504   5.025   2.394   5.116 -0.4391 -0.2820  0.5800
35850SOL    HW110505   4.966   2.459   5.078  1.5611  0.5111 -1.3625
35850SOL    HW210506   5.101   2.445   5.145  1.1755 -1.6700 -0.9784
35851SOL     OW10507   5.531   2.737   5.906  0.1813  0.6747 -0.6853
35851SOL    HW110508   5.495   2.670   5.848 -0.3204 -0.4102  0.8068
35851SOL    HW210509   5.612   2.765   5.864 -1.0617  1.2836 -2.8071
35852SOL     OW10510   1.954   6.759   6.318  0.1676  0.1325 -0.0048
35852SOL    HW110511   1.941   6.676   6.272 -0.4929 -0.5872  1.3988
35852SOL    HW210512   2.045   6.784   6.299  1.0312 -1.9316  1.0694
35853SOL     OW10513   2.363   3.511   2.495  0.6199 -0.0326  0.3248
35853SOL    HW110514   2.294   3.519   2.560  1.5187  0.2264  1.2650
35853SOL    HW210515   2.379   3.601   2.465 -0.4909 -0.2518 -1.0327
35854SOL     OW10516   0.568   4.516   6.034 -0.0033 -0.6442 -0.6434
35854SOL    HW110517   0.521   4.512   5.951  0.0531 -1.1389 -0.6527
35854SOL    HW210518   0.554   4.606   6.065  0.9102 -0.0825 -1.7396
35855SOL     OW10519   7.489   1.473   3.664  0.0373 -0.3932  0.1161
35855SOL    HW110520   7.479   1.400   3.602  1.0189 -0.8502  0.4688
35855SOL    HW210521   7.455   1.549   3.617 -0.1536 -0.9142 -0.6134
35856SOL     OW10522   9.394   1.023  10.069 -0.1498  0.2604 -0.7389
35856SOL    HW110523   9.390   1.055  10.159 -1.3163 -0.8109 -0.3834
35856SOL    HW210524   9.462   1.077  10.027 -0.0813  1.2395  0.5779
35857SOL     OW10525  10.573   7.007   2.042  0.4207 -0.9335  0.1770
35857SOL    HW110526  10.539   6.961   2.118 -2.0009  0.5419  0.0747
35857SOL    HW210527  10.605   7.091   2.075  0.1667 -0.6359 -0.3144
35858SOL     OW10528   6.760  10.097   1.198  0.3883 -0.1358  0.0658
35858SOL    HW110529   6.785  10.068   1.285  3.2816 -2.3830 -1.3260
35858SOL    HW210530   6.690  10.038   1.171  1.1130 -1.0067  0.0392
35859SOL     OW10531   4.376   8.436   0.406 -0.3485 -0.4191  0.0115
35859SOL    HW110532   4.314   8.382   0.454  0.3384 -0.9176  0.3524
35859SOL    HW210533   4.429   8.374   0.356  1.2708 -0.1980  1.3658
35860SOL     OW10534   3.276   9.203   8.940  0.5352  0.6609  0.1973
35860SOL    HW110535   3.320   9.252   8.871  1.2929 -0.5651 -0.2220
35860SOL    HW210536   3.312   9.238   9.021  1.0130  0.8404 -0.0873
35861SOL     OW10537   3.905   4.565   6.209 -0.1684 -0.3573 -0.1220
35861SOL    HW110538   3.832   4.589   6.153  0.0796  1.6984  0.3646
35861SOL    HW210539   3.883   4.603   6.294  2.9875  3.5958 -0.7791
35862SOL     OW10540   1.721   3.284  10.460 -0.1008 -0.8563  0.1593
35862SOL    HW110541   1.638   3.284  10.506  0.5734  0.9750  1.5017
35862SOL    HW210542   1.786   3.260  10.526  0.6162 -0.5703 -0.4178
35863SOL     OW10543  10.668   3.724   1.614 -0.2510 -0.0741 -0.0736
35863SOL    HW110544  10.705   3.651   1.665 -0.2119  0.5354  0.8003
35863SOL    HW210545  10.620   3.682   1.543 -0.4007 -0.9619  0.5340
35864SOL     OW10546   2.908   1.212   6.231 -0.1329  0.7531  0.1121
35864SOL    HW110547   2.827   1.162   6.223  0.1664  0.2182  0.3968
35864SOL    HW210548   2.907   1.271   6.155  0.1337 -0.5729 -0.9664
35865SOL     OW10549  10.126   5.427   1.999 -0.9477 -0.0145 -0.2415
35865SOL    HW110550  10.084   5.368   2.061 -1.6536  1.7002  1.0155
35865SOL    HW210551  10.054   5.472   1.955 -0.4380  0.5960 -0.4737
35866SOL     OW10552   8.818   5.372   8.687 -0.6938 -0.3223  0.1888
35866SOL    HW110553   8.800   5.442   8.624  0.7322 -0.4677 -0.4395
35866SOL    HW210554   8.776   5.295   8.650 -1.1349 -0.0836  0.1909
35867SOL     OW10555   8.290   1.451   9.940  0.9978  0.0975 -0.3391
35867SOL    HW110556   8.207   1.495   9.923  0.1238 -0.2029  2.6219
35867SOL    HW210557   8.342   1.515   9.989  0.5957 -1.2014  1.9775
35868SOL     OW10558   6.803   6.866  10.485 -0.3992  0.1751  0.1373
35868SOL    HW110559   6.897   6.852  10.486 -0.5797 -1.3225  1.4673
35868SOL    HW210560   6.784   6.904  10.399  1.2458 -0.7153 -0.6606
35869SOL     OW10561   4.753   3.112   3.840  0.2894  0.1871 -0.2021
35869SOL    HW110562   4.723   3.141   3.754 -1.3844 -0.9916 -0.0571
35869SOL    HW210563   4.683   3.137   3.901  0.6862 -0.4576  0.5491
35870SOL     OW10564   5.435  10.023   6.474 -0.4158  0.0768  0.6648
35870SOL    HW110565   5.455  10.115   6.488 -1.9472  0.3802  1.1010
35870SOL    HW210566   5.373  10.023   6.401  2.0152 -0.9069 -1.5767
35871SOL     OW10567   1.125   4.015   7.483 -0.0514 -0.3066 -0.2537
35871SOL    HW110568   1.112   4.063   7.564  1.0163 -0.0785 -0.2112
35871SOL    HW210569   1.200   3.958   7.500  0.1903 -0.2530 -1.0778
35872SOL     OW10570   0.440   6.448   0.443  0.0115  0.2038  0.3578
35872SOL    HW110571   0.465   6.433   0.352  1.1914 -2.0315  0.9665
35872SOL    HW210572   0.382   6.523   0.440 -0.4823 -0.1845 -2.3081
35873SOL     OW10573   0.596   2.870   6.611  0.0166  0.5337  0.5687
35873SOL    HW110574   0.614   2.910   6.696  0.8439 -0.5117  0.9061
35873SOL    HW210575   0.509   2.902   6.587 -0.0726  1.1231  1.6336
35874SOL     OW10576   9.342   8.175   2.242 -0.1635 -0.2079 -0.0133
35874SOL    HW110577   9.419   8.229   2.261 -0.7058 -0.0206  1.8213
35874SOL    HW210578   9.353   8.098   2.298 -1.1752 -0.3034  0.0629
35875SOL     OW10579  10.175   4.204   5.434  0.6340  0.5270  0.1980
35875SOL    HW110580  10.254   4.149   5.435 -0.2306 -0.7567 -0.5418
35875SOL    HW210581  10.158   4.222   5.527  1.4190  0.2764  0.3984
35876SOL     OW10582   6.507   8.384   3.681  0.4238  0.2372  0.0404
35876SOL    HW110583   6.428   8.423   3.644  1.4130  1.5800 -0.7550
35876SOL    HW210584   6.564   8.459   3.700  1.4414 -0.6881  0.7766
35877SOL     OW10585   6.526   0.441   0.677  0.4463  0.0633  0.1771
35877SOL    HW110586   6.619   0.460   0.692  0.9962 -1.9468 -0.3056
35877SOL    HW210587   6.526   0.383   0.600 -0.9387 -1.9708  1.6093
35878SOL     OW10588   0.543   5.946   9.900 -0.5456  0.5730  0.0545
35878SOL    HW110589   0.618   5.901   9.939 -1.6618 -0.5827  0.9558
35878SOL    HW210590   0.575   6.034   9.882  1.6041 -0.3883 -1.3505
35879SOL     OW10591   9.135   5.986   9.940  0.0262  0.0259  0.6324
35879SOL    HW110592   9.106   6.076   9.923  1.0719 -0.0162 -1.7983
35879SOL    HW210593   9.230   5.990   9.939  0.0887 -1.0743  0.7867
35880SOL     OW10594   2.915   1.142   8.135  0.2535 -0.2645  0.1646
35880SOL    HW110595   2.990   1.095   8.171  0.3104 -0.4806 -0.2327
35880SOL    HW210596   2.948   1.230   8.119  0.4923 -0.4207 -0.2247
35881SOL     OW10597   2.088   7.423   5.156  0.2921 -0.2533  0.0363
35881SOL    HW110598   2.109   7.470   5.236  1.0365 -0.4103 -0.0553
35881SOL    HW210599   2.146   7.346   5.158  0.4236 -0.1787 -0.7182
35882SOL     OW10600   5.443   6.663   3.139  0.2264  0.6217  0.4674
35882SOL    HW110601   5.527   6.695   3.107 -0.0037  0.0829 -0.7136
35882SOL    HW210602   5.381   6.733   3.118 -0.0354  0.0084 -0.8756
35883SOL     OW10603   9.032   8.923   2.996 -0.5979  0.5523  0.8790
35883SOL    HW110604   9.079   8.840   3.003  0.9210  1.3787  0.9430
35883SOL    HW210605   9.099   8.987   2.969 -1.8336  1.6586  0.2788
35884SOL     OW10606   7.201   5.607   9.539  0.0194 -0.1301 -0.6442
35884SOL    HW110607   7.284   5.559   9.543  0.7060  1.0370 -0.4216
35884SOL    HW210608   7.175   5.602   9.447  1.3037  1.0385 -1.1132
35885SOL     OW10609   4.201   0.916   6.232 -0.1637 -0.1981  0.5144
35885SOL    HW110610   4.174   0.968   6.156 -1.0654 -0.6084  0.5439
35885SOL    HW210611   4.288   0.950   6.255  0.2070 -0.1915 -0.8096
35886SOL     OW10612   3.982   2.838   7.843  0.0049 -0.6748 -0.4066
35886SOL    HW110613   4.028   2.891   7.908  0.9627 -0.0807 -1.5297
35886SOL    HW210614   3.954   2.900   7.776 -0.4290 -1.3543 -0.8712
35887SOL     OW10615   8.262   3.126   0.865  0.1986 -0.3052  0.1572
35887SOL    HW110616   8.224   3.098   0.948  0.0063  1.9969  0.8991
35887SOL    HW210617   8.349   3.085   0.864 -0.3199 -1.4949  0.7909
35888SOL     OW10618   4.310   2.001   6.885 -0.6347 -0.1706  0.1048
35888SOL    HW110619   4.262   1.967   6.961 -0.7817 -1.8886 -0.6981
35888SOL    HW210620   4.242   2.034   6.826 -0.4218  3.2419  1.5585
35889SOL     OW10621   8.142   8.783   0.468  0.3117  0.2697  0.5329
35889SOL    HW110622   8.129   8.746   0.555 -0.8641 -0.5012  0.0408
35889SOL    HW210623   8.189   8.716   0.420 -0.3414  0.0974  0.1350
35890SOL     OW10624   6.720   1.072   3.426 -0.0511 -0.1287  0.2000
35890SOL    HW110625   6.693   0.982   3.407  1.3646 -0.4789 -0.2234
35890SOL    HW210626   6.815   1.068   3.431  0.0131  1.3168  0.3742
35891SOL     OW10627   5.281   8.692   4.844  0.6359 -0.2746  0.6028
35891SOL    HW110628   5.313   8.613   4.888  1.5248  0.0499  0.5631
35891SOL    HW210629   5.199   8.713   4.888  0.1934 -1.4284  0.3676
35892SOL     OW10630   5.595   3.285   2.739 -0.0588  0.3606  0.3732
35892SOL    HW110631   5.532   3.357   2.733  0.6035  0.9180 -0.1417
35892SOL    HW210632   5.647   3.305   2.817 -0.0033  0.3467  0.3406
35893SOL     OW10633   2.767   5.241   4.867 -0.0515 -0.2573 -0.2901
35893SOL    HW110634   2.686   5.217   4.913  0.2527 -0.0605  0.3514
35893SOL    HW210635   2.762   5.192   4.785 -0.6839 -0.4808 -0.1288
35894SOL     OW10636   7.565   5.064   8.938  0.5942 -0.2077  0.1182
35894SOL    HW110637   7.495   5.000   8.931  1.2303 -0.8407 -0.5170
35894SOL    HW210638   7.559   5.116   8.858 -0.1709  0.8019  0.8075
35895SOL     OW10639   6.032   7.959   4.510  0.1773 -0.0538 -0.1781
35895SOL    HW110640   5.999   8.028   4.568 -1.6757  0.6382 -1.9259
35895SOL    HW210641   5.983   7.881   4.537  0.2844 -0.0433  0.0487
35896SOL     OW10642   1.582   3.554   2.912 -0.0346  0.0291 -0.4504
35896SOL    HW110643   1.513   3.528   2.851 -0.8891  0.9148  0.0976
35896SOL    HW210644   1.663   3.522   2.872 -0.5038  1.0271 -2.3030
35897SOL     OW10645   0.935   5.016   9.300  0.7578 -0.4029  0.0229
35897SOL    HW110646   0.994   4.978   9.235 -0.0178 -0.6733 -0.5496
35897SOL    HW210647   0.848   5.011   9.258  0.1898 -0.9188  1.2258
35898SOL     OW10648   2.912   4.645   0.799  0.4776 -0.0940 -0.2174
35898SOL    HW110649   2.828   4.647   0.754 -0.2953 -0.0230  1.2071
35898SOL    HW210650   2.957   4.568   0.763 -0.4561 -0.5118 -0.5003
35899SOL     OW10651   8.530   3.903   1.548  0.4486  0.3599 -0.3950
35899SOL    HW110652   8.622   3.876   1.550  0.6084  0.8330 -1.0075
35899SOL    HW210653   8.518   3.939   1.460 -0.4586 -0.1532 -0.4813
35900SOL     OW10654   1.303   5.820   5.563 -0.3850  1.0256  0.3481
35900SOL    HW110655   1.355   5.807   5.642 -0.1878  0.1475  0.0851
35900SOL    HW210656   1.274   5.911   5.568 -0.9536  0.7940  1.7726
35901SOL     OW10657   4.461   9.590   8.679  0.0597 -0.1670 -0.1026
35901SOL    HW110658   4.545   9.610   8.718  1.0931 -1.2520 -1.6599
35901SOL    HW210659   4.397   9.633   8.736  1.4566 -1.4306  2.5804
35902SOL     OW10660   2.790  10.026   3.803  0.1596 -0.2812  0.1886
35902SOL    HW110661   2.839  10.083   3.862  0.8097  1.0847 -1.5978
35902SOL    HW210662   2.708  10.009   3.849 -0.3033  2.5458  0.5917
35903SOL     OW10663   9.327  10.067   2.278  0.3130 -0.5207  0.5917
35903SOL    HW110664   9.238  10.086   2.248  0.7953  0.6081 -0.2365
35903SOL    HW210665   9.333  10.109   2.364  0.8585  1.9019 -0.5351
35904SOL     OW10666   0.025   1.694  10.053  0.4516 -0.6742 -0.0496
35904SOL    HW110667   0.115   1.726  10.046  0.2246 -0.2094 -1.1032
35904SOL    HW210668  -0.030   1.772  10.044 -0.0580 -0.8025  1.6824
35905SOL     OW10669   6.326   7.701   4.715 -0.2640  0.1529  0.1698
35905SOL    HW110670   6.386   7.627   4.714  0.2321  0.4569 -2.7539
35905SOL    HW210671   6.239   7.662   4.711 -0.2003 -0.2504  1.9175
35906SOL     OW10672   2.288   9.287   9.895 -0.0187 -0.0775 -0.1521
35906SOL    HW110673   2.314   9.214   9.839 -1.3140 -0.0507 -0.8255
35906SOL    HW210674   2.339   9.362   9.862  1.5827 -0.7180  0.7727
35907SOL     OW10675   4.062  10.563   3.781 -0.1941  0.1202 -0.3412
35907SOL    HW110676   4.042  10.644   3.734 -2.1171 -0.5007 -0.6629
35907SOL    HW210677   3.993  10.502   3.756 -1.0722 -0.4262  2.8966
35908SOL     OW10678   5.232   5.993   1.923 -0.2191  0.3887  0.4333
35908SOL    HW110679   5.243   6.087   1.906  0.8875  0.4502  1.4465
35908SOL    HW210680   5.284   5.950   1.855 -0.8679  0.4747 -0.1415
35909SOL     OW10681   0.374   5.787   3.282  0.1231  0.2785  0.2340
35909SOL    HW110682   0.416   5.871   3.303  0.0801  0.0463  1.2503
35909SOL    HW210683   0.281   5.807   3.278  0.0962  0.2375  0.6711
35910SOL     OW10684   7.730   8.669   8.671 -0.0806 -0.1423  0.0245
35910SOL    HW110685   7.680   8.613   8.730 -2.1654  0.6169 -0.9251
35910SOL    HW210686   7.751   8.613   8.597 -0.0434 -0.3083  0.1590
35911SOL     OW10687   2.996   5.464   4.342  0.5235 -0.1634 -0.6726
35911SOL    HW110688   3.018   5.543   4.391  1.8891 -0.6107 -0.5227
35911SOL    HW210689   2.953   5.408   4.406 -1.4697  0.8621 -1.0542
35912SOL     OW10690   9.406   7.174  10.363 -0.4547  0.3827  0.3150
35912SOL    HW110691   9.469   7.210  10.425  0.4642 -0.1176 -0.3018
35912SOL    HW210692   9.386   7.247  10.304 -0.0451  0.4023  0.1972
35913SOL     OW10693  10.524   7.449   8.141 -0.4341 -0.0715 -0.2431
35913SOL    HW110694  10.517   7.358   8.170 -5.5802 -0.4926 -1.8835
35913SOL    HW210695  10.570   7.445   8.058 -0.0934 -1.0689 -0.0135
35914SOL     OW10696   3.209   7.155   6.267 -0.2288 -0.4161  0.2438
35914SOL    HW110697   3.197   7.159   6.362 -0.9327 -1.9558  0.2442
35914SOL    HW210698   3.120   7.158   6.231  0.0799  2.3170 -0.5236
35915SOL     OW10699   6.643   7.307   6.173 -0.6128  0.1871 -0.7536
35915SOL    HW110700   6.654   7.340   6.263 -0.9961 -0.4830 -0.4535
35915SOL    HW210701   6.571   7.245   6.180 -0.6575  0.1516 -1.5392
35916SOL     OW10702  10.483   3.217   7.930 -0.0827  0.5051  0.4124
35916SOL    HW110703  10.403   3.196   7.883 -0.5291  2.6894  0.0895
35916SOL    HW210704  10.465   3.190   8.020 -0.6403 -0.3022  0.0679
35917SOL     OW10705   8.858   2.700   6.282  0.8182  0.1771  0.5916
35917SOL    HW110706   8.821   2.638   6.219  0.6747  0.8692 -0.0195
35917SOL    HW210707   8.856   2.784   6.236  2.7610  0.3190  0.6981
35918SOL     OW10708   8.246   4.963   0.403  0.6695  0.1744 -0.5797
35918SOL    HW110709   8.342   4.962   0.411  0.5383 -1.1147  1.3519
35918SOL    HW210710   8.227   4.887   0.348  0.7069 -0.2605 -0.0006
35919SOL     OW10711   2.720  10.450   2.746 -0.6957  0.3909  0.5825
35919SOL    HW110712   2.633  10.441   2.706 -0.8523 -0.9110  1.1694
35919SOL    HW210713   2.739  10.363   2.782  1.5414  0.1968 -0.8999
35920SOL     OW10714   9.380   7.495   7.472 -0.2062 -0.4522 -0.0233
35920SOL    HW110715   9.380   7.581   7.514  0.0653 -0.2074 -0.5106
35920SOL    HW210716   9.302   7.451   7.505 -0.6011  0.1616 -0.1376
35921SOL     OW10717   5.774   6.303   9.969  0.1444  0.2790  0.0148
35921SOL    HW110718   5.735   6.390   9.977  0.6558  0.4853  0.2477
35921SOL    HW210719   5.808   6.283  10.056  0.3590  0.0009 -0.1332
35922SOL     OW10720   1.221   1.984   6.638  0.0114  0.1687  0.1315
35922SOL    HW110721   1.208   2.050   6.569 -0.4446 -0.0814 -0.0266
35922SOL    HW210722   1.180   2.021   6.716  0.2094  0.2972  0.1730
35923SOL     OW10723   1.118   7.666   1.581  0.2085 -0.3350  0.4859
35923SOL    HW110724   1.140   7.622   1.663  1.4659  0.6879  0.7332
35923SOL    HW210725   1.130   7.759   1.600 -0.0343 -0.0469 -0.7021
35924SOL     OW10726   7.400   0.267   3.881 -0.0566 -0.3967  0.2936
35924SOL    HW110727   7.425   0.218   3.803  1.2196  1.6753 -0.7230
35924SOL    HW210728   7.319   0.312   3.856  0.2837  0.1676  0.1855
35925SOL     OW10729   8.960   5.439   2.205 -0.0022 -0.0388  0.2332
35925SOL    HW110730   8.926   5.502   2.269 -1.9386  0.1332 -0.8830
35925SOL    HW210731   9.031   5.486   2.161  0.0158  0.5684  0.8914
35926SOL     OW10732   5.269   4.364   5.814  0.2886  0.4757  0.4923
35926SOL    HW110733   5.254   4.297   5.748  0.5967 -0.3259  1.2093
35926SOL    HW210734   5.182   4.393   5.839  0.1665  0.6754 -0.1433
35927SOL     OW10735   0.578   1.838  10.678 -0.0797 -0.0197 -0.2123
35927SOL    HW110736   0.622   1.862  10.596  2.3502  0.9572  1.2425
35927SOL    HW210737   0.544   1.921  10.711  1.2389  0.0738  0.9736
35928SOL     OW10738   1.177   6.112   8.068  0.1496  0.1061 -0.2609
35928SOL    HW110739   1.131   6.030   8.049  2.4154 -1.4479  0.4895
35928SOL    HW210740   1.236   6.090   8.140  3.3420  1.3594 -2.2659
35929SOL     OW10741   7.188  10.252   6.210 -0.2738  0.2749  0.4420
35929SOL    HW110742   7.131  10.269   6.135  1.7442  0.1700 -1.2218
35929SOL    HW210743   7.211  10.160   6.202  1.0498  0.5913  0.3501
35930SOL     OW10744   2.977   8.698   1.566 -0.1797  0.5470 -0.0333
35930SOL    HW110745   3.017   8.774   1.610 -0.6028  0.3002  0.8017
35930SOL    HW210746   2.968   8.726   1.475  1.3523  0.8213 -0.1355
35931SOL     OW10747   3.232   8.020   7.063 -0.0091 -0.0758 -0.0220
35931SOL    HW110748   3.290   8.091   7.091 -0.3005 -0.1312  0.7702
35931SOL    HW210749   3.159   8.065   7.020 -0.8290  0.2389  1.5997
35932SOL     OW10750   8.477   6.221   4.469 -0.8804 -0.4011 -0.1759
35932SOL    HW110751   8.553   6.174   4.504 -1.2460 -0.9622 -0.1223
35932SOL    HW210752   8.514   6.281   4.404 -0.4507 -1.1329 -0.6201
35933SOL     OW10753   5.658   1.402   9.788 -0.0659 -0.8609  0.9317
35933SOL    HW110754   5.589   1.442   9.734  0.2383  0.8599  1.7687
35933SOL    HW210755   5.612   1.334   9.838 -1.2176  0.3790  1.6121
35934SOL     OW10756   8.837   3.775   0.702  0.4023 -0.2193  0.0275
35934SOL    HW110757   8.927   3.805   0.713  0.7310 -0.9530 -0.5381
35934SOL    HW210758   8.805   3.822   0.625  0.6657 -0.7283 -0.4039
35935SOL     OW10759   9.084   6.462   3.428  0.3133 -0.3255  0.1754
35935SOL    HW110760   9.023   6.475   3.355  0.8156  1.1413 -0.0237
35935SOL    HW210761   9.028   6.438   3.502 -0.1139 -2.8597 -0.8762
35936SOL     OW10762   5.251   1.668   5.868 -0.1108  0.1582 -0.1070
35936SOL    HW110763   5.201   1.686   5.789 -2.8879  0.4329  1.5955
35936SOL    HW210764   5.260   1.752   5.912  1.2329 -0.0179  0.0269
35937SOL     OW10765   6.636   6.035   7.323  0.0363 -0.9927  0.1843
35937SOL    HW110766   6.722   6.006   7.352  0.2865  0.3749  0.9007
35937SOL    HW210767   6.578   6.017   7.398 -0.2821 -1.7965 -0.2483
35938SOL     OW10768   4.311   7.572   3.867 -0.5093 -0.2173 -0.1747
35938SOL    HW110769   4.304   7.484   3.905  1.7390  0.5362  2.3083
35938SOL    HW210770   4.393   7.569   3.817 -1.4198 -0.0497 -1.7143
35939SOL     OW10771   7.799   3.094   6.149  0.3681  0.5272 -0.4931
35939SOL    HW110772   7.800   3.177   6.101  2.2031  0.7999 -0.0745
35939SOL    HW210773   7.763   3.031   6.087 -1.6904  1.7157 -0.5985
35940SOL     OW10774   2.468   8.921   3.209 -0.5249 -0.1493  0.4339
35940SOL    HW110775   2.425   8.879   3.284 -0.0883  0.2559  0.9231
35940SOL    HW210776   2.549   8.956   3.245 -0.5881  0.5643 -0.0970
35941SOL     OW10777   7.930   4.756   8.539 -0.3152  0.9834  0.0513
35941SOL    HW110778   8.022   4.779   8.528 -0.2433  0.4217 -0.5909
35941SOL    HW210779   7.925   4.663   8.518 -1.0911  1.0946 -0.3074
35942SOL     OW10780   9.301   9.325  10.612  0.7424 -0.3597 -0.2278
35942SOL    HW110781   9.214   9.363  10.622  0.1639 -1.2669 -1.6120
35942SOL    HW210782   9.350   9.358  10.688 -0.9600 -0.3158  0.9032
35943SOL     OW10783   2.929   1.409  10.559  0.1329 -0.0028 -0.0762
35943SOL    HW110784   2.960   1.452  10.479  2.4959 -0.4883  0.4990
35943SOL    HW210785   2.936   1.315  10.539 -1.0942 -0.1375  0.0702
35944SOL     OW10786  10.451   2.267   4.298  0.2756 -0.3299 -0.3056
35944SOL    HW110787  10.474   2.356   4.327  1.8111 -1.0709  0.8744
35944SOL    HW210788  10.535   2.221   4.294 -0.6033 -2.0354  0.1435
35945SOL     OW10789   9.595   6.734   3.851  0.4625 -0.0349 -0.6390
35945SOL    HW110790   9.683   6.712   3.822  1.3110 -0.2100  1.8107
35945SOL    HW210791   9.586   6.828   3.832  2.1650  0.5766  1.1937
35946SOL     OW10792   0.477   9.677   3.890  0.1185 -0.4503  0.9675
35946SOL    HW110793   0.490   9.661   3.797 -0.9691  1.5195  0.4112
35946SOL    HW210794   0.383   9.664   3.904 -0.1322  1.4101  1.2686
35947SOL     OW10795  10.666   9.450   9.558  0.8009 -0.1966  0.2018
35947SOL    HW110796  10.636   9.363   9.530  1.2885 -0.6954  1.1869
35947SOL    HW210797  10.590   9.506   9.544  0.5516 -0.7258 -0.6685
35948SOL     OW10798   1.360   0.114   1.751  0.6473 -0.1689 -0.2071
35948SOL    HW110799   1.297   0.184   1.735  1.3522  0.1733 -1.6023
35948SOL    HW210800   1.312   0.033   1.733  0.9527  0.1413 -2.6311
35949SOL     OW10801   9.035   1.067   6.354 -0.0691 -0.2242 -0.3385
35949SOL    HW110802   9.009   0.993   6.409 -3.1545  1.6662  0.9784
35949SOL    HW210803   9.116   1.099   6.394  0.8385 -2.2507 -0.4069
35950SOL     OW10804   3.868   6.719   0.814  0.1177  0.1898 -0.4292
35950SOL    HW110805   3.808   6.671   0.871  0.8766  0.7583  0.9042
35950SOL    HW210806   3.935   6.654   0.790  1.1626  0.5335  1.4011
35951SOL     OW10807   0.707   6.327   7.500 -0.6825 -0.2733  0.0488
35951SOL    HW110808   0.741   6.349   7.414  0.4337 -0.2397  0.4782
35951SOL    HW210809   0.626   6.377   7.508  1.0163  2.6285  0.4160
35952SOL     OW10810   7.517  10.443   5.193 -0.3769  0.4511 -0.2026
35952SOL    HW110811   7.563  10.375   5.242 -0.3119  0.3572 -0.3894
35952SOL    HW210812   7.455  10.480   5.255 -1.9066 -1.1902 -0.6590
35953SOL     OW10813   2.935   2.967   7.278 -0.2380 -0.0189  0.0813
35953SOL    HW110814   2.873   2.896   7.261  1.4698 -1.5221 -0.0773
35953SOL    HW210815   2.893   3.019   7.347 -1.7120 -0.9173 -0.0906
35954SOL     OW10816   0.821  10.454   0.346 -0.8105  0.0576 -0.4084
35954SOL    HW110817   0.877  10.401   0.289 -0.1684  0.4438 -0.1447
35954SOL    HW210818   0.733  10.437   0.315 -0.4763  0.2116 -1.4793
35955SOL     OW10819   8.807   8.049   7.700  0.0897  0.0996 -0.2206
35955SOL    HW110820   8.884   8.078   7.650  0.0075  0.6807 -0.0176
35955SOL    HW210821   8.741   8.117   7.683  0.2026  0.5371  1.0215
35956SOL     OW10822   0.962   2.357  10.452 -0.6645 -0.2480 -0.5178
35956SOL    HW110823   0.946   2.431  10.394 -1.3447 -0.0033 -0.0330
35956SOL    HW210824   1.051   2.369  10.484 -0.3167 -0.3363 -1.4338
35957SOL     OW10825   4.248   7.672   5.510  0.1506  1.0104  0.2571
35957SOL    HW110826   4.210   7.641   5.428  1.4062 -0.1286  0.0713
35957SOL    HW210827   4.187   7.643   5.578 -0.3617  1.0478 -0.1805
35958SOL     OW10828   1.322   5.892   8.289 -0.1951 -0.1690  0.1075
35958SOL    HW110829   1.323   5.950   8.365  0.2311 -0.6976  0.5137
35958SOL    HW210830   1.231   5.895   8.259  0.3294  2.7836 -1.5414
35959SOL     OW10831   5.585   1.297   6.871  0.0504  0.1343 -0.4353
35959SOL    HW110832   5.512   1.343   6.911 -0.1173 -0.5047  0.0030
35959SOL    HW210833   5.551   1.269   6.786 -0.1199  0.0789 -0.3487
35960SOL     OW10834   6.941   9.778   8.327 -0.3310  0.0596  0.0311
35960SOL    HW110835   6.860   9.731   8.306 -0.0638  0.1446 -1.2842
35960SOL    HW210836   7.011   9.714   8.310 -0.1285 -0.2213  1.7677
35961SOL     OW10837   2.275   3.957   8.904 -0.3585  0.6817  0.1009
35961SOL    HW110838   2.296   3.978   8.813 -0.1276  2.2040  0.4667
35961SOL    HW210839   2.352   3.911   8.936  0.0966  1.2454 -0.1427
35962SOL     OW10840   2.302   4.342   4.607 -0.2453 -0.1702 -0.2612
35962SOL    HW110841   2.389   4.328   4.570 -1.0629 -2.1529 -1.6172
35962SOL    HW210842   2.254   4.388   4.538 -0.1740  1.4619  0.7088
35963SOL     OW10843   0.253   6.776   7.322  0.0352 -0.2015 -0.1570
35963SOL    HW110844   0.222   6.708   7.261  1.3535 -1.3539  0.4096
35963SOL    HW210845   0.313   6.829   7.270  0.2794 -0.4880 -0.1695
35964SOL     OW10846   3.730  10.071   2.002 -0.6046  0.1505 -0.3550
35964SOL    HW110847   3.661  10.122   2.043 -0.9055  0.9360 -1.7876
35964SOL    HW210848   3.798  10.134   1.981  0.1542 -0.4659  0.1713
35965SOL     OW10849   1.927   8.755   5.592  0.1069  0.0041  0.0346
35965SOL    HW110850   1.904   8.845   5.571  1.1187  0.2581 -0.0240
35965SOL    HW210851   1.972   8.760   5.676  2.8890  0.0034 -1.3249
35966SOL     OW10852   0.791   6.584   3.422 -0.4878  0.1161 -0.4219
35966SOL    HW110853   0.806   6.674   3.450  2.3738 -0.8871  1.8513
35966SOL    HW210854   0.854   6.569   3.352 -0.6315 -0.2336 -0.4812
35967SOL     OW10855  10.033   4.069   3.823  0.1789 -0.2825 -0.1110
35967SOL    HW110856  10.007   4.132   3.891  4.2052  0.0261  1.4237
35967SOL    HW210857  10.020   4.116   3.741 -0.1381  1.2471  0.7589
35968SOL     OW10858   0.273   3.252   1.895  0.5067  0.4110  0.2091
35968SOL    HW110859   0.211   3.319   1.924 -0.3978  0.1226 -1.0025
35968SOL    HW210860   0.230   3.169   1.913 -0.3422  0.2121 -2.3475
35969SOL     OW10861   2.703   0.538   5.840  0.1108  0.3588  0.0170
35969SOL    HW110862   2.617   0.571   5.812  0.5478 -0.3716 -2.4715
35969SOL    HW210863   2.683   0.466   5.899 -1.0568 -0.2392 -1.0507
35970SOL     OW10864   2.593   9.461   1.708 -0.2067 -0.1023 -0.0998
35970SOL    HW110865   2.599   9.418   1.623  2.9308  1.0411 -0.5852
35970SOL    HW210866   2.678   9.505   1.719 -0.7237  0.3257  3.3386
35971SOL     OW10867   3.618   5.198   2.105 -0.2499 -0.2658 -0.4151
35971SOL    HW110868   3.682   5.135   2.070  0.0439  0.6497 -1.5976
35971SOL    HW210869   3.627   5.191   2.200  0.3804 -1.3850 -0.5322
35972SOL     OW10870   2.550   2.250   4.168  0.0041  0.0475 -0.0999
35972SOL    HW110871   2.499   2.285   4.095 -0.0250  1.1361  0.4172
35972SOL    HW210872   2.616   2.194   4.127  0.3063  1.0447 -1.0157
35973SOL     OW10873   2.084   7.772   7.101 -0.1879 -0.1353  0.1838
35973SOL    HW110874   1.998   7.813   7.114 -1.0746 -1.2117 -1.7473
35973SOL    HW210875   2.066   7.697   7.044  1.8123 -1.4240  1.1466
35974SOL     OW10876   9.560   8.672   5.064  0.0359 -0.4481  0.2498
35974SOL    HW110877   9.649   8.707   5.063  0.8188 -2.2758  1.2237
35974SOL    HW210878   9.520   8.706   4.983  1.6124  0.3685 -0.2318
35975SOL     OW10879   4.288   0.670   6.362 -0.2418  0.3432  0.3634
35975SOL    HW110880   4.286   0.636   6.451 -1.6456  0.9569  0.5926
35975SOL    HW210881   4.202   0.649   6.325  0.5161 -0.4137 -1.0564
35976SOL     OW10882   9.877  10.685   6.112 -0.7153 -0.2658  0.2141
35976SOL    HW110883   9.957  10.695   6.165  1.7428  1.7809 -3.4631
35976SOL    HW210884   9.862  10.590   6.109  1.0100 -0.6445  1.7582
35977SOL     OW10885   9.438   4.180   6.808 -0.1303 -0.3732 -0.0947
35977SOL    HW110886   9.430   4.101   6.755  0.1873 -0.2986 -0.2529
35977SOL    HW210887   9.348   4.199   6.835 -0.0302 -1.7423  1.3648
35978SOL     OW10888   1.872   5.008   2.319 -0.3723 -0.2440  0.4190
35978SOL    HW110889   1.786   4.976   2.346 -0.2956 -0.8774 -0.0393
35978SOL    HW210890   1.854   5.072   2.250 -0.4668 -1.0543 -0.3386
35979SOL     OW10891   2.934   2.229   5.857 -0.4522 -0.0753  0.2905
35979SOL    HW110892   3.014   2.192   5.820  0.9245  2.5434  0.4586
35979SOL    HW210893   2.945   2.218   5.952 -0.1793  0.4671  0.3246
35980SOL     OW10894   4.515   8.142   8.275 -0.5313 -0.2462 -0.5924
35980SOL    HW110895   4.437   8.121   8.326 -0.0961  0.6748  0.4852
35980SOL    HW210896   4.486   8.134   8.184 -2.0302  0.5843 -0.2293
35981SOL     OW10897   2.454   0.774   5.166  0.1884 -0.1678  0.0216
35981SOL    HW110898   2.475   0.797   5.257  1.5711  1.4798 -0.6367
35981SOL    HW210899   2.533   0.798   5.117 -0.1428 -1.9665 -1.4960
35982SOL     OW10900   2.732   9.608   6.418  0.1948  0.3039 -0.1759
35982SOL    HW110901   2.723   9.633   6.510  2.4691  0.4652  0.0595
35982SOL    HW210902   2.653   9.643   6.376 -0.1461  1.5910  1.4259
35983SOL     OW10903   9.196   3.139   2.515 -0.3463 -0.2548 -0.2447
35983SOL    HW110904   9.216   3.119   2.607 -0.1511 -2.3079 -0.6850
35983SOL    HW210905   9.194   3.235   2.511 -0.6807 -0.1207  1.9611
35984SOL     OW10906   7.290  10.535   2.454  0.3159  0.2361 -0.0789
35984SOL    HW110907   7.303  10.625   2.484  1.1280  0.2795 -0.5501
35984SOL    HW210908   7.219  10.502   2.510 -0.0850  1.2028  0.0147
35985SOL     OW10909   8.655   5.867   7.210  0.5877 -0.0158  0.3244
35985SOL    HW110910   8.729   5.851   7.152  0.1260  1.9156 -0.8811
35985SOL    HW210911   8.578   5.854   7.155  0.0886  0.1165  0.9853
35986SOL     OW10912   9.855   3.635   5.309 -0.3448 -0.2187 -0.1380
35986SOL    HW110913   9.886   3.582   5.235 -0.9099 -1.8698  0.7558
35986SOL    HW210914   9.933   3.680   5.341 -0.0267  0.2432 -1.5101
35987SOL     OW10915   7.399   5.612   2.621 -0.2825 -0.4203 -0.0235
35987SOL    HW110916   7.492   5.624   2.638 -0.7207  2.1783  1.0545
35987SOL    HW210917   7.362   5.592   2.707 -0.7142 -1.9189 -0.5206
35988SOL     OW10918   4.491   9.186   1.189 -0.2057  0.0114  0.1568
35988SOL    HW110919   4.451   9.202   1.104 -0.9327 -2.0790  0.0480
35988SOL    HW210920   4.419   9.159   1.246  0.6800 -1.8229  0.5089
35989SOL     OW10921   5.613   2.077   5.798 -0.3412  0.3489  0.0738
35989SOL    HW110922   5.555   2.151   5.780 -3.1667 -1.9634 -1.0949
35989SOL    HW210923   5.653   2.056   5.714 -1.0054 -0.5706 -0.0220
35990SOL     OW10924   7.625   6.688  10.159  0.0898  0.4879 -0.1968
35990SOL    HW110925   7.554   6.743  10.192 -0.7579 -0.1749 -0.8913
35990SOL    HW210926   7.683   6.749  10.114 -0.1741  0.9928  0.1372
35991SOL     OW10927   9.584   4.381   5.231  0.3781  0.7097 -0.0711
35991SOL    HW110928   9.661   4.382   5.289  0.8746  1.4144 -0.7139
35991SOL    HW210929   9.523   4.443   5.272  0.1027  0.0798  0.4904
35992SOL     OW10930   0.980   7.453   2.870 -0.9853 -0.4750 -0.3297
35992SOL    HW110931   0.971   7.443   2.775 -1.3649 -1.5435 -0.1915
35992SOL    HW210932   1.069   7.487   2.882  0.1354 -3.0195 -0.9210
35993SOL     OW10933   5.233   4.129   2.816  0.0977 -0.1400 -0.1134
35993SOL    HW110934   5.288   4.176   2.753 -1.1457  1.3692 -0.1468
35993SOL    HW210935   5.145   4.132   2.777 -1.1429  2.6240  2.4778
35994SOL     OW10936   0.315   6.637   8.875  0.4298  0.3264  0.8016
35994SOL    HW110937   0.392   6.660   8.822  1.0115 -0.3215  1.3528
35994SOL    HW210938   0.248   6.615   8.811  0.9584  0.0716  0.3253
35995SOL     OW10939   6.478  10.574   9.892  0.2857 -0.2899 -0.1158
35995SOL    HW110940   6.478  10.508   9.961 -0.7652 -1.0551 -0.8302
35995SOL    HW210941   6.547  10.545   9.831  0.8175  0.0765  0.2968
35996SOL     OW10942   2.839   4.822   6.467  0.5394 -0.1447  0.1662
35996SOL    HW110943   2.768   4.764   6.496 -0.0839 -0.2074 -1.3632
35996SOL    HW210944   2.879   4.854   6.548  0.3191 -1.9977  1.0490
35997SOL     OW10945   6.158   3.405   7.729  0.4342 -0.4234  0.2005
35997SOL    HW110946   6.118   3.328   7.768 -0.6341  0.9711  2.0364
35997SOL    HW210947   6.088   3.471   7.728  1.7826  1.0910  0.4783
35998SOL     OW10948   2.852   5.895   4.107 -0.2271 -0.0750  0.9477
35998SOL    HW110949   2.834   5.824   4.044 -1.6212 -0.9791  2.2826
35998SOL    HW210950   2.860   5.850   4.191  1.0073  1.1681  1.5287
35999SOL     OW10951   9.715   7.380   0.722 -0.2598 -0.3190  0.1609
35999SOL    HW110952   9.723   7.305   0.664 -1.5642 -1.2859  1.1966
35999SOL    HW210953   9.802   7.391   0.760  0.3677 -0.2384 -1.2427
36000SOL     OW10954   9.069   7.349   3.358 -0.3249  0.3236 -0.2738
36000SOL    HW110955   9.020   7.355   3.276  0.6050 -0.2998 -0.8963
36000SOL    HW210956   9.002   7.350   3.426 -1.0363  2.4734 -0.9288
36001SOL     OW10957   1.210   6.610   2.483 -0.6905 -0.5327  0.2497
36001SOL    HW110958   1.148   6.678   2.458 -1.6960 -0.7302  2.0758
36001SOL    HW210959   1.205   6.546   2.412 -0.2511  0.9015 -1.1415
36002SOL     OW10960   1.204   4.874   4.015 -0.4409  0.1989 -0.2911
36002SOL    HW110961   1.126   4.835   4.054  0.0410  0.0798  0.5641
36002SOL    HW210962   1.255   4.799   3.983  0.4214  0.1047  1.2327
36003SOL     OW10963   4.980   3.842   5.629 -0.4055 -0.1526 -0.0613
36003SOL    HW110964   5.026   3.829   5.712 -0.1223 -0.4258 -0.2595
36003SOL    HW210965   4.925   3.765   5.619  1.1542 -1.1866 -1.1563
36004SOL     OW10966   6.070   5.375   6.902  0.3943 -0.2098 -0.7574
36004SOL    HW110967   5.978   5.380   6.875 -0.3031  0.1722  1.4586
36004SOL    HW210968   6.116   5.436   6.844 -0.8301 -0.0572 -1.6004
36005SOL     OW10969   6.337   0.092   0.818  0.6365 -0.0176  0.2714
36005SOL    HW110970   6.418   0.112   0.865 -0.0313  0.3471  1.2911
36005SOL    HW210971   6.275   0.159   0.847 -0.0736 -0.3563 -0.4172
36006SOL     OW10972   6.539   5.022   2.086  0.0109  0.1880 -0.3771
36006SOL    HW110973   6.536   4.939   2.133  0.8180  0.2507 -0.1992
36006SOL    HW210974   6.568   4.999   1.998  0.3754  0.2983 -0.2861
36007SOL     OW10975   5.267   8.224  10.067 -0.0893  0.2219  0.4533
36007SOL    HW110976   5.176   8.243  10.087  0.4748  0.3545  3.2568
36007SOL    HW210977   5.273   8.232   9.971 -2.8373  0.8150  0.2624
36008SOL     OW10978   2.465   9.720   0.998  0.5078 -0.2437  0.0844
36008SOL    HW110979   2.558   9.731   1.019  0.6997  0.3335 -1.0435
36008SOL    HW210980   2.452   9.625   1.001  1.4663 -0.4305 -1.0935
36009SOL     OW10981   4.623   0.157   4.231  0.2327 -0.1504 -0.0405
36009SOL    HW110982   4.663   0.074   4.257 -2.3803 -1.5875 -0.2691
36009SOL    HW210983   4.580   0.137   4.147  1.7442  2.1952 -1.4865
36010SOL     OW10984   9.938   4.968   0.499 -0.1822  0.6215  0.0637
36010SOL    HW110985  10.003   4.939   0.435  0.0690 -1.1182  1.0419
36010SOL    HW210986   9.866   4.906   0.491 -0.0662  0.2556  1.5628
36011SOL     OW10987   8.485   3.270   7.420  0.9313 -0.2702  0.6237
36011SOL    HW110988   8.460   3.319   7.498  0.4046 -0.2510  0.4439
36011SOL    HW210989   8.580   3.257   7.429  1.0625  0.7117  0.7043
36012SOL     OW10990   3.641  10.463   5.152 -0.0256 -0.3542 -0.6302
36012SOL    HW110991   3.674  10.498   5.069 -1.0084 -1.0333 -1.3303
36012SOL    HW210992   3.636  10.369   5.138  2.4652 -0.8518  1.1758
36013SOL     OW10993   0.184   1.200   9.716 -0.1292 -0.3362  0.0163
36013SOL    HW110994   0.165   1.268   9.780  0.8313 -1.9468  2.1249
36013SOL    HW210995   0.206   1.248   9.636 -4.8953  1.7681 -0.4101
36014SOL     OW10996   5.932   6.819   4.703  0.1127  0.4781 -0.0488
36014SOL    HW110997   5.854   6.873   4.693  0.3433  0.6890 -0.7935
36014SOL    HW210998   6.005   6.878   4.684  0.4370  0.2183  0.3785
36015SOL     OW10999   4.159   3.382   2.793  0.2447 -0.3582  0.6435
36015SOL    HW111000   4.222   3.318   2.828  1.3767  1.1481  1.4501
36015SOL    HW211001   4.087   3.383   2.856  0.9849  0.3158  1.5066
36016SOL     OW11002   2.862   2.101   9.493  0.2214 -0.3577 -0.2556
36016SOL    HW111003   2.841   2.018   9.535 -0.1237 -0.0570  0.1673
36016SOL    HW211004   2.789   2.159   9.516  0.9271  0.3442  0.2410
36017SOL     OW11005   5.573   5.987   4.278  0.1441  0.8825  0.4321
36017SOL    HW111006   5.650   5.989   4.220  0.0447 -0.7753  0.1792
36017SOL    HW211007   5.564   5.894   4.301 -1.5843  1.1074  0.7397
36018SOL     OW11008   6.105   0.424   3.487 -0.4370 -0.0263  0.3793
36018SOL    HW111009   6.114   0.337   3.449  0.0118  0.6005 -1.0011
36018SOL    HW211010   6.044   0.412   3.560 -0.2347 -1.5177  0.3289
36019SOL     OW11011   8.590   9.247   9.117 -0.1757  0.3922  0.1264
36019SOL    HW111012   8.625   9.313   9.177 -1.3868  1.3253 -0.1587
36019SOL    HW211013   8.533   9.194   9.172 -0.7942  0.8588 -0.0535
36020SOL     OW11014   5.293   9.571   4.075  0.1881  0.3965  0.0355
36020SOL    HW111015   5.306   9.478   4.091 -0.1645  0.2338 -0.5851
36020SOL    HW211016   5.377   9.611   4.097  0.8461 -0.2697 -1.1390
36021SOL     OW11017   1.051   0.703   8.634  0.1698 -0.7540 -0.5107
36021SOL    HW111018   1.040   0.617   8.675 -0.2780 -0.2761  0.4008
36021SOL    HW211019   1.051   0.685   8.540  0.2545 -1.7673 -0.3270
36022SOL     OW11020   9.150   9.128   6.187  0.2683 -0.4245 -0.5396
36022SOL    HW111021   9.183   9.160   6.271 -0.4654 -1.4186  0.1513
36022SOL    HW211022   9.079   9.189   6.165 -0.5621 -1.0547  0.3467
36023SOL     OW11023   6.745   3.438   3.338 -0.0081  0.1333 -0.3761
36023SOL    HW111024   6.771   3.399   3.421 -0.3407  0.4960 -0.0955
36023SOL    HW211025   6.722   3.528   3.360 -1.7614 -0.2324 -0.5398
36024SOL     OW11026   5.459   2.119   7.504  0.1890 -0.1043 -0.1429
36024SOL    HW111027   5.365   2.101   7.514 -0.2234  1.7550 -0.2711
36024SOL    HW211028   5.479   2.176   7.578  0.9036  0.6031 -0.8749
36025SOL     OW11029   9.252   4.423   2.593  0.2615  0.1878  0.2289
36025SOL    HW111030   9.331   4.371   2.606 -0.7806 -1.9240 -1.1800
36025SOL    HW211031   9.189   4.387   2.656 -0.1182  0.5610  0.0712
36026SOL     OW11032   6.496  10.362   9.577  0.0294 -0.0250  0.4085
36026SOL    HW111033   6.523  10.317   9.497  1.1287  1.6687 -0.2136
36026SOL    HW211034   6.487  10.291   9.641  1.3130 -1.1841 -0.6193
36027SOL     OW11035   3.082   0.965   7.383  0.2491  0.5477 -0.1149
36027SOL    HW111036   2.994   1.002   7.378 -0.1537 -0.0543  1.9029
36027SOL    HW211037   3.070   0.872   7.366  0.5369  0.5065 -0.0984
36028SOL     OW11038   8.337   4.169   7.004  0.0689 -0.4315 -0.1210
36028SOL    HW111039   8.391   4.178   7.083 -1.3958 -1.8646  1.1380
36028SOL    HW211040   8.399   4.155   6.933  1.4144  0.3996  0.8621
36029SOL     OW11041   8.393   4.703   4.624 -0.1391  0.4708  0.2504
36029SOL    HW111042   8.412   4.638   4.556 -0.2651  0.5804  0.1101
36029SOL    HW211043   8.316   4.750   4.592  0.3608  1.1574  0.0212
36030SOL     OW11044   7.657  10.471  10.131 -0.9836  0.1994  0.2189
36030SOL    HW111045   7.638  10.387  10.173 -1.0654 -0.6250 -1.3760
36030SOL    HW211046   7.744  10.494  10.162 -0.9771 -0.4461  0.7058
36031SOL     OW11047   6.837  10.675   9.620  0.4222  0.5229 -0.2352
36031SOL    HW111048   6.782  10.612   9.667  0.9461  0.5864  0.4780
36031SOL    HW211049   6.877  10.728   9.689 -2.8396  4.1865 -0.7869
36032SOL     OW11050  10.570   2.347   3.166 -0.1588  0.5828  0.4541
36032SOL    HW111051  10.611   2.283   3.224  0.0440  1.1915  0.9944
36032SOL    HW211052  10.641   2.406   3.141  0.1209 -0.5420 -1.6903
36033SOL     OW11053   1.423   2.005   4.116 -0.3509 -0.1657 -0.1282
36033SOL    HW111054   1.372   2.082   4.142  1.0864  0.8788 -0.2678
36033SOL    HW211055   1.501   2.008   4.172  1.1601  0.1959 -2.1616
36034SOL     OW11056   8.225   2.226   9.727 -0.1390 -0.3289 -0.0762
36034SOL    HW111057   8.227   2.207   9.633  0.4874  0.6098 -0.2659
36034SOL    HW211058   8.162   2.297   9.736  0.5942  0.3250  0.0518
36035SOL     OW11059   4.946   7.428   4.091 -0.9904  0.3394  0.7863
36035SOL    HW111060   5.007   7.419   4.018  2.7053  2.6848  3.2026
36035SOL    HW211061   4.941   7.339   4.128  2.8107  0.2590  1.6079
36036SOL     OW11062   0.734   7.490   5.568  0.0818 -0.2144  0.1188
36036SOL    HW111063   0.754   7.405   5.608  0.7017 -0.3808 -0.5206
36036SOL    HW211064   0.714   7.469   5.477  1.0964  0.4061 -0.2669
36037SOL     OW11065  10.659   3.208   1.861  0.2216  0.0042 -0.2516
36037SOL    HW111066  10.701   3.124   1.878 -1.8454 -0.8558  1.0161
36037SOL    HW211067  10.600   3.191   1.788 -0.7666  0.0856  0.4947
36038SOL     OW11068   6.064   5.573   8.575  0.4424 -0.2320  0.2811
36038SOL    HW111069   6.046   5.574   8.481  1.1368 -1.1379  0.1244
36038SOL    HW211070   5.999   5.632   8.613  1.1917  1.4738 -0.9561
36039SOL     OW11071   5.277   0.834   8.146  0.3024 -0.1844  0.1616
36039SOL    HW111072   5.278   0.761   8.207  1.6778 -1.1018 -0.8761
36039SOL    HW211073   5.352   0.888   8.171 -0.3963  0.6139  0.5949
36040SOL     OW11074   2.492   1.573   1.269  0.6415 -0.7797  0.7234
36040SOL    HW111075   2.571   1.528   1.237  0.3655 -0.0802 -1.0640
36040SOL    HW211076   2.483   1.543   1.359  2.3426 -1.7168  0.6400
36041SOL     OW11077   9.841   7.540   4.155  0.5047 -0.3976  0.3536
36041SOL    HW111078   9.787   7.595   4.211 -0.1933 -1.5690  0.8630
36041SOL    HW211079   9.909   7.505   4.213  1.3061  0.3601 -0.0939
36042SOL     OW11080   9.347   6.235   1.730 -0.2779  0.3135  0.0678
36042SOL    HW111081   9.371   6.174   1.799  0.6905 -0.3792 -0.8550
36042SOL    HW211082   9.319   6.180   1.657 -2.0564  1.0450  0.1343
36043SOL     OW11083   4.377   6.441   7.527  0.0376  0.6557 -0.1966
36043SOL    HW111084   4.430   6.455   7.605 -1.1649 -1.0732  1.0031
36043SOL    HW211085   4.291   6.416   7.560 -1.3039  2.4507 -2.0873
36044SOL     OW11086   1.225   5.380   4.225 -0.0411  0.0456 -0.5652
36044SOL    HW111087   1.169   5.303   4.210  0.0681 -0.0383 -0.5391
36044SOL    HW211088   1.294   5.373   4.159  1.3732 -1.2018  0.9458
36045SOL     OW11089   1.126   1.865   4.259  0.6072 -0.3312 -0.6508
36045SOL    HW111090   1.095   1.955   4.250 -2.2927 -0.8739  2.0496
36045SOL    HW211091   1.071   1.815   4.199 -0.2338 -0.6728  0.3760
36046SOL     OW11092   0.669   8.213   9.118  0.3309  0.2146 -0.2440
36046SOL    HW111093   0.608   8.286   9.119 -0.5662 -0.5064 -0.1667
36046SOL    HW211094   0.718   8.221   9.199  0.0728  0.5962 -0.1245
36047SOL     OW11095  10.258   7.312   4.286  0.4249  0.5543 -0.2853
36047SOL    HW111096  10.263   7.237   4.345 -2.4168 -1.6708 -2.5955
36047SOL    HW211097  10.347   7.322   4.253  1.0730 -1.2312  0.7641
36048SOL     OW11098   7.764  10.351   3.491  0.0400 -0.0124  0.4274
36048SOL    HW111099   7.819  10.365   3.568  0.9648  0.4379 -0.2906
36048SOL    HW211100   7.675  10.361   3.523  0.3242 -1.3438  1.7484
36049SOL     OW11101  10.652   1.523   1.715 -0.2667  0.0404 -0.0094
36049SOL    HW111102  10.642   1.610   1.754  0.3114 -0.6940  1.8662
36049SOL    HW211103  10.568   1.480   1.729 -1.0754  0.7289 -2.2483
36050SOL     OW11104   7.702   0.795   2.917 -0.6436  0.1905  0.4505
36050SOL    HW111105   7.758   0.862   2.955 -1.4487  0.3008  1.4765
36050SOL    HW211106   7.753   0.714   2.925  0.8005  0.7745 -1.7978
36051SOL     OW11107   0.101   9.131   5.127  0.3668 -0.0913  0.2819
36051SOL    HW111108   0.103   9.183   5.207 -0.2980  0.1414  0.1522
36051SOL    HW211109   0.017   9.085   5.130  0.3604 -0.1211 -0.2514
36052SOL     OW11110   4.890   9.530   6.791 -0.2617 -0.2643 -0.4111
36052SOL    HW111111   4.819   9.592   6.775 -0.4216 -0.5880 -0.9673
36052SOL    HW211112   4.940   9.529   6.709  0.9744  0.7086  0.2788
36053SOL     OW11113   7.775   9.476   6.661  0.2435  0.0900 -0.5936
36053SOL    HW111114   7.732   9.558   6.636 -3.1932 -0.9036  1.3683
36053SOL    HW211115   7.726   9.446   6.738  1.9679 -3.3483 -0.6484
36054SOL     OW11116   1.841   8.866   6.394 -0.5837  0.5669 -0.0099
36054SOL    HW111117   1.889   8.945   6.367 -0.3174  0.1463 -0.7980
36054SOL    HW211118   1.888   8.834   6.471 -0.4849  0.9781  0.1038
36055SOL     OW11119   8.666   2.558   3.160 -0.1237  0.5020 -0.2740
36055SOL    HW111120   8.698   2.535   3.072  0.9103  1.2109 -0.0993
36055SOL    HW211121   8.744   2.585   3.207 -0.6583  0.0389  0.9110
36056SOL     OW11122   9.266   8.367   8.484  0.0380  0.5905  0.1930
36056SOL    HW111123   9.184   8.323   8.506  0.1559  0.1620 -0.2256
36056SOL    HW211124   9.244   8.460   8.487 -0.3006  0.5014  0.7217
36057SOL     OW11125   4.358   3.249   6.230 -0.2342  0.1623 -0.0541
36057SOL    HW111126   4.301   3.177   6.204  1.0603 -1.3818  1.1312
36057SOL    HW211127   4.417   3.261   6.156 -0.4106 -0.0634 -0.2344
36058SOL     OW11128   7.135   1.362   0.767 -0.0696  0.1892  0.1071
36058SOL    HW111129   7.209   1.420   0.751 -0.3446  0.8694  1.2242
36058SOL    HW211130   7.114   1.325   0.681 -0.2741  2.2022 -0.7435
36059SOL     OW11131   0.974   8.185   8.455  0.0636 -0.0094  0.0922
36059SOL    HW111132   0.905   8.149   8.399 -1.4129  2.3394  0.2468
36059SOL    HW211133   0.938   8.183   8.543  0.3572  0.8069  0.2454
36060SOL     OW11134   8.131   6.177   8.842 -0.1840  0.4133  0.2032
36060SOL    HW111135   8.058   6.126   8.806  0.6282 -0.5480 -0.1000
36060SOL    HW211136   8.147   6.245   8.776  0.9156 -0.9856 -1.0156
36061SOL     OW11137   8.231   2.246   1.461  0.0896 -0.5278  0.4223
36061SOL    HW111138   8.200   2.335   1.479  0.6489 -0.0028 -1.0211
36061SOL    HW211139   8.166   2.189   1.502  0.1983  0.5267  2.1570
36062SOL     OW11140   8.321   7.944   7.525  0.1629 -0.3412  0.2255
36062SOL    HW111141   8.231   7.918   7.546 -0.1734  1.2230  0.8231
36062SOL    HW211142   8.368   7.861   7.516 -1.3029 -1.1879  0.0333
36063SOL     OW11143   9.672   0.044  10.693  0.0087  0.2523 -0.1989
36063SOL    HW111144   9.633   0.072  10.610 -1.8726  1.0055  0.8804
36063SOL    HW211145   9.647  -0.048  10.701 -1.0063  0.5457  0.1545
36064SOL     OW11146   5.120   6.946   5.765 -0.4323 -0.2531  0.0121
36064SOL    HW111147   5.054   6.909   5.706  0.8399 -1.1388 -0.9072
36064SOL    HW211148   5.107   6.898   5.847 -1.1101 -0.2049 -0.0577
36065SOL     OW11149   1.478   2.860   9.937  0.1136 -1.0357  0.1464
36065SOL    HW111150   1.393   2.896   9.964 -0.2099 -0.0313 -2.0052
36065SOL    HW211151   1.535   2.937   9.930  0.1901 -1.2290 -1.7971
36066SOL     OW11152  10.194   1.491   6.078  0.5896  0.0161  0.0997
36066SOL    HW111153  10.158   1.422   6.023  0.0671  0.6940 -0.4241
36066SOL    HW211154  10.222   1.446   6.157  1.7921 -1.0538 -0.8949
36067SOL     OW11155   7.278   4.532   9.943  0.6445 -0.3148 -0.0416
36067SOL    HW111156   7.344   4.598   9.919 -0.9586  1.1752 -0.5924
36067SOL    HW211157   7.266   4.543  10.037 -0.5123  1.1192 -0.3198
36068SOL     OW11158   3.517   8.035   7.146 -1.1654 -0.1627 -0.1913
36068SOL    HW111159   3.547   8.080   7.225 -1.3580 -1.8449  0.8883
36068SOL    HW211160   3.546   8.091   7.074  0.7309  0.4575  0.9736
36069SOL     OW11161   8.753   2.742   8.594 -0.0158 -0.1396  0.3519
36069SOL    HW111162   8.736   2.801   8.521  0.7267 -2.0651 -1.4822
36069SOL    HW211163   8.690   2.768   8.661 -0.3969  2.0103 -0.7684
36070SOL     OW11164   4.398   2.956   3.852 -0.0124 -0.0519  0.3016
36070SOL    HW111165   4.304   2.963   3.832  0.0998 -1.1405 -0.7628
36070SOL    HW211166   4.441   2.981   3.770  0.5431 -2.0593 -0.0881
36071SOL     OW11167   6.438   4.938   3.967  0.1648 -0.1810 -0.8270
36071SOL    HW111168   6.520   4.988   3.974 -0.1647  0.3756 -0.8733
36071SOL    HW211169   6.450   4.884   3.889  1.6498 -2.2924  0.7418
36072SOL     OW11170   3.782   7.849   9.677  0.1417 -0.7137  0.4834
36072SOL    HW111171   3.844   7.787   9.717  1.0739 -0.6691 -0.7919
36072SOL    HW211172   3.701   7.837   9.725  1.0616 -1.0024  2.0237
36073SOL     OW11173   0.278   8.478   8.690  0.0545 -0.4084  0.0702
36073SOL    HW111174   0.339   8.411   8.660  1.1755  1.4572 -2.0627
36073SOL    HW211175   0.197   8.460   8.643  1.4285  1.7511 -3.4915
36074SOL     OW11176   1.478   5.798   3.601  0.0669  0.1605  0.0898
36074SOL    HW111177   1.503   5.890   3.606  0.9119 -0.1094  1.7367
36074SOL    HW211178   1.561   5.752   3.587 -0.1934 -0.4046  0.3720
36075SOL     OW11179   5.510   8.858   4.703  0.0470  0.0921 -0.2727
36075SOL    HW111180   5.450   8.804   4.754  0.4502 -0.2030 -0.1095
36075SOL    HW211181   5.495   8.947   4.735 -0.4044  0.0425 -0.3363
36076SOL     OW11182  10.559   2.017   2.578 -0.1969 -1.0435 -0.0753
36076SOL    HW111183  10.608   2.094   2.551 -1.0912 -0.1405  0.7608
36076SOL    HW211184  10.626   1.955   2.606  0.5271  0.4883  1.9125
36077SOL     OW11185   4.623   2.672   1.827  0.2235  0.4952  0.7930
36077SOL    HW111186   4.587   2.584   1.819  0.9511  0.2334  0.3129
36077SOL    HW211187   4.546   2.729   1.825 -0.1517  0.0731 -2.0100
36078SOL     OW11188  10.310   4.102   2.564 -0.0468 -0.2144  0.1756
36078SOL    HW111189  10.394   4.064   2.538  0.8640  1.1096  1.0594
36078SOL    HW211190  10.322   4.127   2.656 -1.3906  0.0754  0.2975
36079SOL     OW11191   4.165   4.283   0.463 -0.7465 -0.1107 -0.1048
36079SOL    HW111192   4.088   4.226   0.458  0.1510 -1.6905  2.3832
36079SOL    HW211193   4.235   4.226   0.496  2.0185  0.8574 -3.6909
36080SOL     OW11194   3.625   4.804   1.244  0.9947  0.4524  0.1466
36080SOL    HW111195   3.691   4.848   1.297  1.8424 -0.4159 -0.1606
36080SOL    HW211196   3.675   4.757   1.177  0.1147 -0.6819  0.2499
36081SOL     OW11197   9.701   5.296   0.410  0.2317  0.1191 -0.0957
36081SOL    HW111198   9.609   5.289   0.384 -0.3197  0.5543  1.6489
36081SOL    HW211199   9.714   5.388   0.432  0.9294 -0.0559  0.2619
36082SOL     OW11200   4.012   0.080   5.006  0.6075 -0.0208 -0.0356
36082SOL    HW111201   3.978   0.167   5.027  0.0018 -0.3024  0.1632
36082SOL    HW211202   4.041   0.087   4.915 -0.0996  0.1910 -0.2500
36083SOL     OW11203   3.227   4.323   1.673  0.3207 -0.4517 -0.0485
36083SOL    HW111204   3.306   4.346   1.623  2.8361 -2.9397  2.4443
36083SOL    HW211205   3.209   4.401   1.726  0.8051  0.2812 -0.9230
36084SOL     OW11206   3.539   9.994   8.583 -0.6184  0.3666  0.0512
36084SOL    HW111207   3.454   9.988   8.626  0.0462 -0.2756  1.3645
36084SOL    HW211208   3.569  10.083   8.601 -0.6064  0.2884  0.4266
36085SOL     OW11209   8.995   5.193   6.312  0.2835  0.5826 -0.2613
36085SOL    HW111210   8.957   5.262   6.258 -2.2772 -2.0216 -2.1075
36085SOL    HW211211   9.048   5.142   6.251  1.2450  0.2639  0.8090
36086SOL     OW11212   6.465   3.253   9.746 -0.1471  0.0788 -0.5824
36086SOL    HW111213   6.457   3.286   9.836  0.2925  1.7105 -1.0972
36086SOL    HW211214   6.375   3.236   9.719 -0.2602 -0.8011  0.2719
36087SOL     OW11215   1.270   0.405   3.597 -0.2144  0.3081  0.1255
36087SOL    HW111216   1.244   0.416   3.688 -2.7960 -1.6491 -0.2769
36087SOL    HW211217   1.238   0.483   3.553 -0.8594  0.2879  0.5459
36088SOL     OW11218   2.665   8.792   8.601  0.3843 -0.0767 -0.1654
36088SOL    HW111219   2.626   8.879   8.603 -0.4180 -0.3940 -1.2397
36088SOL    HW211220   2.656   8.760   8.691  0.2759  0.7578  0.1335
36089SOL     OW11221   7.384   6.410   4.804 -0.4989 -0.9916  0.1298
36089SOL    HW111222   7.467   6.450   4.780 -0.2437 -0.4797  1.7054
36089SOL    HW211223   7.383   6.415   4.900 -1.1078 -3.4743  0.3126
36090SOL     OW11224   8.645   4.409   0.286  0.0014  0.2211  0.2585
36090SOL    HW111225   8.580   4.362   0.235  2.2049 -3.3935  0.4476
36090SOL    HW211226   8.724   4.410   0.231  0.8631  1.1930  1.4326
36091SOL     OW11227   6.142   8.296   4.488 -0.1177  0.2637  0.1513
36091SOL    HW111228   6.138   8.249   4.571 -0.7165 -1.3767 -0.7634
36091SOL    HW211229   6.235   8.292   4.464 -0.1350 -0.3731  0.1543
36092SOL     OW11230   4.791   3.589   9.512  0.0837 -0.4955  0.5539
36092SOL    HW111231   4.747   3.509   9.482  2.1851 -1.3275 -0.5513
36092SOL    HW211232   4.743   3.660   9.470  1.8726 -1.5314 -3.8697
36093SOL     OW11233  10.548   6.326   9.186 -0.0041 -0.5159 -0.4196
36093SOL    HW111234  10.473   6.359   9.136 -1.2987  1.9136  2.8373
36093SOL    HW211235  10.511   6.297   9.269  2.5119 -0.5173  0.7814
36094SOL     OW11236   3.581   7.293   4.219 -0.0227 -0.3693 -0.4536
36094SOL    HW111237   3.613   7.369   4.268 -0.9391  0.4551 -1.0973
36094SOL    HW211238   3.521   7.249   4.280 -0.3588  0.0635 -0.4708
36095SOL     OW11239   0.631  10.495   1.065  0.1203 -0.4671  0.3811
36095SOL    HW111240   0.593  10.409   1.044  1.2623 -0.6729 -0.9890
36095SOL    HW211241   0.722  10.488   1.037  0.1931  1.2566  0.0978
36096SOL     OW11242  10.664   7.066   0.265 -0.2210  0.5002 -0.2981
36096SOL    HW111243  10.674   7.022   0.349  1.5296  2.5625  0.6663
36096SOL    HW211244  10.735   7.032   0.210 -0.7911 -0.1534 -0.6458
36097SOL     OW11245   7.934   9.346   0.379 -0.3017 -0.2071  0.2244
36097SOL    HW111246   7.968   9.416   0.324 -0.6942 -2.1228 -2.6509
36097SOL    HW211247   8.003   9.280   0.382 -0.7303 -0.6425  1.0695
36098SOL     OW11248   5.258  10.676   2.975 -0.1064 -0.4017  0.9036
36098SOL    HW111249   5.286  10.723   2.896 -0.9703 -0.7304  0.3857
36098SOL    HW211250   5.338  10.666   3.027  1.0606 -2.5076 -1.1169
36099SOL     OW11251   1.636   6.438   0.430 -0.6991 -0.0266  0.1142
36099SOL    HW111252   1.702   6.372   0.451 -0.2936 -0.0436 -1.1447
36099SOL    HW211253   1.686   6.518   0.414 -0.9029 -0.2086 -1.5430
36100SOL     OW11254   3.311   5.883   6.402  0.8266 -0.2848 -0.8517
36100SOL    HW111255   3.248   5.853   6.468  1.4750  0.5658  0.1882
36100SOL    HW211256   3.352   5.802   6.370 -1.9241 -1.0612 -2.8264
36101SOL     OW11257   2.203   1.591   1.687  0.1509  0.0640  0.2497
36101SOL    HW111258   2.114   1.623   1.676 -0.9993 -2.9589 -0.3494
36101SOL    HW211259   2.213   1.579   1.782 -0.8920 -1.4997  0.1896
36102SOL     OW11260   3.773   9.791   8.638  0.4474  0.3613  0.6115
36102SOL    HW111261   3.741   9.737   8.710 -1.8307 -0.7011 -1.0618
36102SOL    HW211262   3.714   9.867   8.637  0.8778  0.6971  0.2884
36103SOL     OW11263   3.012   1.074  10.174  1.1089 -0.2484  0.0756
36103SOL    HW111264   3.031   1.085  10.081 -0.4672  0.0969 -0.2342
36103SOL    HW211265   3.015   1.163  10.209 -0.4098 -0.0894 -0.1127
36104SOL     OW11266   2.244   8.008   2.336 -0.0482 -0.1656  0.3542
36104SOL    HW111267   2.258   8.091   2.290  0.1867 -0.6053 -0.3795
36104SOL    HW211268   2.257   8.029   2.428  0.0129  0.6129  0.1743
36105SOL     OW11269   2.752   4.061   7.660  0.1814  0.3308 -0.1752
36105SOL    HW111270   2.729   4.147   7.693 -1.5492  0.9187 -2.6616
36105SOL    HW211271   2.835   4.074   7.613 -1.4358  1.3838 -2.9429
36106SOL     OW11272   4.575   4.809   3.973  0.1790 -0.1165 -0.0692
36106SOL    HW111273   4.597   4.884   4.028 -0.2675  2.4215 -3.0536
36106SOL    HW211274   4.479   4.813   3.963  0.0630 -1.5233  0.2688
36107SOL     OW11275   2.339   7.676   3.627  0.1249  0.1530 -0.5557
36107SOL    HW111276   2.303   7.764   3.641 -1.5542 -0.4036 -1.1970
36107SOL    HW211277   2.397   7.662   3.702  0.3453  1.7547 -0.3871
36108SOL     OW11278   1.542   9.948   8.327 -0.0270  0.5797 -0.3285
36108SOL    HW111279   1.486   9.968   8.251 -0.5959 -0.8681 -0.3181
36108SOL    HW211280   1.480   9.924   8.396  0.4696  2.2941  0.7524
36109SOL     OW11281   4.757   9.781  10.686  0.2806  0.0492 -0.3623
36109SOL    HW111282   4.754   9.727  10.607 -0.5498  0.5342 -0.6830
36109SOL    HW211283   4.770   9.720  10.758  1.6239 -0.3498 -0.9200
36110SOL     OW11284   1.828   0.009   5.909 -0.4627  0.1734  0.4489
36110SOL    HW111285   1.866   0.086   5.951 -0.5682  1.2911 -1.4004
36110SOL    HW211286   1.904  -0.038   5.874 -0.5461  0.6585 -0.3951
36111SOL     OW11287   4.966   8.507   3.471 -0.2610  0.1429 -0.0342
36111SOL    HW111288   4.955   8.539   3.381  0.2040 -2.0968 -0.9495
36111SOL    HW211289   5.058   8.481   3.476 -0.0791  0.9075  1.3784
36112SOL     OW11290   2.477   8.461   5.947  0.7502  0.4238  0.3390
36112SOL    HW111291   2.495   8.441   5.855  0.2916  2.0675 -0.1303
36112SOL    HW211292   2.394   8.508   5.946  0.6873  0.3759  1.6181
36113SOL     OW11293   4.403   4.263   4.078  0.4396 -0.0545 -0.2329
36113SOL    HW111294   4.320   4.272   4.123  1.1784  1.1988  0.9461
36113SOL    HW211295   4.380   4.263   3.985 -1.1189 -2.7324  0.0523
36114SOL     OW11296   2.504  10.127   2.262 -0.7061  0.6190  0.5608
36114SOL    HW111297   2.500  10.036   2.234  1.8177  0.5265  0.2009
36114SOL    HW211298   2.497  10.177   2.180  2.4622  0.4962  0.0865
36115SOL     OW11299   3.854   5.702  10.337  0.0792 -0.4091 -0.1317
36115SOL    HW111300   3.764   5.734  10.336  0.4992  0.7978 -0.7227
36115SOL    HW211301   3.849   5.620  10.387 -1.7105 -1.4711 -1.8920
36116SOL     OW11302   9.263   3.412   2.451  0.1919 -0.0628 -0.0266
36116SOL    HW111303   9.260   3.472   2.526  0.8169 -0.5492  0.4075
36116SOL    HW211304   9.249   3.467   2.375  0.1024  0.5353  0.4166
36117SOL     OW11305   5.362   7.846   9.614 -0.0916  0.2677 -0.1948
36117SOL    HW111306   5.406   7.854   9.529  1.3382  0.9331  0.5652
36117SOL    HW211307   5.429   7.872   9.678 -1.0499 -0.4649  1.1586
36118SOL     OW11308   6.651   0.285   8.624 -0.2993 -0.0571 -0.5511
36118SOL    HW111309   6.642   0.379   8.615  0.9213  0.1471  0.2003
36118SOL    HW211310   6.562   0.254   8.644 -0.5598  1.0327  0.0308
36119SOL     OW11311   3.399   9.122   3.707  0.0839  0.5452  0.1957
36119SOL    HW111312   3.413   9.181   3.782 -0.0345  0.0321  0.6223
36119SOL    HW211313   3.387   9.182   3.633 -0.3325  1.0722  0.6728
36120SOL     OW11314   2.262  10.297   2.677 -0.0233  0.3882  0.2032
36120SOL    HW111315   2.325  10.367   2.667  1.4089 -0.6946  1.2013
36120SOL    HW211316   2.257  10.256   2.590  1.2186  0.0288  0.2923
36121SOL     OW11317   2.578   7.058   0.653  0.1917  0.1561  0.3278
36121SOL    HW111318   2.619   7.056   0.739 -0.1349  1.5667  0.5494
36121SOL    HW211319   2.622   6.989   0.604  3.8440  2.3637  0.0998
36122SOL     OW11320  10.349   7.885   2.684 -0.4576 -0.2863 -0.1239
36122SOL    HW111321  10.318   7.941   2.755  1.9211  0.0771  0.7262
36122SOL    HW211322  10.278   7.886   2.620 -0.6326  3.6314 -0.1102
36123SOL     OW11323   4.487   2.897   6.985 -0.2707 -0.3912 -0.0308
36123SOL    HW111324   4.489   2.814   6.937  0.6650 -0.7665  0.6412
36123SOL    HW211325   4.570   2.940   6.963 -0.7416  0.3768 -0.3703
36124SOL     OW11326   2.867   0.023   4.373  0.3286  0.0528 -0.1981
36124SOL    HW111327   2.917   0.004   4.294  2.3572 -1.1751  1.3014
36124SOL    HW211328   2.814  -0.055   4.388  1.2938 -0.4707  0.5965
36125SOL     OW11329  10.642   8.595   9.174 -0.2682 -0.3320  0.2888
36125SOL    HW111330  10.642   8.568   9.082 -0.0142  0.0189  0.1856
36125SOL    HW211331  10.712   8.544   9.214 -0.5423 -0.6714  0.3471
36126SOL     OW11332   8.226   5.218   1.034  0.0504 -0.3702 -0.1319
36126SOL    HW111333   8.228   5.157   1.108 -0.7765  0.6099  0.7416
36126SOL    HW211334   8.133   5.240   1.024 -0.1141 -1.8183 -2.6347
36127SOL     OW11335   8.942   0.094   3.846 -0.2154 -0.2171  0.8751
36127SOL    HW111336   8.948   0.185   3.818  0.7089  0.2074  2.3447
36127SOL    HW211337   8.932   0.044   3.765 -2.0152  1.2641  0.1150
36128SOL     OW11338   0.135   4.598   1.038 -0.6566 -0.6525  0.0883
36128SOL    HW111339   0.042   4.621   1.036  0.1823  3.6108  0.0221
36128SOL    HW211340   0.165   4.610   0.948  0.2936  0.0168  0.4670
36129SOL     OW11341   9.495   5.157   6.905  0.1062 -0.1618 -0.5115
36129SOL    HW111342   9.451   5.195   6.981  0.3849 -0.1187 -0.3711
36129SOL    HW211343   9.426   5.148   6.840 -0.2108 -0.5449 -0.1238
36130SOL     OW11344   5.794   7.086  10.141 -0.4805 -0.0142 -0.0023
36130SOL    HW111345   5.815   7.041  10.060 -0.6656 -0.7516  0.3490
36130SOL    HW211346   5.853   7.048  10.206  1.7169  2.5783 -0.3055
36131SOL     OW11347   5.223   3.592   4.911  0.2562  0.7143  0.2322
36131SOL    HW111348   5.128   3.599   4.904  0.3326  3.2022  0.7169
36131SOL    HW211349   5.252   3.574   4.821 -0.6704 -0.6057  0.1743
36132SOL     OW11350  10.445   2.330   8.722 -0.1326 -0.2041  0.2482
36132SOL    HW111351  10.500   2.335   8.800  0.5753 -1.4868 -0.1354
36132SOL    HW211352  10.505   2.305   8.652 -0.6736  1.3043 -0.8180
36133SOL     OW11353   8.672   4.405  10.120  0.2304  0.2506  0.7781
36133SOL    HW111354   8.600   4.396  10.181  1.3709 -0.7683  2.0275
36133SOL    HW211355   8.716   4.486  10.146 -0.5130  0.9357 -0.0596
36134SOL     OW11356   1.967   6.359   9.899 -0.3571  0.0352  0.0994
36134SOL    HW111357   1.996   6.361   9.807  0.6971 -0.0232  0.4214
36134SOL    HW211358   1.949   6.450   9.920  1.7181  0.3759  0.5365
36135SOL     OW11359   1.857   4.297   1.828 -0.0814 -0.2979  0.0624
36135SOL    HW111360   1.843   4.337   1.913 -0.4817 -1.2480  0.4570
36135SOL    HW211361   1.770   4.268   1.800 -0.0919  0.7331 -1.0563
36136SOL     OW11362   3.789   6.258   3.400 -0.3404 -0.0659  0.1323
36136SOL    HW111363   3.723   6.273   3.467  0.4738 -1.7340  1.3964
36136SOL    HW211364   3.818   6.345   3.374  0.1272  0.6673  2.8062
36137SOL     OW11365   2.802   9.806  10.384 -0.3911 -0.3203  0.1626
36137SOL    HW111366   2.889   9.845  10.395 -0.3874  0.2837 -1.7447
36137SOL    HW211367   2.755   9.832  10.463  1.0357 -0.3755  1.0817
36138SOL     OW11368   3.322   2.003   1.034  0.1007  0.0255  0.1657
36138SOL    HW111369   3.348   1.959   0.953 -1.9624 -1.3473  0.1792
36138SOL    HW211370   3.399   1.996   1.090  0.7573 -1.1520 -0.8296
36139SOL     OW11371  10.582   4.477   1.554  0.0897 -0.2713  0.0176
36139SOL    HW111372  10.619   4.458   1.468  2.1446 -0.2792  0.8538
36139SOL    HW211373  10.600   4.570   1.568 -0.6413 -0.1574  0.2793
36140SOL     OW11374   1.953   7.984   1.153  0.2913  0.4110  0.6658
36140SOL    HW111375   1.900   7.909   1.180  1.4018  0.2929  2.6346
36140SOL    HW211376   2.011   7.949   1.085  0.3238 -0.3349  1.0696
36141SOL     OW11377   3.985   1.089   4.187  0.1965 -0.1015  0.5673
36141SOL    HW111378   4.018   1.024   4.125 -1.0172  0.7830 -1.0988
36141SOL    HW211379   3.929   1.040   4.247 -1.0547 -0.5599 -0.9362
36142SOL     OW11380   7.655   5.550  10.617 -0.5181 -0.4211 -0.4118
36142SOL    HW111381   7.570   5.594  10.610 -1.0084 -1.1322  0.7798
36142SOL    HW211382   7.634   5.457  10.617  0.2191 -0.6005  0.3404
36143SOL     OW11383   1.527  10.623   9.633  0.2155 -0.6050  0.0435
36143SOL    HW111384   1.451  10.679   9.644  0.4119 -0.4355  0.5765
36143SOL    HW211385   1.543  10.621   9.538 -0.1214 -0.2073 -0.0213
36144SOL     OW11386   8.718  10.052   5.514 -0.1231 -0.2946  0.1822
36144SOL    HW111387   8.623  10.047   5.521 -0.1750 -0.3769 -0.5607
36144SOL    HW211388   8.741   9.994   5.442  0.1665  2.2473 -1.9182
36145SOL     OW11389   2.345   8.116   6.764 -0.3918 -0.3298 -0.1169
36145SOL    HW111390   2.409   8.075   6.822 -0.7995 -1.9153 -0.7324
36145SOL    HW211391   2.261   8.081   6.794 -1.0656  2.0639  0.9643
36146SOL     OW11392   5.755   7.957   5.888  0.2513  0.4251 -0.0863
36146SOL    HW111393   5.764   7.885   5.825 -1.8834  0.7215 -0.8154
36146SOL    HW211394   5.844   7.992   5.898  1.1292 -1.4996 -0.6560
36147SOL     OW11395   4.783  10.084   9.708  0.2576 -0.1010 -0.1256
36147SOL    HW111396   4.788  10.024   9.634  0.7795 -1.2949  0.8541
36147SOL    HW211397   4.803  10.170   9.670  0.6507 -0.7062 -1.3389
36148SOL     OW11398  10.122   5.803   2.769 -0.5905 -0.2135  0.7089
36148SOL    HW111399  10.152   5.882   2.814 -0.8669  0.6497 -0.5800
36148SOL    HW211400  10.067   5.835   2.697  0.6108 -1.4913 -0.8522
36149SOL     OW11401   8.258   1.860   2.263 -0.1122 -0.3154  0.5553
36149SOL    HW111402   8.298   1.813   2.336 -0.6409 -0.8272  0.5186
36149SOL    HW211403   8.326   1.921   2.233  0.1282 -0.1471  1.4292
36150SOL     OW11404   0.904   2.325   0.714  0.2121  0.3823  0.2230
36150SOL    HW111405   0.861   2.378   0.647  0.5176  1.7957  1.1059
36150SOL    HW211406   0.960   2.265   0.665  1.3161  2.1545 -0.7907
36151SOL     OW11407   7.511   2.179   7.284  0.0602  0.1616 -0.6614
36151SOL    HW111408   7.596   2.136   7.277  0.5142  0.7301  0.8824
36151SOL    HW211409   7.532   2.267   7.316 -1.1140  0.3275 -0.3153
36152SOL     OW11410   7.395   7.532   0.408 -0.5887 -0.1033 -0.1371
36152SOL    HW111411   7.482   7.561   0.435 -0.5461 -0.9180  0.6524
36152SOL    HW211412   7.408   7.498   0.320 -0.3927  1.0380 -0.5750
36153SOL     OW11413   9.701   8.324   5.125  0.3570  0.3006 -0.3430
36153SOL    HW111414   9.770   8.264   5.157  0.2811  0.1634 -0.4362
36153SOL    HW211415   9.689   8.386   5.197  0.5069  0.2646 -0.2848
36154SOL     OW11416   8.658  10.483   5.861  0.4966 -0.5020  0.3916
36154SOL    HW111417   8.720  10.414   5.885  1.2680 -0.5397 -1.5448
36154SOL    HW211418   8.606  10.446   5.790  0.4120  0.6348 -0.1743
36155SOL     OW11419   8.512   1.440   2.790  0.0117  0.4980 -0.3937
36155SOL    HW111420   8.419   1.448   2.766 -0.7845  3.3009  2.8028
36155SOL    HW211421   8.545   1.530   2.784  2.5310 -0.3980 -1.1949
36156SOL     OW11422   3.921   3.754   2.262  0.4273 -0.0391 -0.3447
36156SOL    HW111423   4.014   3.733   2.250  0.8275  0.7809  1.0438
36156SOL    HW211424   3.912   3.843   2.227  0.2535  0.0143 -0.1662
36157SOL     OW11425   1.403   3.155   7.561  0.6192 -0.5783 -0.0335
36157SOL    HW111426   1.434   3.082   7.615 -1.3459 -1.5374 -0.1156
36157SOL    HW211427   1.422   3.128   7.471  1.8773  0.0276  0.0299
36158SOL     OW11428   6.450   9.849   9.673  1.0935 -0.1088 -0.4455
36158SOL    HW111429   6.457   9.755   9.660 -0.5926 -0.3402  0.0963
36158SOL    HW211430   6.383   9.877   9.610  3.5556  1.2541 -2.6591
36159SOL     OW11431   3.026   3.149   1.511  0.1901  0.2148  0.0833
36159SOL    HW111432   3.083   3.225   1.495 -2.3750  2.2828  0.0683
36159SOL    HW211433   3.010   3.151   1.605 -1.3844  0.9162 -0.1625
36160SOL     OW11434   5.283   7.584   0.567 -0.4839  0.4984  0.6661
36160SOL    HW111435   5.235   7.566   0.647  0.0227 -1.6520  0.5539
36160SOL    HW211436   5.248   7.521   0.503  1.8028 -0.5647  0.3513
36161SOL     OW11437   3.877   5.106   8.987 -0.5615 -0.0339  0.2073
36161SOL    HW111438   3.897   5.039   8.921  0.0725  2.2944 -2.1267
36161SOL    HW211439   3.803   5.069   9.036 -1.2316 -1.8211 -1.9406
36162SOL     OW11440   2.832   3.134   3.363 -0.4303  0.8469  0.2434
36162SOL    HW111441   2.747   3.128   3.320 -0.3457 -1.0212  0.2417
36162SOL    HW211442   2.895   3.105   3.297 -0.0328  0.3165  0.8352
36163SOL     OW11443   7.934   8.433  10.527  0.4654  0.5975 -0.0390
36163SOL    HW111444   7.903   8.487  10.454 -3.4547 -0.0300  0.9476
36163SOL    HW211445   7.986   8.493  10.581  0.2317  2.0681 -1.3745
36164SOL     OW11446   6.730   6.669   2.450 -0.4330  0.1204  0.0902
36164SOL    HW111447   6.801   6.720   2.409 -1.4478 -0.1578 -2.1729
36164SOL    HW211448   6.753   6.578   2.431 -1.5904  0.0479 -1.0784
36165SOL     OW11449   9.656   6.699   5.469  0.4338  0.1620  0.2434
36165SOL    HW111450   9.750   6.713   5.470  0.3261  0.9995  1.9046
36165SOL    HW211451   9.626   6.729   5.555 -1.1284 -1.6472  0.4000
36166SOL     OW11452   0.525   9.192   9.342  0.2889  0.0342 -0.4022
36166SOL    HW111453   0.530   9.286   9.357 -0.0732 -0.0534  0.3445
36166SOL    HW211454   0.615   9.161   9.354  0.0881  0.0219  1.3953
36167SOL     OW11455   7.049   6.193   7.498 -0.0700 -0.0443 -0.0692
36167SOL    HW111456   6.989   6.206   7.572  0.2559  1.6374 -0.0722
36167SOL    HW211457   7.014   6.248   7.428  0.1151 -0.9499 -0.8962
36168SOL     OW11458   8.767   5.903   1.169 -0.0651 -0.6387  0.3447
36168SOL    HW111459   8.680   5.916   1.131  0.0657 -0.9721 -0.0863
36168SOL    HW211460   8.794   5.816   1.138  1.0246  0.0583 -0.7650
36169SOL     OW11461   1.376   5.697   0.287 -0.7913  0.3066  0.0507
36169SOL    HW111462   1.440   5.768   0.290 -0.3435  0.0258 -1.8014
36169SOL    HW211463   1.402   5.638   0.358 -0.8483  1.6705  1.2699
36170SOL     OW11464   4.910   2.683   3.048 -0.0079  0.0007 -0.2140
36170SOL    HW111465   4.980   2.709   2.989  1.0048  2.2312  1.7983
36170SOL    HW211466   4.955   2.643   3.123 -0.8907  0.7541  0.7576
36171SOL     OW11467   9.036   2.705   1.527 -0.5598 -0.0748  0.4042
36171SOL    HW111468   9.114   2.750   1.559  1.4801 -3.9567  1.4752
36171SOL    HW211469   8.963   2.753   1.568  1.4970  0.8807  3.2839
36172SOL     OW11470   1.498   4.646   6.033 -0.4196  0.4918 -0.2542
36172SOL    HW111471   1.447   4.720   6.000 -1.9143 -0.4106 -0.0833
36172SOL    HW211472   1.568   4.634   5.969 -1.1248  1.0332 -1.1464
36173SOL     OW11473   4.384   7.335   0.472  0.2084 -0.0790  0.0894
36173SOL    HW111474   4.402   7.250   0.432 -0.6189  0.1782 -0.8450
36173SOL    HW211475   4.289   7.339   0.480  0.3411 -0.6768  3.3431
36174SOL     OW11476   3.944   9.014   3.864 -0.5183  0.1674  0.2235
36174SOL    HW111477   3.925   8.925   3.834 -0.1718  0.6977 -1.7312
36174SOL    HW211478   4.037   9.011   3.890 -0.9243 -0.3936  1.7127
36175SOL     OW11479  10.588   0.877   2.714  1.0618 -0.3145 -0.8216
36175SOL    HW111480  10.508   0.858   2.764  2.7088 -0.4093  1.9984
36175SOL    HW211481  10.600   0.972   2.724  2.6741 -0.6534  1.2012
36176SOL     OW11482   0.885   2.436   3.289 -0.0096  0.1555  0.1270
36176SOL    HW111483   0.897   2.484   3.208 -0.4520 -0.9563 -0.6322
36176SOL    HW211484   0.800   2.464   3.322 -0.4179 -0.3239 -0.4889
36177SOL     OW11485   3.845   4.017   9.465 -0.2942  0.4611  0.2957
36177SOL    HW111486   3.795   4.055   9.538 -1.6929  1.4694 -1.1091
36177SOL    HW211487   3.810   4.061   9.388  0.4757 -1.2509 -1.0855
36178SOL     OW11488   4.582   0.553   9.157  0.7181 -0.2274  0.0929
36178SOL    HW111489   4.649   0.524   9.096 -1.6270 -1.4129 -2.1334
36178SOL    HW211490   4.597   0.647   9.167  1.0466  0.0859 -2.6101
36179SOL     OW11491   2.622  10.492   1.828 -0.4001  0.1280  0.6357
36179SOL    HW111492   2.639  10.405   1.864  0.4371 -0.5484 -1.2348
36179SOL    HW211493   2.683  10.499   1.754  0.4659  2.8235  1.4763
36180SOL     OW11494   1.739   9.296   4.201  0.1805 -0.1672  0.0265
36180SOL    HW111495   1.648   9.288   4.230  0.1664 -1.2330 -0.2806
36180SOL    HW211496   1.733   9.316   4.108  0.2559  0.5023  0.1635
36181SOL     OW11497   5.974  10.208  10.329  0.5328  0.0990  0.1530
36181SOL    HW111498   6.044  10.163  10.282 -1.0575  0.2032 -2.5291
36181SOL    HW211499   5.915  10.138  10.356  0.4542  0.1981  0.2386
36182SOL     OW11500   2.387   3.447   0.298  0.3236 -0.1237  0.1194
36182SOL    HW111501   2.311   3.499   0.323 -0.5832 -0.9528 -0.8204
36182SOL    HW211502   2.397   3.383   0.369  0.0627 -0.0909  0.1856
36183SOL     OW11503  10.469   0.231   6.964 -0.0431  0.2038  0.5384
36183SOL    HW111504  10.422   0.149   6.947 -1.2311  0.8545  0.5318
36183SOL    HW211505  10.406   0.284   7.012 -0.5728  2.3927 -2.3018
36184SOL     OW11506   9.084   5.640   5.501  0.2962  0.2234  0.4263
36184SOL    HW111507   9.125   5.581   5.438  0.9103 -0.4811  1.4750
36184SOL    HW211508   9.156   5.688   5.541 -0.1669  1.4616 -0.1499
36185SOL     OW11509   0.710   9.779   9.632 -0.3441  0.5687 -0.0839
36185SOL    HW111510   0.777   9.792   9.699  0.5137 -1.6340 -0.4390
36185SOL    HW211511   0.680   9.868   9.612  2.5954  1.6943 -0.0591
36186SOL     OW11512   5.077   7.335   1.846 -0.0138 -0.0994 -0.1184
36186SOL    HW111513   5.028   7.383   1.779  0.7803  1.7057  0.5575
36186SOL    HW211514   5.015   7.323   1.917 -0.1841  0.0138 -0.2462
36187SOL     OW11515   3.307   6.573   2.827  0.1420  0.2206  0.3275
36187SOL    HW111516   3.265   6.655   2.801 -0.3615 -0.2501 -0.3679
36187SOL    HW211517   3.239   6.524   2.873 -0.1908 -0.6566 -1.0271
36188SOL     OW11518   8.261   9.058   6.175 -0.2938  0.2933 -0.4513
36188SOL    HW111519   8.276   9.055   6.270 -0.1852 -2.7528 -0.4595
36188SOL    HW211520   8.326   8.999   6.138 -1.4964  0.0022 -2.2432
36189SOL     OW11521   6.440  10.692   5.266  0.3466 -0.1843 -0.0366
36189SOL    HW111522   6.515  10.658   5.217 -0.8278 -0.7110 -1.5850
36189SOL    HW211523   6.418  10.623   5.328 -0.9858 -1.6562 -2.0144
36190SOL     OW11524   9.754   2.704   0.997 -0.0520 -0.3734  0.0062
36190SOL    HW111525   9.782   2.657   1.075 -3.0934 -1.9368  0.3167
36190SOL    HW211526   9.750   2.796   1.023  0.4107 -0.6832  1.2063
36191SOL     OW11527  10.639   5.417   1.726 -0.4523 -0.1546 -0.0600
36191SOL    HW111528  10.547   5.393   1.721 -0.5742  0.1762  0.5366
36191SOL    HW211529  10.665   5.394   1.815 -0.0864  0.2075 -0.0725
36192SOL     OW11530   5.044   9.063   6.637  0.2839 -0.6453 -0.0487
36192SOL    HW111531   5.052   9.019   6.552  0.6502 -0.9104  0.1180
36192SOL    HW211532   5.093   9.007   6.697 -1.1687 -1.2455  0.6321
36193SOL     OW11533   3.588   6.966   4.787  0.1410 -0.4777  0.1893
36193SOL    HW111534   3.616   6.971   4.878  0.3844  2.3148  0.0265
36193SOL    HW211535   3.662   6.926   4.741  0.7822 -0.1718  0.9349
36194SOL     OW11536   2.896   2.560   8.434  0.4307 -0.3877 -0.5853
36194SOL    HW111537   2.969   2.520   8.387  0.0467 -1.5620 -0.2308
36194SOL    HW211538   2.844   2.485   8.464  0.2161  0.3675  0.9734
36195SOL     OW11539   6.977   8.357   0.973 -0.2127  0.3145  0.0310
36195SOL    HW111540   6.973   8.262   0.962  0.9213  0.3386 -0.7574
36195SOL    HW211541   6.962   8.393   0.886 -1.6005  0.9081  0.4900
36196SOL     OW11542   8.568   1.467   6.904  0.2926 -0.3423  0.3552
36196SOL    HW111543   8.621   1.430   6.833  0.3693 -2.1784  1.2975
36196SOL    HW211544   8.598   1.420   6.982 -1.6162 -0.2774  1.1768
36197SOL     OW11545   8.034   6.673   3.110  0.3590 -0.5754 -0.3403
36197SOL    HW111546   8.055   6.715   3.193 -2.3252  0.8567 -0.2923
36197SOL    HW211547   8.101   6.705   3.049 -0.4493  2.3204  0.1710
36198SOL     OW11548   3.219   2.782   5.835 -0.5148 -0.2058 -0.2943
36198SOL    HW111549   3.205   2.814   5.924 -0.5461  0.6331 -0.5897
36198SOL    HW211550   3.307   2.811   5.813 -0.5687 -0.2676 -0.5887
36199SOL     OW11551   4.137   7.745   6.957 -0.0755  0.1527  0.2132
36199SOL    HW111552   4.180   7.783   6.881  0.4498 -2.2493 -0.8037
36199SOL    HW211553   4.064   7.695   6.920 -0.6315  0.0294  1.4265
36200SOL     OW11554   1.293  10.380   0.449  0.3617 -0.0851 -0.0708
36200SOL    HW111555   1.255  10.300   0.412  0.6975 -0.3258  0.0938
36200SOL    HW211556   1.282  10.371   0.544  0.4965  0.0132 -0.0448
36201SOL     OW11557   9.562  10.479  10.240  0.8059  0.2027  0.0239
36201SOL    HW111558   9.467  10.484  10.255  0.8739  0.2959  0.4407
36201SOL    HW211559   9.599  10.542  10.301  1.3460 -1.9214  2.0685
36202SOL     OW11560   3.592   4.205   5.216  0.7734  0.0351 -0.1396
36202SOL    HW111561   3.679   4.218   5.252  0.7776  3.3588 -1.0702
36202SOL    HW211562   3.582   4.274   5.150 -2.3728 -0.5489 -0.4386
36203SOL     OW11563   2.822   1.607   0.720 -0.4831 -0.5886  0.6142
36203SOL    HW111564   2.753   1.648   0.771  0.6271  0.8003  1.0780
36203SOL    HW211565   2.888   1.676   0.709 -0.4603 -0.9524 -2.3412
36204SOL     OW11566   5.950   2.445   2.375  0.5047  0.5111 -0.1251
36204SOL    HW111567   5.940   2.430   2.470  0.0158  0.8543 -0.1212
36204SOL    HW211568   6.000   2.369   2.345  0.8579  0.5089  0.4473
36205SOL     OW11569  10.603   3.527   6.357  0.0033 -0.2465  0.2389
36205SOL    HW111570  10.664   3.491   6.292  1.3359 -0.1193  1.3628
36205SOL    HW211571  10.537   3.573   6.305  2.6552  2.4829 -1.0706
36206SOL     OW11572   8.298   6.109  10.227 -0.8446  0.2167  0.0743
36206SOL    HW111573   8.324   6.199  10.244 -0.8640 -0.0995  2.0845
36206SOL    HW211574   8.367   6.073  10.171  0.1887  0.9340  0.8653
36207SOL     OW11575   0.885   1.941   5.603 -1.0802  0.6411 -0.2844
36207SOL    HW111576   0.850   1.908   5.686  0.9605  1.6561  1.0682
36207SOL    HW211577   0.922   1.864   5.560 -2.7271 -0.0088 -0.6032
36208SOL     OW11578   4.697   2.034   4.183  0.1123 -0.5072 -0.1870
36208SOL    HW111579   4.747   1.972   4.235 -0.7616  0.5366  2.0654
36208SOL    HW211580   4.752   2.113   4.181 -0.2479 -0.2473 -0.0315
36209SOL     OW11581   9.523   5.126  10.567 -0.7442 -0.2595 -0.3749
36209SOL    HW111582   9.586   5.123  10.639 -0.9847 -2.2488 -0.1927
36209SOL    HW211583   9.576   5.123  10.487 -0.4882  1.7321 -0.3280
36210SOL     OW11584   2.827   3.165   4.758 -0.2583  0.7693 -0.1428
36210SOL    HW111585   2.767   3.238   4.771 -0.6691  0.0686  2.3830
36210SOL    HW211586   2.773   3.087   4.769  0.5098  0.0751 -1.0820
36211SOL     OW11587   7.734   5.862   7.782  0.1530 -0.6348 -0.6275
36211SOL    HW111588   7.668   5.932   7.782  0.3605 -0.4362 -0.5422
36211SOL    HW211589   7.714   5.810   7.705  0.4374 -0.0586 -1.0971
36212SOL     OW11590   0.123   3.065   7.574 -0.2969 -0.2919  0.1716
36212SOL    HW111591   0.172   3.021   7.643  0.0673  1.4092  1.0559
36212SOL    HW211592   0.060   3.120   7.621  1.2149  2.3783 -0.6984
36213SOL     OW11593   9.360   6.559   1.150  0.3702  0.8247  0.0989
36213SOL    HW111594   9.300   6.627   1.180 -0.1056 -0.0976  1.3224
36213SOL    HW211595   9.446   6.586   1.184  0.0134  0.3332  1.4585
36214SOL     OW11596   0.061   6.099   0.596  0.1170  0.4469 -0.3584
36214SOL    HW111597   0.133   6.162   0.604  0.4069  0.0041  0.5979
36214SOL    HW211598   0.010   6.132   0.521  0.3915  1.6784 -0.0384
36215SOL     OW11599   8.047   0.908   3.289 -0.1809  0.2623  0.2087
36215SOL    HW111600   8.081   0.924   3.377  1.6685 -1.8781 -0.0216
36215SOL    HW211601   8.072   0.985   3.239  3.7953 -0.7722  0.2948
36216SOL     OW11602  10.546   2.055   5.501 -0.0383 -0.6600  0.5201
36216SOL    HW111603  10.576   2.111   5.429  0.1875 -1.8155 -0.3298
36216SOL    HW211604  10.461   2.021   5.471 -0.3431 -0.4998  1.1792
36217SOL     OW11605   5.661   9.419   9.159  0.4180 -0.5784  0.2145
36217SOL    HW111606   5.703   9.396   9.077  1.0701  1.7155 -0.1560
36217SOL    HW211607   5.572   9.383   9.151  0.1161  0.4882 -1.9673
36218SOL     OW11608   0.236   2.795   0.804  0.2871 -1.0714 -0.2685
36218SOL    HW111609   0.249   2.888   0.786  0.3484 -0.8647  0.7621
36218SOL    HW211610   0.256   2.786   0.897  0.2062 -2.1053 -0.3421
36219SOL     OW11611   7.599   3.704   0.837  0.0940 -0.0381  0.3301
36219SOL    HW111612   7.568   3.753   0.913  0.9609  1.0065  0.0416
36219SOL    HW211613   7.582   3.761   0.762 -2.2053 -1.6917 -0.5187
36220SOL     OW11614   8.853  10.051   1.731  0.7036 -0.2302  0.3940
36220SOL    HW111615   8.874  10.067   1.823  2.6950 -1.6277  0.2519
36220SOL    HW211616   8.937  10.026   1.692 -0.5892 -2.4749 -1.1574
36221SOL     OW11617   6.445   1.256   2.935  0.2839  0.2535  0.6078
36221SOL    HW111618   6.419   1.300   3.016  0.3319  1.8245 -0.1975
36221SOL    HW211619   6.541   1.258   2.937  0.2840  0.3403  0.4762
36222SOL     OW11620   1.381  10.654   3.698  0.3944  0.0454 -0.1820
36222SOL    HW111621   1.298  10.701   3.690  0.1158 -0.6390 -1.4181
36222SOL    HW211622   1.447  10.720   3.676  0.1268  0.3522 -0.0791
36223SOL     OW11623   9.444   6.254   8.278 -0.1260  0.7719  0.3178
36223SOL    HW111624   9.428   6.160   8.287  0.4965  0.7372  1.2505
36223SOL    HW211625   9.501   6.275   8.352 -0.8141  2.0088  0.5299
36224SOL     OW11626   3.645   6.517   8.133  0.5455  0.5556  0.4579
36224SOL    HW111627   3.668   6.582   8.067  0.5410 -0.0928 -0.1928
36224SOL    HW211628   3.555   6.492   8.112  0.2755  0.8975  1.1760
36225SOL     OW11629   6.970   4.520   7.455 -0.1357 -0.4271 -0.3368
36225SOL    HW111630   6.991   4.427   7.458 -0.0136 -0.4178 -0.8861
36225SOL    HW211631   6.988   4.546   7.365 -1.3290 -0.1429 -0.5109
36226SOL     OW11632   8.151   7.610   7.792  0.0178  0.2330 -0.5011
36226SOL    HW111633   8.076   7.647   7.839  0.2124 -0.1296  0.1134
36226SOL    HW211634   8.113   7.569   7.714 -0.6191 -1.1443  0.4908
36227SOL     OW11635   3.200   8.749   5.741 -0.2068 -0.3189  0.3195
36227SOL    HW111636   3.119   8.703   5.761 -1.5060  1.5698 -0.1943
36227SOL    HW211637   3.172   8.822   5.684  1.8330  0.4682  0.2286
36228SOL     OW11638   7.656   0.857   4.164 -0.2215  0.0178  0.4370
36228SOL    HW111639   7.696   0.934   4.122  1.1900 -0.4028  0.9255
36228SOL    HW211640   7.565   0.858   4.135  0.2825  0.6731 -1.2659
36229SOL     OW11641   0.464   5.969   3.509 -0.1353 -0.0238  0.2430
36229SOL    HW111642   0.443   6.016   3.589 -0.2731  1.3603 -0.5615
36229SOL    HW211643   0.519   6.029   3.459 -2.6684  0.5728 -2.1092
36230SOL     OW11644   4.374   7.923   7.247  0.5487  0.2911 -0.1257
36230SOL    HW111645   4.419   7.978   7.183  1.4345  0.3898  0.5477
36230SOL    HW211646   4.367   7.838   7.205  0.9513  0.4014 -0.4267
36231SOL     OW11647   0.678   5.890   9.494 -0.1922 -0.4084 -0.0460
36231SOL    HW111648   0.627   5.811   9.509 -1.5046  0.3633 -0.3459
36231SOL    HW211649   0.707   5.918   9.581 -0.4479 -0.7384  0.1443
36232SOL     OW11650   5.446   6.717  10.326 -0.3750 -0.1783 -0.3030
36232SOL    HW111651   5.419   6.759  10.244 -1.5626  0.7683  0.5234
36232SOL    HW211652   5.466   6.626  10.302 -0.9811  0.0103 -1.5862
36233SOL     OW11653  10.185   8.042   4.502  0.2378 -0.4672  0.0934
36233SOL    HW111654  10.115   7.982   4.529  1.1479 -0.7642  1.9238
36233SOL    HW211655  10.139   8.111   4.454 -1.2710 -0.8420  0.9272
36234SOL     OW11656   7.058   6.125   4.146  0.0286 -0.5083 -0.3355
36234SOL    HW111657   7.039   6.033   4.126 -0.7302  0.0315 -2.4935
36234SOL    HW211658   7.087   6.126   4.237  2.7009 -3.2271 -1.0324
36235SOL     OW11659   0.739   1.994   1.648 -0.5794 -0.4297 -0.2733
36235SOL    HW111660   0.690   1.974   1.568  0.5963  0.3452 -1.2096
36235SOL    HW211661   0.724   2.087   1.664 -0.0496 -0.3684 -0.1122
36236SOL     OW11662   0.637   0.717   3.808 -0.0431 -0.0453 -0.0557
36236SOL    HW111663   0.653   0.776   3.735  0.7379 -0.2284 -0.0344
36236SOL    HW211664   0.715   0.662   3.813 -0.7290 -1.0386 -0.0326
36237SOL     OW11665   0.113   7.905   7.607  0.6473 -0.5059 -0.1312
36237SOL    HW111666   0.199   7.883   7.571  1.2079 -1.2483  1.5834
36237SOL    HW211667   0.107   8.000   7.600  1.3480 -0.5010 -0.7866
36238SOL     OW11668   7.617   7.865   8.178  0.4019  1.1074  0.0577
36238SOL    HW111669   7.684   7.821   8.232 -1.5707 -0.8631  1.0652
36238SOL    HW211670   7.563   7.912   8.241 -1.5337 -0.6678 -0.1530
36239SOL     OW11671   0.172   9.543   8.941 -0.6493 -0.3217  0.4859
36239SOL    HW111672   0.203   9.488   8.869 -1.1238  1.8451 -1.4874
36239SOL    HW211673   0.117   9.609   8.899  1.0534  2.5904  2.4890
36240SOL     OW11674  10.597   3.336   6.717 -0.6066  0.3728 -0.2098
36240SOL    HW111675  10.675   3.358   6.767 -0.5094  1.1578 -0.7017
36240SOL    HW211676  10.568   3.419   6.679 -3.3764  0.7656  2.3546
36241SOL     OW11677   9.531   7.729   8.346 -0.0772  0.4239 -0.6626
36241SOL    HW111678   9.536   7.812   8.393  1.2921  0.6081 -1.1081
36241SOL    HW211679   9.621   7.708   8.323 -0.3959 -1.1796 -0.5911
36242SOL     OW11680   1.981   5.655   3.845 -0.1346 -0.3307 -0.1780
36242SOL    HW111681   1.964   5.565   3.874 -0.5891 -0.1082  0.2820
36242SOL    HW211682   2.075   5.659   3.832 -0.2859 -1.3457 -1.8400
36243SOL     OW11683   5.111   9.157   0.629  0.1038 -0.6178  0.4235
36243SOL    HW111684   5.035   9.172   0.685 -0.2809 -1.6975  0.2230
36243SOL    HW211685   5.158   9.085   0.671 -0.9816 -2.4828 -1.3414
36244SOL     OW11686   6.830   3.188   0.302  0.0488  0.0282 -0.1186
36244SOL    HW111687   6.788   3.104   0.283 -1.3187  0.2749  1.5469
36244SOL    HW211688   6.812   3.203   0.395 -1.9023  3.2986 -0.8878
36245SOL     OW11689  10.273  10.626   9.483 -0.0572 -0.5890 -0.2915
36245SOL    HW111690  10.343  10.619   9.418 -0.6903  1.5607 -1.3081
36245SOL    HW211691  10.217  10.551   9.466  2.4097 -2.9516  1.2040
36246SOL     OW11692   6.436   3.543   5.519  0.1884 -0.0180 -0.3498
36246SOL    HW111693   6.520   3.506   5.489 -0.0340 -0.2377 -0.7041
36246SOL    HW211694   6.458   3.586   5.602  0.1759 -2.2766  0.9231
36247SOL     OW11695   3.751   8.709   3.294  0.2149 -0.3012 -0.4743
36247SOL    HW111696   3.791   8.779   3.242  1.2218 -0.5756 -0.0957
36247SOL    HW211697   3.719   8.647   3.229 -0.6187  0.4571 -0.8116
36248SOL     OW11698   9.933   9.522   5.012  0.1290 -0.7912 -0.2435
36248SOL    HW111699   9.897   9.455   4.954 -0.5984 -0.6339  0.0256
36248SOL    HW211700   9.887   9.510   5.095  1.5322 -1.3737  0.5054
36249SOL     OW11701   8.299   7.901   2.724 -0.1502 -0.3820  0.4687
36249SOL    HW111702   8.239   7.975   2.736  0.9231  0.5147  0.4344
36249SOL    HW211703   8.263   7.853   2.649  0.1112  1.1007 -0.6518
36250SOL     OW11704   7.692   4.408   5.305  0.4754  0.1696  0.2023
36250SOL    HW111705   7.707   4.443   5.392 -1.2017 -0.3821  0.7607
36250SOL    HW211706   7.684   4.485   5.249 -2.9526  0.8333  1.3662
36251SOL     OW11707   5.043   6.882   4.660 -0.3354  0.1620  0.0388
36251SOL    HW111708   5.009   6.876   4.571 -0.1530  1.7440 -0.1628
36251SOL    HW211709   4.966   6.873   4.716 -1.1268  3.2285 -0.3946
36252SOL     OW11710   1.807   9.588   0.041  0.0513  0.1799 -0.3676
36252SOL    HW111711   1.834   9.499   0.020 -0.2855  0.1425 -0.6527
36252SOL    HW211712   1.743   9.578   0.111 -0.2979  0.1667 -0.6861
36253SOL     OW11713   4.337   7.895   2.533  0.2132  0.0900 -0.1776
36253SOL    HW111714   4.399   7.966   2.523  2.2272 -1.4712  0.4289
36253SOL    HW211715   4.302   7.906   2.622 -1.5455  1.7908 -1.0230
36254SOL     OW11716   3.518   2.468   0.512  0.4659  0.7429 -0.7698
36254SOL    HW111717   3.447   2.405   0.530 -0.1026  2.0971  2.4782
36254SOL    HW211718   3.495   2.507   0.428 -1.0765 -0.8724 -1.1565
36255SOL     OW11719   8.552   3.949  10.252 -0.0074  0.4727  0.0971
36255SOL    HW111720   8.645   3.972  10.251 -0.6619  3.8679 -2.8501
36255SOL    HW211721   8.540   3.893  10.175 -0.4448  0.3164  0.2731
36256SOL     OW11722   6.273   8.722   6.287 -0.1295  0.5148 -0.6557
36256SOL    HW111723   6.215   8.716   6.363 -0.1475 -1.0024 -0.7732
36256SOL    HW211724   6.358   8.695   6.320 -0.1871 -0.3716 -1.2099
36257SOL     OW11725   2.784   2.358  10.108  0.2762  0.4356 -0.0165
36257SOL    HW111726   2.733   2.431  10.142 -1.6922 -0.3182 -1.1851
36257SOL    HW211727   2.829   2.395  10.031  1.5121  1.0837  0.9795
36258SOL     OW11728   5.167   9.226   0.089 -0.6583  0.2072 -0.1263
36258SOL    HW111729   5.114   9.303   0.070 -0.2657  0.3078 -0.8291
36258SOL    HW211730   5.133   9.194   0.173 -1.8586  0.2350 -0.5867
36259SOL     OW11731   9.916   4.396   2.688  0.0561  0.0398  0.7839
36259SOL    HW111732   9.939   4.324   2.629 -1.2632  0.9462 -0.9356
36259SOL    HW211733   9.939   4.475   2.639 -0.7390  0.8280  1.6439
36260SOL     OW11734  10.513   1.297  10.191  0.3809  0.5681  0.4599
36260SOL    HW111735  10.565   1.302  10.271  0.3487 -1.5981  0.6817
36260SOL    HW211736  10.423   1.287  10.221  0.2059  1.0541  0.1180
36261SOL     OW11737  10.014   5.316   5.919  0.4206  0.2310  0.1815
36261SOL    HW111738  10.106   5.306   5.945  0.2357 -0.8614  0.4814
36261SOL    HW211739   9.967   5.256   5.976 -0.3276 -0.1690 -0.8281
36262SOL     OW11740   2.116   7.148   3.545  0.4040  0.3809 -0.1454
36262SOL    HW111741   2.100   7.154   3.639 -0.9093  1.9296 -0.4274
36262SOL    HW211742   2.170   7.069   3.535 -0.2672 -0.3908  1.7921
36263SOL     OW11743   3.483   2.823   6.869 -0.4352 -0.6904  0.1905
36263SOL    HW111744   3.522   2.777   6.795 -0.7828  0.3698 -0.6915
36263SOL    HW211745   3.411   2.767   6.897 -1.3379 -0.3699 -1.3454
36264SOL     OW11746   9.224   6.993   4.834  0.2739 -0.1750 -0.4417
36264SOL    HW111747   9.304   7.009   4.783 -0.5136  1.3030 -1.2857
36264SOL    HW211748   9.223   7.063   4.899 -0.2157 -0.3263 -0.2818
36265SOL     OW11749   4.533   4.600   5.301 -0.1712 -0.5065  0.7378
36265SOL    HW111750   4.478   4.567   5.372 -2.0780 -1.0041 -0.8570
36265SOL    HW211751   4.617   4.556   5.314 -0.3843 -0.4085  2.7755
36266SOL     OW11752   9.272  10.533   9.349  0.1705 -0.0687  0.3515
36266SOL    HW111753   9.180  10.512   9.365  0.1573 -0.1464  0.1736
36266SOL    HW211754   9.302  10.573   9.431 -0.4396  1.4146 -0.1201
36267SOL     OW11755   7.425   2.631   7.164 -0.6261  0.2868 -0.1039
36267SOL    HW111756   7.369   2.562   7.202  0.3754 -0.7342 -0.4270
36267SOL    HW211757   7.461   2.591   7.085 -0.3025  1.3311 -0.4946
36268SOL     OW11758   0.591   0.590   4.717 -0.1065  0.1552 -1.4701
36268SOL    HW111759   0.663   0.630   4.668 -0.0369  0.5174 -1.0750
36268SOL    HW211760   0.566   0.656   4.782  0.1517 -0.5185 -0.6650
36269SOL     OW11761   4.988   0.754   5.416  0.0385 -0.1330  0.4525
36269SOL    HW111762   4.926   0.682   5.407  0.3145 -0.3877  0.5724
36269SOL    HW211763   5.073   0.715   5.395  0.3164 -0.0658  1.4133
36270SOL     OW11764   1.972   2.127   5.518  0.0957 -0.2436  0.2878
36270SOL    HW111765   1.916   2.065   5.472 -0.3701  0.2711  0.1380
36270SOL    HW211766   1.970   2.206   5.464 -1.3015  0.7391  1.6694
36271SOL     OW11767   6.483   3.020   5.372 -0.2246  0.5413  0.2899
36271SOL    HW111768   6.439   3.093   5.416 -2.4970 -0.3864 -0.2595
36271SOL    HW211769   6.467   2.945   5.429  1.5779  0.3232  0.5555
36272SOL     OW11770   6.562   7.334   1.664  0.5066 -0.8023  0.2139
36272SOL    HW111771   6.585   7.407   1.606 -1.7905  0.7554  1.1201
36272SOL    HW211772   6.614   7.349   1.743 -1.1980  0.9367  1.0739
36273SOL     OW11773   8.681  10.122   2.781 -0.2183  0.0437  0.8034
36273SOL    HW111774   8.768  10.149   2.808  0.2663 -1.1663  0.5234
36273SOL    HW211775   8.621  10.180   2.828  0.7570  2.2992 -0.5900
36274SOL     OW11776   1.626   3.491   8.507 -0.7101 -0.5523  0.0722
36274SOL    HW111777   1.650   3.425   8.572  0.7335 -1.0614 -0.9106
36274SOL    HW211778   1.646   3.574   8.549 -3.5582 -0.5908  1.7337
36275SOL     OW11779   4.141   2.629   2.522  0.4233  0.1126  0.5976
36275SOL    HW111780   4.105   2.654   2.437 -1.2171 -0.1918  1.1550
36275SOL    HW211781   4.074   2.656   2.585  0.2495 -2.2641  1.5428
36276SOL     OW11782   0.536   6.941   5.490 -0.4555 -0.2264  0.0095
36276SOL    HW111783   0.456   6.900   5.458 -0.2631 -2.0212  1.6455
36276SOL    HW211784   0.560   6.890   5.567  1.5783  1.0612  0.3067
36277SOL     OW11785   2.277   9.188   9.284 -0.1178  0.2499 -0.2683
36277SOL    HW111786   2.327   9.159   9.207 -0.4482  2.1960 -1.2833
36277SOL    HW211787   2.190   9.209   9.249 -0.5439  0.3606  0.8156
36278SOL     OW11788   8.441   6.979   8.935  0.1468  0.3512  0.1946
36278SOL    HW111789   8.406   6.956   8.848  0.1010 -2.5544  0.9012
36278SOL    HW211790   8.426   7.074   8.941 -2.7655  0.1687 -1.6951
36279SOL     OW11791   9.417   1.901  10.286  0.0762  0.1498 -0.8529
36279SOL    HW111792   9.392   1.881  10.377 -0.0324 -0.1703 -0.9537
36279SOL    HW211793   9.378   1.988  10.270  0.1686  0.2460 -0.5661
36280SOL     OW11794   2.177   7.829   8.119 -0.3080  0.0892 -0.0266
36280SOL    HW111795   2.219   7.901   8.166 -0.3079 -0.4135  0.7474
36280SOL    HW211796   2.158   7.865   8.032  0.3556  0.7906  0.1129
36281SOL     OW11797   2.127   5.303   9.461 -0.5251  0.2712 -0.8931
36281SOL    HW111798   2.185   5.305   9.385 -0.2425  1.1424 -0.6691
36281SOL    HW211799   2.069   5.378   9.448 -0.1958  0.6806 -0.0408
36282SOL     OW11800   0.995   0.925   9.347 -0.3841 -0.4917  0.5284
36282SOL    HW111801   1.075   0.935   9.297 -0.9880  0.8768 -0.2027
36282SOL    HW211802   0.929   0.901   9.282 -0.9322  0.1282  0.8483
36283SOL     OW11803   1.043   3.533   0.076 -0.0678  0.1568 -0.0961
36283SOL    HW111804   1.065   3.510   0.166  1.8349 -0.5820 -0.6950
36283SOL    HW211805   0.969   3.594   0.083 -0.1904 -0.1721  1.9185
36284SOL     OW11806   9.576   3.309   2.910 -0.1852  0.4097  0.2622
36284SOL    HW111807   9.574   3.214   2.896  1.1253  0.6156 -1.7224
36284SOL    HW211808   9.584   3.346   2.822  0.5866  2.3054  1.0811
36285SOL     OW11809   4.033   7.048   2.767 -0.0486 -0.3529  0.4890
36285SOL    HW111810   4.077   7.132   2.769 -0.9730  0.2327 -1.3426
36285SOL    HW211811   3.971   7.055   2.694 -0.2808 -2.5472  0.3978
36286SOL     OW11812   7.186   3.285   1.932 -0.0665 -0.0230 -0.4790
36286SOL    HW111813   7.232   3.246   2.006  0.1377 -1.9459 -1.5599
36286SOL    HW211814   7.100   3.308   1.967 -0.9861 -3.3682 -0.1620
36287SOL     OW11815   6.067   1.362   0.897 -0.3898 -0.4021 -0.4250
36287SOL    HW111816   6.079   1.453   0.923 -2.1841 -0.0461 -0.6995
36287SOL    HW211817   5.972   1.354   0.881  0.1765 -1.0489 -4.9458
36288SOL     OW11818   9.871   7.493   0.926 -0.7252 -0.1510 -1.0055
36288SOL    HW111819   9.790   7.500   0.976  0.0397 -0.4327  0.3156
36288SOL    HW211820   9.926   7.432   0.975  0.4834  0.3974 -1.6064
36289SOL     OW11821   7.447   2.903   5.379 -0.0079 -0.5763  0.1162
36289SOL    HW111822   7.363   2.929   5.417  1.3128 -0.6234  3.4364
36289SOL    HW211823   7.462   2.965   5.308 -2.0891  0.4454  0.4870
36290SOL     OW11824   8.694   3.522   7.606 -0.3449 -0.9939 -0.3045
36290SOL    HW111825   8.624   3.476   7.652 -0.3327 -0.0307  0.7236
36290SOL    HW211826   8.649   3.568   7.535 -0.5847 -1.2828 -0.3433
36291SOL     OW11827  10.291   0.355   1.209  0.4527  0.1203 -0.8389
36291SOL    HW111828  10.266   0.288   1.145  0.8536 -0.0388 -0.8340
36291SOL    HW211829  10.245   0.434   1.181 -1.2577 -0.5181  0.0125
36292SOL     OW11830   3.844   4.408   9.377  0.0292 -0.0308  0.0627
36292SOL    HW111831   3.837   4.455   9.294  0.6597 -0.5708 -0.3097
36292SOL    HW211832   3.887   4.326   9.354  3.1937  1.0894  1.3848
36293SOL     OW11833   0.174   0.204   3.792 -0.5847  0.1959 -0.3897
36293SOL    HW111834   0.121   0.126   3.807  0.4316  0.0226  3.2549
36293SOL    HW211835   0.235   0.206   3.866  1.4545  2.8360 -1.9649
36294SOL     OW11836   8.803   6.070  10.331 -0.2937 -0.1880  0.3106
36294SOL    HW111837   8.826   6.006  10.263 -1.5361  0.8896 -1.2031
36294SOL    HW211838   8.856   6.147  10.311 -0.7567  0.1798  0.4687
36295SOL     OW11839   3.182   4.411  10.631 -0.1937  0.2060 -0.0310
36295SOL    HW111840   3.270   4.448  10.626 -0.2581  0.7757  2.1638
36295SOL    HW211841   3.195   4.316  10.635  0.2836  0.2675 -0.1487
36296SOL     OW11842   6.478   1.903   6.749 -0.2547  0.3672 -0.4061
36296SOL    HW111843   6.410   1.908   6.816 -0.8719  1.2948 -1.0759
36296SOL    HW211844   6.522   1.819   6.765 -1.7881 -0.4226 -0.1837
36297SOL     OW11845   8.986   8.891   7.305 -0.8245 -0.2399 -0.2529
36297SOL    HW111846   9.029   8.805   7.307  1.6478  0.9053  0.4919
36297SOL    HW211847   9.043   8.945   7.250  0.1843  2.0372  2.7795
36298SOL     OW11848   1.740   7.962   3.417 -0.0471  0.7507 -0.5637
36298SOL    HW111849   1.822   7.973   3.370  0.5109  0.8138  0.3936
36298SOL    HW211850   1.760   7.987   3.507  0.0457 -3.2238  0.7251
36299SOL     OW11851   6.568   6.031   1.605 -0.1780 -0.1948  0.3744
36299SOL    HW111852   6.607   5.975   1.538 -1.9386 -0.7825 -0.2296
36299SOL    HW211853   6.535   5.970   1.671  0.2254  0.3007  1.0396
36300SOL     OW11854   0.005   8.561   1.022 -0.2735  0.3325  0.4518
36300SOL    HW111855   0.003   8.655   1.005  1.5834  0.5254  1.0928
36300SOL    HW211856   0.088   8.532   0.986 -0.6851 -1.0118  0.5408
36301SOL     OW11857   9.490   4.344   8.638  0.0020  0.2154 -0.0587
36301SOL    HW111858   9.548   4.280   8.596 -0.6150 -0.7527  0.5231
36301SOL    HW211859   9.451   4.393   8.565 -0.6854 -1.1127 -0.6145
36302SOL     OW11860   0.214   7.166   9.283  0.0396 -0.2183 -0.3108
36302SOL    HW111861   0.191   7.240   9.340  2.7115  0.0929  0.5178
36302SOL    HW211862   0.291   7.127   9.325 -0.0590 -2.2095 -1.8495
36303SOL     OW11863   4.926   1.398   9.205  0.3175  0.0163  0.1983
36303SOL    HW111864   4.966   1.394   9.118 -0.6099 -1.4699 -0.1927
36303SOL    HW211865   4.974   1.334   9.257  1.0699  1.1179  0.9015
36304SOL     OW11866   9.514   8.120   9.722 -0.4279  0.0587  0.4652
36304SOL    HW111867   9.454   8.185   9.687  0.7694  0.7109 -0.4416
36304SOL    HW211868   9.477   8.036   9.694 -0.9415  0.4417 -0.0391
36305SOL     OW11869   1.863   4.035   1.669 -0.0893 -0.0876  0.0403
36305SOL    HW111870   1.784   4.088   1.660 -0.6357 -0.8668  0.1485
36305SOL    HW211871   1.935   4.096   1.655 -0.7112  0.6375 -0.0308
36306SOL     OW11872   2.223   3.093   4.277  0.7976 -0.1918 -0.3679
36306SOL    HW111873   2.242   3.184   4.254  0.3402 -0.0300 -0.1077
36306SOL    HW211874   2.191   3.054   4.196  2.4981 -0.5612 -0.9130
36307SOL     OW11875   0.518   0.050  10.653  0.5108 -0.0479 -0.0512
36307SOL    HW111876   0.544   0.083  10.739  1.7065 -1.0284 -0.0235
36307SOL    HW211877   0.592  -0.001  10.622  0.7916  1.5577 -2.3900
36308SOL     OW11878  10.096   8.896   4.926 -0.0453  0.0829 -0.0750
36308SOL    HW111879  10.136   8.844   4.855 -1.2738  1.7843 -2.1394
36308SOL    HW211880  10.149   8.975   4.930 -1.0778  0.8076 -0.4040
36309SOL     OW11881   2.861   4.489   5.298 -0.3989 -0.7124  0.3946
36309SOL    HW111882   2.931   4.429   5.268  0.4441 -0.3607  1.5931
36309SOL    HW211883   2.795   4.431   5.335  0.3895 -0.9422  1.5023
36310SOL     OW11884   3.021   0.125   8.662  0.2622  0.0337 -0.9507
36310SOL    HW111885   3.102   0.119   8.713 -0.0427 -0.5652 -0.5266
36310SOL    HW211886   3.046   0.103   8.573  0.5139 -0.4700 -0.7606
36311SOL     OW11887   7.011   6.805   6.671 -0.5841 -0.4992  0.5884
36311SOL    HW111888   7.051   6.741   6.612 -2.5897 -1.1689 -0.0996
36311SOL    HW211889   7.065   6.800   6.750  1.3607 -0.5316 -0.6669
36312SOL     OW11890   8.128   8.414   7.093 -0.3159 -0.1751  0.3534
36312SOL    HW111891   8.045   8.367   7.093  0.3162 -1.3301 -0.2085
36312SOL    HW211892   8.147   8.429   7.001  0.7542 -1.1258  0.4060
36313SOL     OW11893   5.517   1.907   6.222 -0.5609  0.4326 -0.4160
36313SOL    HW111894   5.491   1.909   6.130  0.1862  0.3662 -0.6379
36313SOL    HW211895   5.612   1.893   6.220 -0.9203 -3.3070  0.4053
36314SOL     OW11896   4.969   1.560   0.971 -0.0037  0.3696  0.4232
36314SOL    HW111897   5.026   1.580   0.896 -0.9578  0.7266 -0.2225
36314SOL    HW211898   4.985   1.468   0.988  3.1044  1.0902  2.2808
36315SOL     OW11899   8.195   2.986   6.755  0.0319 -0.3121  0.0593
36315SOL    HW111900   8.201   3.081   6.749  1.4856 -0.3764 -0.0436
36315SOL    HW211901   8.178   2.956   6.665  0.5168 -0.1901 -0.0755
36316SOL     OW11902  10.599   7.155   2.832  0.0870 -0.2302  0.6501
36316SOL    HW111903  10.620   7.092   2.902  0.0631  1.0287  1.8431
36316SOL    HW211904  10.576   7.235   2.879  0.6201  0.8337 -0.8378
36317SOL     OW11905   3.132   7.596   4.562 -0.1551  0.0085 -0.4596
36317SOL    HW111906   3.085   7.594   4.478 -1.6166 -1.5681  0.3283
36317SOL    HW211907   3.082   7.657   4.616 -0.0666 -0.0822 -0.2739
36318SOL     OW11908   4.058   5.189   0.440 -0.7031  0.3438  0.8912
36318SOL    HW111909   4.040   5.281   0.458 -2.7778  0.1632  0.0324
36318SOL    HW211910   4.092   5.189   0.350  1.1273  0.4041  1.5381
36319SOL     OW11911   5.828   7.206   3.001  0.4599  0.3898  0.2271
36319SOL    HW111912   5.780   7.249   3.072  0.8943  0.4375  0.4988
36319SOL    HW211913   5.895   7.155   3.045 -0.7695 -1.5442 -0.0296
36320SOL     OW11914   5.622   4.901   2.346  0.3859  0.2993 -0.4309
36320SOL    HW111915   5.569   4.945   2.413  0.1857 -1.0896  0.3520
36320SOL    HW211916   5.564   4.893   2.271 -0.3336 -0.6520  0.2099
36321SOL     OW11917   4.121   0.782   0.917 -0.3049 -0.2037  0.0048
36321SOL    HW111918   4.176   0.706   0.899 -0.4370  0.0373 -1.4968
36321SOL    HW211919   4.064   0.754   0.989  0.7963 -0.9244  0.6355
36322SOL     OW11920   2.998   4.835   3.150 -0.1798 -0.4773  0.2713
36322SOL    HW111921   3.010   4.752   3.104 -0.4621 -0.6305  0.4726
36322SOL    HW211922   3.042   4.899   3.095 -0.7380 -0.6182 -0.3567
36323SOL     OW11923   4.595  10.304   2.474 -0.2065 -0.4333  0.2105
36323SOL    HW111924   4.679  10.259   2.477  0.5064  0.8908  0.8505
36323SOL    HW211925   4.538  10.244   2.424  1.0796 -1.3664 -0.2088
36324SOL     OW11926   1.211   2.442   0.628  0.1133  0.4589 -0.1071
36324SOL    HW111927   1.167   2.363   0.660  2.4462 -1.0665 -0.4448
36324SOL    HW211928   1.221   2.427   0.534  3.2565 -0.3727  0.2346
36325SOL     OW11929  10.187   9.216   4.544 -0.0546 -0.4527  0.3165
36325SOL    HW111930  10.220   9.266   4.618 -0.2089 -0.0981  0.1461
36325SOL    HW211931  10.115   9.165   4.580 -0.0024 -0.4299  0.4548
36326SOL     OW11932   7.220   2.151   7.187 -0.5976  0.5091 -0.2512
36326SOL    HW111933   7.219   2.158   7.092 -0.0928  0.9564 -0.2269
36326SOL    HW211934   7.312   2.142   7.210 -0.8010 -0.8844  0.1157
36327SOL     OW11935   7.812   4.829   2.867  0.1924  0.0954 -0.1334
36327SOL    HW111936   7.877   4.900   2.869  0.0111  0.3520 -1.6856
36327SOL    HW211937   7.864   4.749   2.868  0.5198  0.2912 -0.8607
36328SOL     OW11938   2.376   1.387   5.409  0.1949  0.9719 -0.1118
36328SOL    HW111939   2.467   1.411   5.392  0.4784  0.1437  0.1469
36328SOL    HW211940   2.382   1.324   5.481 -0.3654 -0.7857 -1.5178
36329SOL     OW11941   1.446   7.055   8.479  0.3479  0.3211  0.7912
36329SOL    HW111942   1.361   7.086   8.511  0.7574 -0.5565  2.8883
36329SOL    HW211943   1.508   7.082   8.546  1.6574  0.3445 -0.3865
36330SOL     OW11944   5.888   1.279   5.740 -0.0781 -0.4398 -0.2506
36330SOL    HW111945   5.862   1.359   5.786  0.6173  0.1926 -0.9213
36330SOL    HW211946   5.813   1.220   5.749 -0.5340  0.2253  0.3973
36331SOL     OW11947   5.130   0.131   8.402 -0.2286  0.2029 -0.2687
36331SOL    HW111948   5.089   0.045   8.406 -0.7809  0.4364 -0.7858
36331SOL    HW211949   5.206   0.124   8.460 -0.1214 -0.7075 -0.5048
36332SOL     OW11950   1.372   8.974   0.926  0.3457  0.4550 -0.2192
36332SOL    HW111951   1.403   8.938   0.842 -1.9586  0.2916 -1.0856
36332SOL    HW211952   1.348   9.064   0.906  0.5142  0.6492  0.4570
36333SOL     OW11953   3.430   7.285   8.078  0.2003  0.9175  0.0152
36333SOL    HW111954   3.489   7.258   8.149  1.0391 -0.3735 -1.1144
36333SOL    HW211955   3.487   7.294   8.001 -0.6796  2.2930 -0.5147
36334SOL     OW11956   9.987   5.407   3.425  0.1908 -0.0912 -0.0807
36334SOL    HW111957  10.039   5.334   3.461 -1.0376 -2.6715 -3.0545
36334SOL    HW211958   9.900   5.394   3.461  0.1701  0.4351  0.0555
36335SOL     OW11959   1.640   4.919   2.755  0.2271  0.1657 -0.0213
36335SOL    HW111960   1.651   4.988   2.820  1.5694  0.3931 -0.4634
36335SOL    HW211961   1.554   4.882   2.774  0.3317  0.6211  1.4942
36336SOL     OW11962   9.107   2.499   1.225  0.2250  0.5601  0.0803
36336SOL    HW111963   9.066   2.469   1.305  0.8065  1.2055  0.6335
36336SOL    HW211964   9.162   2.426   1.197 -1.7049 -0.5608 -1.0092
36337SOL     OW11965   7.295   1.800   9.354  0.4021 -0.6081  0.6282
36337SOL    HW111966   7.341   1.864   9.410 -0.6383  0.4797  0.2821
36337SOL    HW211967   7.365   1.754   9.308  1.1816  1.0778  0.0391
36338SOL     OW11968   1.748  10.663   4.825  0.6132 -0.2456 -0.0132
36338SOL    HW111969   1.792  10.626   4.748  2.0192  1.5912 -0.1972
36338SOL    HW211970   1.694  10.734   4.790  1.4801  0.7948  0.6658
36339SOL     OW11971   8.370   5.774   4.987 -0.4555  0.4140  0.2364
36339SOL    HW111972   8.318   5.817   4.918 -1.4721  0.4666  1.0221
36339SOL    HW211973   8.324   5.692   5.005  0.5548 -0.2477 -0.0706
36340SOL     OW11974   2.055   8.481   5.191 -0.0139  0.8729  0.4728
36340SOL    HW111975   2.107   8.528   5.256  0.4513  0.0210  0.7286
36340SOL    HW211976   2.077   8.389   5.204 -0.9629  0.5646  0.0280
36341SOL     OW11977   0.323   0.793   5.144 -0.7651  0.3457  0.3437
36341SOL    HW111978   0.391   0.834   5.198 -2.0179 -1.4209  3.5193
36341SOL    HW211979   0.367   0.721   5.100 -0.0692  0.8101  0.2553
36342SOL     OW11980   1.610   6.360   5.032 -0.2264 -0.0484 -0.3117
36342SOL    HW111981   1.581   6.415   4.959  1.3463 -0.6567 -1.4645
36342SOL    HW211982   1.585   6.271   5.007  3.0345 -0.7073 -1.7187
36343SOL     OW11983   9.408   4.474   3.206  0.0624 -0.4165 -0.2148
36343SOL    HW111984   9.317   4.462   3.178 -0.3667  0.9546  0.5291
36343SOL    HW211985   9.402   4.500   3.298  1.1563  0.5502 -0.3984
36344SOL     OW11986   5.270   2.842  10.507  0.3956 -0.4282 -0.2886
36344SOL    HW111987   5.286   2.762  10.558  1.8527  0.9968  1.6934
36344SOL    HW211988   5.219   2.897  10.566  0.3364  0.5102 -1.2012
36345SOL     OW11989   6.005   5.671   0.391 -0.1150  0.2581  0.6056
36345SOL    HW111990   5.940   5.701   0.328 -1.0815  2.3566  2.4748
36345SOL    HW211991   5.956   5.621   0.455  0.9126 -2.1644 -0.3908
36346SOL     OW11992   5.764   6.890   1.091 -0.5443 -0.3552 -0.2435
36346SOL    HW111993   5.781   6.873   0.999  1.4698 -0.2736  0.0869
36346SOL    HW211994   5.686   6.837   1.111 -1.0819 -0.2757 -1.9872
36347SOL     OW11995   2.121   4.547   6.171  0.0034  0.9380  0.2756
36347SOL    HW111996   2.089   4.631   6.140  1.1718  1.3221  0.0481
36347SOL    HW211997   2.186   4.569   6.238 -0.4248  0.1868  0.9543
36348SOL     OW11998   1.047   1.884   6.219  0.4777 -0.3575  0.3786
36348SOL    HW111999   1.100   1.963   6.207 -1.0034  0.6245 -0.0252
36348SOL    HW212000   0.963   1.916   6.252 -0.0887 -1.7871  0.4043
36349SOL     OW12001   2.948   5.184   8.297  0.3026  0.1657 -0.1874
36349SOL    HW112002   2.991   5.232   8.368 -0.0688  2.3302 -1.3365
36349SOL    HW212003   3.017   5.170   8.231 -0.4633  3.2453 -1.8323
36350SOL     OW12004   7.131   4.852   9.858  0.1354 -0.5860  0.6124
36350SOL    HW112005   7.048   4.846   9.905  0.2749  0.4863  1.0250
36350SOL    HW212006   7.164   4.939   9.879  0.4911 -0.2951 -1.0086
36351SOL     OW12007   9.665   6.028   0.843  0.2595  0.6272 -0.2406
36351SOL    HW112008   9.668   5.955   0.905 -0.3085  0.6451 -0.1894
36351SOL    HW212009   9.662   5.987   0.757 -2.5125  0.4988 -0.1660
36352SOL     OW12010   6.798   8.497   1.140  0.2329  0.4039  0.9152
36352SOL    HW112011   6.864   8.459   1.082 -0.5887 -0.6849  0.6765
36352SOL    HW212012   6.725   8.520   1.082 -0.5914 -0.6906  1.5032
36353SOL     OW12013  10.656   2.054   2.962  0.1224  0.1727  0.0412
36353SOL    HW112014  10.752   2.061   2.965  0.3250 -0.9910 -1.9349
36353SOL    HW212015  10.626   2.143   2.947  1.0494  0.2887 -1.2851
36354SOL     OW12016   9.040   6.967   7.326 -0.4128  0.4737  0.0995
36354SOL    HW112017   8.969   6.903   7.319 -1.4559  1.7602 -2.1467
36354SOL    HW212018   9.029   7.005   7.413  0.7025 -2.7937  1.8521
36355SOL     OW12019   5.086   7.603   5.137 -0.1749 -0.2099 -0.5630
36355SOL    HW112020   5.139   7.670   5.181 -0.3878  0.4841 -1.3284
36355SOL    HW212021   5.004   7.600   5.188  0.2854 -0.7351  0.1649
36356SOL     OW12022   2.414   0.229   7.178 -0.6487 -0.5691  0.0648
36356SOL    HW112023   2.385   0.139   7.167  0.2229 -0.6259 -2.4487
36356SOL    HW212024   2.369   0.278   7.108 -0.2887  0.7403  0.7107
36357SOL     OW12025   4.600   1.412  10.315  1.1229 -0.2335  0.1656
36357SOL    HW112026   4.584   1.416  10.409  2.5901 -0.9170  0.4722
36357SOL    HW212027   4.653   1.490  10.296  0.3732  0.2017 -0.2202
36358SOL     OW12028   1.303   6.728   6.636  0.5731  0.3759 -0.4136
36358SOL    HW112029   1.366   6.738   6.708  0.4699  0.7781 -0.3774
36358SOL    HW212030   1.335   6.653   6.587 -0.0464 -0.7089  0.7775
36359SOL     OW12031   2.555   1.866   7.538 -0.1937  0.8544 -0.1504
36359SOL    HW112032   2.604   1.787   7.513  0.0953  0.5654  1.2159
36359SOL    HW212033   2.623   1.926   7.569 -0.5842  0.8997  0.6348
36360SOL     OW12034   2.491   2.193   1.741 -0.0498 -0.2438 -0.0912
36360SOL    HW112035   2.545   2.175   1.664 -1.8330 -1.7734 -1.0675
36360SOL    HW212036   2.409   2.145   1.725 -1.7486  1.9732  1.2679
36361SOL     OW12037   8.907   0.981   5.496  0.2569 -0.1278 -0.0981
36361SOL    HW112038   8.989   0.936   5.517  0.0169 -0.0671  1.0247
36361SOL    HW212039   8.919   1.070   5.529 -0.1358 -0.0292 -0.2147
36362SOL     OW12040   0.209   0.947   5.442  0.0302  0.1624  0.4926
36362SOL    HW112041   0.292   0.930   5.398 -0.4425  0.9837 -0.7734
36362SOL    HW212042   0.190   0.866   5.489  1.9637  0.2533  1.5472
36363SOL     OW12043   7.646   8.392   7.012  1.1710 -0.0542  0.4527
36363SOL    HW112044   7.560   8.356   6.992  0.3135  0.2909  3.0632
36363SOL    HW212045   7.699   8.316   7.036  0.9600 -0.0761  0.8516
36364SOL     OW12046   4.879  10.588   0.928  0.4448 -0.2968 -0.2537
36364SOL    HW112047   4.795  10.546   0.913  0.6598 -0.1897 -1.9756
36364SOL    HW212048   4.865  10.645   1.004 -0.0813 -2.7833  1.6107
36365SOL     OW12049   5.170   0.533   9.457 -0.2538  0.5507 -0.5592
36365SOL    HW112050   5.249   0.490   9.489 -0.0924  0.5235 -0.9971
36365SOL    HW212051   5.113   0.538   9.534 -1.4781 -3.0499 -1.0492
36366SOL     OW12052   0.376   5.789   7.563 -0.1939  0.3193  0.4505
36366SOL    HW112053   0.405   5.785   7.654  0.6390 -0.7707  0.1553
36366SOL    HW212054   0.432   5.855   7.523 -0.3529  0.5743  0.6360
36367SOL     OW12055   1.703   3.078   1.689 -0.3310  0.0006 -0.3201
36367SOL    HW112056   1.697   3.147   1.623  0.8125  1.3182  0.8873
36367SOL    HW212057   1.748   3.006   1.645  2.0743  1.5252 -0.5481
36368SOL     OW12058   9.256   8.567   0.609  0.5915 -0.2330 -0.1347
36368SOL    HW112059   9.255   8.491   0.551  0.3627  1.1787 -2.0982
36368SOL    HW212060   9.176   8.559   0.661  0.2632 -1.0358 -0.7477
36369SOL     OW12061   5.832   1.542   9.371 -0.0583  0.3080 -0.3254
36369SOL    HW112062   5.918   1.580   9.354 -0.8630  1.7768 -1.2760
36369SOL    HW212063   5.793   1.531   9.285 -0.8774 -0.2575  0.1028
36370SOL     OW12064   8.168   5.857   4.818 -0.3496 -0.0399  0.0495
36370SOL    HW112065   8.100   5.922   4.798 -1.1818 -1.2670 -1.2680
36370SOL    HW212066   8.119   5.782   4.853  0.0721 -1.5771 -2.4511
36371SOL     OW12067   8.098   3.702   8.110  0.1908 -0.0005  0.0324
36371SOL    HW112068   8.071   3.777   8.164  1.7493  0.5167  0.1539
36371SOL    HW212069   8.193   3.712   8.102  0.3432 -1.6303 -0.4785
36372SOL     OW12070   9.093   5.087   8.767  0.1584 -0.2651  0.2253
36372SOL    HW112071   9.094   5.147   8.693  1.3014 -0.7614 -0.1794
36372SOL    HW212072   9.002   5.086   8.796 -0.7096 -1.4673 -2.3125
36373SOL     OW12073   8.831   6.691  10.681  0.0589 -0.1510 -0.0264
36373SOL    HW112074   8.803   6.600  10.668 -0.6918 -0.0559  0.8616
36373SOL    HW212075   8.841   6.700  10.776  1.8725  0.1975 -0.2126
36374SOL     OW12076   8.271   7.482   1.013 -0.0651  0.6540  0.0605
36374SOL    HW112077   8.319   7.430   1.078 -1.9125 -1.0421  0.1456
36374SOL    HW212078   8.327   7.480   0.936  1.3448  1.2107  1.0213
36375SOL     OW12079  10.208   0.011   1.576  0.3754  0.2296  0.0815
36375SOL    HW112080  10.136  -0.022   1.631 -0.1730 -0.1229 -0.8220
36375SOL    HW212081  10.191  -0.027   1.490  1.0405  1.0352 -0.4136
36376SOL     OW12082   0.050   5.557   4.328  0.3705 -0.2161 -0.3618
36376SOL    HW112083  -0.040   5.549   4.299  0.3081 -0.7559 -0.0252
36376SOL    HW212084   0.063   5.651   4.338 -0.0070 -0.1056 -0.8578
36377SOL     OW12085   7.241   9.678   7.340 -0.4489  0.1603  0.1497
36377SOL    HW112086   7.202   9.763   7.362 -0.8213  0.1951 -0.6119
36377SOL    HW212087   7.166   9.623   7.315 -0.3357 -0.7204  1.5842
36378SOL     OW12088   5.254   1.120   7.379  0.4824  0.2687 -0.1080
36378SOL    HW112089   5.326   1.166   7.336  1.6610 -0.0521  1.4309
36378SOL    HW212090   5.237   1.044   7.323  0.8852  0.7062 -0.8388
36379SOL     OW12091   0.481   7.498   2.504  0.3835  0.1555  0.3434
36379SOL    HW112092   0.428   7.422   2.480 -0.7337  0.8099  0.6278
36379SOL    HW212093   0.487   7.494   2.599 -0.5797  0.9719  0.4540
36380SOL     OW12094   4.581   5.172   5.901  0.2807 -0.7138 -0.4798
36380SOL    HW112095   4.659   5.211   5.941 -0.2472 -0.8608  0.7248
36380SOL    HW212096   4.557   5.234   5.832 -0.6778  1.3130  1.5245
36381SOL     OW12097   0.817   4.055   5.357 -0.2474  0.2623 -0.7264
36381SOL    HW112098   0.776   4.139   5.341 -0.8174 -0.0676 -1.0099
36381SOL    HW212099   0.903   4.062   5.315 -0.6662  0.3644 -1.5745
36382SOL     OW12100   2.779   6.019   6.663  0.2140  0.7104 -0.0003
36382SOL    HW112101   2.806   5.954   6.727  1.0413 -1.2215 -2.1905
36382SOL    HW212102   2.683   6.017   6.664  0.2027 -1.3257 -0.7007
36383SOL     OW12103   3.777   0.182   0.883  0.3840  0.2960  0.6518
36383SOL    HW112104   3.738   0.250   0.828  1.2412  0.6747  0.4951
36383SOL    HW212105   3.823   0.230   0.952  1.3227 -0.0989  0.3185
36384SOL     OW12106   7.295   2.112   8.073  0.4662  0.1449  0.4940
36384SOL    HW112107   7.307   2.035   8.128 -1.3820  0.3611  1.2900
36384SOL    HW212108   7.342   2.092   7.992  0.5099 -1.5629  0.9169
36385SOL     OW12109   4.674   1.513   8.580  0.2607  0.2154 -0.2794
36385SOL    HW112110   4.653   1.602   8.609  0.2590  0.8055 -1.9843
36385SOL    HW212111   4.680   1.463   8.661 -0.9498  1.4906  0.6602
36386SOL     OW12112  10.189   8.307   1.925 -0.7087  0.4907  0.5336
36386SOL    HW112113  10.099   8.335   1.935 -0.1401  1.9171  2.0934
36386SOL    HW212114  10.183   8.217   1.892 -2.6623  0.6274  0.4121
36387SOL     OW12115   0.189   9.676   5.792 -0.0114  0.1747 -0.3557
36387SOL    HW112116   0.168   9.734   5.865 -1.2398 -1.4063  0.6129
36387SOL    HW212117   0.282   9.658   5.801  0.0356  0.7149  0.2754
36388SOL     OW12118   4.932   0.075   8.813  0.2520 -0.2453  0.1150
36388SOL    HW112119   4.920   0.019   8.736  1.1677  0.6706 -0.7239
36388SOL    HW212120   4.862   0.048   8.873  0.6483 -2.2605 -0.2464
36389SOL     OW12121   2.372   2.486   1.150  0.2435  0.6884  0.0789
36389SOL    HW112122   2.415   2.433   1.218  1.2093 -0.3660 -1.2925
36389SOL    HW212123   2.283   2.451   1.145  0.2427  0.6018  0.6145
36390SOL     OW12124   8.951   7.494   6.669 -0.0789  0.0289 -0.0535
36390SOL    HW112125   8.965   7.540   6.751  0.2958  0.0813 -0.1464
36390SOL    HW212126   9.034   7.450   6.651 -0.1498  0.0422 -0.4180
36391SOL     OW12127   5.423   0.851   4.246  0.2185  0.0685 -0.2688
36391SOL    HW112128   5.369   0.912   4.195 -0.1113  0.5341  0.6008
36391SOL    HW212129   5.403   0.765   4.210 -0.9029  0.2601 -0.1586
36392SOL     OW12130   7.605   5.189   0.978  0.0355 -0.1374  0.3900
36392SOL    HW112131   7.639   5.100   0.979 -0.3878 -0.2990  0.8928
36392SOL    HW212132   7.521   5.182   0.934  0.7825  0.3205 -1.1680
36393SOL     OW12133   4.668   7.484   0.287 -0.0832  0.2210 -0.3781
36393SOL    HW112134   4.660   7.543   0.362  1.0790  0.0596 -0.1104
36393SOL    HW212135   4.659   7.396   0.325 -2.0894  0.1839 -0.8138
36394SOL     OW12136   4.922   5.594  10.530  0.5999 -0.1050  0.1183
36394SOL    HW112137   4.999   5.650  10.519 -1.3665  2.9868  0.8038
36394SOL    HW212138   4.860   5.626  10.465 -0.8014 -1.1870  0.8811
36395SOL     OW12139   6.362   4.628   5.431  0.8818  0.0252  0.9035
36395SOL    HW112140   6.358   4.720   5.456  1.2976  0.6700 -1.1679
36395SOL    HW212141   6.450   4.617   5.396 -0.2778 -0.0585 -2.4218
36396SOL     OW12142   9.075   9.167   4.596  0.0980  0.5658  0.5200
36396SOL    HW112143   9.135   9.135   4.528 -2.0088  2.9819 -2.7892
36396SOL    HW212144   9.026   9.089   4.623 -0.6018 -0.2022 -2.6076
36397SOL     OW12145   6.896  10.066   3.072 -0.2959 -0.6308 -0.1149
36397SOL    HW112146   6.988  10.065   3.048 -0.5266  0.8159 -1.1910
36397SOL    HW212147   6.863   9.980   3.046  0.5636 -0.8465 -0.5098
36398SOL     OW12148   9.657  10.583   8.957  0.2443  0.6010 -0.4614
36398SOL    HW112149   9.563  10.570   8.943 -0.1057  1.6214  0.7862
36398SOL    HW212150   9.683  10.509   9.011 -0.6522  2.1190  2.2332
36399SOL     OW12151   7.986   3.794   2.150  0.5404 -0.0909  0.3656
36399SOL    HW112152   7.979   3.777   2.056 -0.4931  1.4447  0.1449
36399SOL    HW212153   8.066   3.747   2.176 -0.2199 -2.2312 -0.8519
36400SOL     OW12154   1.648   8.550   4.394 -0.7246 -1.1081 -0.0018
36400SOL    HW112155   1.734   8.516   4.419 -1.4297 -2.5735  0.5222
36400SOL    HW212156   1.655   8.566   4.300  0.3264 -0.5100  0.1585
36401SOL     OW12157   9.964   9.640   3.254  0.2440  0.3328 -0.6194
36401SOL    HW112158   9.890   9.686   3.292 -1.1628 -0.2766 -2.4770
36401SOL    HW212159   9.973   9.560   3.307 -0.5632  0.3091 -0.5148
36402SOL     OW12160   7.684   0.920   5.140 -0.5517  0.1286  0.5292
36402SOL    HW112161   7.599   0.963   5.127 -0.6645 -0.2990 -0.2398
36402SOL    HW212162   7.665   0.827   5.130  0.2203  0.1073 -0.9448
36403SOL     OW12163   4.383   8.056   0.311 -0.2670 -0.2734 -0.1069
36403SOL    HW112164   4.371   7.963   0.325 -0.8488 -0.0818  0.7259
36403SOL    HW212165   4.336   8.098   0.383 -0.0556  0.6638 -0.4941
36404SOL     OW12166   9.470   7.777   1.011 -0.1634 -0.2010  0.0542
36404SOL    HW112167   9.385   7.810   0.982 -0.1415  0.2636  0.5184
36404SOL    HW212168   9.458   7.682   1.016 -0.8761 -0.0848  0.8254
36405SOL     OW12169   7.908   0.792  10.188  0.0909 -0.6104 -0.0317
36405SOL    HW112170   7.987   0.825  10.230  0.2290 -0.2070 -0.6087
36405SOL    HW212171   7.920   0.697  10.186  0.9472 -0.4983 -0.8668
36406SOL     OW12172   0.545   7.606   5.020 -0.3878  0.7132 -0.4235
36406SOL    HW112173   0.496   7.560   4.952  0.3270 -0.8553  0.0740
36406SOL    HW212174   0.494   7.593   5.099 -0.7311  1.7210 -0.4718
36407SOL     OW12175   2.326   6.193   0.393  0.2221 -0.4264 -0.2205
36407SOL    HW112176   2.342   6.282   0.361 -0.1682  0.3836  1.7027
36407SOL    HW212177   2.296   6.205   0.483 -0.6268 -2.4734 -0.1732
36408SOL     OW12178   7.989   8.670   6.962  0.0070  0.3211  0.2053
36408SOL    HW112179   7.997   8.680   6.867 -1.2120  1.1253  0.1679
36408SOL    HW212180   7.895   8.663   6.977  0.2549 -1.9438  1.1750
36409SOL     OW12181   3.504   4.037   7.027 -0.5391  0.1263  0.4332
36409SOL    HW112182   3.493   4.052   6.933 -1.1371  1.7183  0.7211
36409SOL    HW212183   3.416   4.019   7.059 -0.1572 -1.7479  0.5069
36410SOL     OW12184   2.260  10.044   7.786  0.1374 -0.3613 -0.6313
36410SOL    HW112185   2.345  10.041   7.829  0.5774 -0.1994 -1.4626
36410SOL    HW212186   2.227  10.131   7.804 -0.5210 -0.9066  0.9155
36411SOL     OW12187   5.004   0.600   8.377  0.2293 -0.2261 -0.0149
36411SOL    HW112188   5.032   0.638   8.461  1.5369  1.7064 -1.2505
36411SOL    HW212189   5.004   0.506   8.393 -0.0548  0.0812  2.2908
36412SOL     OW12190   1.043   7.018   2.443 -0.0756 -0.2650 -0.7158
36412SOL    HW112191   1.036   7.056   2.531  0.4348 -1.9548  0.0980
36412SOL    HW212192   1.078   7.089   2.389 -1.2380  1.0819  0.2267
36413SOL     OW12193   1.555   4.869   2.145 -0.3117 -0.3427  0.5033
36413SOL    HW112194   1.620   4.813   2.187  0.8759  0.4165 -0.2486
36413SOL    HW212195   1.487   4.882   2.211 -0.1231 -1.8239  1.0257
36414SOL     OW12196   8.523   1.243   1.768  0.3436  0.6866 -1.0465
36414SOL    HW112197   8.590   1.186   1.806  0.3926  1.3420 -0.1310
36414SOL    HW212198   8.462   1.259   1.839 -0.6224  0.3697 -1.7872
36415SOL     OW12199   7.337   3.266   9.378  0.0941  0.3599  0.5462
36415SOL    HW112200   7.269   3.201   9.363  0.2574  0.3143  0.0018
36415SOL    HW212201   7.392   3.262   9.301  0.6272  0.5128  0.9145
36416SOL     OW12202   6.654   9.082   8.309  0.4141  0.1846  0.4538
36416SOL    HW112203   6.660   9.105   8.216  1.0364  1.0875  0.6996
36416SOL    HW212204   6.561   9.065   8.323  0.4071 -0.6507 -0.4846
36417SOL     OW12205   9.502   6.851   2.722 -0.3079  0.0174  0.8307
36417SOL    HW112206   9.534   6.769   2.683  0.4576  0.8943 -0.4675
36417SOL    HW212207   9.507   6.915   2.650  1.5579  1.8278  2.4464
36418SOL     OW12208   3.618   8.132   5.027 -0.0553  0.5334  0.1115
36418SOL    HW112209   3.709   8.112   5.008 -0.6102 -1.2410 -0.8601
36418SOL    HW212210   3.573   8.122   4.943 -1.4961 -0.8731  1.0124
36419SOL     OW12211   0.375   3.880   9.402  0.0275  0.0194  0.5297
36419SOL    HW112212   0.453   3.870   9.456  1.2541 -0.4636 -1.2264
36419SOL    HW212213   0.402   3.847   9.316 -1.6995  1.1005 -0.4774
36420SOL     OW12214   0.759   3.671   1.216  0.6798 -0.3441  0.1745
36420SOL    HW112215   0.775   3.695   1.307 -0.0897 -0.9871  0.4985
36420SOL    HW212216   0.834   3.616   1.192 -0.6338 -2.8922  1.4950
36421SOL     OW12217   7.114  10.437   0.521 -0.0375  0.0360 -0.0896
36421SOL    HW112218   7.175  10.472   0.457 -0.7401  3.1000  0.7165
36421SOL    HW212219   7.135  10.483   0.602 -2.2322 -0.1328  0.6544
36422SOL     OW12220   7.916   1.297   5.496  0.4491 -0.1842  0.4941
36422SOL    HW112221   7.860   1.310   5.420  0.0041 -0.1995  0.8157
36422SOL    HW212222   7.880   1.220   5.541  0.3372  0.1783  1.0442
36423SOL     OW12223   8.176  10.540  10.414 -0.0805 -0.4798 -0.1430
36423SOL    HW112224   8.204  10.538  10.506 -2.3691 -0.6290  0.5956
36423SOL    HW212225   8.128  10.622  10.405  0.7900 -0.0692 -1.4704
36424SOL     OW12226   2.457   8.860   2.949  0.0249  0.0410  0.0620
36424SOL    HW112227   2.488   8.851   3.039 -0.7213 -0.7612  0.2555
36424SOL    HW212228   2.506   8.793   2.901  0.7218  0.7377 -0.2262
36425SOL     OW12229   3.970   6.052   8.988  0.3789  0.0032 -0.0310
36425SOL    HW112230   4.037   6.093   9.043  1.8285 -3.9775  1.4901
36425SOL    HW212231   4.018   5.992   8.931 -1.7606 -3.0129  1.1124
36426SOL     OW12232   3.588   1.753   7.552  0.1755 -0.8592  0.6507
36426SOL    HW112233   3.647   1.683   7.523  0.4079 -0.6150  0.5348
36426SOL    HW212234   3.639   1.833   7.543 -0.7217 -0.4264 -1.1231
36427SOL     OW12235   8.276   3.505   2.598  0.7544 -0.2873  0.2097
36427SOL    HW112236   8.193   3.470   2.631 -0.2740  0.8055 -1.1090
36427SOL    HW212237   8.278   3.480   2.506  0.1569  2.6185 -0.7078
36428SOL     OW12238   4.306   4.757   4.042 -0.1313 -0.0329  0.0607
36428SOL    HW112239   4.351   4.683   4.083  0.4519 -0.2443 -0.9239
36428SOL    HW212240   4.285   4.815   4.114 -1.2680 -1.4833  0.9651
36429SOL     OW12241   4.679   2.190   0.819 -0.1113 -0.0600  0.0041
36429SOL    HW112242   4.633   2.274   0.820  1.2666  0.7221  0.5080
36429SOL    HW212243   4.757   2.205   0.767  0.8428 -0.6179  1.2054
36430SOL     OW12244   4.955   8.115   3.345 -0.1399 -0.2869  0.0190
36430SOL    HW112245   4.915   8.186   3.396 -0.6025 -0.4910 -0.0532
36430SOL    HW212246   4.932   8.135   3.254 -0.3468 -0.5722  0.0068
36431SOL     OW12247   2.760   0.070   0.928 -0.5145 -0.0796 -0.5658
36431SOL    HW112248   2.816   0.023   0.867  0.9125  0.9804 -0.1161
36431SOL    HW212249   2.721   0.140   0.875 -2.0590 -1.2672 -1.0587
36432SOL     OW12250   2.830   1.633  10.056  0.1849 -0.6767  0.1189
36432SOL    HW112251   2.872   1.620   9.971  0.1479 -0.8039  0.1201
36432SOL    HW212252   2.852   1.723  10.080 -0.1281 -0.5102 -0.2060
36433SOL     OW12253  10.589   6.017   3.925  0.3831 -0.0926  0.0701
36433SOL    HW112254  10.600   5.929   3.891 -0.5148 -0.3829  0.4826
36433SOL    HW212255  10.568   6.070   3.849  3.7064  0.3926 -0.6721
36434SOL     OW12256   5.590   0.190   3.270  0.0052  0.4168 -0.2194
36434SOL    HW112257   5.536   0.247   3.216 -0.9244 -0.5619 -0.3680
36434SOL    HW212258   5.542   0.182   3.352  0.3135  0.1519 -0.0626
36435SOL     OW12259   1.888  10.032   0.898 -0.5755  0.2999  0.0405
36435SOL    HW112260   1.804   9.998   0.926 -0.0933 -0.7498  0.2809
36435SOL    HW212261   1.884  10.126   0.914 -1.2874  0.0964  1.0859
36436SOL     OW12262   1.889   9.453   3.590 -0.1435 -0.7469 -0.1155
36436SOL    HW112263   1.904   9.461   3.684  1.2999  0.0230 -0.3843
36436SOL    HW212264   1.882   9.359   3.575  0.3628 -0.9174  0.6610
36437SOL     OW12265   9.197   1.333   0.910 -0.0010  0.6349  0.3275
36437SOL    HW112266   9.169   1.327   0.819 -0.0924 -1.6986  0.4357
36437SOL    HW212267   9.120   1.365   0.957 -0.3954  0.5568 -0.2486
36438SOL     OW12268   4.737   2.091  10.523 -0.6630  0.4098  0.2371
36438SOL    HW112269   4.657   2.069  10.475 -1.5428  2.9154  0.3947
36438SOL    HW212270   4.724   2.056  10.610 -1.5697  0.6919  0.2222
36439SOL     OW12271   1.074   4.769   0.361  0.2189  0.0458  0.0020
36439SOL    HW112272   1.168   4.775   0.380  0.4396 -2.1117 -0.1302
36439SOL    HW212273   1.053   4.677   0.376 -1.6400  0.2449 -1.0973
36440SOL     OW12274   3.655   2.445   7.524 -0.4005 -0.5407 -0.6290
36440SOL    HW112275   3.696   2.524   7.489 -0.9000 -0.2739 -0.6201
36440SOL    HW212276   3.725   2.380   7.524 -0.0259 -0.1438 -0.7851
36441SOL     OW12277   0.447   3.815   6.480 -0.3819 -0.5338 -0.2272
36441SOL    HW112278   0.353   3.828   6.492 -0.3168 -0.8380  0.6648
36441SOL    HW212279   0.480   3.900   6.450 -0.9673 -0.4807 -0.7180
36442SOL     OW12280   3.701   2.575   4.845 -0.4240  0.3081 -1.0423
36442SOL    HW112281   3.717   2.667   4.821  0.2818  0.5726  0.3144
36442SOL    HW212282   3.691   2.530   4.762  2.6130  1.0088 -1.9039
36443SOL     OW12283   7.755   7.741   5.379  0.0970  0.2119  0.1245
36443SOL    HW112284   7.763   7.728   5.284  0.4609 -2.3247  0.4315
36443SOL    HW212285   7.661   7.738   5.396 -0.0145  1.3718 -0.2083
36444SOL     OW12286   5.674   1.274   0.646  0.4060  0.6903 -0.5104
36444SOL    HW112287   5.731   1.280   0.723  0.1412 -0.6634 -0.1842
36444SOL    HW212288   5.728   1.306   0.574  1.0034  1.0240  0.0728
36445SOL     OW12289   9.697   4.839   0.409  0.1369 -0.2581  0.2295
36445SOL    HW112290   9.617   4.843   0.461 -0.4605 -2.7455 -0.3507
36445SOL    HW212291   9.668   4.853   0.319  0.2696 -1.4727 -0.0210
36446SOL     OW12292   0.393   9.434   9.635  0.5159  0.0207 -0.5790
36446SOL    HW112293   0.444   9.436   9.716 -0.2394  0.5586 -0.1022
36446SOL    HW212294   0.311   9.391   9.659  0.7865 -0.9596 -1.3669
36447SOL     OW12295   9.739   5.077   1.407 -0.3402  0.1138 -0.2066
36447SOL    HW112296   9.773   5.108   1.492 -0.5568 -0.6621  0.1677
36447SOL    HW212297   9.799   5.114   1.343  0.2745  0.0778  0.3401
36448SOL     OW12298   7.949   8.567   1.413 -0.3551 -0.2128 -1.0371
36448SOL    HW112299   8.003   8.604   1.343 -0.9673  1.9980 -0.4217
36448SOL    HW212300   8.010   8.551   1.485 -0.3694  1.8380 -0.5055
36449SOL     OW12301   2.945   3.381   9.895  0.3156  0.2835  0.4139
36449SOL    HW112302   2.932   3.432   9.815  1.2397 -0.0355  0.0533
36449SOL    HW212303   2.877   3.314   9.892  1.1690 -0.5894 -0.8205
36450SOL     OW12304   0.051   5.631   1.119 -0.3116 -0.1772  0.7141
36450SOL    HW112305  -0.041   5.627   1.092 -0.7387  0.8618  1.9104
36450SOL    HW212306   0.049   5.675   1.204  1.3205  0.1130  0.6338
36451SOL     OW12307   2.894   8.270   0.767  0.1208 -0.3107  0.4358
36451SOL    HW112308   2.853   8.342   0.719  1.7483  0.3364 -0.0556
36451SOL    HW212309   2.945   8.313   0.836  0.0746 -1.0789  0.9620
36452SOL     OW12310   2.040   9.938   6.219  0.0263  0.5326  0.0651
36452SOL    HW112311   2.035  10.033   6.209 -0.4880  0.6267  1.0642
36452SOL    HW212312   1.950   9.911   6.239  0.3750 -0.0106  0.9668
36453SOL     OW12313   1.901   2.827   7.212  0.2922 -0.6946  0.3843
36453SOL    HW112314   1.915   2.903   7.268 -0.1971  0.3028 -0.8014
36453SOL    HW212315   1.907   2.752   7.272 -0.8316  0.3406  1.8953
36454SOL     OW12316   5.058   3.743  10.074  0.0622  0.4955 -0.7922
36454SOL    HW112317   5.047   3.650  10.096 -1.2397  0.9923  0.8023
36454SOL    HW212318   5.151   3.761  10.089 -0.1826  0.0635  1.4837
36455SOL     OW12319   8.287   4.549   2.205 -0.0518  0.6655 -0.1979
36455SOL    HW112320   8.376   4.515   2.209 -0.4297 -0.5340 -1.1752
36455SOL    HW212321   8.232   4.471   2.203 -1.4049  1.3204  3.6553
36456SOL     OW12322   5.123   8.480   4.633 -0.1672 -0.4898  0.4693
36456SOL    HW112323   5.133   8.575   4.642  0.8896 -0.6078  0.7028
36456SOL    HW212324   5.116   8.466   4.538  2.7877 -0.3942  0.1263
36457SOL     OW12325  10.472   6.277   7.801  0.2215 -0.1384  0.2406
36457SOL    HW112326  10.428   6.229   7.731  0.4933  0.6469 -0.4798
36457SOL    HW212327  10.432   6.364   7.800  0.9381  0.2024  0.3791
36458SOL     OW12328   2.521   6.976   8.414 -0.6898 -0.4027 -0.1529
36458SOL    HW112329   2.484   7.046   8.359  0.4761  0.0993 -0.3365
36458SOL    HW212330   2.503   6.896   8.365 -3.7256 -0.5202  0.9385
36459SOL     OW12331  10.609   5.886   9.838  0.3470 -0.1157 -0.1241
36459SOL    HW112332  10.612   5.965   9.892 -0.5476 -0.3140  0.2356
36459SOL    HW212333  10.565   5.913   9.757 -0.1572 -0.2972  0.0893
36460SOL     OW12334   6.560  10.443   0.660 -0.1835 -0.3043 -0.0329
36460SOL    HW112335   6.561  10.355   0.621  0.2670 -0.1502 -0.3706
36460SOL    HW212336   6.480  10.444   0.712  1.7003 -2.3655  3.2709
36461SOL     OW12337   4.849   4.559   2.211 -0.1282  0.1654  0.3134
36461SOL    HW112338   4.761   4.527   2.189 -1.3889  2.7611  1.1570
36461SOL    HW212339   4.843   4.580   2.305  1.1557  1.0859  0.2094
36462SOL     OW12340   2.955   3.070   8.238  0.5024 -0.3958  0.5354
36462SOL    HW112341   2.943   3.154   8.194  0.5951  0.0970  1.4232
36462SOL    HW212342   2.870   3.026   8.229  0.9411 -0.9189 -1.3478
36463SOL     OW12343   8.364   5.971   8.754 -1.0470 -0.7845 -0.0148
36463SOL    HW112344   8.356   6.047   8.812 -1.6871 -1.2064  0.4754
36463SOL    HW212345   8.457   5.966   8.734 -0.7920 -0.6676  1.0531
36464SOL     OW12346   9.199   0.496   0.255 -0.7613  0.5228 -0.4972
36464SOL    HW112347   9.201   0.448   0.339 -1.2453  0.3155 -0.5991
36464SOL    HW212348   9.291   0.512   0.235 -0.6233  0.2795 -0.0896
36465SOL     OW12349   6.377   7.885   3.046 -0.8236  0.2061 -0.0621
36465SOL    HW112350   6.385   7.790   3.055 -0.6946  0.3665  1.9977
36465SOL    HW212351   6.431   7.907   2.970  0.0233 -1.2366  0.0957
36466SOL     OW12352   5.011  10.367  10.314  0.2860 -0.4492  0.2547
36466SOL    HW112353   5.013  10.271  10.315  1.7265 -0.4562 -0.3015
36466SOL    HW212354   4.968  10.391  10.396 -0.9449 -1.5617 -0.0298
36467SOL     OW12355   9.419   5.504   7.903 -0.4182  0.2498 -0.2919
36467SOL    HW112356   9.416   5.588   7.859  1.1824  0.7355  0.4449
36467SOL    HW212357   9.498   5.461   7.868 -0.4394 -0.3447  0.3589
36468SOL     OW12358   5.323   5.120   0.933  0.6622  0.3793 -0.0144
36468SOL    HW112359   5.321   5.215   0.919 -1.5917  0.2433 -1.0647
36468SOL    HW212360   5.412   5.094   0.908  0.7355  1.9736 -1.6621
36469SOL     OW12361   3.830   2.200  10.287  0.1875  0.2084 -0.5207
36469SOL    HW112362   3.826   2.231  10.377  0.0311 -1.5997  0.1494
36469SOL    HW212363   3.763   2.250  10.240  0.8756  1.7932  0.1411
36470SOL     OW12364   2.514   9.241   7.287 -0.6387  0.5188 -0.2364
36470SOL    HW112365   2.542   9.201   7.205  1.2199 -1.0309  1.0365
36470SOL    HW212366   2.547   9.181   7.355 -3.4108  0.9014  1.6259
36471SOL     OW12367   4.920   3.248   1.337 -0.4295  0.7308  0.0833
36471SOL    HW112368   4.998   3.195   1.351 -0.9209  0.3805  1.7360
36471SOL    HW212369   4.853   3.186   1.309 -0.5301  0.7802  0.2159
36472SOL     OW12370  10.286   8.064   5.525  0.2113  0.6706 -1.0586
36472SOL    HW112371  10.302   8.011   5.603  2.6059 -0.0888 -1.9831
36472SOL    HW212372  10.325   8.149   5.545 -0.0733  0.8026 -1.0591
36473SOL     OW12373   5.048   8.460   7.395  0.1718 -0.6625 -0.0445
36473SOL    HW112374   5.080   8.412   7.471  2.5294 -0.6210 -0.9151
36473SOL    HW212375   5.027   8.547   7.428 -0.0948 -1.0420  0.7962
36474SOL     OW12376   1.682   5.905   9.903 -0.4395  0.0807 -0.0904
36474SOL    HW112377   1.761   5.952   9.875  0.0675 -0.9921 -0.4958
36474SOL    HW212378   1.669   5.933   9.994  0.2144  0.5301 -0.1281
36475SOL     OW12379   9.647   3.835   0.460  0.0602 -0.0886 -0.1959
36475SOL    HW112380   9.714   3.777   0.425  0.7173  0.2706  0.4425
36475SOL    HW212381   9.585   3.847   0.388 -0.0493 -1.5217 -0.3496
36476SOL     OW12382   1.855   5.739   0.218  0.3184  0.1120  0.3011
36476SOL    HW112383   1.928   5.788   0.180 -0.3980  1.7274  0.8993
36476SOL    HW212384   1.885   5.714   0.306  0.5447 -0.2055  0.1364
36477SOL     OW12385   2.364   6.577   6.042  0.4614 -0.7155 -0.4393
36477SOL    HW112386   2.375   6.607   5.952  1.4431 -0.5250 -0.2698
36477SOL    HW212387   2.295   6.512   6.037  0.5431 -0.7482 -1.3440
36478SOL     OW12388   6.116   8.801   1.933 -0.4990  0.0979  0.0905
36478SOL    HW112389   6.102   8.745   2.009 -2.0191  0.6863  0.2766
36478SOL    HW212390   6.082   8.886   1.960  1.6863  1.1289 -0.2103
36479SOL     OW12391   6.044   3.599  10.494 -0.2429  0.0348  0.4352
36479SOL    HW112392   6.134   3.606  10.525  0.3322 -1.7141 -0.7263
36479SOL    HW212393   6.033   3.674  10.435  1.0310 -0.6642 -0.7353
36480SOL     OW12394   7.956   6.586   9.665 -1.2464 -0.0224 -0.5661
36480SOL    HW112395   7.923   6.659   9.613 -2.3221 -0.2945 -0.2955
36480SOL    HW212396   7.956   6.512   9.604  1.2081  0.4562 -1.2577
36481SOL     OW12397   3.310   6.279   5.507 -0.2926 -0.4757 -0.0347
36481SOL    HW112398   3.268   6.326   5.580 -0.1974 -1.5675  0.7533
36481SOL    HW212399   3.247   6.210   5.485  1.0867 -2.2246  1.2517
36482SOL     OW12400   1.824   4.227   7.826 -0.6711  0.2340 -0.0840
36482SOL    HW112401   1.736   4.232   7.864 -0.5389  0.2734  0.2204
36482SOL    HW212402   1.869   4.304   7.861 -0.6034  0.3706 -0.4681
36483SOL     OW12403   8.809   7.099   4.720  0.1833 -0.1249 -0.5486
36483SOL    HW112404   8.871   7.025   4.719  1.3714  0.7920 -3.0392
36483SOL    HW212405   8.842   7.156   4.789  0.8757 -0.6278 -0.4487
36484SOL     OW12406   7.322   8.237   6.465  1.0029 -0.2545 -0.0701
36484SOL    HW112407   7.415   8.232   6.442  0.9804 -1.5236  0.0470
36484SOL    HW212408   7.322   8.259   6.559  1.2500 -1.9781  0.3681
36485SOL     OW12409   7.742   9.587   1.364  0.2857  0.0537 -0.7315
36485SOL    HW112410   7.779   9.508   1.325  2.5398  1.3304 -1.3836
36485SOL    HW212411   7.788   9.659   1.319 -0.5468  1.6938  0.9209
36486SOL     OW12412   5.180   6.053   6.686  0.1102  0.2036  0.1698
36486SOL    HW112413   5.171   6.091   6.598  1.0417  1.0948  0.4331
36486SOL    HW212414   5.137   5.968   6.680 -0.0465  0.3488 -1.0861
36487SOL     OW12415   1.358   2.131   9.433 -0.2139 -0.3477 -0.0612
36487SOL    HW112416   1.440   2.082   9.421  0.2650  0.7488 -1.6121
36487SOL    HW212417   1.294   2.085   9.380 -0.3880 -0.6749  0.4229
36488SOL     OW12418   8.008   3.932   7.136  0.4761  0.2944  0.3751
36488SOL    HW112419   7.937   3.916   7.073  1.3324  1.4679 -0.9321
36488SOL    HW212420   7.966   3.978   7.208 -1.0296 -3.0938  1.9234
36489SOL     OW12421   5.977   7.757   3.393 -0.4108 -0.5460 -0.1260
36489SOL    HW112422   5.951   7.774   3.483  0.3051  3.2712 -0.4974
36489SOL    HW212423   6.072   7.768   3.393 -0.5075  0.5741 -1.5124
36490SOL     OW12424   5.162  10.249   4.408  0.1510 -0.6873  0.7331
36490SOL    HW112425   5.076  10.225   4.443  0.3774  0.5927  2.3154
36490SOL    HW212426   5.199  10.167   4.375 -1.7341 -1.2137 -0.1556
36491SOL     OW12427   2.060  10.524   6.547  1.1098 -0.4001 -0.0184
36491SOL    HW112428   2.015  10.486   6.471 -0.7981 -0.7592  1.2278
36491SOL    HW212429   2.022  10.612   6.555  1.1699 -0.4332  0.6225
36492SOL     OW12430   7.219   5.542   8.590  0.3070  0.1327  0.0033
36492SOL    HW112431   7.283   5.576   8.652  0.2906  3.5361 -1.5923
36492SOL    HW212432   7.135   5.577   8.622 -0.5527 -2.5885  0.9466
36493SOL     OW12433  10.440   1.799   9.527  0.7851 -0.2807  0.2438
36493SOL    HW112434  10.487   1.753   9.457  1.1382  0.4537 -0.0048
36493SOL    HW212435  10.471   1.889   9.522  1.7404 -0.4490  2.1357
36494SOL     OW12436   1.844   1.553   6.671  0.1216  0.4026  0.3446
36494SOL    HW112437   1.797   1.568   6.753  0.0870 -0.2138  0.4421
36494SOL    HW212438   1.936   1.559   6.694  0.1059  2.4397 -0.0051
36495SOL     OW12439   5.365   1.916   2.220  0.6761  0.4472  0.1725
36495SOL    HW112440   5.448   1.949   2.254  0.0319  2.2230  0.1249
36495SOL    HW212441   5.348   1.837   2.270  2.1650  0.3007  0.4963
36496SOL     OW12442   7.067   9.778   0.095  0.3642 -0.3868 -0.6274
36496SOL    HW112443   7.111   9.747   0.016 -0.0172 -0.0106 -0.9936
36496SOL    HW212444   7.070   9.703   0.155  0.7162 -0.6527 -0.9706
36497SOL     OW12445   3.345   9.544   6.775 -0.1751 -0.0007  0.2698
36497SOL    HW112446   3.434   9.576   6.793  0.8271 -2.7061  0.6531
36497SOL    HW212447   3.290   9.621   6.783  2.0426  1.6534  0.7689
36498SOL     OW12448   4.941   6.021   3.482  0.5330  0.2448 -0.7224
36498SOL    HW112449   4.873   5.992   3.422 -0.3825  2.3368 -0.7553
36498SOL    HW212450   4.952   5.947   3.542 -1.4593 -0.3217 -0.9787
36499SOL     OW12451   1.738   0.275   7.140  0.2722 -0.7612 -0.0406
36499SOL    HW112452   1.789   0.199   7.112 -2.4755 -2.8564  0.2403
36499SOL    HW212453   1.688   0.244   7.215  0.4425  1.9579  1.3302
36500SOL     OW12454   3.913   5.648   7.128 -0.1543  0.5050  0.2381
36500SOL    HW112455   3.917   5.643   7.223  2.4325  2.0360  0.3030
36500SOL    HW212456   3.989   5.700   7.103  0.1592 -1.1264 -2.7784
36501SOL     OW12457   6.774   1.760   7.803  0.1839  0.8162  0.6769
36501SOL    HW112458   6.837   1.714   7.748 -1.2199  0.3837 -0.6452
36501SOL    HW212459   6.772   1.709   7.885  0.7206  0.1823  0.3077
36502SOL     OW12460   3.707   5.313   4.589 -0.3289  0.2430  0.3862
36502SOL    HW112461   3.789   5.360   4.606  0.7469 -0.6395 -1.9062
36502SOL    HW212462   3.733   5.241   4.531 -2.8750  0.4739 -1.1758
36503SOL     OW12463   5.064   1.387   3.465 -0.3071 -0.0694  0.4222
36503SOL    HW112464   5.078   1.449   3.393  0.0221 -0.1784  0.3913
36503SOL    HW212465   4.988   1.422   3.512 -0.6042 -0.0667 -0.0529
36504SOL     OW12466   9.161   5.494   2.987 -0.5211  0.0792 -0.2347
36504SOL    HW112467   9.115   5.507   3.070 -0.1522  0.2568 -0.0550
36504SOL    HW212468   9.117   5.554   2.926  0.0847  0.9673  0.1744
36505SOL     OW12469   4.596   8.602   4.121  0.2808 -0.6756  0.9068
36505SOL    HW112470   4.629   8.679   4.168 -0.1091  0.3352 -0.4268
36505SOL    HW212471   4.672   8.564   4.079  0.3991 -0.7643  1.1978
36506SOL     OW12472   1.721   0.778   6.411  0.3712 -0.2363  0.3740
36506SOL    HW112473   1.792   0.842   6.406 -0.7510  1.0202  0.1608
36506SOL    HW212474   1.651   0.815   6.357 -0.8834 -0.8938  1.4909
36507SOL     OW12475   8.414   4.383   1.285 -0.2042  0.1738 -0.5565
36507SOL    HW112476   8.490   4.434   1.260  0.0729 -0.2588 -0.6101
36507SOL    HW212477   8.389   4.336   1.206  1.0072 -1.6207  0.0506
36508SOL     OW12478   9.455   8.769   1.429  0.0633  0.0605 -0.0570
36508SOL    HW112479   9.521   8.759   1.498 -0.6076 -0.7838  0.4692
36508SOL    HW212480   9.401   8.843   1.459  0.9214  0.9473 -0.6314
36509SOL     OW12481   4.055   0.694   1.730  0.0836  0.2228 -0.1220
36509SOL    HW112482   4.150   0.685   1.729  0.2044  1.1563  0.9746
36509SOL    HW212483   4.035   0.732   1.816 -1.1187  1.6064 -0.9658
36510SOL     OW12484  10.316   9.787   7.574 -0.7353 -0.1346 -0.1117
36510SOL    HW112485  10.253   9.821   7.638 -1.4843 -1.2001 -0.2459
36510SOL    HW212486  10.262   9.757   7.501 -0.0714 -0.9243 -0.2963
36511SOL     OW12487   6.012   8.674  10.380  0.0832  0.4630  0.2905
36511SOL    HW112488   5.937   8.697  10.435 -0.7333 -2.0319  0.3416
36511SOL    HW212489   5.984   8.696  10.291 -0.4353  0.2283  0.3892
36512SOL     OW12490   1.537   0.471   2.949 -0.1965 -0.2260  0.0989
36512SOL    HW112491   1.514   0.487   3.041 -0.8144  1.1190 -0.2658
36512SOL    HW212492   1.627   0.501   2.942  0.2378 -1.3712  0.5023
36513SOL     OW12493   1.630   9.973   8.809  0.9462 -0.7121  0.2373
36513SOL    HW112494   1.610   9.893   8.760  1.9721 -0.0513 -1.3205
36513SOL    HW212495   1.725   9.967   8.826  1.1032  0.3512 -0.2276
36514SOL     OW12496   4.073   0.258  10.690 -0.0267  0.4147 -0.1093
36514SOL    HW112497   4.045   0.349  10.699 -0.1327  0.4913 -1.0786
36514SOL    HW212498   3.992   0.210  10.675  0.1844  0.4267 -1.4130
36515SOL     OW12499   7.452   0.642   6.077  0.0877  0.2695 -0.3943
36515SOL    HW112500   7.474   0.580   6.146  0.5570 -1.4352 -2.0093
36515SOL    HW212501   7.534   0.658   6.031 -0.2832  1.0847 -0.7990
36516SOL     OW12502   0.688   9.293   1.277 -0.1516  1.1852 -0.0861
36516SOL    HW112503   0.658   9.364   1.221  1.1244  1.1510 -0.8532
36516SOL    HW212504   0.721   9.227   1.217  1.9663  1.4741  0.6550
36517SOL     OW12505   0.604   2.274   1.597 -0.9838 -0.0882  0.0823
36517SOL    HW112506   0.517   2.253   1.562 -0.3553 -0.4149 -1.3776
36517SOL    HW212507   0.607   2.230   1.682 -1.9806 -0.7053 -0.1850
36518SOL     OW12508   9.589   7.864   4.667 -0.1864  0.1714  0.2047
36518SOL    HW112509   9.642   7.790   4.639 -1.8546 -1.0736  0.1700
36518SOL    HW212510   9.587   7.922   4.591  1.6671  0.6165  0.4486
36519SOL     OW12511   4.735  10.161   5.085 -0.2384  0.3592  1.1145
36519SOL    HW112512   4.657  10.124   5.044  0.6504  0.0566 -0.4055
36519SOL    HW212513   4.702  10.235   5.136 -1.3026  2.0890 -1.7848
36520SOL     OW12514   4.636   9.454  10.018  0.3147  0.0029 -0.3233
36520SOL    HW112515   4.658   9.545   9.997 -1.0229  0.2680 -0.6906
36520SOL    HW212516   4.720   9.411  10.032  0.9503  1.5130  0.7681
36521SOL     OW12517   2.120   3.156   4.771  0.5322  0.0381 -0.0071
36521SOL    HW112518   2.215   3.143   4.765  0.4690 -0.1035 -0.8010
36521SOL    HW212519   2.105   3.240   4.726  0.4659  0.9021  1.5731
36522SOL     OW12520   4.457   9.435   8.347 -0.1203 -0.1264  0.2561
36522SOL    HW112521   4.392   9.481   8.400 -0.3307  0.6459 -0.6270
36522SOL    HW212522   4.461   9.347   8.384 -1.1523  0.0237  0.7694
36523SOL     OW12523  10.190   9.956   2.399 -0.0527 -0.5785 -0.2369
36523SOL    HW112524  10.255   9.888   2.412  1.1730  0.6831  0.5603
36523SOL    HW212525  10.206  10.019   2.470 -1.2238  0.4676 -0.8489
36524SOL     OW12526   8.016   8.996   1.746  0.0078  0.6015 -0.5946
36524SOL    HW112527   7.994   9.025   1.658 -1.6282  0.4133 -0.2783
36524SOL    HW212528   8.014   9.076   1.799 -1.1804  0.4300 -0.3474
36525SOL     OW12529  10.256   3.907   4.450  0.2274 -0.2549  0.2873
36525SOL    HW112530  10.188   3.867   4.396 -1.3408  2.3782  0.1001
36525SOL    HW212531  10.231   3.887   4.540  0.4771 -1.1235  0.1745
36526SOL     OW12532   5.036   3.519   3.518  0.0552  0.1961  0.3557
36526SOL    HW112533   4.960   3.576   3.525  0.7962  1.0881  1.6557
36526SOL    HW212534   5.041   3.496   3.425 -1.0551  1.1463  0.0433
36527SOL     OW12535   0.454   8.877   7.922 -0.1525  0.1264 -0.1103
36527SOL    HW112536   0.393   8.817   7.879 -0.9515 -0.0659  1.2155
36527SOL    HW212537   0.448   8.957   7.871  0.4436 -0.7041 -1.5249
36528SOL     OW12538   6.125   4.745   6.999  0.4349  0.0342 -0.4544
36528SOL    HW112539   6.120   4.710   7.088 -1.8283 -0.2343 -0.6231
36528SOL    HW212540   6.218   4.743   6.978  1.2008  1.3072  2.3403
36529SOL     OW12541   6.624   3.021   2.703 -0.2823  0.2943  0.2056
36529SOL    HW112542   6.629   2.968   2.783 -0.5518  0.1040  0.0999
36529SOL    HW212543   6.592   2.960   2.636  1.7208 -0.0401 -0.5006
36530SOL     OW12544   5.469   8.372   2.969 -0.4422 -0.6016  0.1954
36530SOL    HW112545   5.431   8.458   2.955  1.1352 -0.0729 -1.0653
36530SOL    HW212546   5.411   8.312   2.922 -1.0397 -0.1293  0.3235
36531SOL     OW12547   6.794   5.225   6.234  0.3976  0.3047  0.1416
36531SOL    HW112548   6.710   5.226   6.189  0.3361 -2.6309 -0.0044
36531SOL    HW212549   6.779   5.175   6.314  1.5754  1.4635  1.1417
36532SOL     OW12550   6.125   6.152   9.910 -0.0508 -0.1774 -0.4703
36532SOL    HW112551   6.079   6.069   9.918 -1.3051  0.4213 -1.0528
36532SOL    HW212552   6.213   6.129   9.882  0.1281 -1.3869  0.9917
36533SOL     OW12553   0.275   5.824   6.215  0.1256  0.4998  0.4084
36533SOL    HW112554   0.215   5.818   6.289 -2.0782 -2.3854 -1.3737
36533SOL    HW212555   0.298   5.734   6.195  0.3693  1.1097 -2.5498
36534SOL     OW12556   0.015   8.011   7.004 -0.1089  0.3220  0.2461
36534SOL    HW112557   0.076   7.954   6.957 -0.4739  0.0807  0.0581
36534SOL    HW212558   0.063   8.038   7.082 -0.8315 -2.4013  1.7406
36535SOL     OW12559   6.236   8.470   6.533 -0.2712  0.1043 -0.1430
36535SOL    HW112560   6.286   8.468   6.614  0.3249  0.3432 -0.5005
36535SOL    HW212561   6.193   8.555   6.533  1.0082  0.7793 -0.8282
36536SOL     OW12562   3.157   1.587   5.272 -0.0184  0.0090  0.1943
36536SOL    HW112563   3.129   1.661   5.219  1.6987  2.3285  2.2594
36536SOL    HW212564   3.251   1.601   5.284 -0.0628 -1.2243  2.4955
36537SOL     OW12565   3.752   7.813   6.171  0.3896  0.0334 -0.5365
36537SOL    HW112566   3.767   7.898   6.211 -0.7505 -0.5960  1.3794
36537SOL    HW212567   3.839   7.776   6.158  0.8159  0.3275  1.3188
36538SOL     OW12568   8.485   0.744   5.975 -0.4014 -0.3611 -0.3513
36538SOL    HW112569   8.430   0.816   5.945 -0.4042 -0.2837 -0.1656
36538SOL    HW212570   8.461   0.733   6.067 -0.6517 -0.8285 -0.4652
36539SOL     OW12571   8.025   9.077   5.304 -0.2104 -0.6231  0.4495
36539SOL    HW112572   7.956   9.106   5.364  0.6432 -0.5814  1.4277
36539SOL    HW212573   8.079   9.018   5.355  0.4871 -0.6641 -0.3067
36540SOL     OW12574   3.558   8.524   1.888 -0.4402 -0.3665  0.3371
36540SOL    HW112575   3.647   8.546   1.915 -0.9355  2.7575 -0.2824
36540SOL    HW212576   3.570   8.450   1.827  1.6786 -0.1744  0.4254
36541SOL     OW12577   7.148  10.464   8.519 -0.0790  0.5690  0.3672
36541SOL    HW112578   7.074  10.507   8.562  0.0269  1.1804 -0.0667
36541SOL    HW212579   7.114  10.379   8.492 -1.0627  1.4001 -1.1328
36542SOL     OW12580   5.693   4.381   0.480  0.2764  0.3733 -0.3736
36542SOL    HW112581   5.614   4.375   0.535 -0.0380  1.9632 -0.6059
36542SOL    HW212582   5.765   4.389   0.543  0.2516 -0.8848 -0.1624
36543SOL     OW12583   5.752   7.001   4.734  0.6686  0.1749 -0.6802
36543SOL    HW112584   5.673   7.019   4.684  1.1018  0.3555 -1.3164
36543SOL    HW212585   5.726   7.011   4.826 -0.4788 -1.5253 -0.7775
36544SOL     OW12586  10.062   5.954   6.697  0.4110  0.1038 -0.2359
36544SOL    HW112587   9.995   6.001   6.647  0.3323  1.8075  1.3553
36544SOL    HW212588  10.145   5.993   6.669  0.7053 -1.3842 -1.5495
36545SOL     OW12589   3.967   1.478   2.349 -0.3049 -0.1004 -0.5882
36545SOL    HW112590   4.012   1.500   2.267 -0.3240  0.8045 -0.3656
36545SOL    HW212591   4.001   1.391   2.372 -0.1074 -0.2520 -1.4166
36546SOL     OW12592   2.379   2.058   0.297 -0.1419 -0.3901 -0.4696
36546SOL    HW112593   2.326   2.025   0.225 -0.1665 -0.7964 -0.2674
36546SOL    HW212594   2.402   1.981   0.348 -0.8397 -0.0095  0.4474
36547SOL     OW12595   9.399   6.032   1.906 -0.7955 -0.1478  0.1652
36547SOL    HW112596   9.385   6.050   2.000 -1.7693 -0.4966  0.1032
36547SOL    HW212597   9.418   5.939   1.902 -1.6009 -0.3082 -0.0557
36548SOL     OW12598   5.480   3.007   6.598  0.0472 -0.2829  0.3859
36548SOL    HW112599   5.409   2.987   6.537  0.2352  1.4505 -0.4826
36548SOL    HW212600   5.558   2.971   6.556 -0.1626 -1.2426  0.8119
36549SOL     OW12601  10.127   2.291   6.226 -0.0174  0.2508  0.1337
36549SOL    HW112602  10.090   2.240   6.298 -0.5118  1.1935  0.5574
36549SOL    HW212603  10.173   2.226   6.173 -2.3342 -0.9923 -0.4739
36550SOL     OW12604   2.078   3.967   2.948  0.0989 -0.0251 -0.4300
36550SOL    HW112605   2.155   3.914   2.970 -0.7256 -1.1354 -0.1209
36550SOL    HW212606   2.105   4.057   2.968  1.4342 -0.3414 -0.6820
36551SOL     OW12607   4.514   3.561   3.466  0.3120 -0.7094  0.3871
36551SOL    HW112608   4.485   3.646   3.501 -1.8428 -1.6759  1.1360
36551SOL    HW212609   4.455   3.543   3.393  1.3988 -1.1331 -0.4138
36552SOL     OW12610   9.860  10.117   2.884  0.0838 -0.8218 -0.1820
36552SOL    HW112611   9.896  10.189   2.937  1.0852 -1.3255 -0.1583
36552SOL    HW212612   9.814  10.161   2.812 -0.9899 -0.1318  0.8919
36553SOL     OW12613   2.172   6.170   7.214  0.4985 -0.1657 -0.8848
36553SOL    HW112614   2.078   6.186   7.227  0.5235 -1.0303  0.5949
36553SOL    HW212615   2.204   6.147   7.302  2.1787  0.5234 -1.3011
36554SOL     OW12616   6.996   0.072   9.834 -0.0818  0.4829  0.5025
36554SOL    HW112617   6.959   0.150   9.875  1.7763  0.7988  1.7350
36554SOL    HW212618   7.086   0.097   9.813  0.3547 -1.1211  0.3223
36555SOL     OW12619   2.860   9.406   7.795 -0.0221 -0.3036 -0.0781
36555SOL    HW112620   2.930   9.345   7.818 -0.1021 -0.1972  0.4724
36555SOL    HW212621   2.905   9.486   7.768  0.0687 -0.0582  0.7803
36556SOL     OW12622   0.555   5.635   5.106  0.2655 -0.0192  0.0524
36556SOL    HW112623   0.602   5.650   5.024  0.8172  0.7141  0.4900
36556SOL    HW212624   0.540   5.722   5.142 -0.0705 -0.3266  0.6814
36557SOL     OW12625  10.297  10.157   8.344 -0.0525  0.0334 -0.5153
36557SOL    HW112626  10.387  10.141   8.372  0.0693 -0.2456 -1.0562
36557SOL    HW212627  10.263  10.218   8.409  0.3660 -0.2513 -0.0168
36558SOL     OW12628   0.237   1.267   6.223 -0.3293 -0.2688 -0.1809
36558SOL    HW112629   0.307   1.203   6.232 -2.4726 -2.5991  1.4247
36558SOL    HW212630   0.179   1.230   6.157 -0.0445  1.6946 -1.6047
36559SOL     OW12631   1.603   5.439   1.343 -0.4450  0.1134  0.0379
36559SOL    HW112632   1.601   5.507   1.275 -0.2733  1.3592  1.2205
36559SOL    HW212633   1.573   5.360   1.299  0.0376  0.7851 -1.5781
36560SOL     OW12634   7.718   5.609   1.293  0.4171  0.4188  0.2740
36560SOL    HW112635   7.714   5.606   1.389 -3.2187  1.3607  0.3022
36560SOL    HW212636   7.717   5.517   1.266 -1.5452  0.1373  1.1752
36561SOL     OW12637   6.427   8.262   1.111 -0.2872  0.3244  0.4328
36561SOL    HW112638   6.409   8.273   1.018 -0.7787 -0.1248  0.4667
36561SOL    HW212639   6.523   8.260   1.117 -0.2472 -0.8635 -0.2301
36562SOL     OW12640   8.790   9.913   2.303 -0.6813  0.6185  0.0708
36562SOL    HW112641   8.801   9.992   2.356 -1.2843  1.2067 -0.6576
36562SOL    HW212642   8.872   9.905   2.254 -0.7715  1.0232 -0.1502
36563SOL     OW12643   1.495   1.193   0.962 -0.3295 -0.3653  0.4157
36563SOL    HW112644   1.415   1.186   1.014  1.3900 -0.2839  3.3043
36563SOL    HW212645   1.502   1.286   0.940 -0.8751 -0.3288  0.3956
36564SOL     OW12646   3.188   0.596   9.942  0.4803 -0.4472  0.5992
36564SOL    HW112647   3.114   0.617   9.999 -0.2242 -3.8371  1.1771
36564SOL    HW212648   3.155   0.610   9.854 -0.5210 -0.8770  0.8856
36565SOL     OW12649   4.221   4.562   5.212  0.0853 -0.1173 -0.0756
36565SOL    HW112650   4.215   4.625   5.284 -0.2799 -0.6205  0.3463
36565SOL    HW212651   4.223   4.477   5.256 -0.1318 -0.4308 -0.6679
36566SOL     OW12652   9.443   4.876   6.405 -0.8048 -0.1524  0.5421
36566SOL    HW112653   9.457   4.923   6.323  0.6574  1.2901  1.5551
36566SOL    HW212654   9.348   4.867   6.411 -0.9571  0.0240 -1.1292
36567SOL     OW12655  10.259   8.958   4.107  0.7159 -0.1645 -0.5293
36567SOL    HW112656  10.353   8.975   4.101  0.6951 -0.4160 -2.3393
36567SOL    HW212657  10.228   9.017   4.175  2.3855 -1.1108  1.1552
36568SOL     OW12658   2.115   1.776   9.651 -0.4576 -0.3035  0.0800
36568SOL    HW112659   2.136   1.776   9.744 -2.1163 -0.2933  0.4810
36568SOL    HW212660   2.091   1.867   9.632  0.3595 -0.1978 -0.4809
36569SOL     OW12661   5.961   9.726   4.559  0.3704 -0.2179 -0.3220
36569SOL    HW112662   6.040   9.771   4.532  1.3905 -0.3448  2.1937
36569SOL    HW212663   5.949   9.750   4.651 -0.4749 -3.0150  0.4141
36570SOL     OW12664   8.672   7.533   5.140 -0.1299  0.2640  0.0014
36570SOL    HW112665   8.710   7.461   5.191 -0.9094  0.5871  1.0747
36570SOL    HW212666   8.736   7.603   5.148  0.5667 -0.2434 -0.9312
36571SOL     OW12667   6.544   2.729   2.233  0.2285  0.1276  0.0484
36571SOL    HW112668   6.586   2.753   2.316  2.0786  0.8694 -1.0421
36571SOL    HW212669   6.611   2.679   2.186 -0.8909 -0.5306 -0.8945
36572SOL     OW12670   9.460   2.839   2.472  0.2499 -0.2063  0.0875
36572SOL    HW112671   9.473   2.819   2.564  0.9526 -2.5943 -0.4657
36572SOL    HW212672   9.385   2.787   2.446  0.8300 -0.5463 -0.9680
36573SOL     OW12673   6.875   0.809   4.453  0.6462  0.5655 -0.6742
36573SOL    HW112674   6.787   0.830   4.421  0.1597  0.4661  0.5361
36573SOL    HW212675   6.864   0.725   4.499  0.5601  2.1559  2.4831
36574SOL     OW12676   8.212   6.438   6.947 -0.1290  0.2499 -0.1518
36574SOL    HW112677   8.118   6.444   6.928 -0.0208  1.0271 -0.4457
36574SOL    HW212678   8.216   6.386   7.028 -0.8837  1.0670  0.4335
36575SOL     OW12679   3.589   3.041   5.547  0.2486 -0.1783  0.1735
36575SOL    HW112680   3.522   3.046   5.479  1.5461 -1.6724 -1.3019
36575SOL    HW212681   3.628   3.129   5.547  0.1584 -0.1187 -0.9603
36576SOL     OW12682   0.104   7.426   3.011  0.2446 -0.3539 -0.9154
36576SOL    HW112683   0.020   7.383   3.001  0.7916 -1.7498  0.1606
36576SOL    HW212684   0.083   7.519   3.015 -1.0411 -0.5181 -2.5369
36577SOL     OW12685   6.092   8.123   6.198  0.4329  0.2523 -0.2393
36577SOL    HW112686   6.084   8.118   6.294  0.0053 -1.1395 -0.3397
36577SOL    HW212687   6.073   8.035   6.167  1.7832  0.3753 -1.5375
36578SOL     OW12688   3.623   0.910   1.505  0.3101  0.0591 -0.0381
36578SOL    HW112689   3.623   0.912   1.601 -0.7745  0.3534 -0.0409
36578SOL    HW212690   3.537   0.877   1.481  0.2644  0.7936 -0.9302
36579SOL     OW12691   8.399  10.597   4.954  0.4738  0.1458  0.3685
36579SOL    HW112692   8.472  10.584   4.894  0.3130  1.7463 -0.2302
36579SOL    HW212693   8.377  10.510   4.986  2.1802 -0.4458  0.0128
36580SOL     OW12694   2.957   2.367   2.989 -0.5949 -0.0601 -0.3034
36580SOL    HW112695   2.995   2.305   2.927 -0.4041 -2.3904  1.9998
36580SOL    HW212696   3.032   2.417   3.021 -0.3343 -0.5607 -0.1226
36581SOL     OW12697   0.782  10.330   8.798 -0.0446 -0.2210  0.3105
36581SOL    HW112698   0.775  10.292   8.885 -1.7821  0.9849  0.7435
36581SOL    HW212699   0.771  10.256   8.739  0.1051 -0.8996  1.1222
36582SOL     OW12700  10.615   7.045   1.767  0.1225 -0.6969  0.1125
36582SOL    HW112701  10.678   6.976   1.749  0.0694 -0.4362 -1.1289
36582SOL    HW212702  10.588   7.029   1.858  1.7190 -1.0061  0.5734
36583SOL     OW12703   0.804   0.426   5.486 -0.2080  0.5266 -0.0673
36583SOL    HW112704   0.777   0.465   5.569  0.5075  1.0722 -0.0775
36583SOL    HW212705   0.745   0.352   5.473 -0.4747  0.5803  0.8084
36584SOL     OW12706   7.388   7.612  10.052  0.4089  0.2411  0.7228
36584SOL    HW112707   7.331   7.601  10.128  1.5835 -2.0157  1.4003
36584SOL    HW212708   7.331   7.647   9.983 -0.5558  2.9711  2.7439
36585SOL     OW12709   1.176  10.339   9.175 -0.6577 -0.2886 -0.6447
36585SOL    HW112710   1.228  10.414   9.205 -0.5072 -0.5694 -0.2042
36585SOL    HW212711   1.173  10.280   9.250 -2.6521  0.2634 -0.2345
36586SOL     OW12712   3.755  10.565   6.463  0.4453  0.0359 -0.2499
36586SOL    HW112713   3.750  10.645   6.412  1.2935  2.3107  2.8963
36586SOL    HW212714   3.849  10.546   6.468  0.3935 -0.0779  0.4604
36587SOL     OW12715   9.154   2.988   4.439 -0.2731 -0.2929 -0.0301
36587SOL    HW112716   9.199   3.072   4.433  0.3381 -0.6497 -0.5662
36587SOL    HW212717   9.223   2.923   4.429 -0.8480 -0.8577 -0.3928
36588SOL     OW12718   2.610   9.367   0.975 -0.0311 -0.1347  0.0071
36588SOL    HW112719   2.551   9.405   1.040  0.2756  1.0351 -0.3793
36588SOL    HW212720   2.553   9.338   0.904 -0.4411 -2.0211  1.0282
36589SOL     OW12721   2.588   3.403   4.137  0.0452 -0.4871  0.4272
36589SOL    HW112722   2.567   3.323   4.089  1.6233 -1.5321  1.3783
36589SOL    HW212723   2.528   3.403   4.212 -0.2662 -0.5426  0.1776
36590SOL     OW12724   9.390   8.052  10.456 -0.1125 -0.0999 -0.2741
36590SOL    HW112725   9.337   8.060  10.377 -0.7005 -2.1499 -0.1419
36590SOL    HW212726   9.413   7.959  10.461  0.9339  0.1865  1.3260
36591SOL     OW12727   3.126   1.205   8.472  0.4638  0.0830 -0.1213
36591SOL    HW112728   3.113   1.162   8.556  1.7337 -0.8173 -0.3534
36591SOL    HW212729   3.101   1.139   8.407 -2.4233  1.4064 -0.5162
36592SOL     OW12730   3.761   0.817   4.737  0.3896 -0.0621  0.4764
36592SOL    HW112731   3.847   0.839   4.773  1.6465 -0.6000 -1.9717
36592SOL    HW212732   3.757   0.722   4.741  0.7705 -0.1732 -1.1317
36593SOL     OW12733   7.380  10.122   5.800 -0.2114  0.3346  0.0499
36593SOL    HW112734   7.292  10.084   5.805 -0.4206  0.9101  0.8029
36593SOL    HW212735   7.419  10.105   5.885  0.1608  0.6898 -0.0454
36594SOL     OW12736   9.456   7.757   9.716  0.3951  0.2462 -0.0391
36594SOL    HW112737   9.465   7.668   9.683 -0.5292  0.5685 -1.2347
36594SOL    HW212738   9.389   7.751   9.784  0.2948  0.0287 -0.1560
36595SOL     OW12739   7.767   4.983   1.602  0.0806  0.4422 -0.0992
36595SOL    HW112740   7.836   4.937   1.649 -0.9182  1.0027  2.0503
36595SOL    HW212741   7.715   4.913   1.560 -0.5282 -0.3342  1.8441
36596SOL     OW12742   9.577   6.554   4.444  0.3507  0.3882  0.3160
36596SOL    HW112743   9.507   6.493   4.420 -0.9305  1.5705  0.8696
36596SOL    HW212744   9.532   6.622   4.495  1.4931  2.4085 -1.2445
36597SOL     OW12745   7.171   1.480   1.265  0.7805 -0.3278  0.0744
36597SOL    HW112746   7.225   1.429   1.325 -0.7147 -0.6093  1.2514
36597SOL    HW212747   7.153   1.422   1.192  1.4996 -0.4579 -0.0024
36598SOL     OW12748   7.258   8.598   6.457 -0.0842 -0.2122 -0.7022
36598SOL    HW112749   7.267   8.570   6.548  3.1656  0.2991 -0.7413
36598SOL    HW212750   7.287   8.689   6.457  0.3679 -0.3263 -2.2801
36599SOL     OW12751   3.755   8.214   5.785  0.2521  0.3216  0.2004
36599SOL    HW112752   3.674   8.164   5.777  0.3185  0.4808 -2.1218
36599SOL    HW212753   3.735   8.283   5.848 -0.9047 -0.5756  0.8413
36600SOL     OW12754   3.497   0.873   5.579 -0.3819 -0.5248 -0.0241
36600SOL    HW112755   3.527   0.811   5.646  0.9272  0.7803  0.6543
36600SOL    HW212756   3.403   0.881   5.594 -0.3784 -1.4569  0.6189
36601SOL     OW12757   2.534   3.647   7.765  0.0293  0.0375 -0.1423
36601SOL    HW112758   2.511   3.724   7.817 -0.7628  1.3569 -2.3106
36601SOL    HW212759   2.596   3.680   7.700 -0.5575 -1.0773 -1.3046
36602SOL     OW12760   9.136   9.559   3.337  0.0601  0.2288 -0.1814
36602SOL    HW112761   9.193   9.506   3.281 -1.0115  0.2374 -1.3051
36602SOL    HW212762   9.195   9.622   3.378  0.7355  0.9225 -2.1227
36603SOL     OW12763   4.656   0.234   9.192  0.3992 -0.1177  0.3107
36603SOL    HW112764   4.613   0.222   9.277 -3.0630 -3.5827 -1.6231
36603SOL    HW212765   4.609   0.306   9.151  0.1239 -0.3225  0.2639
36604SOL     OW12766   5.622   1.160   7.370  0.3111  0.0411  0.1187
36604SOL    HW112767   5.545   1.194   7.325 -0.3344 -1.0815  0.3331
36604SOL    HW212768   5.619   1.200   7.457 -1.2775 -1.6063  0.9017
36605SOL     OW12769  10.057   7.534   5.501  0.1302 -0.0020  0.3249
36605SOL    HW112770  10.121   7.602   5.484  0.0651  0.1395  0.6369
36605SOL    HW212771  10.055   7.482   5.421 -1.4892  1.6966 -0.8072
36606SOL     OW12772   9.524   3.606   1.220  0.1023 -0.2495 -0.4409
36606SOL    HW112773   9.607   3.641   1.251 -1.0548  1.2903  1.1267
36606SOL    HW212774   9.496   3.546   1.290 -1.8388  2.1497  0.9998
36607SOL     OW12775   1.240   5.041   0.039 -0.5389  0.3481 -0.8276
36607SOL    HW112776   1.300   5.009  -0.029  0.3692  0.7579 -0.2499
36607SOL    HW212777   1.185   4.966   0.060  0.0506 -0.1639 -1.0843
36608SOL     OW12778   3.153   2.557   7.962 -0.3527 -0.0135  0.3322
36608SOL    HW112779   3.168   2.521   7.874 -1.2795  0.0138  0.1548
36608SOL    HW212780   3.241   2.567   7.999 -0.0352 -2.0634  0.2323
36609SOL     OW12781  10.213   9.233   2.112 -0.0918 -0.0136 -0.0951
36609SOL    HW112782  10.303   9.260   2.094  1.1319 -2.5798  1.4919
36609SOL    HW212783  10.175   9.216   2.025  0.5330  2.1392 -0.8477
36610SOL     OW12784   7.761   4.474   0.156 -0.3672  0.4731 -0.0937
36610SOL    HW112785   7.672   4.446   0.134 -0.8005  0.3466  1.7286
36610SOL    HW212786   7.793   4.516   0.075 -1.8277 -0.0424 -0.9768
36611SOL     OW12787   6.053   8.513   5.480  0.0830  0.7109 -0.2198
36611SOL    HW112788   6.095   8.444   5.429  1.9856  2.0991 -0.6222
36611SOL    HW212789   6.051   8.479   5.570  0.5521 -0.0536 -0.4941
36612SOL     OW12790   6.486   4.755   9.388 -0.0144 -0.2610  0.0705
36612SOL    HW112791   6.405   4.791   9.350 -1.1673  1.5645  3.7339
36612SOL    HW212792   6.460   4.670   9.424 -0.4382  0.4036  1.4048
36613SOL     OW12793   1.737   4.047   4.580 -0.3708 -0.2479 -0.1067
36613SOL    HW112794   1.703   4.121   4.530  1.4023  0.7027 -0.0250
36613SOL    HW212795   1.671   4.031   4.647 -0.3399  2.0797  0.6032
36614SOL     OW12796   2.577   1.019  10.620 -0.4659  0.0198 -0.4495
36614SOL    HW112797   2.548   0.977  10.539 -0.0576 -0.6062 -0.2762
36614SOL    HW212798   2.598   1.109  10.594 -1.8506  0.2853 -0.7164
36615SOL     OW12799   3.067   5.434   0.276 -0.6290  0.0604 -0.0346
36615SOL    HW112800   3.108   5.498   0.218 -0.7565  1.0190  0.9179
36615SOL    HW212801   3.101   5.453   0.363 -1.0032 -0.8906  0.3415
36616SOL     OW12802   5.753   5.462   8.420 -0.0060 -0.0695 -0.2933
36616SOL    HW112803   5.831   5.517   8.411 -1.4189  2.3946  1.3780
36616SOL    HW212804   5.762   5.422   8.507 -0.1383 -0.6229 -0.5285
36617SOL     OW12805   2.502   4.890  10.184  0.3514  0.4021 -0.2425
36617SOL    HW112806   2.597   4.897  10.192  0.5408 -1.8685  0.2969
36617SOL    HW212807   2.472   4.876  10.274 -0.5330  1.2820 -0.3879
36618SOL     OW12808   7.578   5.053   6.866 -0.2025 -0.0939 -0.5416
36618SOL    HW112809   7.525   5.119   6.911 -0.2068 -0.6444  0.2706
36618SOL    HW212810   7.665   5.061   6.904  0.1199  0.2936 -1.3398
36619SOL     OW12811  10.424   6.826   3.760  0.0386 -0.1880  0.2693
36619SOL    HW112812  10.372   6.853   3.684  2.4552  0.3493 -1.3338
36619SOL    HW212813  10.425   6.730   3.756 -0.4651 -0.1872  0.0715
36620SOL     OW12814   7.200  10.504   4.882  0.8673 -0.3801  0.3295
36620SOL    HW112815   7.233  10.593   4.873 -0.2525 -0.0046 -0.3349
36620SOL    HW212816   7.214  10.465   4.795  0.1432 -0.4049  0.2172
36621SOL     OW12817   7.626   1.625   1.058 -0.5421 -0.5739 -0.2094
36621SOL    HW112818   7.702   1.567   1.053 -0.5520 -0.4990 -1.4923
36621SOL    HW212819   7.559   1.583   1.004 -0.5535  0.5847 -1.1491
36622SOL     OW12820   1.052   2.291   0.942 -0.3556  0.1856 -0.0583
36622SOL    HW112821   1.006   2.284   1.025  1.8260 -1.1683  1.1122
36622SOL    HW212822   0.983   2.311   0.878 -2.2714 -0.0619  1.8334
36623SOL     OW12823   5.447   3.686   8.329 -0.0082 -0.3774 -0.0370
36623SOL    HW112824   5.469   3.634   8.407  2.4804 -1.9025 -1.6184
36623SOL    HW212825   5.500   3.766   8.338 -1.8658  0.7962  1.1219
36624SOL     OW12826   4.424   0.272   5.022 -0.7440  0.3116  0.3621
36624SOL    HW112827   4.398   0.310   5.106  0.7542 -0.9246  1.4383
36624SOL    HW212828   4.391   0.183   5.024  2.3518 -0.9309  1.2845
36625SOL     OW12829   7.116   5.753   6.053  0.1206  0.5666 -0.1376
36625SOL    HW112830   7.164   5.809   5.991  1.0561  0.6356  0.6227
36625SOL    HW212831   7.113   5.667   6.010  0.9466  0.5600 -0.1964
36626SOL     OW12832  10.426   6.090  10.423  0.4381  0.0588  0.1414
36626SOL    HW112833  10.521   6.085  10.433  0.7336  2.1500 -1.0963
36626SOL    HW212834  10.412   6.085  10.329 -0.5599  1.2688  0.2138
36627SOL     OW12835   1.233   4.200   9.304 -0.4885 -0.0396 -0.0911
36627SOL    HW112836   1.248   4.275   9.362  1.5178  0.1260 -0.7543
36627SOL    HW212837   1.320   4.178   9.270 -1.2322 -1.8433 -0.9444
36628SOL     OW12838   3.216   1.543   6.969  0.1585  0.2818  0.4601
36628SOL    HW112839   3.308   1.567   6.954  0.3621 -0.4019  0.5835
36628SOL    HW212840   3.184   1.517   6.883 -0.0700  0.9950  0.3211
36629SOL     OW12841   5.544   6.062   4.836 -0.1427 -0.4559 -0.1346
36629SOL    HW112842   5.589   6.141   4.867  0.0874  0.0901 -1.7939
36629SOL    HW212843   5.466   6.056   4.891  1.2431 -0.6855  1.9233
36630SOL     OW12844   0.480   9.974   5.704  0.2329  0.6546  0.4905
36630SOL    HW112845   0.500  10.052   5.653 -1.9733  1.0185  0.0445
36630SOL    HW212846   0.521   9.902   5.655 -0.1956  1.2230 -0.7525
36631SOL     OW12847   5.265   2.227   9.049  0.5587 -0.0300 -0.2864
36631SOL    HW112848   5.234   2.161   8.987  2.3544  0.3608 -1.6922
36631SOL    HW212849   5.320   2.177   9.110 -1.2931 -0.4323  1.1392
36632SOL     OW12850   8.376   9.556   8.114 -0.2336 -0.2922 -0.4643
36632SOL    HW112851   8.336   9.477   8.151 -0.4879 -0.3965 -0.9566
36632SOL    HW212852   8.302   9.608   8.083 -0.0886  0.2788  0.1128
36633SOL     OW12853   1.708   8.450   9.001  0.4582 -0.2992  0.3937
36633SOL    HW112854   1.697   8.366   8.956  0.9783 -1.0357  1.5727
36633SOL    HW212855   1.719   8.514   8.931  0.1412 -1.2287 -0.5298
36634SOL     OW12856   5.531   5.576   9.718  0.3261  0.4241 -0.3402
36634SOL    HW112857   5.545   5.635   9.644  0.4775  0.5885 -0.1804
36634SOL    HW212858   5.598   5.508   9.709 -0.2108 -0.0478 -0.8493
36635SOL     OW12859   9.402  10.108   5.765 -0.0954  0.0616  0.0369
36635SOL    HW112860   9.475  10.085   5.707 -0.3367 -0.1532 -0.1871
36635SOL    HW212861   9.366  10.024   5.793 -1.5146  0.1093 -1.4603
36636SOL     OW12862   9.730   5.651   7.141 -0.0335  0.4341 -0.0971
36636SOL    HW112863   9.661   5.717   7.143  1.3278  1.9971 -1.4876
36636SOL    HW212864   9.714   5.597   7.218 -1.5837  2.0015  0.7440
36637SOL     OW12865   1.381  10.313  10.543  0.0010  0.5922  1.0624
36637SOL    HW112866   1.350  10.358  10.465  2.1888  3.1305  1.5134
36637SOL    HW212867   1.465  10.276  10.517 -0.1684 -0.2580  1.6914
36638SOL     OW12868   3.783   1.841   4.370  0.5096 -0.2023 -0.5932
36638SOL    HW112869   3.788   1.918   4.314 -0.2323  0.9559  0.8768
36638SOL    HW212870   3.795   1.874   4.459  3.9168 -2.2346 -0.0965
36639SOL     OW12871  10.633   8.294   3.063  0.3133  0.7735 -0.2265
36639SOL    HW112872  10.576   8.371   3.069  0.9552  1.1617  1.6452
36639SOL    HW212873  10.583   8.230   3.012 -2.6849  0.3821  2.9127
36640SOL     OW12874   0.913   0.084   3.590 -0.4492 -0.7387 -0.0610
36640SOL    HW112875   0.859   0.072   3.511 -1.6101 -0.3921  0.6430
36640SOL    HW212876   0.860   0.046   3.660  0.1184 -0.1626  0.6936
36641SOL     OW12877   4.097   5.020   5.013 -0.3718 -0.1588 -0.4746
36641SOL    HW112878   4.021   4.981   4.967 -0.7711  0.0035  0.0401
36641SOL    HW212879   4.061   5.097   5.056  0.1176 -0.0245 -0.3131
36642SOL     OW12880   2.851   0.254   2.250 -0.3905  0.1142 -0.5910
36642SOL    HW112881   2.793   0.310   2.199 -0.2351  1.0761  0.2725
36642SOL    HW212882   2.909   0.214   2.185 -1.3322 -0.0533 -1.3440
36643SOL     OW12883   8.279   7.146   6.605  0.0897 -0.8638  0.8697
36643SOL    HW112884   8.337   7.091   6.552 -0.5742 -0.5436 -0.2129
36643SOL    HW212885   8.335   7.216   6.637  0.3195 -0.5705 -0.1454
36644SOL     OW12886   0.294   1.767   4.623 -0.3338 -0.4749 -0.1634
36644SOL    HW112887   0.355   1.701   4.656 -0.9570 -1.0088 -0.0719
36644SOL    HW212888   0.305   1.764   4.528 -0.5195 -0.8614 -0.1716
36645SOL     OW12889  10.076   7.486   8.211  0.0446  0.4180 -0.5290
36645SOL    HW112890  10.013   7.480   8.283 -0.4923  1.6296 -0.8624
36645SOL    HW212891  10.022   7.489   8.132  0.6404 -1.2612 -1.0318
36646SOL     OW12892   8.366  10.595   6.981 -0.2655  0.0967 -0.4114
36646SOL    HW112893   8.409  10.653   6.917 -1.7576  0.8977 -0.7240
36646SOL    HW212894   8.435  10.576   7.045  0.7177  0.8754 -1.1886
36647SOL     OW12895   3.929   5.637   8.593  0.9417  0.4848  0.8971
36647SOL    HW112896   3.881   5.563   8.631  1.5435 -0.2811  0.2077
36647SOL    HW212897   3.890   5.715   8.634 -2.2991  0.0892 -1.0702
36648SOL     OW12898   7.949   6.094   4.763 -0.0824  0.2661 -0.5468
36648SOL    HW112899   7.904   6.140   4.833  1.2440  0.5735  0.1468
36648SOL    HW212900   7.914   6.132   4.683 -4.8105 -2.9975 -0.4113
36649SOL     OW12901   7.306   2.196   1.895  0.0039  0.2455  0.2611
36649SOL    HW112902   7.258   2.157   1.968 -1.1563  0.5233 -0.3402
36649SOL    HW212903   7.398   2.183   1.918 -0.3465 -0.5007  1.3220
36650SOL     OW12904   5.313   9.925   7.562 -0.8084 -0.1159  0.3444
36650SOL    HW112905   5.315   9.980   7.641 -1.1108 -0.8296  0.8587
36650SOL    HW212906   5.357   9.978   7.495 -0.6323  0.5395  0.9638
36651SOL     OW12907   5.595   9.873   9.394  0.5533  0.8089  0.0505
36651SOL    HW112908   5.558   9.792   9.428  0.3652  0.9601  0.2097
36651SOL    HW212909   5.643   9.847   9.315  0.4711  0.5492  0.0863
36652SOL     OW12910   4.454   7.882   8.857  0.2524 -0.0858 -0.0140
36652SOL    HW112911   4.546   7.867   8.837  0.0472  0.5159 -1.5671
36652SOL    HW212912   4.455   7.958   8.916  0.7527 -0.2039  0.1373
36653SOL     OW12913   5.074   6.806   0.750  0.1203  0.1525 -0.1750
36653SOL    HW112914   4.994   6.793   0.802  0.6377  0.2830  0.6847
36653SOL    HW212915   5.137   6.841   0.813  0.9624 -0.2835 -0.7605
36654SOL     OW12916   1.960   4.864  10.391  0.1655 -0.5064 -0.1040
36654SOL    HW112917   1.921   4.893  10.309  0.5216 -3.4296 -1.4448
36654SOL    HW212918   1.926   4.775  10.404  3.2403 -1.7127  0.6909
36655SOL     OW12919   0.324   8.196   1.260  0.1104 -0.1116  0.1668
36655SOL    HW112920   0.248   8.141   1.279  1.0130 -1.5992 -0.3366
36655SOL    HW212921   0.379   8.188   1.338  0.3710 -0.1256 -0.0179
36656SOL     OW12922   2.846   3.047   5.924 -0.4449 -0.2927  0.0580
36656SOL    HW112923   2.835   2.977   5.988 -0.0062 -2.0505 -1.6575
36656SOL    HW212924   2.758   3.063   5.890 -0.7741  1.0727  1.4603
36657SOL     OW12925   6.801   8.191   6.485  0.0649 -0.2083 -0.2849
36657SOL    HW112926   6.760   8.121   6.535  0.8670  1.3359  2.8165
36657SOL    HW212927   6.892   8.162   6.473  0.0309 -0.3262 -0.2505
36658SOL     OW12928   7.033   1.207   8.802  0.1903  0.2804  0.2508
36658SOL    HW112929   7.078   1.214   8.886  0.2816 -0.0373  0.2296
36658SOL    HW212930   7.026   1.297   8.771 -0.5812  0.4834  0.9847
36659SOL     OW12931   1.245   5.190   3.850 -0.1237 -0.0977  0.1314
36659SOL    HW112932   1.269   5.255   3.784  1.9175 -0.1608  0.7254
36659SOL    HW212933   1.232   5.109   3.800  0.0238  0.1645 -0.3454
36660SOL     OW12934   6.186   7.371   0.665 -0.0964  0.1759  0.1274
36660SOL    HW112935   6.250   7.423   0.617  1.5492 -0.3879  1.5963
36660SOL    HW212936   6.143   7.434   0.723 -0.6290  0.4967 -0.6095
36661SOL     OW12937   2.129   6.937   4.309  0.4232 -0.1937 -0.1164
36661SOL    HW112938   2.122   6.960   4.217  1.3702 -0.6427 -0.3182
36661SOL    HW212939   2.109   6.844   4.313 -0.4945  0.0055  0.2731
36662SOL     OW12940   9.064   1.257   3.725 -0.0456  0.0352  0.1381
36662SOL    HW112941   9.053   1.171   3.685  0.0532 -0.0520  0.3001
36662SOL    HW212942   9.032   1.247   3.815  1.7966 -0.3647  0.7858
36663SOL     OW12943   0.497   8.584   2.092  0.1000 -0.0889  0.2843
36663SOL    HW112944   0.567   8.519   2.087 -0.5378 -1.0244  2.2443
36663SOL    HW212945   0.499   8.614   2.183 -0.9150  1.1546 -0.0785
36664SOL     OW12946  10.411   2.554   5.944 -0.3868  0.6285 -0.0169
36664SOL    HW112947  10.348   2.511   5.886 -0.9235  1.5404 -0.1251
36664SOL    HW212948  10.451   2.482   5.993  0.6904 -0.2475 -2.0838
36665SOL     OW12949   6.102   7.688   0.673 -0.1713  0.3536 -0.3492
36665SOL    HW112950   6.175   7.740   0.640  1.6148 -1.9827 -0.2931
36665SOL    HW212951   6.137   7.645   0.751 -1.5944 -0.8660 -0.3387
36666SOL     OW12952   9.667   1.748   7.310 -0.3318 -0.3662  0.2329
36666SOL    HW112953   9.712   1.667   7.334  1.2475  0.6263  0.7751
36666SOL    HW212954   9.594   1.720   7.255  2.5522 -1.9278 -3.1897
36667SOL     OW12955   5.880   4.438   0.696  0.0450  0.6804  0.1407
36667SOL    HW112956   5.896   4.521   0.651 -2.0383  0.2728 -1.5162
36667SOL    HW212957   5.820   4.461   0.767  2.2229  1.0905  1.9445
36668SOL     OW12958   0.659   1.726   4.974  0.2410 -0.1190 -0.5790
36668SOL    HW112959   0.683   1.657   4.912 -1.0414 -0.1586 -1.0711
36668SOL    HW212960   0.573   1.755   4.944 -0.0900  0.3524  0.7823
36669SOL     OW12961   5.672   7.175   1.073  0.2122 -0.4967 -0.0386
36669SOL    HW112962   5.697   7.086   1.048 -1.5026 -1.5511  1.6890
36669SOL    HW212963   5.673   7.174   1.169 -0.5704  1.1305  0.0222
36670SOL     OW12964   5.521   0.455   7.130  0.6857  0.5346  0.0235
36670SOL    HW112965   5.433   0.486   7.151  0.8136  1.5947 -0.9233
36670SOL    HW212966   5.579   0.523   7.164  1.2457 -0.6641  1.6217
36671SOL     OW12967   3.206   7.482   7.702  0.0627 -0.5481  0.3487
36671SOL    HW112968   3.167   7.397   7.723 -0.4216 -0.2861  0.5170
36671SOL    HW212969   3.173   7.541   7.769 -0.0664 -0.0968 -0.1058
36672SOL     OW12970   4.039   2.149   8.613 -0.6288 -0.4615 -0.0910
36672SOL    HW112971   3.955   2.160   8.569 -0.0822 -0.6467 -1.2149
36672SOL    HW212972   4.081   2.076   8.567 -0.1467 -0.8321  0.9110
36673SOL     OW12973   3.726  10.566   0.743  0.7235  0.2737  0.1584
36673SOL    HW112974   3.791  10.498   0.760  0.0945 -0.8322 -1.5860
36673SOL    HW212975   3.775  10.634   0.696  0.7171 -0.3655 -0.7853
36674SOL     OW12976   3.968   1.323   4.021 -0.7119  0.6690 -0.1120
36674SOL    HW112977   3.963   1.251   4.084 -0.3150  1.9533  1.4598
36674SOL    HW212978   4.060   1.327   3.996 -0.1843  2.1903  1.8067
36675SOL     OW12979   9.437   1.422   9.038 -0.1301 -0.0838  0.3047
36675SOL    HW112980   9.478   1.441   9.122 -1.7254 -1.3043  1.4247
36675SOL    HW212981   9.448   1.327   9.027 -1.3753 -0.2061 -0.0454
36676SOL     OW12982   2.813  10.320   0.974 -0.0582 -0.1060  0.4037
36676SOL    HW112983   2.767  10.333   0.891  0.7289 -0.4699 -0.1104
36676SOL    HW212984   2.776  10.385   1.033 -0.2193  0.5572 -0.4116
36677SOL     OW12985   0.685   0.463   0.715 -0.5513  0.4931  0.1065
36677SOL    HW112986   0.707   0.481   0.624  1.0511 -2.1744 -0.1108
36677SOL    HW212987   0.642   0.377   0.714  0.3117 -0.0196  1.9290
36678SOL     OW12988   1.499   7.196   7.197 -0.1657  0.4246 -0.2507
36678SOL    HW112989   1.471   7.167   7.110  1.1960 -0.4077 -0.4372
36678SOL    HW212990   1.420   7.188   7.251 -0.3011 -2.1266 -0.6757
36679SOL     OW12991   4.303   6.455   0.199 -0.2084 -0.3079 -0.4384
36679SOL    HW112992   4.230   6.491   0.149  0.6999  0.2660 -1.4036
36679SOL    HW212993   4.373   6.445   0.135  0.7433 -0.2949  0.5663
36680SOL     OW12994   4.462   2.151   8.505  0.9352  0.0019 -0.3166
36680SOL    HW112995   4.468   2.067   8.461  0.2491  1.2560 -2.9848
36680SOL    HW212996   4.548   2.191   8.493  1.2628 -0.2554  0.9505
36681SOL     OW12997   7.901   5.460   3.749 -0.3873 -1.0649  0.0501
36681SOL    HW112998   7.996   5.451   3.743 -0.3332 -0.3807 -0.3616
36681SOL    HW212999   7.871   5.382   3.795  0.5215 -0.5949  1.5098
36682SOL     OW13000   2.283  10.686   5.234  0.1865  0.1490  0.0511
36682SOL    HW113001   2.340  10.653   5.303  1.5906  2.3861  0.0462
36682SOL    HW213002   2.231  10.754   5.276 -0.1780  0.3602 -0.7142
36683SOL     OW13003   8.587   3.212   3.830 -0.4759  0.1341  0.3435
36683SOL    HW113004   8.500   3.212   3.872 -1.4743 -0.8626 -1.6074
36683SOL    HW213005   8.578   3.273   3.757  0.7363  0.6349  0.5994
36684SOL     OW13006   4.454   7.501   6.381  0.6834  0.3321  0.0579
36684SOL    HW113007   4.423   7.463   6.463  0.7694 -0.4522 -0.2689
36684SOL    HW213008   4.533   7.550   6.406  0.0259  1.1077  0.6417
36685SOL     OW13009  10.185   9.255   3.926 -0.0527 -0.2820 -0.4456
36685SOL    HW113010  10.239   9.248   3.848 -1.0762 -2.3079 -1.0285
36685SOL    HW213011  10.237   9.309   3.986  0.6690  1.4962 -2.5473
36686SOL     OW13012   4.421   8.647   0.596 -0.5292  0.1254  0.3335
36686SOL    HW113013   4.355   8.633   0.663  0.2417 -1.0448  0.8722
36686SOL    HW213014   4.394   8.590   0.523  0.1119 -0.7124  0.7338
36687SOL     OW13015   7.510   1.798   2.341  0.1165  0.1790  0.3661
36687SOL    HW113016   7.571   1.730   2.311 -1.1667 -1.2848  0.9437
36687SOL    HW213017   7.423   1.761   2.326 -0.7774  2.9702 -2.2403
36688SOL     OW13018   7.635   7.426   6.686 -0.0353 -0.1807  0.0793
36688SOL    HW113019   7.632   7.485   6.762  0.1488  0.5372 -0.4636
36688SOL    HW213020   7.716   7.376   6.698 -0.8744 -1.3210  1.2594
36689SOL     OW13021   2.002   6.585   0.516 -0.1559  0.1168 -0.3620
36689SOL    HW113022   2.006   6.510   0.576  0.2498  0.6708  0.3233
36689SOL    HW213023   1.999   6.546   0.429  1.0888 -0.6762 -0.0710
36690SOL     OW13024   2.365   9.232   7.531  0.0217 -0.2671 -0.2507
36690SOL    HW113025   2.395   9.314   7.569 -0.4386 -0.4175  0.4701
36690SOL    HW213026   2.355   9.250   7.438 -1.3025  0.8835  0.0780
36691SOL     OW13027   5.384  10.563   6.468  0.0226  0.4465  0.4072
36691SOL    HW113028   5.384  10.652   6.503 -0.3332 -0.1147  1.9226
36691SOL    HW213029   5.425  10.571   6.382  1.6510  1.8002  1.2453
36692SOL     OW13030   6.284   0.081   1.381  0.2991 -0.2308 -0.1793
36692SOL    HW113031   6.292   0.176   1.377 -2.3932  0.0806 -0.2367
36692SOL    HW213032   6.295   0.053   1.290  1.3827 -0.0513 -0.1240
36693SOL     OW13033   4.732   4.907   3.098 -0.4075 -0.0645  0.5518
36693SOL    HW113034   4.801   4.891   3.162  1.8414 -1.5365 -2.0248
36693SOL    HW213035   4.651   4.905   3.149  1.1984 -1.5108  3.2724
36694SOL     OW13036   0.774   1.420   5.340 -0.6291 -0.6062  0.0019
36694SOL    HW113037   0.796   1.445   5.430  0.3604 -0.1989 -0.3510
36694SOL    HW213038   0.678   1.423   5.338 -0.7744 -2.3900  1.5412
36695SOL     OW13039   6.318   5.043   4.197  0.0455  0.2596  0.2763
36695SOL    HW113040   6.344   4.977   4.133 -0.1166  0.5310 -0.0731
36695SOL    HW213041   6.400   5.080   4.229  0.1095  0.7644 -0.4516
36696SOL     OW13042   4.649   7.612   7.000 -0.1280  0.1556 -0.4787
36696SOL    HW113043   4.594   7.637   7.074 -1.0037 -0.0625 -1.0411
36696SOL    HW213044   4.728   7.665   7.009 -0.8683  1.2433 -0.2360
36697SOL     OW13045   5.257   1.510   4.605 -0.2461 -0.3733 -0.6385
36697SOL    HW113046   5.224   1.463   4.529  0.2930 -1.7403 -0.0593
36697SOL    HW213047   5.273   1.442   4.670  0.4037  0.6365  0.2883
36698SOL     OW13048   7.785   4.035   8.986 -0.7865 -0.0719 -0.8308
36698SOL    HW113049   7.709   4.072   8.942 -1.5441 -1.6348 -0.9312
36698SOL    HW213050   7.859   4.055   8.928 -1.3149  0.3929 -1.3574
36699SOL     OW13051   4.128   2.944   3.761  0.0327 -0.3610 -0.2579
36699SOL    HW113052   4.032   2.944   3.758  0.0372  0.2566 -0.4971
36699SOL    HW213053   4.152   2.852   3.749 -0.4934 -0.3736 -1.2936
36700SOL     OW13054   3.686   7.704   3.276 -0.4508 -0.2641  0.7744
36700SOL    HW113055   3.659   7.777   3.221 -0.5756 -0.5540  0.4438
36700SOL    HW213056   3.605   7.654   3.292 -0.0511 -1.4996 -0.7596
36701SOL     OW13057   8.574   8.896   9.956 -0.6581  0.3915 -0.0660
36701SOL    HW113058   8.507   8.907   9.889 -0.7952  1.4989  0.2402
36701SOL    HW213059   8.545   8.950  10.029 -0.3900 -0.6111  0.8111
36702SOL     OW13060   0.257   9.347   3.378 -0.1433  0.6021  0.1162
36702SOL    HW113061   0.250   9.277   3.312  1.9255  0.1324  0.3233
36702SOL    HW213062   0.271   9.300   3.460  3.0964  1.1836  0.0122
36703SOL     OW13063   0.495   6.311   8.865 -0.2707  0.0372 -0.2438
36703SOL    HW113064   0.440   6.265   8.928 -0.6830  0.1771 -0.5021
36703SOL    HW213065   0.549   6.369   8.919  1.5537 -2.0147  0.2848
36704SOL     OW13066   0.045   4.838   6.062  0.3382  0.0948 -0.3665
36704SOL    HW113067   0.103   4.762   6.054  1.2864  0.5253  1.8278
36704SOL    HW213068  -0.037   4.802   6.096  0.5031 -0.0566 -0.1287
36705SOL     OW13069   5.902   9.899   5.275 -0.3035  0.6147  0.5609
36705SOL    HW113070   5.810   9.898   5.298 -0.8197 -1.8595 -1.2482
36705SOL    HW213071   5.945   9.845   5.341 -0.8933 -1.7983 -0.9390
36706SOL     OW13072   2.789   6.539   0.537 -0.1313 -0.3986  0.2777
36706SOL    HW113073   2.716   6.581   0.492  0.7314  0.7936 -0.0474
36706SOL    HW213074   2.757   6.523   0.626 -0.5188  0.8904  0.3891
36707SOL     OW13075   7.142   4.095  10.149  0.5193 -0.3649 -0.2437
36707SOL    HW113076   7.158   4.091  10.055  0.7779  0.1241 -0.2247
36707SOL    HW213077   7.051   4.069  10.159  0.3034  0.1897 -0.6977
36708SOL     OW13078  10.277   0.205   7.985 -0.1054 -0.2048  0.2606
36708SOL    HW113079  10.201   0.251   8.018  1.2140  0.7635  2.1290
36708SOL    HW213080  10.333   0.274   7.947 -0.1559 -0.9035 -1.1713
36709SOL     OW13081   9.574   9.984   4.697 -0.3166  0.3733 -0.1999
36709SOL    HW113082   9.509   9.913   4.703  1.7165 -1.5240  0.4804
36709SOL    HW213083   9.564  10.017   4.608 -1.8541 -0.2171 -0.2822
36710SOL     OW13084   1.550   9.566   2.388  0.5499 -0.0950  0.3505
36710SOL    HW113085   1.514   9.480   2.412  1.3013 -0.2127  1.1450
36710SOL    HW213086   1.479   9.628   2.404  0.3804 -0.4330  0.9297
36711SOL     OW13087   5.190   3.349   9.716  0.2014 -0.9217  0.1072
36711SOL    HW113088   5.198   3.261   9.753 -0.4396 -1.3391 -0.7121
36711SOL    HW213089   5.099   3.355   9.687  0.5540 -0.4597 -0.9722
36712SOL     OW13090   0.561  10.466   2.895  0.1514 -0.3814  0.1761
36712SOL    HW113091   0.599  10.543   2.938  0.2973  0.9485 -2.1184
36712SOL    HW213092   0.467  10.474   2.909  0.2798 -0.6107  1.1993
36713SOL     OW13093   6.396   3.405   3.965  0.4203  0.0208 -0.1781
36713SOL    HW113094   6.305   3.408   3.996  0.6169 -0.1498  0.4398
36713SOL    HW213095   6.444   3.368   4.038  0.8035 -1.0408 -0.9484
36714SOL     OW13096   2.360   2.246   7.322 -0.4231 -0.3690 -0.1066
36714SOL    HW113097   2.414   2.167   7.324  0.9876  0.5636  1.1372
36714SOL    HW213098   2.352   2.268   7.230  0.6890 -0.9766 -0.3657
36715SOL     OW13099   4.342   9.824   5.151  0.3967 -0.3733  0.2868
36715SOL    HW113100   4.413   9.773   5.190 -0.4464 -1.1920  0.7997
36715SOL    HW213101   4.359   9.914   5.180  1.3929 -0.4905  0.1222
36716SOL     OW13102   3.158   0.350   3.422 -0.1697 -0.4554 -0.2974
36716SOL    HW113103   3.084   0.385   3.373  0.2958 -0.7427 -1.2277
36716SOL    HW213104   3.215   0.425   3.437 -0.1108 -0.4458 -0.5685
36717SOL     OW13105   2.825   9.532   1.004 -0.0993  0.0587 -0.5615
36717SOL    HW113106   2.741   9.490   0.989  0.2697 -0.8221 -0.2320
36717SOL    HW213107   2.875   9.515   0.923  0.5521 -1.4190  0.1029
36718SOL     OW13108   6.500   0.109   0.483 -0.3157  0.2682 -0.0880
36718SOL    HW113109   6.410   0.080   0.498  0.1143 -0.7273  0.6433
36718SOL    HW213110   6.549   0.078   0.558  0.7869  0.1774 -0.8142
36719SOL     OW13111   4.360   6.679   7.976 -0.0314 -0.6650 -0.0019
36719SOL    HW113112   4.375   6.765   7.936 -2.6709 -1.1978 -2.4407
36719SOL    HW213113   4.292   6.695   8.041  1.3627 -0.5328  1.4970
36720SOL     OW13114   7.305   4.229   6.819  0.5630  0.5255 -0.4274
36720SOL    HW113115   7.398   4.211   6.799  0.1773  0.5050 -2.4410
36720SOL    HW213116   7.257   4.178   6.753 -0.8725  0.9290  0.2810
36721SOL     OW13117   7.931   6.849   2.292 -0.0615  0.0054 -0.5433
36721SOL    HW113118   7.969   6.814   2.373  0.2874  0.3501 -0.5531
36721SOL    HW213119   7.879   6.924   2.320  2.1353  1.7720 -0.8521
36722SOL     OW13120   3.064   8.093   0.168 -0.4845 -0.2087 -0.2772
36722SOL    HW113121   3.034   8.163   0.110  1.2061  0.0808 -0.8666
36722SOL    HW213122   3.094   8.024   0.109 -0.5789 -0.7384  0.2863
36723SOL     OW13123   0.687   2.222   9.775 -0.6722 -0.0283 -0.1074
36723SOL    HW113124   0.731   2.305   9.755 -0.0271 -0.7162 -1.6677
36723SOL    HW213125   0.614   2.248   9.832  0.3471  1.4228  0.6117
36724SOL     OW13126   7.361  10.390   0.843 -0.0422  0.1769  0.0352
36724SOL    HW113127   7.341  10.457   0.778  0.1527 -0.1338 -0.3486
36724SOL    HW213128   7.306  10.412   0.918  0.4738  1.1330  0.1575
36725SOL     OW13129   6.040   5.967   4.693 -0.1002 -0.3736 -0.1009
36725SOL    HW113130   6.060   6.028   4.622  0.6643 -1.5675 -0.9612
36725SOL    HW213131   6.107   5.984   4.759  1.4422 -1.6357 -1.2456
36726SOL     OW13132   2.154   0.662   7.453  0.1841 -0.2515  0.1446
36726SOL    HW113133   2.070   0.666   7.499  0.4187 -1.6247  0.7177
36726SOL    HW213134   2.186   0.753   7.454 -1.6668  0.4729 -0.8556
36727SOL     OW13135   5.220   8.985   0.827 -0.3230  0.1368 -0.1606
36727SOL    HW113136   5.137   8.947   0.853  0.4499 -1.0736  0.6466
36727SOL    HW213137   5.279   8.967   0.900  0.8645  0.2219 -1.0620
36728SOL     OW13138   5.904   3.405   0.171  0.0129  0.5236 -0.2700
36728SOL    HW113139   5.884   3.488   0.128  2.2082  1.0481 -0.4153
36728SOL    HW213140   5.992   3.417   0.207  0.3336 -1.6913 -0.1504
36729SOL     OW13141   0.603   8.002   6.983 -0.2169 -0.0407  0.5361
36729SOL    HW113142   0.528   7.943   6.980 -0.3283  0.1211  0.1270
36729SOL    HW213143   0.575   8.074   7.040  0.0683 -0.5811  1.3813
36730SOL     OW13144   8.617   2.588   2.217 -0.0914  0.3875  0.0187
36730SOL    HW113145   8.663   2.640   2.152  0.1889  0.6392  0.4137
36730SOL    HW213146   8.632   2.633   2.300 -1.9702  1.1006  0.0293
36731SOL     OW13147   3.771   9.941   4.280 -0.4745 -0.2555  0.1595
36731SOL    HW113148   3.858   9.924   4.314 -0.9549 -2.2698  0.5017
36731SOL    HW213149   3.776  10.029   4.243  2.2429 -1.0560 -1.6108
36732SOL     OW13150   6.095   5.092  10.539  0.2301  0.0108 -0.9577
36732SOL    HW113151   6.099   5.144  10.619 -1.2725 -0.8779 -0.2564
36732SOL    HW213152   6.173   5.036  10.543  1.3978  1.5437 -1.3022
36733SOL     OW13153   8.319   5.458   1.085 -0.3982 -0.3072 -0.2207
36733SOL    HW113154   8.266   5.509   1.023 -0.9751 -2.1052 -1.2775
36733SOL    HW213155   8.294   5.367   1.069  0.0609 -0.9069  2.1167
36734SOL     OW13156   6.699   8.768   4.331  0.0023 -0.3283 -0.5743
36734SOL    HW113157   6.635   8.703   4.358 -0.6553  0.3050 -0.5731
36734SOL    HW213158   6.724   8.813   4.411 -1.1936  0.8746 -0.8427
36735SOL     OW13159   4.454   8.923   5.475  0.0786  0.5122 -0.0789
36735SOL    HW113160   4.472   8.833   5.501 -1.1526  0.3133  0.1324
36735SOL    HW213161   4.363   8.938   5.501  0.5777  2.1583  0.8750
36736SOL     OW13162   3.709   3.045   6.056  0.1481 -0.2243 -0.1770
36736SOL    HW113163   3.750   3.129   6.033 -1.0376  0.1762 -0.8954
36736SOL    HW213164   3.633   3.069   6.109 -0.1316 -0.8524 -0.2816
36737SOL     OW13165   8.475   1.525   0.983  0.2112  0.0394  0.0139
36737SOL    HW113166   8.466   1.449   1.040 -0.9971  0.1430 -0.0102
36737SOL    HW213167   8.400   1.519   0.924  0.2690  1.0848 -0.1748
36738SOL     OW13168   7.093   7.565   3.954 -0.3812 -0.1309 -0.8622
36738SOL    HW113169   7.030   7.578   3.882 -0.5398  0.1493 -0.6765
36738SOL    HW213170   7.159   7.507   3.917 -0.5330 -0.1006 -1.1944
36739SOL     OW13171   0.707   2.855   0.096  0.2795 -0.6162  0.0111
36739SOL    HW113172   0.646   2.908   0.045 -1.0875 -0.2469  1.9472
36739SOL    HW213173   0.769   2.822   0.031 -2.1971 -1.3671 -2.1236
36740SOL     OW13174   6.972   5.865   1.640 -0.4451  0.2440 -0.1824
36740SOL    HW113175   6.895   5.873   1.583  1.4409  2.2939 -2.7017
36740SOL    HW213176   6.970   5.774   1.670 -1.7876 -0.8887 -3.2903
36741SOL     OW13177   5.211   1.491   6.079  0.3955  0.3760  0.1014
36741SOL    HW113178   5.194   1.551   6.006 -1.2717 -1.1797 -0.8764
36741SOL    HW213179   5.273   1.428   6.044 -1.9615 -1.6104 -0.8157
36742SOL     OW13180   1.101   6.126   9.202 -0.3240  0.5541 -0.5561
36742SOL    HW113181   1.090   6.056   9.138 -2.6720  1.0353 -0.7711
36742SOL    HW213182   1.064   6.090   9.283  4.2291 -0.7708  1.3169
36743SOL     OW13183   2.675   9.616  10.578 -0.2224 -0.5313  0.3379
36743SOL    HW113184   2.763   9.624  10.614 -1.0973 -1.4269  2.8707
36743SOL    HW213185   2.670   9.526  10.547 -0.4235 -0.6367  0.6807
36744SOL     OW13186   9.931   7.358   6.226  0.1981 -0.3238 -0.3514
36744SOL    HW113187   9.845   7.386   6.258 -1.0296 -1.5910 -2.2646
36744SOL    HW213188   9.980   7.439   6.212 -0.2465  0.3791  1.8076
36745SOL     OW13189   3.370   5.378   2.444 -0.0261  0.0673 -0.7594
36745SOL    HW113190   3.344   5.381   2.536 -2.0248 -1.0527 -1.2362
36745SOL    HW213191   3.291   5.401   2.395  1.2991  1.8443 -2.2138
36746SOL     OW13192   9.856   3.082   5.608 -0.5000  0.3123  0.0190
36746SOL    HW113193   9.828   3.107   5.696  0.8515 -0.6694  0.7546
36746SOL    HW213194   9.845   2.987   5.605  1.1501  0.0987 -0.2209
36747SOL     OW13195   9.723   0.141   9.076 -0.0051 -0.4049 -0.2215
36747SOL    HW113196   9.712   0.225   9.030 -1.3291  0.3057  1.2814
36747SOL    HW213197   9.738   0.077   9.006  2.5349  1.2525 -1.3625
36748SOL     OW13198   9.933   8.506   7.141  0.3700  0.4315 -0.2727
36748SOL    HW113199   9.986   8.569   7.093  0.8584 -1.0784 -1.8098
36748SOL    HW213200   9.985   8.483   7.218  0.4191  1.4492  0.0143
36749SOL     OW13201   1.853   3.701   6.408  0.2015  0.0836  0.4146
36749SOL    HW113202   1.775   3.749   6.383 -1.1499 -1.7445  0.8837
36749SOL    HW213203   1.897   3.757   6.472  0.2626  1.9221 -1.1500
36750SOL     OW13204   8.804   8.391   0.937 -0.3005  0.0831  0.4989
36750SOL    HW113205   8.860   8.313   0.939 -0.0564  0.2019 -0.6006
36750SOL    HW213206   8.792   8.408   0.843 -2.0747  0.1459  0.7000
36751SOL     OW13207   5.369  10.613   4.981 -0.2100 -0.4941  0.0145
36751SOL    HW113208   5.424  10.626   4.904 -1.4012  1.1450 -0.6138
36751SOL    HW213209   5.348  10.701   5.012 -1.2054 -1.0893  1.1481
36752SOL     OW13210   2.624   0.326   4.092  0.5998  0.1214  0.1366
36752SOL    HW113211   2.600   0.257   4.154  0.5085 -1.6651 -1.7979
36752SOL    HW213212   2.720   0.326   4.094  0.6374  1.7835  1.9956
36753SOL     OW13213   5.230  10.324  10.014 -0.0495 -0.1308 -0.2674
36753SOL    HW113214   5.296  10.302   9.948 -0.3475  0.4448 -0.7703
36753SOL    HW213215   5.273  10.388  10.070 -0.4036  0.8404 -1.0551
36754SOL     OW13216   0.822   1.261   2.073 -0.2369  0.5393 -0.5665
36754SOL    HW113217   0.729   1.241   2.064 -0.1443  0.1532 -0.7002
36754SOL    HW213218   0.853   1.198   2.138  0.1535 -0.0512 -1.3116
36755SOL     OW13219   1.983  10.342   2.679 -0.5060 -0.0654 -0.4283
36755SOL    HW113220   1.967  10.256   2.640  0.2288  0.0095 -0.9172
36755SOL    HW213221   2.078  10.348   2.687 -0.5693  0.5530 -0.0533
36756SOL     OW13222   3.493   1.002   1.015  0.5355  0.5006  0.0095
36756SOL    HW113223   3.530   1.087   0.991 -0.2683  1.0667  0.7116
36756SOL    HW213224   3.558   0.963   1.073  1.3332  0.2182 -1.0454
36757SOL     OW13225   7.468   6.701   3.641  0.2533  0.8796 -0.1982
36757SOL    HW113226   7.524   6.779   3.644  0.1508  0.9213  1.4009
36757SOL    HW213227   7.457   6.676   3.733  0.8912 -1.4702 -0.6944
36758SOL     OW13228   3.403   4.795   9.821 -0.1406 -0.4944 -0.4862
36758SOL    HW113229   3.494   4.774   9.840  0.2978  0.4089 -1.4999
36758SOL    HW213230   3.407   4.875   9.768 -1.6187  0.8928  1.3218
36759SOL     OW13231   0.135   8.866   2.509  0.4794  0.3800  0.2642
36759SOL    HW113232   0.196   8.875   2.583  0.4424 -0.0591  0.3475
36759SOL    HW213233   0.093   8.952   2.503  1.2514  0.7566  0.0794
36760SOL     OW13234   8.143   9.269   4.276 -0.2376 -0.1940 -0.2712
36760SOL    HW113235   8.165   9.196   4.333 -1.5118  0.9030  1.7614
36760SOL    HW213236   8.205   9.338   4.299 -0.1439 -0.0512 -0.9257
36761SOL     OW13237   5.572   1.981   8.957  0.4739  0.2954 -0.7296
36761SOL    HW113238   5.555   2.049   9.023 -2.1775  0.7959 -1.8489
36761SOL    HW213239   5.568   2.026   8.873 -2.7738 -1.3365 -1.6174
36762SOL     OW13240   7.395   2.262   4.817 -0.0653 -0.7699  0.0581
36762SOL    HW113241   7.324   2.235   4.758 -0.3417 -0.8750  0.4395
36762SOL    HW213242   7.474   2.247   4.766 -0.3749  1.3963 -1.2342
36763SOL     OW13243   6.601   0.963   3.920  0.0497  0.4029  0.1115
36763SOL    HW113244   6.661   1.013   3.977 -0.7718  1.2569  0.2429
36763SOL    HW213245   6.578   1.024   3.850 -1.3375  0.3899  0.5258
36764SOL     OW13246   3.591   8.872   7.699  0.1941 -0.0386  0.1973
36764SOL    HW113247   3.537   8.845   7.773 -0.2860  1.8739  0.6177
36764SOL    HW213248   3.564   8.815   7.627 -2.4500  0.8271  0.3844
36765SOL     OW13249   5.622   7.075   4.992  0.2697  1.1827  0.5946
36765SOL    HW113250   5.712   7.063   5.020  0.3260  1.4235  0.5191
36765SOL    HW213251   5.570   7.026   5.057  0.3866  1.8720  1.2224
36766SOL     OW13252   7.001   3.181   3.523  0.1005  0.1781  0.0719
36766SOL    HW113253   6.920   3.208   3.566 -1.4296 -1.0908 -1.8149
36766SOL    HW213254   7.026   3.255   3.468  0.0551  0.4425  0.4015
36767SOL     OW13255   7.864   6.318   2.063 -0.3843  0.2759 -0.0992
36767SOL    HW113256   7.952   6.297   2.031 -1.3968 -1.9848 -1.7216
36767SOL    HW213257   7.857   6.270   2.146 -0.3887 -0.3970 -0.4752
36768SOL     OW13258   3.100   4.258   0.303  0.4492 -0.2728  0.1377
36768SOL    HW113259   3.194   4.250   0.289  0.5397 -0.6111  0.8419
36768SOL    HW213260   3.067   4.168   0.294  0.3559 -0.3232  0.9075
36769SOL     OW13261   1.026   0.160  10.000  0.2662  0.2550 -0.1657
36769SOL    HW113262   1.004   0.239  10.050 -0.3491  1.2470 -1.9196
36769SOL    HW213263   1.070   0.193   9.922 -0.2544 -1.1212 -1.0709
36770SOL     OW13264   1.898   9.210   6.853  0.0724 -0.0569 -0.1791
36770SOL    HW113265   1.849   9.130   6.835 -1.2815  0.4754  0.9836
36770SOL    HW213266   1.937   9.195   6.939  1.6645 -0.2980 -0.8950
36771SOL     OW13267   1.362  10.165   4.206  0.0724 -0.4863 -0.8424
36771SOL    HW113268   1.385  10.152   4.298 -0.7969 -1.0687 -0.6901
36771SOL    HW213269   1.347  10.077   4.173 -1.7357 -0.1709 -0.9572
36772SOL     OW13270   2.072   2.289   3.272  0.2120  0.4299 -0.2422
36772SOL    HW113271   2.025   2.318   3.194  0.9617  1.3623 -0.3621
36772SOL    HW213272   2.027   2.332   3.345 -0.5067 -0.4646 -0.1486
36773SOL     OW13273   7.273   7.693   5.942  0.4118 -0.6613 -0.6116
36773SOL    HW113274   7.298   7.632   6.011  1.0564 -0.7977 -0.9521
36773SOL    HW213275   7.343   7.684   5.876 -0.0502 -0.3411 -1.1526
36774SOL     OW13276   4.102   0.889  10.641  0.3234  0.2998  0.7770
36774SOL    HW113277   4.046   0.929  10.574  0.1877  0.2763  0.8754
36774SOL    HW213278   4.138   0.811  10.599 -2.1272 -1.4281  1.6579
36775SOL     OW13279   9.336   4.191   7.743 -0.2251 -0.3082 -0.3908
36775SOL    HW113280   9.339   4.271   7.690  0.4865 -0.6239 -0.8465
36775SOL    HW213281   9.421   4.149   7.727 -0.0441 -0.4694  0.9061
36776SOL     OW13282   4.445   3.058   2.264 -0.5422 -0.4287 -0.3549
36776SOL    HW113283   4.354   3.037   2.243 -1.4009  0.7581  1.8276
36776SOL    HW213284   4.438   3.125   2.332  1.9859 -0.6584  0.1944
36777SOL     OW13285   7.493   1.261   9.523  0.5029 -0.5476  0.1100
36777SOL    HW113286   7.576   1.213   9.516  2.1370  1.9541  0.7007
36777SOL    HW213287   7.489   1.288   9.615  0.4413  1.5562 -0.4479
36778SOL     OW13288   1.595   6.981   0.787  0.1576 -0.0523 -0.3496
36778SOL    HW113289   1.544   6.958   0.865  1.1228 -1.2534 -0.0390
36778SOL    HW213290   1.604   7.076   0.792  1.4087 -0.2248  1.8124
36779SOL     OW13291   3.924   6.706   2.604  0.1741 -0.3991 -0.3748
36779SOL    HW113292   3.873   6.785   2.586 -0.1086 -0.6561 -0.7041
36779SOL    HW213293   3.974   6.690   2.524  0.2078 -0.5720 -0.3196
36780SOL     OW13294   6.419   2.522   7.671 -0.1176 -0.5330 -0.0961
36780SOL    HW113295   6.474   2.582   7.620  0.1246 -0.8748 -0.2424
36780SOL    HW213296   6.477   2.489   7.740 -0.5370  0.1737  0.6060
36781SOL     OW13297   5.900   5.971   8.777 -0.1839  0.1631 -0.2020
36781SOL    HW113298   5.806   5.952   8.780 -0.2188 -0.1751 -1.9267
36781SOL    HW213299   5.937   5.922   8.850 -1.2465 -0.4021 -0.0214
36782SOL     OW13300   3.000   8.506   3.582  0.3184  0.2804  0.4701
36782SOL    HW113301   3.042   8.433   3.538  1.2184  3.1397 -4.1250
36782SOL    HW213302   3.070   8.570   3.594 -1.1553  1.9782  0.4244
36783SOL     OW13303   8.445   2.967   8.385  0.2654  0.3600 -0.0000
36783SOL    HW113304   8.515   3.032   8.378  0.6894  0.1226  1.6647
36783SOL    HW213305   8.443   2.943   8.477 -2.0072  0.3123 -0.0004
36784SOL     OW13306   7.169   0.824   0.994  0.2290 -0.1105  0.1351
36784SOL    HW113307   7.105   0.790   0.931  1.2053 -1.3461 -0.2268
36784SOL    HW213308   7.170   0.918   0.979 -0.6348 -0.2141 -0.6785
36785SOL     OW13309   0.400   7.314   9.067  0.5797 -0.3522 -0.1404
36785SOL    HW113310   0.422   7.272   8.984 -1.6971 -0.7144 -0.6311
36785SOL    HW213311   0.459   7.275   9.131  3.2671  0.8203 -1.7085
36786SOL     OW13312   2.603   5.883   2.302  0.5285 -0.8167  0.4063
36786SOL    HW113313   2.673   5.821   2.281 -1.2381 -2.3155 -1.3717
36786SOL    HW213314   2.523   5.830   2.304 -0.6897  0.9446  1.6958
36787SOL     OW13315   3.745   2.732   2.856 -0.3358  0.0711  0.1849
36787SOL    HW113316   3.747   2.827   2.848 -0.0956  0.1946  1.4487
36787SOL    HW213317   3.834   2.704   2.834 -0.4735  0.1139 -0.4288
36788SOL     OW13318   8.438   4.959   7.976  1.0788  0.4600  0.3975
36788SOL    HW113319   8.423   4.908   7.896  1.6710  0.1479  0.4835
36788SOL    HW213320   8.496   4.905   8.029  0.0121  0.2915  1.4244
36789SOL     OW13321   3.277   6.566   7.383 -0.5009 -0.1358  0.1382
36789SOL    HW113322   3.250   6.654   7.359 -0.4451  0.3181  1.6767
36789SOL    HW213323   3.338   6.578   7.456 -3.0264 -1.5535  2.6639
36790SOL     OW13324   6.738   3.719   2.798 -0.0778 -0.0366  0.1816
36790SOL    HW113325   6.774   3.727   2.710 -1.3994 -0.9089 -0.4777
36790SOL    HW213326   6.697   3.804   2.815  3.1500  1.4243  1.4356
36791SOL     OW13327   9.965   1.870   8.741  0.2282 -0.6270 -0.8267
36791SOL    HW113328   9.967   1.794   8.800  0.0560 -0.2830 -0.3723
36791SOL    HW213329   9.875   1.870   8.706 -0.6950  0.9756  1.3306
36792SOL     OW13330   9.910  10.136   9.520  0.1337 -0.1003  0.9844
36792SOL    HW113331   9.956  10.052   9.522  0.5229  0.0652 -0.3846
36792SOL    HW213332   9.825  10.116   9.481  0.7819  0.3755 -0.7328
36793SOL     OW13333   2.612   3.092   7.712  0.1332  0.0660 -0.5930
36793SOL    HW113334   2.584   3.124   7.798  0.5197  0.3324 -0.5630
36793SOL    HW213335   2.708   3.087   7.719  0.1168 -0.6527 -0.7483
36794SOL     OW13336   9.678   6.165   3.697 -0.1496 -0.2586  0.6498
36794SOL    HW113337   9.746   6.150   3.632 -1.1097 -2.0307 -0.0333
36794SOL    HW213338   9.674   6.260   3.708  2.9023 -0.1069  1.2818
36795SOL     OW13339   6.988   3.421   9.172  0.1320 -0.2020  0.1561
36795SOL    HW113340   7.035   3.349   9.130 -1.4301 -0.9178 -0.4413
36795SOL    HW213341   7.008   3.497   9.118  0.2320 -0.5852 -0.3558
36796SOL     OW13342   3.393   9.741   9.179  0.1359 -0.3038 -0.0394
36796SOL    HW113343   3.485   9.745   9.204  0.1299  0.4316 -0.1253
36796SOL    HW213344   3.347   9.789   9.248 -0.0200  0.6113 -0.7587
36797SOL     OW13345   8.486   3.870   2.102 -0.0997  0.4217 -0.4710
36797SOL    HW113346   8.404   3.918   2.101 -1.0581 -1.0627  1.3491
36797SOL    HW213347   8.466   3.786   2.060 -0.0668 -0.6857  1.6092
36798SOL     OW13348   0.220   9.732   3.806  0.1058 -0.5477 -0.2750
36798SOL    HW113349   0.204   9.773   3.722 -2.9595 -1.1537 -0.1113
36798SOL    HW213350   0.191   9.641   3.794 -0.1817 -0.7026  1.3584
36799SOL     OW13351   7.041   0.109   5.712 -0.2602 -0.3961 -0.4406
36799SOL    HW113352   6.965   0.091   5.657  0.8214  0.3416 -2.2320
36799SOL    HW213353   7.071   0.196   5.684 -0.1257  0.3925  1.8739
36800SOL     OW13354  10.676   8.392   9.767  0.1362  0.3301  1.2079
36800SOL    HW113355  10.689   8.318   9.708 -1.4012  0.9666  0.0138
36800SOL    HW213356  10.686   8.354   9.855  1.6898 -0.7797  0.5887
36801SOL     OW13357   0.267  10.376   3.428 -0.3399 -0.3545  0.1636
36801SOL    HW113358   0.261  10.396   3.334  0.3725 -0.8412  0.0098
36801SOL    HW213359   0.346  10.323   3.436 -0.1802  0.0112  1.1030
36802SOL     OW13360   2.735   4.984   8.283  0.2770  0.1743 -0.2479
36802SOL    HW113361   2.803   5.046   8.306  1.1731 -1.1848  0.8950
36802SOL    HW213362   2.653   5.033   8.292  0.9815  1.2986  0.1578
36803SOL     OW13363   9.025   7.897   6.295  0.2260  0.1393 -0.1822
36803SOL    HW113364   8.995   7.809   6.316 -0.6292  0.4775  0.0703
36803SOL    HW213365   8.974   7.954   6.352 -0.6919  0.9428 -1.7289
36804SOL     OW13366   0.968  10.508   5.423  0.0659  0.2836 -0.1881
36804SOL    HW113367   0.883  10.543   5.397  0.0391  1.4645  1.3504
36804SOL    HW213368   0.952  10.467   5.508  0.8192 -0.4294 -0.3796
36805SOL     OW13369   9.801   2.193   3.073 -0.0399 -0.3388  0.2874
36805SOL    HW113370   9.839   2.223   3.156  2.0032 -0.7992 -0.4279
36805SOL    HW213371   9.859   2.229   3.006 -0.1704 -2.0803 -0.8080
36806SOL     OW13372   6.313   3.571   5.957 -0.7199 -0.3109 -0.3866
36806SOL    HW113373   6.227   3.530   5.967 -0.4068 -0.8644  0.0668
36806SOL    HW213374   6.368   3.504   5.916 -1.0249  0.7242 -2.6440
36807SOL     OW13375   2.471  10.153   1.493 -0.2947  0.6353  0.0317
36807SOL    HW113376   2.535  10.132   1.561  0.2570  0.8409 -0.4157
36807SOL    HW213377   2.497  10.099   1.419 -1.1319  0.1202  0.1086
36808SOL     OW13378   2.104   7.551   9.498 -0.3426 -0.5479 -0.0000
36808SOL    HW113379   2.098   7.561   9.403  1.0673 -0.2337 -0.0694
36808SOL    HW213380   2.049   7.620   9.533  1.3161  1.1321 -0.5797
36809SOL     OW13381   2.075   6.204   6.677  0.0059  0.0739 -0.5238
36809SOL    HW113382   2.081   6.268   6.748  2.2250  0.4469 -0.9768
36809SOL    HW213383   2.088   6.119   6.720 -1.0149  0.0741 -0.1875
36810SOL     OW13384   4.533   3.579   4.505  0.4501 -0.5777  0.5172
36810SOL    HW113385   4.479   3.565   4.583  0.1198 -1.7913  0.0851
36810SOL    HW213386   4.474   3.564   4.432  0.8242  0.3096  0.0212
36811SOL     OW13387   4.334   2.880   5.617  0.3766  0.6030  0.0110
36811SOL    HW113388   4.410   2.841   5.574 -0.0578 -0.1268 -0.0990
36811SOL    HW213389   4.310   2.817   5.685 -0.3057  0.7014 -0.1374
36812SOL     OW13390  10.038   8.682   3.657 -0.2310  0.6043  0.0923
36812SOL    HW113391  10.075   8.736   3.727  1.9406 -0.6397 -0.0135
36812SOL    HW213392  10.042   8.738   3.580  1.6090  0.4904  0.0642
36813SOL     OW13393   6.649   4.516   0.244 -0.0571 -0.1007 -0.1489
36813SOL    HW113394   6.651   4.495   0.338 -0.3812 -0.5045 -0.2322
36813SOL    HW213395   6.564   4.484   0.214  0.3342 -0.6222 -0.7286
36814SOL     OW13396   9.908  10.307   8.342  0.3390  0.2527 -0.9898
36814SOL    HW113397   9.987  10.332   8.389 -0.7278 -0.0167  1.0698
36814SOL    HW213398   9.873  10.390   8.309  0.0325  0.7617  0.5305
36815SOL     OW13399   1.731   8.167   9.771  0.0023 -0.0710 -0.4916
36815SOL    HW113400   1.665   8.216   9.721  0.7832  0.2266 -1.2631
36815SOL    HW213401   1.815   8.203   9.742  0.5958 -1.7076 -0.9235
36816SOL     OW13402   0.172   3.073   1.422  0.2562 -0.0782  0.0290
36816SOL    HW113403   0.256   3.030   1.409 -0.4677 -1.0347 -1.8188
36816SOL    HW213404   0.192   3.151   1.473  2.4957  0.5725 -1.7382
36817SOL     OW13405   1.426   9.719   9.948 -0.0677 -0.2302 -0.9746
36817SOL    HW113406   1.434   9.814   9.960 -1.6964 -0.1988  0.1420
36817SOL    HW213407   1.491   9.682  10.006 -1.1183  0.1802  0.5195
36818SOL     OW13408   3.148  10.326   9.895 -0.3165  0.6683 -0.0183
36818SOL    HW113409   3.224  10.377   9.867  0.5799 -0.6094 -0.0325
36818SOL    HW213410   3.120  10.367   9.976 -0.0191  1.5589 -0.3539
36819SOL     OW13411  10.206   6.894   5.474 -0.8411 -0.1959 -0.0308
36819SOL    HW113412  10.177   6.833   5.406  3.9472 -0.6871 -2.0407
36819SOL    HW213413  10.252   6.839   5.537 -0.4560  0.8533  0.6207
36820SOL     OW13414   3.357   1.623   6.637  0.1633 -0.2512 -0.1084
36820SOL    HW113415   3.403   1.597   6.717 -0.8323 -0.1973  0.5004
36820SOL    HW213416   3.387   1.712   6.620 -0.3544  0.1059  0.7777
36821SOL     OW13417  10.118   2.647   1.185 -0.2745 -0.0493  0.1507
36821SOL    HW113418  10.065   2.688   1.253 -0.0131 -1.0651  0.9889
36821SOL    HW213419  10.207   2.680   1.201  0.2789 -2.1447  1.9025
36822SOL     OW13420   7.622   5.031   8.435  0.6613  0.3122  0.1297
36822SOL    HW113421   7.562   5.037   8.510  0.3020  0.2239 -0.1502
36822SOL    HW213422   7.566   5.044   8.359  1.3263  2.3123 -0.0496
36823SOL     OW13423  10.477   4.540   7.739  0.1516  0.1920 -0.5904
36823SOL    HW113424  10.430   4.526   7.658  0.2800 -1.0363 -0.4620
36823SOL    HW213425  10.416   4.514   7.808  0.2553  0.6604 -0.3129
36824SOL     OW13426  10.322   2.686   4.518 -0.3475  0.0380  0.2023
36824SOL    HW113427  10.364   2.766   4.487 -0.3116  0.0817  0.3616
36824SOL    HW213428  10.270   2.714   4.594  0.3743 -0.2494  0.8068
36825SOL     OW13429   2.716   4.425   9.271  0.4768  0.9450 -0.5672
36825SOL    HW113430   2.771   4.474   9.332 -0.0371 -0.8237  1.4274
36825SOL    HW213431   2.748   4.335   9.278 -1.0134  0.3247 -1.2951
36826SOL     OW13432   6.498   6.729   8.761  0.1880  0.3567  0.2958
36826SOL    HW113433   6.477   6.736   8.855 -0.1521  0.6893  0.1965
36826SOL    HW213434   6.414   6.738   8.717 -0.0747 -2.4269  0.0413
36827SOL     OW13435   2.815   0.358   8.466 -0.5006 -0.5374 -0.3791
36827SOL    HW113436   2.854   0.435   8.425 -1.2778 -0.4035 -0.8905
36827SOL    HW213437   2.749   0.394   8.525 -0.2646 -0.7819  0.0392
36828SOL     OW13438   7.525   3.166   9.559  0.4955  0.2110  0.0548
36828SOL    HW113439   7.451   3.202   9.510  1.3337  0.1883 -1.2767
36828SOL    HW213440   7.600   3.220   9.533  1.3949 -1.2161 -0.4342
36829SOL     OW13441   2.799   2.176   5.437  0.5217 -0.4652 -0.2433
36829SOL    HW113442   2.739   2.211   5.504  2.2531  2.7641 -0.1497
36829SOL    HW213443   2.766   2.212   5.355  1.9525  0.9383 -0.2468
36830SOL     OW13444   2.721  10.493   4.357 -0.4178 -0.2527  0.5897
36830SOL    HW113445   2.632  10.497   4.321 -0.0812  1.2871 -0.1618
36830SOL    HW213446   2.751  10.405   4.335 -0.7154  0.1757 -1.8425
36831SOL     OW13447   3.714   9.693   4.162  0.0843  0.0408 -0.4707
36831SOL    HW113448   3.651   9.633   4.202 -0.6527 -0.0196 -1.6937
36831SOL    HW213449   3.703   9.775   4.210 -0.4654 -0.1617 -0.2471
36832SOL     OW13450   1.282   0.758   5.882 -0.4230  0.0324  0.2688
36832SOL    HW113451   1.235   0.825   5.931 -0.5339 -0.2288  0.5202
36832SOL    HW213452   1.215   0.722   5.823  0.1383  1.6312 -1.4361
36833SOL     OW13453   3.520   6.687  10.047 -0.0535 -0.4212 -0.5419
36833SOL    HW113454   3.559   6.757   9.994  0.5503 -1.1166 -1.0303
36833SOL    HW213455   3.493   6.621   9.983  0.8452 -1.3489 -0.0007
36834SOL     OW13456   8.024   2.471   1.179 -0.7343  0.3622  0.0785
36834SOL    HW113457   7.970   2.487   1.102 -0.3080 -1.9206 -0.7722
36834SOL    HW213458   7.962   2.453   1.249 -1.0929 -0.3060 -0.4124
36835SOL     OW13459   3.284   0.853   9.242 -0.5468 -0.7330 -0.0128
36835SOL    HW113460   3.264   0.939   9.207 -2.2053 -0.7140  0.8850
36835SOL    HW213461   3.370   0.831   9.205 -1.5648 -0.1714 -2.9802
36836SOL     OW13462   8.048  10.405   5.057 -0.3341  0.0971  0.2029
36836SOL    HW113463   8.116  10.346   5.024 -1.1897 -1.5630  1.2801
36836SOL    HW213464   7.993  10.424   4.981  1.4241  1.6658 -0.7380
36837SOL     OW13465   8.328   7.368   3.991 -0.0078  0.0096  0.2466
36837SOL    HW113466   8.387   7.442   3.988  0.9115 -0.7318 -0.7006
36837SOL    HW213467   8.304   7.353   3.899 -0.4949 -0.6098  0.4692
36838SOL     OW13468   4.989   2.645   1.452  0.2214 -0.1505  0.5032
36838SOL    HW113469   5.010   2.567   1.504  0.7997 -0.7135 -0.5462
36838SOL    HW213470   4.894   2.654   1.459  0.0713 -1.2959  0.1700
36839SOL     OW13471   2.570   6.094   3.149  0.1194  0.8116  0.1627
36839SOL    HW113472   2.557   6.184   3.180 -2.9445  0.3186  0.6149
36839SOL    HW213473   2.535   6.039   3.220  1.0306 -0.7099 -0.5217
36840SOL     OW13474   2.160   0.198   5.361 -0.5196 -0.6211 -0.0506
36840SOL    HW113475   2.163   0.293   5.352 -1.4104 -0.6915 -1.3559
36840SOL    HW213476   2.071   0.179   5.389 -1.3835 -1.2391 -2.8820
36841SOL     OW13477   9.464   1.533   6.264 -0.0565  0.2420  0.2647
36841SOL    HW113478   9.450   1.627   6.275 -0.5362 -0.0078  2.0030
36841SOL    HW213479   9.437   1.494   6.347 -0.6056 -1.5256 -0.6791
36842SOL     OW13480   8.453   4.222   4.091  0.0749  0.3621 -0.1678
36842SOL    HW113481   8.540   4.260   4.096 -0.2072  1.1550 -1.2085
36842SOL    HW213482   8.402   4.282   4.036 -1.1545 -0.0407  0.4817
36843SOL     OW13483   2.143   6.971   7.248  0.3451  0.0447  0.4767
36843SOL    HW113484   2.166   6.988   7.340 -0.0847 -0.2128  0.6333
36843SOL    HW213485   2.223   6.932   7.211 -0.3079 -2.4580  1.4706
36844SOL     OW13486   9.831   7.672   0.339  0.1239  0.0010 -0.2243
36844SOL    HW113487   9.857   7.747   0.285  0.6248  0.7071  0.9510
36844SOL    HW213488   9.800   7.711   0.421 -0.7227 -1.0360 -0.0323
36845SOL     OW13489   1.513   8.247  10.146 -0.1552  0.1871  0.3541
36845SOL    HW113490   1.465   8.185  10.201 -0.6053 -0.7241 -1.0093
36845SOL    HW213491   1.603   8.216  10.148 -0.3939 -0.5935 -0.3875
36846SOL     OW13492   4.281   4.683   3.773  0.1501  0.3020  0.0164
36846SOL    HW113493   4.325   4.760   3.738  0.7923  0.8172  1.8910
36846SOL    HW213494   4.250   4.709   3.859 -1.6638 -0.8370 -0.2260
36847SOL     OW13495   7.813   7.994   5.473 -0.4713 -0.5948 -0.5025
36847SOL    HW113496   7.766   7.911   5.476  0.2209 -0.9988 -0.6725
36847SOL    HW213497   7.860   7.999   5.556  1.0912 -1.3388 -1.3108
36848SOL     OW13498   1.625  10.309   5.265 -0.1864 -0.0709  0.0118
36848SOL    HW113499   1.701  10.348   5.222  0.2056  0.3723  1.0632
36848SOL    HW213500   1.550  10.347   5.220  0.2025 -0.3529 -0.9027
36849SOL     OW13501   6.153   3.073   7.312 -0.0434 -0.1264  0.1993
36849SOL    HW113502   6.216   3.024   7.260 -0.1382 -0.5430  0.4743
36849SOL    HW213503   6.154   3.031   7.398  0.6947  1.0399  0.7991
36850SOL     OW13504   8.903  10.413   9.723  0.2145 -0.3002 -0.3442
36850SOL    HW113505   8.839  10.365   9.670 -0.2591  1.3507 -1.3697
36850SOL    HW213506   8.948  10.346   9.774 -1.6661 -1.6269 -0.3173
36851SOL     OW13507   6.716   5.739   0.349  0.1805  0.3794  1.0480
36851SOL    HW113508   6.766   5.772   0.423 -0.0048  1.4398  0.7228
36851SOL    HW213509   6.687   5.818   0.303  0.4766 -0.2492 -0.2766
36852SOL     OW13510   8.790   7.338   0.884 -0.6122  0.5821 -0.2566
36852SOL    HW113511   8.823   7.424   0.913 -0.5503  1.3847 -2.5324
36852SOL    HW213512   8.757   7.354   0.796 -0.0516 -1.8704 -0.9686
36853SOL     OW13513   4.853   2.097   6.584  0.6134  0.2423 -0.2671
36853SOL    HW113514   4.816   2.009   6.582 -0.3344  0.6215 -0.0173
36853SOL    HW213515   4.803   2.142   6.652  0.6176  1.1839 -0.8755
36854SOL     OW13516   1.632   1.820   9.078 -0.3619 -0.0738 -0.2920
36854SOL    HW113517   1.574   1.752   9.043  0.4479 -1.1545  0.4125
36854SOL    HW213518   1.720   1.785   9.065  0.0511  0.6607  0.4527
36855SOL     OW13519   6.988   3.640   6.109 -0.1444  0.1311 -0.6745
36855SOL    HW113520   7.033   3.717   6.073  0.1798  0.0159 -0.5183
36855SOL    HW213521   6.942   3.602   6.034 -0.6088  0.6860 -0.6771
36856SOL     OW13522  10.244   1.253   9.653 -0.1413  0.3661  0.1928
36856SOL    HW113523  10.329   1.269   9.611  0.0187  0.2932  0.4871
36856SOL    HW213524  10.254   1.287   9.741 -0.5129  0.6083  0.1416
36857SOL     OW13525   2.975   6.391   5.256  0.2384  0.5071  0.3158
36857SOL    HW113526   2.999   6.461   5.316  1.9003 -0.5339  0.9407
36857SOL    HW213527   3.056   6.370   5.210 -0.2485 -0.9178  0.0638
36858SOL     OW13528   9.895   4.758   6.481 -0.0649 -0.0466  0.2620
36858SOL    HW113529   9.975   4.736   6.433 -0.0274  0.0232  0.2922
36858SOL    HW213530   9.827   4.702   6.443  0.0790 -0.3905  0.5046
36859SOL     OW13531   7.112   6.168   3.120  0.4148  0.7276 -0.2201
36859SOL    HW113532   7.167   6.176   3.042 -1.2033  3.1442 -1.2405
36859SOL    HW213533   7.023   6.165   3.087 -0.2854  0.7766  1.5304
36860SOL     OW13534   3.515  10.428   5.816 -0.2065 -0.3076 -0.1149
36860SOL    HW113535   3.516  10.336   5.843  0.0479 -0.6346 -1.1872
36860SOL    HW213536   3.582  10.433   5.747  1.8105  1.2666  1.8024
36861SOL     OW13537   3.178   7.445   8.103  0.6934 -0.1609 -0.3423
36861SOL    HW113538   3.107   7.387   8.075 -0.7290  2.0940 -1.7919
36861SOL    HW213539   3.258   7.394   8.090 -0.3133 -1.1791 -3.5231
36862SOL     OW13540   4.876   7.714   7.076 -0.1982  0.2071 -0.2452
36862SOL    HW113541   4.932   7.734   7.150 -0.2624 -1.1436  0.1955
36862SOL    HW213542   4.920   7.643   7.030 -1.0104 -0.1391 -0.5156
36863SOL     OW13543   4.016   7.796   1.093 -0.0629  0.6305  0.3355
36863SOL    HW113544   4.090   7.748   1.056  0.2945  2.1601 -1.0546
36863SOL    HW213545   4.040   7.811   1.184  0.8239  0.1496  0.1892
36864SOL     OW13546   4.097   0.733   2.051 -0.0052  0.3910 -0.0116
36864SOL    HW113547   4.108   0.821   2.016  0.4855 -0.3979 -1.9892
36864SOL    HW213548   4.185   0.708   2.081  0.8378 -0.7873 -3.0608
36865SOL     OW13549   5.795   1.376   4.211  0.0426  0.2703 -0.2606
36865SOL    HW113550   5.827   1.465   4.200 -1.6726  1.1990  1.4463
36865SOL    HW213551   5.790   1.341   4.122 -1.4445  2.7405 -1.2794
36866SOL     OW13552   9.224   5.336   2.559  0.0081  0.0700  0.4096
36866SOL    HW113553   9.221   5.267   2.626 -0.9905  0.7281  1.0816
36866SOL    HW213554   9.257   5.292   2.481  1.0032 -0.7758  1.2711
36867SOL     OW13555   7.177   4.330   5.541  0.1065 -0.4142 -0.0535
36867SOL    HW113556   7.106   4.387   5.571  0.9409 -0.1156  1.4756
36867SOL    HW213557   7.166   4.249   5.592  0.4133 -0.6459 -0.3517
36868SOL     OW13558   4.086   2.545   8.037  0.0889  0.7179  0.0817
36868SOL    HW113559   4.163   2.584   7.996  0.6842  0.7963  1.2308
36868SOL    HW213560   4.056   2.612   8.099 -1.1208  0.8304 -0.6072
36869SOL     OW13561   2.807   7.962   4.093  0.2379  0.2876  0.3116
36869SOL    HW113562   2.837   7.890   4.036  2.0986  0.9598  0.3966
36869SOL    HW213563   2.762   8.022   4.033  1.6521  0.6965 -0.3675
36870SOL     OW13564  10.406   4.349  10.465  0.0397 -0.4838  0.2629
36870SOL    HW113565  10.438   4.404  10.537  2.0061  0.4249 -1.1975
36870SOL    HW213566  10.483   4.301  10.436 -0.3994  0.0327 -1.9483
36871SOL     OW13567   9.296   6.554   4.333 -0.1679  0.4356  0.3377
36871SOL    HW113568   9.235   6.557   4.259  1.2605  2.0716 -0.8571
36871SOL    HW213569   9.261   6.618   4.395  0.3383  1.4308 -0.3808
36872SOL     OW13570   3.101   7.750   1.192 -1.1417 -0.3536 -0.3844
36872SOL    HW113571   3.135   7.839   1.204 -0.4388 -0.8609  1.8293
36872SOL    HW213572   3.013   7.754   1.229 -1.9101 -0.1217 -2.1472
36873SOL     OW13573   5.652  10.371   7.685  0.4988  0.5036 -0.3206
36873SOL    HW113574   5.646  10.301   7.749  1.4836  0.1061 -0.6573
36873SOL    HW213575   5.578  10.428   7.705  0.7615  0.3518  1.1287
36874SOL     OW13576   3.856   1.426   9.276  0.3195 -0.1326  0.3974
36874SOL    HW113577   3.937   1.392   9.316  1.1077 -0.5690 -1.4624
36874SOL    HW213578   3.876   1.431   9.182 -1.3968  0.9977  0.0495
36875SOL     OW13579   1.050   5.704   5.601  0.4604  0.2850  0.7125
36875SOL    HW113580   1.137   5.741   5.582  0.0860  0.6150 -0.4663
36875SOL    HW213581   1.042   5.631   5.540 -0.5195  0.9370  0.0337
36876SOL     OW13582   5.392   9.140   2.283  0.1912  0.0109 -0.1176
36876SOL    HW113583   5.464   9.200   2.298  1.0642 -0.8998 -0.5709
36876SOL    HW213584   5.433   9.056   2.264 -1.0042 -0.9730  1.3757
36877SOL     OW13585   6.775   7.836   2.351  0.3852 -0.2274  1.1555
36877SOL    HW113586   6.794   7.919   2.395 -0.9570 -0.4489  2.2391
36877SOL    HW213587   6.737   7.781   2.420  1.0923 -1.6927  0.4098
36878SOL     OW13588   9.363   1.356   3.277  0.4557  0.2327  0.0742
36878SOL    HW113589   9.384   1.372   3.185 -1.7797 -0.3729 -0.6100
36878SOL    HW213590   9.274   1.388   3.287 -0.0773 -1.5161  1.4975
36879SOL     OW13591   4.104   4.278   8.029  0.1841 -0.3331  0.2772
36879SOL    HW113592   4.025   4.274   7.975  0.8765 -0.5227 -0.7701
36879SOL    HW213593   4.127   4.371   8.031  2.3927 -0.5999 -3.2687
36880SOL     OW13594   8.051   4.742   8.925 -0.2809 -0.6718  0.0341
36880SOL    HW113595   8.088   4.705   9.005  0.5852 -0.8506 -0.4411
36880SOL    HW213596   8.102   4.704   8.855  0.9623  1.7317 -0.4657
36881SOL     OW13597   9.614   6.083   5.328 -0.2939 -0.2697  0.3821
36881SOL    HW113598   9.556   6.158   5.312 -0.2216 -0.1274  0.7722
36881SOL    HW213599   9.658   6.068   5.244  0.3486  0.6862  0.5309
36882SOL     OW13600   1.503  10.315   9.619 -0.1011 -0.9503 -0.7502
36882SOL    HW113601   1.525  10.405   9.595 -2.6265 -0.4411 -1.4301
36882SOL    HW213602   1.576  10.286   9.674  0.6430  1.5870 -0.2917
36883SOL     OW13603  10.185   6.247   3.683  0.0095  0.6515  0.4070
36883SOL    HW113604  10.103   6.284   3.715  0.8253  1.6221  1.4844
36883SOL    HW213605  10.250   6.276   3.747  1.4803  1.3612 -1.3250
36884SOL     OW13606   8.123   0.746   0.731 -0.3316 -0.0423  0.4520
36884SOL    HW113607   8.109   0.741   0.636  0.3589 -1.8179  0.4066
36884SOL    HW213608   8.035   0.739   0.768 -0.5645  0.1418 -0.0543
36885SOL     OW13609   6.667   1.807   3.845  0.0428 -0.3640  0.5451
36885SOL    HW113610   6.637   1.870   3.779  0.1670 -1.3400 -0.4612
36885SOL    HW213611   6.605   1.817   3.917 -0.1615  0.6381  0.2455
36886SOL     OW13612   1.929   6.482   7.554 -0.0575  0.4203 -0.4769
36886SOL    HW113613   1.887   6.499   7.638  0.8383 -0.7632  0.2388
36886SOL    HW213614   2.022   6.498   7.571  0.2406 -0.6787 -0.9786
36887SOL     OW13615   5.614   7.596   9.013  0.1529  0.3842 -0.2366
36887SOL    HW113616   5.572   7.618   9.096 -1.5171  2.2171 -1.4565
36887SOL    HW213617   5.690   7.653   9.008  0.4171  0.0665  0.1595
36888SOL     OW13618   5.757   1.133   7.628  0.6045  0.1219 -0.4741
36888SOL    HW113619   5.792   1.175   7.706  1.8688 -2.6169  0.5744
36888SOL    HW213620   5.834   1.097   7.583 -0.3027 -0.3969 -1.7015
36889SOL     OW13621   6.860   5.179   8.512  0.5312 -0.8923 -0.0307
36889SOL    HW113622   6.881   5.251   8.572 -0.4551 -1.0524  0.5231
36889SOL    HW213623   6.868   5.218   8.425  1.4610 -0.5196  0.2088
36890SOL     OW13624   2.782   1.532   8.111  0.3980  0.2182  0.2649
36890SOL    HW113625   2.796   1.502   8.201 -1.8205  2.8822  1.6828
36890SOL    HW213626   2.838   1.608   8.102  0.3644  0.1586 -0.4985
36891SOL     OW13627   2.304   6.374   1.057 -0.3866 -0.8326 -0.0758
36891SOL    HW113628   2.314   6.350   1.149  1.5838 -1.4571 -0.3966
36891SOL    HW213629   2.380   6.334   1.014 -0.1792  1.0739 -1.6287
36892SOL     OW13630   4.519   3.460   2.869 -0.4159 -0.5979 -0.4564
36892SOL    HW113631   4.555   3.527   2.927  0.5948 -0.5766 -1.0836
36892SOL    HW213632   4.425   3.462   2.885 -0.3223  0.5070  0.0218
36893SOL     OW13633   1.926   2.674   1.396 -0.0520 -0.0540 -0.7208
36893SOL    HW113634   1.923   2.689   1.302 -1.5834  1.8212 -0.4441
36893SOL    HW213635   1.859   2.732   1.432  1.2975  0.1935  1.6417
36894SOL     OW13636   6.038   9.284   8.027 -0.1033  0.1898 -0.0516
36894SOL    HW113637   6.011   9.376   8.025  1.3906  0.6569 -0.0246
36894SOL    HW213638   5.992   9.244   7.953 -1.7553  0.6359  0.6767
36895SOL     OW13639   3.341   0.733   7.277 -0.8080  0.5277  0.1776
36895SOL    HW113640   3.395   0.694   7.346 -1.2278 -0.1630  0.1168
36895SOL    HW213641   3.401   0.744   7.203 -0.3191  1.3999  0.6758
36896SOL     OW13642   6.640   3.891   7.696 -0.5430  0.0105 -0.9232
36896SOL    HW113643   6.728   3.870   7.666  1.5232  1.1694  3.5271
36896SOL    HW213644   6.619   3.823   7.759 -1.8813  0.9404 -0.3215
36897SOL     OW13645   5.260   1.967   5.994  0.5048  0.0511  0.5959
36897SOL    HW113646   5.212   2.048   5.975  0.0070  0.1961  2.3158
36897SOL    HW213647   5.247   1.952   6.088  0.2548 -2.2543  0.2517
36898SOL     OW13648  10.340   2.891   5.133  0.4347 -0.3736 -0.1382
36898SOL    HW113649  10.408   2.836   5.096  1.2757  0.7393 -0.2896
36898SOL    HW213650  10.338   2.969   5.077 -1.4365 -0.6745 -0.5580
36899SOL     OW13651  10.465   8.416   1.432 -0.0192  0.0374 -0.1213
36899SOL    HW113652  10.423   8.350   1.376 -1.9444  1.6373 -0.6941
36899SOL    HW213653  10.540   8.446   1.381  0.4896 -1.2081 -0.1406
36900SOL     OW13654   8.908   9.149   8.062  0.2795 -0.4568 -0.1064
36900SOL    HW113655   8.957   9.067   8.061  3.0639  1.0747 -1.4064
36900SOL    HW213656   8.940   9.198   7.987 -2.2717  1.3396 -0.1731
36901SOL     OW13657   0.316  10.469   5.467 -0.3580 -0.0388  0.7477
36901SOL    HW113658   0.307  10.381   5.431  1.7017 -0.7395  1.7867
36901SOL    HW213659   0.316  10.456   5.562  0.6729  0.9749  0.9113
36902SOL     OW13660   0.927   1.466   8.515  0.2812 -0.0041  0.3699
36902SOL    HW113661   0.885   1.536   8.565  0.1539  1.7217 -1.9630
36902SOL    HW213662   0.857   1.430   8.461  0.8396 -0.3365 -0.1417
36903SOL     OW13663   0.239   2.796   8.521 -0.6144  0.4680  0.0599
36903SOL    HW113664   0.268   2.707   8.499  1.2851  1.0688 -0.0096
36903SOL    HW213665   0.216   2.792   8.614  0.0892  0.0468  0.2228
36904SOL     OW13666   2.731   1.413   6.383 -0.4017 -0.0294 -0.3486
36904SOL    HW113667   2.647   1.444   6.418 -0.6983 -0.3889 -0.7156
36904SOL    HW213668   2.709   1.382   6.295  0.3274  0.9043 -0.8744
36905SOL     OW13669   6.066   6.998   8.463  0.4001  0.2957  0.4640
36905SOL    HW113670   6.016   6.937   8.409  0.2252  0.4958  0.3961
36905SOL    HW213671   6.151   6.956   8.476  0.0347 -0.2859  1.0126
36906SOL     OW13672   7.767   7.700   4.390  0.2662 -0.6050  0.1501
36906SOL    HW113673   7.793   7.742   4.308 -0.7188  0.8116  0.5309
36906SOL    HW213674   7.819   7.620   4.393 -0.0028 -0.9298 -2.0709
36907SOL     OW13675   7.376   6.292   3.865  0.2239 -0.0432 -0.3805
36907SOL    HW113676   7.349   6.365   3.920 -0.2990 -1.4945  1.4107
36907SOL    HW213677   7.299   6.273   3.811  0.2609  0.5389 -0.6401
36908SOL     OW13678   9.938   3.932   5.738  0.1562 -0.2265 -0.2100
36908SOL    HW113679   9.885   3.981   5.675 -1.7974 -0.7317  0.9280
36908SOL    HW213680   9.900   3.844   5.738 -0.0539 -0.1799  1.7778
36909SOL     OW13681   5.143   0.569   1.208 -0.2191 -0.9567 -0.1106
36909SOL    HW113682   5.133   0.659   1.240 -0.3894 -1.4508  1.2519
36909SOL    HW213683   5.237   0.560   1.191  0.1542 -1.2147  1.9036
36910SOL     OW13684   2.222   6.641   8.582  0.5971 -0.1060 -0.2592
36910SOL    HW113685   2.210   6.572   8.647  1.2025  0.0251  0.0024
36910SOL    HW213686   2.314   6.634   8.557  0.1935 -0.6605 -1.6902
36911SOL     OW13687   0.556   1.119   1.502  0.3565 -0.0235 -0.2991
36911SOL    HW113688   0.625   1.092   1.562 -1.0905 -0.2006  1.3532
36911SOL    HW213689   0.532   1.038   1.456  1.7526  0.1943 -1.4924
36912SOL     OW13690   3.406   3.356   0.014  0.0120 -0.0576 -0.0130
36912SOL    HW113691   3.321   3.368   0.056 -0.4955 -2.0270 -0.3698
36912SOL    HW213692   3.423   3.439  -0.031 -2.1336  0.0808 -0.6634
36913SOL     OW13693   6.949   4.664   1.055 -0.4981 -0.2448 -0.1121
36913SOL    HW113694   6.965   4.661   0.961  4.0430 -1.2604  0.4326
36913SOL    HW213695   6.973   4.753   1.081 -0.7515 -0.2698  0.2179
36914SOL     OW13696   9.572   4.454  10.595  0.1763  0.2389 -0.5320
36914SOL    HW113697   9.582   4.366  10.631 -1.7330  0.3399  0.3351
36914SOL    HW213698   9.632   4.508  10.647  1.0194 -0.4315 -0.7751
36915SOL     OW13699   5.142   9.591   1.144 -0.3186  0.0447  0.6679
36915SOL    HW113700   5.217   9.644   1.172 -0.2504  0.5129 -0.3521
36915SOL    HW213701   5.170   9.500   1.158  1.0461  0.1378 -1.0762
36916SOL     OW13702   0.513   0.751   2.060 -0.3175 -0.5832 -0.1979
36916SOL    HW113703   0.504   0.806   1.982  2.6119 -0.8884 -0.8580
36916SOL    HW213704   0.424   0.723   2.080 -1.4757  1.5765 -1.8864
36917SOL     OW13705   2.443   8.318   3.022  0.2918 -0.1493 -0.6714
36917SOL    HW113706   2.494   8.321   2.941  0.0716  2.8771 -0.8123
36917SOL    HW213707   2.383   8.392   3.014 -1.1996 -1.0657  1.3626
36918SOL     OW13708   0.554   8.633   5.367 -0.0904  0.1549  0.4808
36918SOL    HW113709   0.619   8.622   5.436  0.4597 -1.6907 -0.2720
36918SOL    HW213710   0.512   8.547   5.359 -3.6050  1.5643  1.8358
36919SOL     OW13711   8.830   0.761   6.831 -0.0638 -0.1185 -0.8888
36919SOL    HW113712   8.815   0.845   6.787 -1.2917 -0.7085 -1.6538
36919SOL    HW213713   8.923   0.762   6.855  1.0137 -0.2260 -4.5201
36920SOL     OW13714   1.045   3.854   1.429 -0.0436 -0.0428  0.3378
36920SOL    HW113715   1.024   3.852   1.523 -1.3265  0.4347  0.0739
36920SOL    HW213716   1.005   3.775   1.394 -1.4140  0.8259 -0.1501
36921SOL     OW13717  10.477   4.771   0.351 -0.2806 -1.1594  0.0852
36921SOL    HW113718  10.429   4.709   0.296 -0.1218 -0.7747 -0.4947
36921SOL    HW213719  10.525   4.716   0.413  0.3163 -1.6501 -0.7943
36922SOL     OW13720   3.730   9.388   8.717 -0.0352 -0.1686  0.0989
36922SOL    HW113721   3.678   9.405   8.796 -0.5902 -0.9192 -0.1027
36922SOL    HW213722   3.672   9.340   8.659  1.0049 -1.4337  0.0492
36923SOL     OW13723   7.089   3.654   5.726  0.0104  0.3527 -0.0365
36923SOL    HW113724   7.013   3.705   5.700 -0.9287  0.3464  2.4564
36923SOL    HW213725   7.096   3.585   5.660 -1.4440  1.0203 -0.9239
36924SOL     OW13726   7.706   0.079   9.127  0.3779  0.5885  0.1081
36924SOL    HW113727   7.637   0.141   9.154  0.3844  0.9186 -0.6194
36924SOL    HW213728   7.659   0.009   9.082  0.3954  0.1739  0.7270
36925SOL     OW13729   8.481   9.785   5.783 -0.4502  0.4749  0.3492
36925SOL    HW113730   8.518   9.797   5.871  0.8182 -1.2503  0.0875
36925SOL    HW213731   8.443   9.871   5.762 -1.3636  0.7733  2.8149
36926SOL     OW13732   3.150   9.568   1.118 -0.0195 -0.2856  0.0833
36926SOL    HW113733   3.099   9.647   1.138 -0.5024 -0.7853  0.8565
36926SOL    HW213734   3.084   9.500   1.105  0.3632 -0.4192 -1.2994
36927SOL     OW13735   8.961   5.601  10.088  0.0557  0.9982 -0.1242
36927SOL    HW113736   8.988   5.588   9.998  0.3354 -1.8960  0.2789
36927SOL    HW213737   9.032   5.651  10.128  0.4254  1.3663 -1.2209
36928SOL     OW13738   4.685   9.058   0.428  0.8275  0.3675 -0.4831
36928SOL    HW113739   4.705   9.026   0.516  0.1199 -1.1529 -0.8382
36928SOL    HW213740   4.696   8.981   0.372 -3.8000 -0.2039 -1.0031
36929SOL     OW13741  10.629   9.821   1.626 -0.2988  0.0586 -0.2116
36929SOL    HW113742  10.613   9.729   1.649 -0.3182 -0.0201 -0.5456
36929SOL    HW213743  10.621   9.825   1.531  1.5095  0.0366 -0.4087
36930SOL     OW13744   4.333   8.045   9.683 -0.9177  0.8911 -0.0701
36930SOL    HW113745   4.324   7.971   9.744  0.9184  0.8344  0.1849
36930SOL    HW213746   4.313   8.122   9.735  1.3502  0.9141  0.9010
36931SOL     OW13747   4.427   3.950   1.349 -0.2688  0.3423 -0.3005
36931SOL    HW113748   4.437   4.011   1.275 -2.2203  0.7318 -0.3104
36931SOL    HW213749   4.383   3.874   1.311 -1.2558  0.5304  0.4314
36932SOL     OW13750  10.480   6.697   6.349 -0.0259  0.2511  0.1365
36932SOL    HW113751  10.441   6.781   6.372  2.0253  1.4182 -0.3962
36932SOL    HW213752  10.405   6.638   6.337 -1.5016  1.9068  0.8038
36933SOL     OW13753   5.477   5.252   3.107  0.2245 -0.3536 -0.7288
36933SOL    HW113754   5.428   5.319   3.060 -2.1667 -1.2063  0.3542
36933SOL    HW213755   5.487   5.181   3.044  0.7300  0.1129 -1.1811
36934SOL     OW13756   4.280   1.661   3.431  0.1504  0.6416 -0.6387
36934SOL    HW113757   4.342   1.687   3.363  0.5606  0.5656 -0.2966
36934SOL    HW213758   4.267   1.739   3.484  0.6142  0.4257 -0.2029
36935SOL     OW13759   5.099  10.495   1.748 -0.0913 -0.2770 -0.2690
36935SOL    HW113760   5.066  10.516   1.661 -0.1490 -1.1615 -0.4708
36935SOL    HW213761   5.055  10.558   1.806  2.0265  2.1978 -1.1469
36936SOL     OW13762   3.459   5.578   6.298 -0.0784 -0.0018 -0.7852
36936SOL    HW113763   3.510   5.507   6.258  0.1942  0.3898 -1.1379
36936SOL    HW213764   3.446   5.641   6.227  0.9151  0.9868 -0.1360
36937SOL     OW13765   0.370   2.861   7.482 -0.2124  0.5491 -0.1337
36937SOL    HW113766   0.440   2.810   7.522  0.2569  0.1511 -1.3924
36937SOL    HW213767   0.370   2.944   7.528  0.7090  0.3383  0.2606
36938SOL     OW13768   3.332   2.352   5.167  0.5509 -0.5546  0.0014
36938SOL    HW113769   3.395   2.288   5.133  1.8750  0.4910  0.4098
36938SOL    HW213770   3.370   2.380   5.250 -0.1767  0.5246 -0.0168
36939SOL     OW13771   7.159   1.890   9.751  0.2976  0.6929  0.0263
36939SOL    HW113772   7.180   1.798   9.769  1.5900  0.7873 -0.8624
36939SOL    HW213773   7.068   1.899   9.778  0.0600 -0.9184 -0.1194
36940SOL     OW13774   4.739   9.820   5.972 -0.2032  0.0575 -0.3359
36940SOL    HW113775   4.708   9.738   5.932  0.1065  0.6794 -1.9179
36940SOL    HW213776   4.811   9.848   5.916  3.1836 -1.1309  2.9551
36941SOL     OW13777   9.305   6.506  10.517  0.7463 -0.2619  0.1927
36941SOL    HW113778   9.317   6.483  10.425 -5.0656 -0.8804 -0.7831
36941SOL    HW213779   9.294   6.422  10.561 -2.3900 -0.0484  0.0883
36942SOL     OW13780   8.400   1.946   8.420 -0.0341  0.6438  0.2313
36942SOL    HW113781   8.325   1.928   8.476  1.2394 -1.1511  1.4513
36942SOL    HW213782   8.476   1.921   8.472  1.2689 -0.0649 -1.8832
36943SOL     OW13783   2.915  10.224   3.512  0.7340 -0.7032  0.5701
36943SOL    HW113784   2.989  10.164   3.510  0.3960 -1.1481  1.0809
36943SOL    HW213785   2.839  10.170   3.490  0.6126 -0.1601 -0.3919
36944SOL     OW13786   2.331   1.177   5.621  0.0725  0.0327  0.4998
36944SOL    HW113787   2.260   1.121   5.589  0.8507 -0.5552 -0.2517
36944SOL    HW213788   2.410   1.127   5.603  0.6599  0.4702  1.7527
36945SOL     OW13789   4.757   4.461   5.670  0.0749  0.1782  0.0101
36945SOL    HW113790   4.798   4.392   5.723  0.3228  1.6799  1.8957
36945SOL    HW213791   4.685   4.494   5.725 -0.9982  0.4321 -1.4805
36946SOL     OW13792   1.214   4.919   1.304 -0.7725 -0.5338  0.0752
36946SOL    HW113793   1.186   4.978   1.234 -1.4436 -0.0487  0.7261
36946SOL    HW213794   1.290   4.874   1.269 -1.3005 -0.5546 -1.0897
36947SOL     OW13795   2.286   7.128   7.643  0.7697  0.2829 -0.3136
36947SOL    HW113796   2.219   7.061   7.628 -0.3505  1.4597 -0.8365
36947SOL    HW213797   2.286   7.180   7.562  0.9746  1.4277  0.3923
36948SOL     OW13798   3.486   4.649   9.093 -0.2112 -0.0128 -0.7854
36948SOL    HW113799   3.538   4.574   9.123  0.3500  0.6088 -0.1585
36948SOL    HW213800   3.455   4.690   9.174 -0.1769  0.6598 -1.1111
36949SOL     OW13801   2.238   5.184   4.013 -0.0918 -0.1895  0.3501
36949SOL    HW113802   2.170   5.117   4.020 -0.1838 -0.0676  0.6624
36949SOL    HW213803   2.311   5.141   3.969  0.4287 -0.9341  1.8949
36950SOL     OW13804   8.109  10.079   1.692 -0.1321 -0.2446  0.7102
36950SOL    HW113805   8.039  10.059   1.754 -0.4008 -0.8468  0.2325
36950SOL    HW213806   8.083  10.034   1.612  1.7575 -2.1889  1.0823
36951SOL     OW13807   0.804   6.660   9.049 -0.1273  0.1274  0.1398
36951SOL    HW113808   0.897   6.649   9.068 -0.5070 -3.1657  0.8206
36951SOL    HW213809   0.762   6.662   9.134 -0.7384  0.8555 -0.1717
36952SOL     OW13810   7.258   5.991   8.113 -0.0340  0.2116 -0.1081
36952SOL    HW113811   7.313   6.060   8.076  1.1683 -0.5401  0.2540
36952SOL    HW213812   7.235   6.022   8.200 -1.2536  1.0912 -0.7077
36953SOL     OW13813   1.928   3.914  10.334  0.0873  0.1404 -0.3049
36953SOL    HW113814   1.874   3.993  10.331  0.8131  0.7116  0.7941
36953SOL    HW213815   1.942   3.899  10.428  1.7353 -0.0552 -0.5596
36954SOL     OW13816   0.434   7.438   8.140  0.2666 -0.0795 -0.1165
36954SOL    HW113817   0.403   7.444   8.049 -0.2339  0.2655  0.0730
36954SOL    HW213818   0.441   7.529   8.168  1.4576 -0.1451 -0.1479
36955SOL     OW13819   4.909   5.231   6.611 -0.3048 -0.0396  0.5530
36955SOL    HW113820   4.958   5.170   6.666  0.5951  2.0536  2.2533
36955SOL    HW213821   4.976   5.271   6.555 -0.8505 -0.4191 -0.3949
36956SOL     OW13822   2.868   7.224   2.835  0.3114  0.5491 -0.3066
36956SOL    HW113823   2.869   7.309   2.878  1.0491  0.3358  0.1216
36956SOL    HW213824   2.957   7.191   2.844  0.0008 -0.3366 -0.3327
36957SOL     OW13825   7.808   6.402   1.395  0.1888  0.0394  0.0864
36957SOL    HW113826   7.874   6.408   1.464  0.5967 -1.2279 -0.1649
36957SOL    HW213827   7.739   6.348   1.434 -0.3558  0.7169  0.0773
36958SOL     OW13828   2.898   8.929  10.083  0.1308 -0.2770 -0.3027
36958SOL    HW113829   2.871   8.971  10.001 -0.4043  2.0509  0.9913
36958SOL    HW213830   2.919   9.001  10.142  1.3667 -1.9008  1.3704
36959SOL     OW13831   8.255  10.256   8.385 -0.3505 -0.1573  0.7484
36959SOL    HW113832   8.186  10.194   8.364 -0.4839  0.5168 -0.9230
36959SOL    HW213833   8.229  10.337   8.342  1.2523  0.2410  0.4315
36960SOL     OW13834   3.984   6.942   0.943 -0.3161  0.2648 -0.1859
36960SOL    HW113835   3.921   7.010   0.920 -1.4308 -0.4819  0.5696
36960SOL    HW213836   3.956   6.865   0.894 -1.2430 -0.6448  1.6783
36961SOL     OW13837   8.114   3.235   9.158  0.0525 -0.0545  0.2668
36961SOL    HW113838   8.032   3.231   9.209  0.2151  3.1407  0.9615
36961SOL    HW213839   8.176   3.279   9.216  2.1988 -1.9519 -0.4445
36962SOL     OW13840   7.116   0.855   4.945 -0.0938 -0.2092  0.3555
36962SOL    HW113841   7.142   0.854   4.854  0.8385 -0.5986  0.6178
36962SOL    HW213842   7.105   0.948   4.966  0.1837 -0.0924 -0.0164
36963SOL     OW13843   5.972   3.200   6.607  0.2915  0.2789  0.4913
36963SOL    HW113844   6.003   3.270   6.549 -0.3739 -2.0848 -3.0782
36963SOL    HW213845   5.878   3.216   6.615  0.1623 -0.0846 -0.2097
36964SOL     OW13846   8.775  10.090   3.903  0.2577 -0.0951  0.1978
36964SOL    HW113847   8.798  10.005   3.942  0.4844 -0.5035 -0.8035
36964SOL    HW213848   8.822  10.154   3.957  0.4602 -0.6405  0.6800
36965SOL     OW13849   3.769   9.430   7.999  0.4930  0.2725 -0.3130
36965SOL    HW113850   3.811   9.399   8.079 -0.8056 -0.1567  0.2362
36965SOL    HW213851   3.819   9.390   7.928 -0.6832 -2.6010  0.3504
36966SOL     OW13852   1.348   3.530   9.445 -0.8531  0.1258  0.3003
36966SOL    HW113853   1.363   3.518   9.539  0.3430  0.8099  0.2074
36966SOL    HW213854   1.416   3.591   9.416  1.4560 -3.1294 -1.8177
36967SOL     OW13855   0.170   7.573   7.688  0.0938  0.3933 -0.0390
36967SOL    HW113856   0.161   7.530   7.603 -3.3870  0.0029  0.3842
36967SOL    HW213857   0.187   7.665   7.666 -0.1622  0.1957 -1.1258
36968SOL     OW13858   3.700   8.460   2.634  0.1179  0.5883 -0.4975
36968SOL    HW113859   3.755   8.456   2.712 -0.4352  1.3324 -0.0477
36968SOL    HW213860   3.723   8.382   2.584  0.2615 -0.0697  0.5629
36969SOL     OW13861   8.902   1.357   1.361  0.2468  0.6076  0.4111
36969SOL    HW113862   8.989   1.348   1.400 -1.1147  0.7914  3.8738
36969SOL    HW213863   8.883   1.271   1.324  1.4439  0.2225  0.6526
36970SOL     OW13864   3.628  10.070   6.716  0.2990 -0.0949  0.1411
36970SOL    HW113865   3.631  10.156   6.674  1.5474  0.3108  1.0097
36970SOL    HW213866   3.710  10.028   6.691 -0.4164 -1.1784 -0.5010
36971SOL     OW13867   4.671   0.959   6.511 -0.3364 -0.1823 -0.0613
36971SOL    HW113868   4.654   1.048   6.479 -1.2278 -0.2609  0.1808
36971SOL    HW213869   4.626   0.902   6.448  1.4596 -0.5706 -1.0772
36972SOL     OW13870   3.725   2.087   4.903 -0.3414 -0.3011 -0.3570
36972SOL    HW113871   3.737   2.028   4.830 -1.9428  1.3968 -2.1195
36972SOL    HW213872   3.803   2.142   4.904 -0.1870 -0.5187 -0.6012
36973SOL     OW13873   2.294   0.584   8.261  0.1409  0.3446 -0.2673
36973SOL    HW113874   2.297   0.572   8.356 -2.3347 -0.8613 -0.2678
36973SOL    HW213875   2.261   0.673   8.249 -2.9965 -0.6316  0.1618
36974SOL     OW13876  10.449   2.199   4.599 -0.8692 -0.1755  0.5238
36974SOL    HW113877  10.457   2.289   4.567 -3.5100 -0.2668 -0.6280
36974SOL    HW213878  10.516   2.150   4.551  2.7262  1.5348  3.3228
36975SOL     OW13879   3.986   4.297   9.056  0.0372  0.4227  0.6246
36975SOL    HW113880   4.002   4.267   9.146 -0.4649 -1.4392  0.1509
36975SOL    HW213881   4.065   4.345   9.032  0.9735 -0.6328  1.4661
36976SOL     OW13882   4.484   4.229   2.978  0.0257  0.2044 -0.6077
36976SOL    HW113883   4.462   4.322   2.980 -1.0761 -0.0472 -0.7032
36976SOL    HW213884   4.433   4.191   3.050  2.3765  0.0443  1.1057
36977SOL     OW13885   3.425   1.257   4.730 -0.3568  0.2475 -0.3107
36977SOL    HW113886   3.346   1.202   4.729 -1.8834  2.3181 -0.3090
36977SOL    HW213887   3.462   1.244   4.817 -0.8338 -0.5814 -0.2220
36978SOL     OW13888  10.213   0.960   2.899 -0.3536  0.3481  0.2255
36978SOL    HW113889  10.123   0.950   2.870 -0.4036  1.2341  0.0704
36978SOL    HW213890  10.217   1.048   2.936  0.4036  0.2516  0.3878
36979SOL     OW13891   4.556   3.856   2.751 -0.6799 -0.2172 -0.3292
36979SOL    HW113892   4.483   3.831   2.694 -1.0927 -0.2395  0.2015
36979SOL    HW213893   4.553   3.794   2.824 -1.2932  0.9137  0.6462
36980SOL     OW13894   9.133   9.896   1.526 -0.4690 -0.1966 -0.2069
36980SOL    HW113895   9.104   9.981   1.561 -1.1030 -0.0917 -0.9444
36980SOL    HW213896   9.228   9.897   1.538 -0.5439  0.3219  0.4318
36981SOL     OW13897   2.893   8.348   9.737  0.5294  0.4830  0.1410
36981SOL    HW113898   2.919   8.286   9.669  0.1464  0.2192  0.2301
36981SOL    HW213899   2.889   8.432   9.692  3.5773  0.9383  0.5676
36982SOL     OW13900   2.588   9.362   9.598 -0.6027 -0.6553 -0.1835
36982SOL    HW113901   2.509   9.316   9.572 -0.5437 -0.9647  0.1810
36982SOL    HW213902   2.660   9.304   9.571 -0.5377 -0.9433  0.5899
36983SOL     OW13903   7.897   6.448   5.201  0.0646  0.2373  0.1196
36983SOL    HW113904   7.992   6.439   5.203  0.3055  2.3514  0.6865
36983SOL    HW213905   7.878   6.516   5.266 -1.9856 -1.1247  1.0428
36984SOL     OW13906   5.002   9.350   1.134  0.2768 -0.6633 -0.2542
36984SOL    HW113907   5.032   9.417   1.072  1.1653 -0.4809  0.3678
36984SOL    HW213908   4.916   9.382   1.163  1.3549  1.1036  1.2692
36985SOL     OW13909   5.951   8.916   2.448  0.2087 -0.4625 -0.0564
36985SOL    HW113910   6.010   8.991   2.440  1.8546 -1.7862 -0.9969
36985SOL    HW213911   5.900   8.917   2.367 -1.5343  0.9848  0.9810
36986SOL     OW13912   2.476   7.250   5.992 -0.6060  0.2529 -0.4147
36986SOL    HW113913   2.444   7.279   6.078 -1.6664  0.4689 -0.8675
36986SOL    HW213914   2.443   7.161   5.983  1.1811 -0.5321  0.2198
36987SOL     OW13915   0.261   2.434   5.709 -0.6086  0.0403  0.2672
36987SOL    HW113916   0.338   2.380   5.727 -0.7156  0.3037  1.6602
36987SOL    HW213917   0.205   2.380   5.654 -0.5062 -1.1087  1.2511
36988SOL     OW13918   2.752   3.982   3.277 -0.1744  0.0185  0.2612
36988SOL    HW113919   2.785   4.027   3.199 -0.7796  0.9339  0.5189
36988SOL    HW213920   2.695   3.913   3.242 -0.3306  0.3349 -0.1216
36989SOL     OW13921   5.791   7.875   9.202  0.2444 -0.1456 -0.4395
36989SOL    HW113922   5.748   7.844   9.282 -0.5897 -1.2609 -1.2911
36989SOL    HW213923   5.883   7.887   9.227  0.1711 -1.3321  0.4551
36990SOL     OW13924   8.251   4.037   2.169 -0.1089  0.0945 -0.0606
36990SOL    HW113925   8.174   4.025   2.114 -0.8801  0.4802  0.8911
36990SOL    HW213926   8.216   4.034   2.259  1.4355 -3.4087  0.5944
36991SOL     OW13927   1.342   2.828   0.592  0.0187 -0.6628  0.3874
36991SOL    HW113928   1.348   2.840   0.687 -1.1148  1.6516  0.2306
36991SOL    HW213929   1.248   2.824   0.575  0.1035  1.2390 -0.8175
36992SOL     OW13930   5.919   3.164   9.733 -0.8982 -0.2325  0.1634
36992SOL    HW113931   5.880   3.078   9.750  0.4749 -1.0832 -0.8146
36992SOL    HW213932   5.851   3.212   9.685 -1.5888 -0.8403  0.5131
36993SOL     OW13933   4.894   6.929   1.143  0.7308  0.5019  0.0417
36993SOL    HW113934   4.836   6.917   1.068  0.8877 -1.3889  0.1597
36993SOL    HW213935   4.951   7.001   1.118 -0.6516  1.3894 -0.7107
36994SOL     OW13936   2.023   3.305   4.420  0.4578 -0.0314 -0.0540
36994SOL    HW113937   2.104   3.329   4.375  0.1810 -1.8994 -1.6722
36994SOL    HW213938   1.953   3.333   4.361 -0.1745  1.8700  1.4773
36995SOL     OW13939   3.354   1.886   7.567  0.1861  0.3419 -0.1601
36995SOL    HW113940   3.341   1.954   7.633  0.7235  0.5561 -0.2714
36995SOL    HW213941   3.439   1.846   7.589  0.0745 -0.0072 -0.3475
36996SOL     OW13942   0.869  10.619   0.693 -0.2057 -0.3290 -0.0646
36996SOL    HW113943   0.786  10.577   0.672 -0.0499 -0.2485 -0.8500
36996SOL    HW213944   0.926  10.547   0.721 -0.7132 -0.3109  1.0767
36997SOL     OW13945   5.864   7.589   4.841  0.2162 -0.4083 -0.2920
36997SOL    HW113946   5.830   7.506   4.808  0.4771 -0.5655 -0.1668
36997SOL    HW213947   5.856   7.582   4.936  0.0119 -0.1906 -0.2906
36998SOL     OW13948   3.589  10.252   2.151 -0.2255 -0.5824 -0.2427
36998SOL    HW113949   3.674  10.288   2.174 -0.3915 -0.5366  0.3141
36998SOL    HW213950   3.528  10.325   2.160 -0.3604 -0.6736 -0.4057
36999SOL     OW13951   1.431   8.203   5.120  0.0255  0.3428  0.4571
36999SOL    HW113952   1.368   8.132   5.110 -0.2225  0.5641  0.4449
36999SOL    HW213953   1.446   8.235   5.031 -0.4732  0.8314  0.5434
37000SOL     OW13954  10.576   7.291   0.374 -0.0547 -0.3487  0.3287
37000SOL    HW113955  10.622   7.291   0.459  0.8441 -0.8997 -0.1434
37000SOL    HW213956  10.606   7.212   0.331 -1.3293 -0.6231 -0.0911
37001SOL     OW13957   5.108   8.423   5.740  0.2367  0.4199 -0.5451
37001SOL    HW113958   5.107   8.328   5.732 -0.6218  0.3559  0.1609
37001SOL    HW213959   5.183   8.442   5.796  2.0473  0.3883 -2.8061
37002SOL     OW13960   5.139   9.167   3.400  0.0302  0.8907 -0.1589
37002SOL    HW113961   5.216   9.196   3.352 -0.3863  0.3065 -1.1940
37002SOL    HW213962   5.136   9.225   3.476  0.3159  2.2755 -1.1638
37003SOL     OW13963   4.104   7.515   1.751 -0.1269  0.3691 -0.5922
37003SOL    HW113964   4.171   7.577   1.781  1.2200  0.1615 -2.9414
37003SOL    HW213965   4.028   7.570   1.732 -0.6679  0.6284  1.9602
37004SOL     OW13966  10.341   5.792   0.995  0.1148 -0.1604  0.6577
37004SOL    HW113967  10.263   5.764   0.948  0.6248  0.5236 -0.6523
37004SOL    HW213968  10.395   5.713   1.002  0.2004 -0.1993 -0.2809
37005SOL     OW13969   2.043   7.965   8.387 -0.5081  0.2574 -0.0415
37005SOL    HW113970   2.108   7.998   8.324 -0.0070 -0.4511  0.1011
37005SOL    HW213971   2.024   8.040   8.443  1.0254  0.1773  0.6217
37006SOL     OW13972   3.957   2.396   2.327  0.3319 -0.1324 -0.4117
37006SOL    HW113973   4.050   2.393   2.348  0.2043 -1.2195  0.0697
37006SOL    HW213974   3.929   2.304   2.329 -1.0916  0.2899  1.0319
37007SOL     OW13975   5.019   7.175   4.965  0.3011  0.0890  0.2624
37007SOL    HW113976   4.925   7.190   4.954  0.3013 -0.1019  0.0062
37007SOL    HW213977   5.024   7.101   5.026  0.2900  0.2723  0.4901
37008SOL     OW13978   7.392   9.434   7.155 -0.0470 -0.0149 -0.1912
37008SOL    HW113979   7.321   9.433   7.220  0.0116  1.1932 -0.0722
37008SOL    HW213980   7.364   9.499   7.091  1.3981  1.2617  0.4153
37009SOL     OW13981   4.204   1.717   8.990  0.4681  0.4983 -0.0554
37009SOL    HW113982   4.159   1.667   8.921  0.3092 -0.2423  0.5742
37009SOL    HW213983   4.246   1.651   9.045 -0.2274  0.9998  1.1292
37010SOL     OW13984   4.707   9.130   2.052  0.2431 -0.0655  0.3342
37010SOL    HW113985   4.769   9.075   2.099  0.9949  0.5127  0.0399
37010SOL    HW213986   4.762   9.187   1.998 -0.5236  0.9591  0.6231
37011SOL     OW13987  10.091   9.576   0.529 -0.2437 -0.0616  0.3377
37011SOL    HW113988  10.060   9.538   0.611 -1.1617 -1.6021 -0.6748
37011SOL    HW213989  10.094   9.670   0.546 -0.1328 -0.3741  2.2076
37012SOL     OW13990   7.364   2.398   8.769  0.1224  0.0687 -0.8056
37012SOL    HW113991   7.375   2.354   8.685  2.1175  2.1816 -1.7772
37012SOL    HW213992   7.337   2.487   8.746 -0.8908  0.2366  0.8981
37013SOL     OW13993   9.923   3.077   8.250  0.5837 -0.3680 -0.4609
37013SOL    HW113994   9.833   3.046   8.259  0.7213 -0.2589  1.7968
37013SOL    HW213995   9.943   3.067   8.156 -1.6355 -0.7107 -0.9386
37014SOL     OW13996   0.327   2.415   4.656 -1.0951  0.2554  0.7988
37014SOL    HW113997   0.277   2.340   4.687  0.9698 -0.9750  1.3410
37014SOL    HW213998   0.414   2.403   4.694  1.3211 -0.6132 -4.1849
37015SOL     OW13999   3.756   1.088   5.437  0.0977 -0.5808 -0.0348
37015SOL    HW114000   3.817   1.157   5.412  0.8245 -1.7304 -1.6034
37015SOL    HW214001   3.684   1.134   5.481  1.2690  0.9801  0.3320
37016SOL     OW14002   2.569   2.661   0.817 -0.4469 -0.3971  0.3507
37016SOL    HW114003   2.636   2.628   0.876 -2.7057 -0.8944  2.8118
37016SOL    HW214004   2.531   2.736   0.863 -0.7285  0.7007 -1.5755
37017SOL     OW14005   5.523   7.783   2.496 -0.5422  0.0318  0.0605
37017SOL    HW114006   5.453   7.848   2.509 -0.0770  0.7074 -0.6878
37017SOL    HW214007   5.595   7.814   2.551 -0.7092 -0.4701  0.5626
37018SOL     OW14008   6.026   6.977   2.809  0.0124  0.3464 -0.0318
37018SOL    HW114009   6.041   6.978   2.904  2.2423  0.6544 -0.3378
37018SOL    HW214010   5.987   6.891   2.792 -2.6209  1.1260  1.3840
37019SOL     OW14011   9.966   6.049   5.608 -0.0711 -0.1903  0.1127
37019SOL    HW114012   9.985   6.047   5.702 -0.3065 -0.8276  0.1563
37019SOL    HW214013  10.048   6.078   5.567 -0.2137  0.8911  0.5650
37020SOL     OW14014   0.604   5.627   3.229  0.4530 -0.4120  0.1359
37020SOL    HW114015   0.599   5.628   3.133  1.0008 -1.0543  0.0928
37020SOL    HW214016   0.532   5.684   3.257  0.1901 -0.3388 -0.6495
37021SOL     OW14017   1.118   5.230   2.994 -0.3873 -0.0039  0.6255
37021SOL    HW114018   1.178   5.172   3.040 -1.1362 -1.7024 -0.4297
37021SOL    HW214019   1.083   5.288   3.062  0.4611 -0.7167  1.6989
37022SOL     OW14020   6.640   8.461  10.630 -0.3470  0.1584 -0.6660
37022SOL    HW114021   6.597   8.537  10.669  1.3520  1.3560 -0.9877
37022SOL    HW214022   6.725   8.456  10.674 -0.4184 -1.5841 -0.6526
37023SOL     OW14023   7.249   1.766   2.237  0.7672 -0.2697  0.1405
37023SOL    HW114024   7.298   1.763   2.154  1.3116  0.5896  0.4095
37023SOL    HW214025   7.158   1.758   2.211  0.9507 -0.2803 -0.5283
37024SOL     OW14026   1.313   8.809   4.964 -0.1722 -0.6284  0.3334
37024SOL    HW114027   1.299   8.725   5.008  0.1619 -3.2257 -3.9649
37024SOL    HW214028   1.226   8.834   4.932 -0.0367 -0.0592  0.4006
37025SOL     OW14029   6.213   6.490   0.493  0.4884 -0.7640  0.2016
37025SOL    HW114030   6.292   6.531   0.456  0.3959 -0.8648 -0.1143
37025SOL    HW214031   6.240   6.459   0.579  0.1400  1.3884  1.1625
37026SOL     OW14032   9.198   3.465  10.227  0.2297  0.3573  1.0388
37026SOL    HW114033   9.223   3.445  10.137 -0.9495  0.2845  0.7178
37026SOL    HW214034   9.274   3.510  10.264 -0.0195  2.2427 -0.6134
37027SOL     OW14035   1.260   6.960   4.113 -0.3267 -0.4786  0.3295
37027SOL    HW114036   1.243   7.001   4.029  2.1648 -1.5885 -0.8190
37027SOL    HW214037   1.318   7.020   4.159 -1.6880  0.1298  1.3068
37028SOL     OW14038   1.484  10.080   1.790 -0.2881  0.5925 -0.1898
37028SOL    HW114039   1.519   9.991   1.799 -3.0946 -0.6633 -0.5315
37028SOL    HW214040   1.530  10.130   1.858  0.5435 -1.3999  0.8220
37029SOL     OW14041   2.672   6.904   1.472  0.4623 -0.0664 -0.2602
37029SOL    HW114042   2.660   6.933   1.562 -1.4929 -0.1927 -0.4338
37029SOL    HW214043   2.652   6.981   1.418  0.7523 -0.2303 -0.6107
37030SOL     OW14044   6.931   2.876   9.198  0.1741 -0.8572  0.4870
37030SOL    HW114045   6.988   2.854   9.125  0.6964 -0.0052  0.6193
37030SOL    HW214046   6.966   2.959   9.232 -2.5507  1.0268 -0.9473
37031SOL     OW14047   8.157   5.671  10.090  0.5482  0.7053 -0.0541
37031SOL    HW114048   8.104   5.679  10.011 -0.9499  0.0461  0.8415
37031SOL    HW214049   8.096   5.639  10.157  1.9281  0.5889  1.2016
37032SOL     OW14050   6.309   7.717   0.180  0.6795  0.0794 -0.6795
37032SOL    HW114051   6.305   7.633   0.225  1.7016 -0.1216 -0.9346
37032SOL    HW214052   6.219   7.749   0.180  0.1438 -1.3678 -1.2490
37033SOL     OW14053   8.836  10.635   9.869  0.1883 -0.3455 -0.0831
37033SOL    HW114054   8.854  10.722   9.834 -2.1852  0.0891 -0.4435
37033SOL    HW214055   8.867  10.575   9.802  0.5568  0.2834 -0.4901
37034SOL     OW14056   3.428   7.703   4.173 -0.1010  0.5895 -0.2126
37034SOL    HW114057   3.479   7.654   4.108  0.7768 -1.3252  1.7898
37034SOL    HW214058   3.387   7.773   4.123  2.1978  0.5044 -2.4536
37035SOL     OW14059   6.356   3.558   1.677 -0.1859  0.0049 -0.0384
37035SOL    HW114060   6.449   3.578   1.666 -0.5270  0.8208 -1.7323
37035SOL    HW214061   6.351   3.511   1.760  1.4972  1.5730  1.0077
37036SOL     OW14062   2.673   8.636   1.589 -0.0892 -0.0194 -0.0675
37036SOL    HW114063   2.736   8.688   1.639  1.1364 -1.3983 -0.1098
37036SOL    HW214064   2.726   8.581   1.533 -1.3830 -0.4692 -0.9010
37037SOL     OW14065   4.897  10.100   7.998 -0.6378 -0.1481  0.3449
37037SOL    HW114066   4.854  10.160   8.059  1.6819  0.1632  1.8196
37037SOL    HW214067   4.826  10.050   7.958 -2.6616  3.1855 -0.5808
37038SOL     OW14068   8.095   2.667   7.331 -0.4814 -0.3799  0.2862
37038SOL    HW114069   8.168   2.716   7.368 -1.8187  2.2952 -0.4080
37038SOL    HW214070   8.113   2.664   7.237 -0.2442 -1.6335  0.3448
37039SOL     OW14071   1.395   2.093   4.788 -0.2468 -0.0901 -0.1396
37039SOL    HW114072   1.429   2.132   4.869  0.3604  0.8748 -0.8464
37039SOL    HW214073   1.306   2.128   4.781 -0.6815 -1.0083  0.6490
37040SOL     OW14074   9.652   3.792   9.119 -0.4963 -0.9151 -0.0521
37040SOL    HW114075   9.589   3.721   9.135  0.6792 -1.7263  1.2976
37040SOL    HW214076   9.703   3.763   9.044 -0.2158 -1.3724  0.3106
37041SOL     OW14077   3.954   4.283   6.330 -0.5424  0.3321 -0.3763
37041SOL    HW114078   3.963   4.376   6.312 -2.0654  0.8845  1.3639
37041SOL    HW214079   3.859   4.268   6.330 -0.3085 -1.2793 -0.8942
37042SOL     OW14080   0.743   3.180   4.997  0.1343 -0.2619 -0.0836
37042SOL    HW114081   0.662   3.152   4.955  0.1584 -0.8767  0.2719
37042SOL    HW214082   0.796   3.101   5.004 -0.0396 -0.2717  1.4995
37043SOL     OW14083   0.086   5.753  10.497  0.0689 -0.2253  0.6335
37043SOL    HW114084   0.069   5.815  10.569 -0.5935  0.4143 -0.0498
37043SOL    HW214085   0.181   5.749  10.491  0.1250  1.0068  0.4671
37044SOL     OW14086   4.067   4.567   5.547  0.4156 -0.3709 -0.0250
37044SOL    HW114087   4.086   4.493   5.604  0.8758 -1.3020 -1.3575
37044SOL    HW214088   3.973   4.584   5.561  0.4602 -0.7453  0.7908
37045SOL     OW14089   6.497   0.871   5.081 -0.1029  0.3371 -0.1093
37045SOL    HW114090   6.459   0.820   5.010  0.0965 -0.6225  0.4510
37045SOL    HW214091   6.586   0.837   5.090 -0.5309 -0.4794  1.4372
37046SOL     OW14092   6.941   5.322   9.490  0.4668  0.9442 -0.0006
37046SOL    HW114093   7.016   5.301   9.435 -0.9656 -0.9424 -1.3590
37046SOL    HW214094   6.868   5.332   9.429 -1.7151 -3.5157  1.4869
37047SOL     OW14095   8.569   2.849   7.802 -0.3460 -0.4057  0.6987
37047SOL    HW114096   8.585   2.909   7.875  0.8166 -0.6267  0.6513
37047SOL    HW214097   8.655   2.840   7.760 -1.0747  0.0609 -0.9585
37048SOL     OW14098   8.866   9.096   3.720 -0.3548 -0.5548  0.7202
37048SOL    HW114099   8.778   9.124   3.697  0.0406 -0.5363 -0.9299
37048SOL    HW214100   8.916   9.177   3.730 -0.1557 -0.5768 -0.0120
37049SOL     OW14101   0.288   5.403   8.150  0.3405  0.5863  0.3119
37049SOL    HW114102   0.308   5.310   8.145 -1.1534  0.1131  2.1329
37049SOL    HW214103   0.199   5.411   8.116  0.4408  1.3674  0.2002
37050SOL     OW14104   5.089   7.644   6.262 -0.0287  0.2068 -0.2365
37050SOL    HW114105   5.185   7.637   6.261  0.0189  0.3432  1.2466
37050SOL    HW214106   5.063   7.611   6.348 -1.4370 -1.0485 -1.0838
37051SOL     OW14107   4.619   7.550   0.015  0.2282 -0.4541 -0.3873
37051SOL    HW114108   4.705   7.567  -0.024  0.8147  2.2251  1.7513
37051SOL    HW214109   4.634   7.558   0.110 -2.3510 -0.0508  0.0613
37052SOL     OW14110   6.441   5.490   3.506 -0.2242  0.0380  0.5070
37052SOL    HW114111   6.357   5.496   3.461  0.5229 -0.3620 -1.0027
37052SOL    HW214112   6.503   5.462   3.439  1.0349 -0.1654  1.6930
37053SOL     OW14113   2.271   8.894   6.608  0.4954 -0.4582  0.1175
37053SOL    HW114114   2.317   8.813   6.628  1.1806  0.0577  0.6859
37053SOL    HW214115   2.288   8.909   6.515 -0.5852 -1.5430 -0.2854
37054SOL     OW14116  10.062   5.105   7.608 -0.3282  0.2034 -0.1295
37054SOL    HW114117  10.089   5.176   7.666  3.0199  1.6335 -3.0330
37054SOL    HW214118  10.116   5.030   7.634 -1.8211 -0.4804  1.1269
37055SOL     OW14119   3.040   8.765   3.243  0.4180 -0.0756 -0.0838
37055SOL    HW114120   3.102   8.808   3.302  0.0921 -0.0097  0.2232
37055SOL    HW214121   3.024   8.829   3.174 -0.0062  0.2811  0.3307
37056SOL     OW14122   0.493   4.643   5.061  0.0256  0.2656 -0.5921
37056SOL    HW114123   0.525   4.705   5.126 -1.2987  0.4381 -0.0688
37056SOL    HW214124   0.400   4.664   5.051 -0.4515 -1.5641 -0.4480
37057SOL     OW14125  10.212   6.813   6.164 -0.0450 -0.7414 -0.0478
37057SOL    HW114126  10.190   6.759   6.089 -3.0365  0.5643 -0.2811
37057SOL    HW214127  10.274   6.878   6.130  0.0995 -1.3112 -0.8962
37058SOL     OW14128   7.178   2.853   3.303 -0.2601 -0.0026 -0.3371
37058SOL    HW114129   7.210   2.788   3.242  1.5837  2.4298 -2.1787
37058SOL    HW214130   7.246   2.860   3.370  0.5026  1.2865 -1.2026
37059SOL     OW14131  10.624   4.510   3.097 -0.2808 -0.1369  0.0476
37059SOL    HW114132  10.597   4.419   3.110  2.4823 -1.3340 -1.7253
37059SOL    HW214133  10.684   4.528   3.170 -1.0272  0.4164  0.5484
37060SOL     OW14134   9.592   6.538   3.503 -0.8522 -0.2420  0.3048
37060SOL    HW114135   9.628   6.506   3.421  1.0040  2.5321 -0.0931
37060SOL    HW214136   9.498   6.548   3.485 -1.0814 -2.6986 -0.3319
37061SOL     OW14137   0.417   0.901   6.476  0.0177 -0.4356  0.1564
37061SOL    HW114138   0.336   0.915   6.427 -0.2206 -0.0699  0.6503
37061SOL    HW214139   0.398   0.934   6.564  2.2184  4.3653 -0.8366
37062SOL     OW14140  10.457   9.613   1.882 -0.0782 -0.5749  0.0671
37062SOL    HW114141  10.468   9.575   1.794 -2.3700  1.2089 -1.1011
37062SOL    HW214142  10.362   9.611   1.897  0.1107  0.8445  1.7159
37063SOL     OW14143   5.716   7.027   9.115  0.2251  0.2477 -0.1977
37063SOL    HW114144   5.678   6.978   9.042  0.9326 -0.7778  0.1000
37063SOL    HW214145   5.719   7.118   9.084 -2.0550  0.3197 -0.3838
37064SOL     OW14146   4.933   6.403   7.128  0.2486 -0.0523 -0.0100
37064SOL    HW114147   4.859   6.382   7.071  0.2835 -0.4195  0.0796
37064SOL    HW214148   4.969   6.318   7.154  1.0207  0.1185 -0.4730
37065SOL     OW14149   5.266   6.729   5.465  0.3730  0.1445  0.3084
37065SOL    HW114150   5.355   6.727   5.430  0.1916  0.0341 -0.1542
37065SOL    HW214151   5.211   6.752   5.391 -0.0019  0.0741  0.5581
37066SOL     OW14152   0.225   6.179   0.167 -0.0009 -0.3743 -0.4198
37066SOL    HW114153   0.146   6.200   0.218  0.5020 -1.0283  0.6674
37066SOL    HW214154   0.225   6.242   0.095 -0.4628  0.9201  0.6879
37067SOL     OW14155  10.355   1.040   5.175  0.6339 -0.4370 -0.0208
37067SOL    HW114156  10.306   1.046   5.094  1.2413 -0.9584 -0.4417
37067SOL    HW214157  10.376   1.130   5.198  0.7813 -0.3046 -0.6526
37068SOL     OW14158   6.280   0.233   2.450 -0.0576  0.4423 -0.2089
37068SOL    HW114159   6.313   0.291   2.382  0.7296  1.3745  0.9123
37068SOL    HW214160   6.344   0.162   2.453 -2.3716 -2.0510 -3.3819
37069SOL     OW14161   2.486   5.214   5.018 -0.0687  0.2966  0.3913
37069SOL    HW114162   2.461   5.244   5.106  0.6230  0.0067  0.6915
37069SOL    HW214163   2.446   5.278   4.959  0.2765  1.0515  0.9608
37070SOL     OW14164   4.786   6.951   3.831  0.0759  0.1827  0.0000
37070SOL    HW114165   4.805   6.863   3.863 -1.5517 -0.3361 -0.3382
37070SOL    HW214166   4.863   7.003   3.854  0.9875 -1.2849  0.3586
37071SOL     OW14167   9.646   0.226   4.496  0.5458  0.1223  0.2696
37071SOL    HW114168   9.736   0.238   4.526  0.5703  1.5650 -0.2870
37071SOL    HW214169   9.636   0.132   4.487  2.4036 -0.0174 -0.8544
37072SOL     OW14170   6.818   0.523   8.827 -0.2364  0.0294 -0.0848
37072SOL    HW114171   6.768   0.552   8.750 -0.7340 -0.1521  0.1688
37072SOL    HW214172   6.787   0.579   8.898 -0.9678 -0.8962  0.3406
37073SOL     OW14173   3.753   1.120   9.478  0.0893 -0.2584  0.1241
37073SOL    HW114174   3.842   1.148   9.460 -0.2253 -0.1996 -1.4472
37073SOL    HW214175   3.713   1.196   9.521  0.2152  0.4911 -1.0423
37074SOL     OW14176   8.839   4.835   5.764 -0.1568  0.0640 -0.0953
37074SOL    HW114177   8.854   4.930   5.768  0.9790 -0.1300  0.5489
37074SOL    HW214178   8.905   4.798   5.822  0.4136 -1.2371 -1.5219
37075SOL     OW14179   3.764   1.446   8.438  0.8786  0.2620 -0.0165
37075SOL    HW114180   3.746   1.404   8.353 -0.9879 -3.2108  1.8687
37075SOL    HW214181   3.853   1.416   8.460  1.3262  1.0858 -0.6379
37076SOL     OW14182   6.739   1.684   8.074 -0.2190  0.3343 -0.0279
37076SOL    HW114183   6.682   1.661   8.147 -0.2778 -0.1750 -0.2307
37076SOL    HW214184   6.806   1.740   8.112 -2.1693  2.9525 -0.1967
37077SOL     OW14185   1.838   0.646   9.574 -0.0216 -0.3984  0.1286
37077SOL    HW114186   1.858   0.732   9.612 -1.3862 -0.0722  0.1621
37077SOL    HW214187   1.801   0.596   9.646  1.3325 -1.2501  0.2613
37078SOL     OW14188   6.754   9.503   7.363 -0.2470 -0.6728  0.0992
37078SOL    HW114189   6.780   9.592   7.388  0.1792 -0.1719 -1.8976
37078SOL    HW214190   6.671   9.515   7.316 -0.6546 -1.4480  0.6010
37079SOL     OW14191   9.332  10.451   7.748 -0.0355 -0.0991 -0.4892
37079SOL    HW114192   9.426  10.441   7.760  0.2459  0.3820 -2.0386
37079SOL    HW214193   9.296  10.365   7.771  0.6768 -0.0648  0.8424
37080SOL     OW14194   1.318   1.749   3.167 -0.1501 -0.3558 -0.1797
37080SOL    HW114195   1.253   1.769   3.099 -1.2139 -2.2279  0.2051
37080SOL    HW214196   1.323   1.827   3.221 -1.1293  0.2771 -0.9830
37081SOL     OW14197   2.411   3.751   2.331 -0.0063 -0.1371 -0.0161
37081SOL    HW114198   2.495   3.794   2.351 -0.5559 -0.1675  2.7593
37081SOL    HW214199   2.423   3.715   2.243  2.0327  1.8971 -0.6823
37082SOL     OW14200   4.632   8.678   7.581  0.1452  0.5216 -0.2441
37082SOL    HW114201   4.712   8.714   7.542 -0.4677  0.7350 -1.3423
37082SOL    HW214202   4.582   8.644   7.507 -1.0675  0.9533  0.3511
37083SOL     OW14203   2.222   1.630   2.699  0.0910 -0.3666 -0.0076
37083SOL    HW114204   2.164   1.623   2.624  0.4533 -1.5284 -0.1944
37083SOL    HW214205   2.180   1.695   2.756 -0.6491 -0.1484 -0.7855
37084SOL     OW14206   5.524   6.023  10.262 -0.4787 -0.5866 -0.1267
37084SOL    HW114207   5.507   6.017  10.168 -1.2682 -1.0743  0.0361
37084SOL    HW214208   5.466   6.092  10.293  2.1908  2.0112 -0.5077
37085SOL     OW14209   5.071   9.143   9.026 -0.5203  0.1595 -0.1918
37085SOL    HW114210   5.019   9.122   8.948 -1.2404 -0.8483  0.5307
37085SOL    HW214211   5.162   9.132   8.998 -0.7848 -0.5530 -0.8040
37086SOL     OW14212   3.436   7.568   3.044 -0.5095 -0.0528  0.1218
37086SOL    HW114213   3.515   7.515   3.044 -0.4108  0.0870 -0.3091
37086SOL    HW214214   3.388   7.541   3.122  0.4601  0.6211  0.9627
37087SOL     OW14215   4.963   4.095   7.423  0.3425  0.4199 -0.0402
37087SOL    HW114216   5.017   4.057   7.492  1.0874  0.6312 -0.4918
37087SOL    HW214217   4.978   4.038   7.347 -0.3780  0.2554 -0.0608
37088SOL     OW14218   9.069   1.507   8.276  0.2160 -0.5756  0.2714
37088SOL    HW114219   9.106   1.422   8.250  0.4538 -0.8627  1.5171
37088SOL    HW214220   9.078   1.561   8.197 -0.2927 -1.8074 -0.6765
37089SOL     OW14221   3.162   2.537   8.626  0.1569  0.3522 -0.0340
37089SOL    HW114222   3.075   2.499   8.639  1.0123 -1.7689 -0.0950
37089SOL    HW214223   3.149   2.631   8.636 -1.9068 -0.0090  1.2720
37090SOL     OW14224   3.167   4.022   4.320  0.7009 -0.0590  0.2551
37090SOL    HW114225   3.186   4.115   4.327  0.2508  0.6572 -4.4784
37090SOL    HW214226   3.074   4.017   4.301  0.8115 -1.3818 -0.0694
37091SOL     OW14227   5.563   9.073   0.169 -0.1202  0.2859 -0.2281
37091SOL    HW114228   5.528   9.131   0.101 -1.6867  1.4479  1.4603
37091SOL    HW214229   5.531   9.111   0.251  2.3859 -0.5741  1.2485
37092SOL     OW14230   0.836   0.777   1.134 -0.0391  0.6724  0.5240
37092SOL    HW114231   0.834   0.763   1.040  0.5513  0.0047  0.5959
37092SOL    HW214232   0.748   0.755   1.164 -0.0713  0.3555  0.1983
37093SOL     OW14233   8.611   6.706   8.273  0.5220 -0.2706  0.3279
37093SOL    HW114234   8.638   6.619   8.305  0.8058 -0.2478  0.1520
37093SOL    HW214235   8.685   6.763   8.294  0.9006 -0.3376 -0.7576
37094SOL     OW14236   1.631   9.913   5.549  0.7329  0.4525  0.2205
37094SOL    HW114237   1.587   9.963   5.618 -1.7267  0.3564 -1.1625
37094SOL    HW214238   1.665   9.980   5.490  0.0444  0.5451 -0.0866
37095SOL     OW14239   0.092   3.623   2.501  0.2833 -0.3776 -0.1836
37095SOL    HW114240   0.052   3.684   2.438  2.2389  0.5172 -0.6442
37095SOL    HW214241   0.079   3.665   2.586  1.6685  0.7874 -0.4995
37096SOL     OW14242   7.519   4.882   4.388 -0.0891 -0.3280 -0.5572
37096SOL    HW114243   7.521   4.972   4.419 -0.5283 -0.1349 -1.0619
37096SOL    HW214244   7.430   4.852   4.408  0.2361 -0.8518  0.1487
37097SOL     OW14245   9.165   8.488   6.361  0.3755 -0.0475  0.0102
37097SOL    HW114246   9.071   8.483   6.379  0.5574 -0.2499  0.9565
37097SOL    HW214247   9.173   8.560   6.298 -0.2606  1.0594  1.1376
37098SOL     OW14248   4.011   9.074   8.512  0.1768  0.7181  0.9253
37098SOL    HW114249   3.966   8.990   8.504  0.1138  0.7913  0.4898
37098SOL    HW214250   4.038   9.096   8.423  0.7057  0.8792  1.1183
37099SOL     OW14251   1.367   0.950   9.503 -0.4490  0.2216  0.5806
37099SOL    HW114252   1.304   1.022   9.494 -0.5489  0.1730  0.8741
37099SOL    HW214253   1.406   0.964   9.589  0.5950  0.7687  0.0375
37100SOL     OW14254   2.639   5.701   1.289 -0.9869 -0.2593 -0.4761
37100SOL    HW114255   2.544   5.704   1.292 -0.9468  0.5125  1.2831
37100SOL    HW214256   2.662   5.744   1.207 -2.1640 -2.1077 -1.8663
37101SOL     OW14257   5.112   3.626   4.173  0.3020  0.1726 -0.5734
37101SOL    HW114258   5.121   3.645   4.266  1.0708 -1.1593 -0.3422
37101SOL    HW214259   5.027   3.583   4.165 -0.0639  0.8936 -0.6040
37102SOL     OW14260   2.577   1.242   8.741  0.2134  0.9216  0.0947
37102SOL    HW114261   2.654   1.283   8.779 -0.2469  1.6730  0.2493
37102SOL    HW214262   2.580   1.151   8.770  1.5019  0.7092 -0.6349
37103SOL     OW14263   9.027  10.291   9.293 -0.0364 -0.2085 -0.1108
37103SOL    HW114264   8.961  10.223   9.305 -0.5232  0.3895  0.7059
37103SOL    HW214265   9.028  10.306   9.198 -2.0598  0.6761 -0.0631
37104SOL     OW14266   7.792   7.474   7.199  0.1330 -0.0176 -0.1512
37104SOL    HW114267   7.774   7.402   7.260 -0.3389  0.5319  0.3768
37104SOL    HW214268   7.750   7.448   7.117  0.7853 -0.7742 -0.2588
37105SOL     OW14269   8.707   8.382   0.067  0.7297 -0.0524  0.2632
37105SOL    HW114270   8.690   8.349   0.155 -1.0311 -2.0370 -0.7271
37105SOL    HW214271   8.761   8.314   0.026 -1.7320 -1.1573 -1.3586
37106SOL     OW14272   5.986   5.249   3.452  0.2410  0.1683 -0.7303
37106SOL    HW114273   6.053   5.262   3.520 -0.9213  0.4826  0.3862
37106SOL    HW214274   5.979   5.154   3.444 -0.1406  0.1138  0.1429
37107SOL     OW14275   6.932   9.661   2.586  0.8283  0.9609 -0.6262
37107SOL    HW114276   6.998   9.592   2.589 -0.8941 -0.7674 -0.7367
37107SOL    HW214277   6.974   9.733   2.538  2.5298 -0.1643 -0.8769
37108SOL     OW14278   2.710   2.179   8.225 -0.0711  0.3780  0.4019
37108SOL    HW114279   2.673   2.093   8.243  1.1992  0.3649  3.6178
37108SOL    HW214280   2.804   2.164   8.212 -0.0456  1.1435 -0.4436
37109SOL     OW14281   8.998   6.464   9.141 -0.0984  0.0384 -0.0250
37109SOL    HW114282   8.939   6.396   9.111  0.2335  0.4690 -1.7502
37109SOL    HW214283   8.988   6.535   9.078  0.3151  1.1897  1.1519
37110SOL     OW14284   8.276   3.091   8.198 -0.5778  0.1870  0.2463
37110SOL    HW114285   8.340   3.051   8.256 -0.3434 -0.0329 -0.1587
37110SOL    HW214286   8.254   3.174   8.240  1.4006  1.1715 -0.5334
37111SOL     OW14287   1.082   8.447   0.800 -0.1017 -0.3802  0.1987
37111SOL    HW114288   1.091   8.511   0.871 -2.9286  0.2974  0.0431
37111SOL    HW214289   1.032   8.375   0.838 -2.3134  0.3168 -1.2127
37112SOL     OW14290   5.085   3.018   1.646  0.1807 -0.0362  0.0125
37112SOL    HW114291   5.109   3.088   1.586  0.1263  2.2609  2.4987
37112SOL    HW214292   5.004   3.049   1.688 -0.3384 -1.9996  0.5765
37113SOL     OW14293   4.292   2.677   9.278  0.2005  0.2518 -0.0531
37113SOL    HW114294   4.248   2.652   9.360  0.5006 -3.8412 -0.9030
37113SOL    HW214295   4.222   2.713   9.223 -0.9288 -0.8008  0.6239
37114SOL     OW14296   2.095   9.900   6.663  0.3000  0.5309 -0.5660
37114SOL    HW114297   2.152   9.923   6.589  0.4551  2.9606  0.2161
37114SOL    HW214298   2.006   9.915   6.630  0.3068  0.5165 -0.5908
37115SOL     OW14299   6.273   6.128   0.306  0.1412 -0.4043  0.2577
37115SOL    HW114300   6.293   6.217   0.276  1.0506 -0.9467 -0.8424
37115SOL    HW214301   6.225   6.089   0.233 -1.5160 -0.3876  1.2999
37116SOL     OW14302   6.430   1.045   0.939  0.6247 -0.2581  0.4669
37116SOL    HW114303   6.342   1.067   0.905 -0.2391 -2.0927  1.3903
37116SOL    HW214304   6.443   1.106   1.011  1.1509  1.5773 -1.0807
37117SOL     OW14305   8.152   8.663   8.813  0.1047 -0.6083 -0.0654
37117SOL    HW114306   8.131   8.694   8.725 -1.4757 -1.3518  0.0263
37117SOL    HW214307   8.071   8.673   8.863 -0.1170 -3.5308  0.3327
37118SOL     OW14308   9.052  10.292   0.418  0.1369  0.8537  0.2501
37118SOL    HW114309   9.145  10.267   0.420  0.0314  0.3791 -0.3253
37118SOL    HW214310   9.037  10.338   0.500  0.8085  0.6557  0.4879
37119SOL     OW14311  10.100   5.762   5.571  0.3075  0.3836  0.5121
37119SOL    HW114312  10.172   5.704   5.595  0.6487 -0.4511 -2.1661
37119SOL    HW214313  10.047   5.768   5.650  0.5435 -3.2184  1.1170
37120SOL     OW14314   9.092   9.138   1.443 -0.4238 -1.4675 -0.0610
37120SOL    HW114315   9.166   9.094   1.401  0.1985  0.2712 -0.8808
37120SOL    HW214316   9.039   9.170   1.370  1.3642  2.8027  0.1902
37121SOL     OW14317   8.559   3.183   4.310 -0.3744 -0.0728  0.1368
37121SOL    HW114318   8.509   3.103   4.324 -1.7877  0.4533 -1.5261
37121SOL    HW214319   8.650   3.154   4.300 -0.8003 -1.4080  0.0283
37122SOL     OW14320   4.553   2.329   2.457 -0.0914 -0.2384  0.1423
37122SOL    HW114321   4.623   2.264   2.459 -1.6695 -1.9794  0.9035
37122SOL    HW214322   4.516   2.322   2.369  0.7989  0.8713 -0.3526
37123SOL     OW14323   0.524   9.125   3.673 -0.2590  0.1126  0.3689
37123SOL    HW114324   0.552   9.101   3.761 -1.8047 -0.1299  0.8146
37123SOL    HW214325   0.515   9.042   3.627  0.2878  0.2254  0.0419
37124SOL     OW14326   8.246   4.370  10.240  0.3994 -0.1585  0.2177
37124SOL    HW114327   8.244   4.275  10.241  0.5278 -0.1714 -0.2603
37124SOL    HW214328   8.305   4.394  10.312 -2.0471 -0.3280  2.4270
37125SOL     OW14329   1.414   0.056   8.240  0.3043 -0.0650 -0.1472
37125SOL    HW114330   1.452  -0.027   8.210  2.6118  2.1106 -4.1320
37125SOL    HW214331   1.470   0.083   8.313  0.0941 -1.5245  0.5929
37126SOL     OW14332   0.332   7.117   2.711  0.4898 -0.3236  0.5903
37126SOL    HW114333   0.373   7.164   2.784 -0.6683  1.4367  0.1765
37126SOL    HW214334   0.275   7.052   2.754 -0.6906  1.1320  1.3332
37127SOL     OW14335   8.782   6.513   7.958 -0.1181 -0.0229  0.2486
37127SOL    HW114336   8.852   6.526   8.022  1.1775 -0.8393 -0.9521
37127SOL    HW214337   8.798   6.426   7.922 -1.4625 -0.0172 -0.4209
37128SOL     OW14338   4.056   0.543   6.571 -0.2068  0.1669  0.1965
37128SOL    HW114339   4.095   0.501   6.648  0.5679  0.6017  0.0577
37128SOL    HW214340   4.067   0.479   6.501 -1.6803 -0.5821  0.6091
37129SOL     OW14341   0.766  10.618   3.771  0.1257  0.8704 -0.1833
37129SOL    HW114342   0.778  10.643   3.863 -1.0204  0.7352  0.0212
37129SOL    HW214343   0.706  10.544   3.775 -1.1741  1.8166 -1.1076
37130SOL     OW14344   6.024   8.649   8.957  0.0003 -0.1445  0.3680
37130SOL    HW114345   5.951   8.630   8.898 -0.2344  1.0488  0.2598
37130SOL    HW214346   6.065   8.727   8.921  0.7068 -0.2043  1.0145
37131SOL     OW14347   9.343   4.615   4.382 -0.8526 -0.4798  0.4130
37131SOL    HW114348   9.342   4.659   4.297 -1.4351 -0.1473  0.5926
37131SOL    HW214349   9.436   4.594   4.396 -0.3662  1.7697  0.8842
37132SOL     OW14350   1.449   8.272   7.103  0.2944  0.0609 -0.4504
37132SOL    HW114351   1.467   8.353   7.055 -1.8866  0.8020 -0.1096
37132SOL    HW214352   1.415   8.212   7.038 -1.1460  0.5396 -0.1881
37133SOL     OW14353   2.273   3.857   3.089  0.3902 -0.3418 -0.0678
37133SOL    HW114354   2.219   3.780   3.109  1.4699 -0.3612  3.5958
37133SOL    HW214355   2.347   3.849   3.150  2.4112  1.7806 -2.0948
37134SOL     OW14356   2.560   1.411   9.165  0.0478  0.2331  0.1657
37134SOL    HW114357   2.634   1.409   9.104 -0.0612 -1.6412  0.0420
37134SOL    HW214358   2.514   1.329   9.149 -1.0138  0.5347  1.5303
37135SOL     OW14359   3.541   0.671  10.319 -0.2135 -0.7518  0.2553
37135SOL    HW114360   3.592   0.663  10.399 -0.6076  0.8292  0.7042
37135SOL    HW214361   3.576   0.749  10.276 -1.5044 -0.2655  0.0346
37136SOL     OW14362   6.032  10.565   8.882 -0.1470  0.7656 -0.5825
37136SOL    HW114363   6.105  10.607   8.837  1.0369 -0.5982 -0.0098
37136SOL    HW214364   6.014  10.620   8.958  0.2397  1.1420 -0.7650
37137SOL     OW14365   0.463   1.747   9.304 -0.0198  0.3390 -0.6392
37137SOL    HW114366   0.462   1.784   9.392 -2.3780  1.3730 -1.0307
37137SOL    HW214367   0.552   1.762   9.273  0.6002  0.8008  1.1927
37138SOL     OW14368   3.871   3.323   7.662 -0.0567 -0.4183 -0.2616
37138SOL    HW114369   3.958   3.296   7.632  0.6120  0.1996  1.0623
37138SOL    HW214370   3.845   3.391   7.600  0.0489 -1.1409 -1.1247
37139SOL     OW14371   4.244   2.994   5.117  0.2644 -0.2911  0.1903
37139SOL    HW114372   4.179   2.958   5.178 -0.1745  0.6536  0.3091
37139SOL    HW214373   4.327   2.958   5.147  0.0336 -0.0163  1.2431
37140SOL     OW14374   4.803   4.671   7.398  0.2673  0.1400 -0.1647
37140SOL    HW114375   4.776   4.647   7.487  1.9265 -0.2600  0.2682
37140SOL    HW214376   4.855   4.596   7.369  0.6103  0.7230 -1.0732
37141SOL     OW14377   6.228   0.692   0.916  0.1074  0.2915 -0.3936
37141SOL    HW114378   6.136   0.664   0.915 -0.3931  1.7813  1.0907
37141SOL    HW214379   6.257   0.678   0.826 -1.2406 -1.2150 -0.6487
37142SOL     OW14380   5.810   7.256   8.999  0.2070 -0.0058 -0.0675
37142SOL    HW114381   5.860   7.266   9.080 -1.1754 -0.9286  0.9430
37142SOL    HW214382   5.876   7.235   8.933  1.3962  1.0518  0.7258
37143SOL     OW14383   0.586   6.421   0.684  0.1556  0.4098 -0.1044
37143SOL    HW114384   0.542   6.436   0.600 -1.7281 -2.3424  0.2526
37143SOL    HW214385   0.676   6.401   0.660  0.4598  2.6511 -1.1565
37144SOL     OW14386   6.797   3.130   1.113 -0.2525  0.4929 -0.3300
37144SOL    HW114387   6.712   3.172   1.126 -1.1563 -0.7184 -1.9083
37144SOL    HW214388   6.844   3.189   1.053  0.4898  1.6947  1.3602
37145SOL     OW14389   3.493   5.957   0.295  0.3413 -0.0276  0.8246
37145SOL    HW114390   3.465   6.041   0.331  1.2589  0.9188 -0.5641
37145SOL    HW214391   3.418   5.927   0.243  0.6878  0.9241 -0.2727
37146SOL     OW14392   0.248  10.249   8.934 -0.4996  0.4728  0.1659
37146SOL    HW114393   0.340  10.275   8.933  0.0377 -1.2917  0.7867
37146SOL    HW214394   0.214  10.275   8.849  0.9095  0.0093 -0.5576
37147SOL     OW14395   4.510   0.347   2.840  0.1750 -0.0860  0.4029
37147SOL    HW114396   4.600   0.368   2.814  0.8183 -1.6390  1.2631
37147SOL    HW214397   4.474   0.431   2.869  1.7824  0.3303  1.3164
37148SOL     OW14398   5.760   3.194  10.294  0.0901  0.4474  0.4464
37148SOL    HW114399   5.825   3.248  10.339  0.4761 -0.2863  0.7795
37148SOL    HW214400   5.780   3.206  10.201  0.5204  0.4497  0.5354
37149SOL     OW14401   9.388   6.223   2.915  0.7823 -0.3765 -0.3207
37149SOL    HW114402   9.353   6.139   2.945  1.8363 -1.2139 -1.3445
37149SOL    HW214403   9.320   6.257   2.856 -0.7061  0.6561  1.8612
37150SOL     OW14404  10.619   3.987   5.749  0.2259 -0.6119  0.2633
37150SOL    HW114405  10.529   3.968   5.725 -0.0160  2.3205 -1.6366
37150SOL    HW214406  10.670   3.916   5.710 -0.9796 -0.4054 -1.8278
37151SOL     OW14407   4.874   2.258   0.635 -0.6816  0.7154 -0.4866
37151SOL    HW114408   4.908   2.347   0.639 -2.1412  1.3122 -0.7072
37151SOL    HW214409   4.858   2.242   0.542  0.0195  0.0343 -0.4988
37152SOL     OW14410   3.712   1.671   7.945 -0.1838 -0.0473  0.3385
37152SOL    HW114411   3.689   1.717   8.025 -0.5110  0.6713 -0.1517
37152SOL    HW214412   3.798   1.634   7.962  0.8867  2.2179  0.1774
37153SOL     OW14413   4.332   1.675   2.369  0.2906  0.2524  0.2889
37153SOL    HW114414   4.272   1.705   2.438 -0.3410  0.6212 -0.4130
37153SOL    HW214415   4.302   1.719   2.290  1.2189  0.0875 -0.1646
37154SOL     OW14416   5.886   7.050   5.093 -0.1322  0.1330  0.1448
37154SOL    HW114417   5.950   6.980   5.086  1.2911  1.3528  0.3578
37154SOL    HW214418   5.875   7.064   5.187 -2.5695 -1.6260  0.2174
37155SOL     OW14419   5.070   9.459   8.782 -0.0889  0.6585 -0.3793
37155SOL    HW114420   5.096   9.546   8.752 -0.8618  1.3358  0.8521
37155SOL    HW214421   4.985   9.472   8.824  0.5589 -0.3866  1.3339
37156SOL     OW14422   8.269   7.177   9.549  0.4777 -0.1519 -0.0771
37156SOL    HW114423   8.296   7.264   9.522 -4.4543  1.7627  0.2719
37156SOL    HW214424   8.305   7.167   9.637  2.5220  0.6981 -0.7560
37157SOL     OW14425   5.422   3.923   9.351 -0.1373  0.6610  0.0207
37157SOL    HW114426   5.332   3.908   9.379 -0.3925  0.7039 -0.7424
37157SOL    HW214427   5.476   3.889   9.422 -0.7165 -2.1856 -0.7938
37158SOL     OW14428   3.399   0.637   1.934  0.3372  0.8254  0.7184
37158SOL    HW114429   3.377   0.692   2.009  0.6399  0.0384  1.4111
37158SOL    HW214430   3.459   0.571   1.970  1.3796  1.0880 -0.4498
37159SOL     OW14431   9.061   5.852   4.234 -0.1757 -0.2059 -0.1529
37159SOL    HW114432   9.086   5.761   4.218 -1.9255 -0.3808 -2.4917
37159SOL    HW214433   9.129   5.903   4.190  1.0330 -0.3197  1.5126
37160SOL     OW14434   4.257   9.897   8.856 -1.0297 -0.2455  0.0282
37160SOL    HW114435   4.268   9.897   8.951 -0.3397  0.0774 -0.0410
37160SOL    HW214436   4.171   9.859   8.841 -2.3085  2.1240  0.9094
37161SOL     OW14437   9.108   8.909   0.853  0.6564  0.2065 -0.0602
37161SOL    HW114438   9.086   8.899   0.760  1.8316 -1.2379 -0.2173
37161SOL    HW214439   9.204   8.912   0.855  0.6392  0.6259  1.0829
37162SOL     OW14440   1.229   3.659   4.345  0.2287 -0.0956  0.3906
37162SOL    HW114441   1.148   3.664   4.395 -1.6732  0.6318 -2.4882
37162SOL    HW214442   1.278   3.738   4.369 -0.0837 -0.3121  1.8194
37163SOL     OW14443   8.030   4.256   0.890 -0.1944  0.2809 -0.4385
37163SOL    HW114444   7.945   4.300   0.890 -0.4790 -0.0580  2.5655
37163SOL    HW214445   8.093   4.327   0.890 -0.4741  0.5507 -1.7105
37164SOL     OW14446   6.290   3.666   7.562  0.2345  0.4461  0.7655
37164SOL    HW114447   6.220   3.731   7.565 -1.2118 -1.0639  2.7812
37164SOL    HW214448   6.311   3.650   7.654  1.3251 -1.1423  0.2749
37165SOL     OW14449   7.731   2.763   9.974 -0.2646  0.3091  0.0689
37165SOL    HW114450   7.713   2.692  10.035 -0.9257 -0.1265 -0.6208
37165SOL    HW214451   7.663   2.828   9.993 -1.1740 -0.3156 -0.9439
37166SOL     OW14452   3.808   7.286   3.547 -0.5157 -0.2671 -0.6379
37166SOL    HW114453   3.898   7.303   3.517 -0.1809 -1.0416 -0.0906
37166SOL    HW214454   3.755   7.291   3.467  0.3140 -1.9357 -1.3467
37167SOL     OW14455   0.702   5.489   7.293  0.2484  0.2032  0.5142
37167SOL    HW114456   0.618   5.504   7.251 -0.4695 -0.2172  1.7561
37167SOL    HW214457   0.766   5.490   7.221 -1.0955 -2.2273 -0.8482
37168SOL     OW14458   1.046   9.349   5.008 -0.2942 -0.4022  0.6819
37168SOL    HW114459   0.975   9.289   5.031 -0.9235  0.8162  2.1089
37168SOL    HW214460   1.077   9.383   5.093  0.8623  0.3545 -0.0133
37169SOL     OW14461   8.641   6.603   2.197 -0.0106 -0.4200 -0.1454
37169SOL    HW114462   8.593   6.520   2.189 -0.3844 -0.3967  1.5757
37169SOL    HW214463   8.573   6.670   2.196 -0.0429 -0.3622  1.8557
37170SOL     OW14464   9.462   5.576   0.708  0.0656  0.1964 -0.3243
37170SOL    HW114465   9.502   5.496   0.743 -1.5902 -0.0864  1.0285
37170SOL    HW214466   9.477   5.642   0.776 -2.2909 -0.0978  0.5651
37171SOL     OW14467  10.284   4.581   6.768 -0.1083  0.5114 -0.0100
37171SOL    HW114468  10.321   4.524   6.834 -0.6806 -0.8697 -0.8370
37171SOL    HW214469  10.189   4.575   6.781 -0.1786  1.3964 -0.0190
37172SOL     OW14470   9.769   4.450   3.435  0.7143  0.3882 -0.0931
37172SOL    HW114471   9.827   4.500   3.379  0.2203  0.7839 -0.2621
37172SOL    HW214472   9.815   4.444   3.519  0.7943  1.0852 -0.0860
37173SOL     OW14473   7.068   3.942   8.351  0.4185 -0.1513 -0.5262
37173SOL    HW114474   7.060   3.875   8.283  1.9427 -0.9618  0.0155
37173SOL    HW214475   7.128   3.903   8.415 -1.0359  0.5316  1.3535
37174SOL     OW14476   0.816   4.519   2.553 -0.6085  0.4233 -0.3492
37174SOL    HW114477   0.732   4.564   2.567 -0.7703 -0.0239  0.1611
37174SOL    HW214478   0.833   4.474   2.636 -0.0555  0.1926 -0.5833
37175SOL     OW14479   8.368   2.242   3.818  0.4093 -0.4306 -0.6526
37175SOL    HW114480   8.351   2.278   3.905 -1.7805 -0.0435 -1.1788
37175SOL    HW214481   8.444   2.185   3.830 -0.1222 -0.7582  1.6146
37176SOL     OW14482  10.593   4.750   1.563  0.3190 -0.2568  0.0620
37176SOL    HW114483  10.511   4.796   1.582  1.4027  1.2313  1.3281
37176SOL    HW214484  10.634   4.802   1.494  0.4354 -0.7259 -0.2247
37177SOL     OW14485   6.608   3.940   3.904  0.0959  0.6575 -0.1032
37177SOL    HW114486   6.697   3.914   3.882  0.2272 -0.6575  1.7479
37177SOL    HW214487   6.558   3.858   3.903 -0.1470  0.6529  2.8699
37178SOL     OW14488   6.969   7.051   7.030 -0.1717  0.1549  0.2578
37178SOL    HW114489   6.920   6.984   6.983 -0.6015  1.1706 -0.8134
37178SOL    HW214490   6.977   7.018   7.119  0.5496 -1.7862 -0.4793
37179SOL     OW14491   0.994   2.669   0.402  0.0093  0.4329  0.3705
37179SOL    HW114492   0.976   2.611   0.476  0.9807 -0.7968 -0.3296
37179SOL    HW214493   1.015   2.754   0.442 -2.3331  0.6249  1.3838
37180SOL     OW14494   9.757   2.038   2.700  0.1591 -0.6283 -0.0519
37180SOL    HW114495   9.705   1.965   2.733 -0.0050 -0.7490 -0.5669
37180SOL    HW214496   9.703   2.115   2.713  0.7314 -0.4454  1.4229
37181SOL     OW14497   6.588   9.042   5.691 -0.6668  0.6329 -0.8586
37181SOL    HW114498   6.572   9.004   5.778 -0.2821  0.3131 -0.9283
37181SOL    HW214499   6.528   8.995   5.634 -0.8430  0.7681 -0.7871
37182SOL     OW14500   5.338   5.424   3.749 -0.0007  0.0600  0.6967
37182SOL    HW114501   5.426   5.386   3.743  0.0291  0.1103  0.8166
37182SOL    HW214502   5.350   5.505   3.799 -0.0847  0.1624  0.5517
37183SOL     OW14503   3.609   4.260   2.936 -0.2521 -0.0229  0.0731
37183SOL    HW114504   3.590   4.248   2.843 -1.3009 -2.5270  0.5153
37183SOL    HW214505   3.524   4.277   2.976 -0.1890 -1.3447  0.8351
37184SOL     OW14506   5.460   3.320   6.842  0.6507  0.1410  0.0858
37184SOL    HW114507   5.380   3.287   6.800  1.0297 -0.6110 -0.0396
37184SOL    HW214508   5.439   3.412   6.863 -0.4674 -0.2196  0.6133
37185SOL     OW14509   2.460   8.394   6.641  0.7967 -0.4285  0.6056
37185SOL    HW114510   2.431   8.307   6.612 -2.4712  0.0292  1.9780
37185SOL    HW214511   2.466   8.387   6.736  2.1342  0.4390  0.6025
37186SOL     OW14512   2.146   9.730   8.249 -0.0298  0.0549  0.6609
37186SOL    HW114513   2.088   9.655   8.263  0.1184 -0.2012 -0.0595
37186SOL    HW214514   2.219   9.716   8.310 -0.4901  0.1369  1.2357
37187SOL     OW14515   7.802   6.651   4.555 -0.0220  0.3796 -0.8119
37187SOL    HW114516   7.802   6.665   4.460 -2.3176 -1.1251 -1.1062
37187SOL    HW214517   7.792   6.739   4.592 -0.5896  0.8386 -2.0049
37188SOL     OW14518   3.600   1.051   3.229 -0.1029 -0.3152 -0.2860
37188SOL    HW114519   3.671   1.089   3.280 -0.2758 -0.4775  0.0785
37188SOL    HW214520   3.636   0.967   3.198 -0.0637 -0.3034 -0.2734
37189SOL     OW14521   7.835   1.270   4.051 -0.2049  0.4859 -0.6811
37189SOL    HW114522   7.863   1.313   3.970  0.5021  0.5102 -0.4285
37189SOL    HW214523   7.799   1.186   4.023  2.7440 -0.8285 -0.8042
37190SOL     OW14524   8.436   2.421   3.079  0.1524  0.8855  0.8001
37190SOL    HW114525   8.477   2.390   3.160  2.0366  1.0833 -0.0283
37190SOL    HW214526   8.467   2.511   3.070  0.0872  0.8188 -0.2036
37191SOL     OW14527   3.450   6.548  10.290 -0.1447  0.0179  0.0445
37191SOL    HW114528   3.377   6.522  10.234  0.0197 -0.3033 -0.0217
37191SOL    HW214529   3.514   6.588  10.231 -0.1032 -0.0435  0.0480
37192SOL     OW14530  10.569   7.261   7.504  0.1900  0.3871  0.0495
37192SOL    HW114531  10.606   7.277   7.591  0.4942 -0.7469  0.1477
37192SOL    HW214532  10.638   7.213   7.458 -0.8360 -1.1293 -0.0030
37193SOL     OW14533   8.584   4.134   7.118 -0.8459 -0.1286  0.0020
37193SOL    HW114534   8.628   4.120   7.034  0.1851 -0.4455  0.5749
37193SOL    HW214535   8.642   4.194   7.165 -0.5778 -1.2152  1.1049
37194SOL     OW14536   4.149   8.284   6.595  0.0547 -0.1012 -0.0702
37194SOL    HW114537   4.202   8.331   6.660 -1.4389 -1.1567  2.0446
37194SOL    HW214538   4.213   8.232   6.547  1.2059  0.4636  0.7602
37195SOL     OW14539   5.715   7.249   3.759 -0.4466 -0.1662 -0.1816
37195SOL    HW114540   5.644   7.262   3.696 -0.6539  0.0984  0.1040
37195SOL    HW214541   5.690   7.301   3.835 -0.3266 -0.6821  0.2235
37196SOL     OW14542   2.321   4.278   4.073  0.2118  0.5724  0.0811
37196SOL    HW114543   2.409   4.239   4.078  0.7399  1.8286  1.0004
37196SOL    HW214544   2.299   4.272   3.980  0.8167 -0.7001 -0.0104
37197SOL     OW14545   0.259   5.722   5.028 -0.0954 -0.2100  0.3327
37197SOL    HW114546   0.191   5.782   5.059  0.5910  0.4898  0.5207
37197SOL    HW214547   0.333   5.738   5.087  1.3356  1.3314 -1.7358
37198SOL     OW14548   7.484   7.524   3.825 -0.0946 -0.8777 -0.2480
37198SOL    HW114549   7.439   7.574   3.757 -1.8877 -2.0624  0.0053
37198SOL    HW214550   7.471   7.574   3.905  1.0313 -0.0758 -0.5297
37199SOL     OW14551   4.774   2.383   3.505 -0.1120 -0.5549  0.1622
37199SOL    HW114552   4.739   2.295   3.490  0.1281 -1.0258  2.0756
37199SOL    HW214553   4.864   2.368   3.534 -0.0691  0.3206  0.5056
37200SOL     OW14554   1.374   9.940   7.853  0.3321 -0.7074 -0.6761
37200SOL    HW114555   1.322   9.885   7.910 -0.5097 -0.2843 -1.0195
37200SOL    HW214556   1.437   9.881   7.813  0.9940 -1.0054  0.7223
37201SOL     OW14557   3.075   1.511   1.977  0.6006 -0.3698 -0.0281
37201SOL    HW114558   3.060   1.547   1.890  0.1041 -0.9838 -0.2053
37201SOL    HW214559   2.996   1.460   1.996  0.6409 -0.1376  0.8363
37202SOL     OW14560   9.800   2.765  10.464  0.0455 -0.5879  0.1493
37202SOL    HW114561   9.738   2.729  10.527 -0.6410 -1.3650 -0.9259
37202SOL    HW214562   9.886   2.735  10.494 -0.0413  0.5353  1.6786
37203SOL     OW14563   7.736   3.161   0.997 -0.6226  0.0632 -0.5977
37203SOL    HW114564   7.734   3.232   0.933  0.5070 -0.0151 -0.7321
37203SOL    HW214565   7.644   3.144   1.016 -0.9957 -0.0400 -2.3463
37204SOL     OW14566   8.525   6.371   5.536  0.4149  0.0250  0.1632
37204SOL    HW114567   8.499   6.317   5.462 -0.0850  0.0325  0.3244
37204SOL    HW214568   8.507   6.461   5.508 -0.3161 -0.0102  0.4953
37205SOL     OW14569   5.080   8.551   2.771  0.5249  0.0566  0.7692
37205SOL    HW114570   5.080   8.491   2.845  2.7100  0.4352  1.1764
37205SOL    HW214571   5.003   8.607   2.784 -0.5185 -1.4696  1.3509
37206SOL     OW14572   6.456   8.766   7.758  0.2501  0.3897 -0.0049
37206SOL    HW114573   6.451   8.693   7.697 -1.3883  0.3881  0.0991
37206SOL    HW214574   6.546   8.764   7.791  0.4112 -1.1726 -0.4831
37207SOL     OW14575   4.431   3.455   7.247  0.1255 -0.0446  0.1425
37207SOL    HW114576   4.378   3.391   7.200  1.1723 -2.0838  1.5936
37207SOL    HW214577   4.368   3.522   7.275 -1.0452 -0.5246 -1.2154
37208SOL     OW14578   2.542   2.071   1.316  0.0193  0.5498 -0.8273
37208SOL    HW114579   2.515   2.059   1.225 -2.0535  1.1374 -0.3357
37208SOL    HW214580   2.495   2.002   1.364  0.7341  0.5364 -0.1222
37209SOL     OW14581  10.648   8.136   9.311 -0.0442 -0.3985 -0.1247
37209SOL    HW114582  10.584   8.088   9.364  1.7959 -2.1109  0.6484
37209SOL    HW214583  10.652   8.089   9.228  0.5734 -0.6139  0.0220
37210SOL     OW14584  10.241  10.468   5.485 -0.1826 -0.1177  0.6504
37210SOL    HW114585  10.188  10.508   5.554 -0.0475  0.4844  0.4165
37210SOL    HW214586  10.195  10.490   5.404  0.5373  0.6303  0.4235
37211SOL     OW14587   2.237   7.858   7.416  0.1154  0.4964 -0.1075
37211SOL    HW114588   2.228   7.878   7.509 -0.1995  1.2225 -0.2909
37211SOL    HW214589   2.178   7.783   7.403  1.4239 -0.7130  0.6077
37212SOL     OW14590   9.966   6.067   8.798  0.2730  0.0909 -0.0205
37212SOL    HW114591   9.960   6.132   8.868 -0.5611 -0.1346  0.1291
37212SOL    HW214592   9.995   6.117   8.721  1.3786  0.3050  0.5206
37213SOL     OW14593   6.407   0.479  10.589 -0.6411  0.0300 -0.4229
37213SOL    HW114594   6.460   0.400  10.595  0.0696  0.3949 -1.5108
37213SOL    HW214595   6.329   0.452  10.541 -0.7495 -0.1752 -0.1327
37214SOL     OW14596  10.399   9.818   7.163 -0.5472 -0.2096  0.8361
37214SOL    HW114597  10.351   9.871   7.100  0.5439  0.6458  0.7086
37214SOL    HW214598  10.406   9.732   7.122 -0.0350  0.2837 -0.1341
37215SOL     OW14599   2.120   7.612   4.203 -0.2793 -0.4239 -0.2438
37215SOL    HW114600   2.054   7.552   4.171 -2.4822  1.8500 -0.2693
37215SOL    HW214601   2.166   7.642   4.124  0.4188 -1.5555 -0.2857
37216SOL     OW14602   7.261  10.567   4.228 -0.0908 -0.2987  0.2599
37216SOL    HW114603   7.245  10.549   4.136 -0.5592 -1.1352  0.4989
37216SOL    HW214604   7.344  10.614   4.229  0.6756 -1.5909 -0.4635
37217SOL     OW14605   8.269   6.815   2.972  0.5829 -0.1262  0.8480
37217SOL    HW114606   8.314   6.771   2.900 -1.5989  0.1425 -0.7924
37217SOL    HW214607   8.332   6.881   3.003  1.6970 -0.4434 -0.6145
37218SOL     OW14608   8.246   1.498   0.819  0.1682  0.3287 -0.1976
37218SOL    HW114609   8.189   1.435   0.775  1.2588  0.0572 -1.2669
37218SOL    HW214610   8.289   1.545   0.748  1.0522  0.7368  0.5877
37219SOL     OW14611   4.555   2.933   0.794  0.6093 -0.1986  0.1767
37219SOL    HW114612   4.509   2.920   0.712  0.8484 -0.7099  0.1200
37219SOL    HW214613   4.574   3.026   0.797  1.6773 -0.3631 -0.9299
37220SOL     OW14614   3.798   2.777   9.335 -0.2467  0.4659  0.1063
37220SOL    HW114615   3.887   2.811   9.323  0.3481 -1.2688 -0.7044
37220SOL    HW214616   3.773   2.742   9.249 -1.2259 -0.1813  0.6273
37221SOL     OW14617   8.901   1.169   9.999  0.1016  0.1198  0.7040
37221SOL    HW114618   8.941   1.180  10.085  0.7385 -1.5728  0.6650
37221SOL    HW214619   8.836   1.100  10.011 -0.5847  0.6363  0.0611
37222SOL     OW14620   3.377   1.444   6.456 -0.3512  0.0016 -0.4884
37222SOL    HW114621   3.302   1.384   6.452 -0.8168  0.5274  0.1081
37222SOL    HW214622   3.344   1.520   6.504  0.6498  0.1094  0.0514
37223SOL     OW14623  10.056   5.276   9.371  0.3790 -0.5561  0.3383
37223SOL    HW114624  10.083   5.288   9.280  0.5528  0.8910  0.5669
37223SOL    HW214625  10.137   5.275   9.421  0.3181 -1.8065  0.4587
37224SOL     OW14626   8.778   5.602   8.550  0.3339 -0.0672  0.0327
37224SOL    HW114627   8.805   5.693   8.546  0.2976 -0.0771 -0.6191
37224SOL    HW214628   8.686   5.603   8.523  0.3329 -0.2950  0.0251
37225SOL     OW14629   3.829   9.546   7.665  0.2998 -0.1468  0.3109
37225SOL    HW114630   3.786   9.469   7.703 -0.8386  0.0101 -0.5909
37225SOL    HW214631   3.851   9.518   7.576 -1.2797  0.9415 -0.4654
37226SOL     OW14632   1.293   4.187   8.903 -0.0946 -0.4385 -0.0066
37226SOL    HW114633   1.254   4.253   8.847 -0.1374 -0.5326 -0.0885
37226SOL    HW214634   1.368   4.230   8.944  1.1653 -0.9585 -1.6778
37227SOL     OW14635   9.342   3.342   0.220  0.4538 -0.5131  0.0842
37227SOL    HW114636   9.396   3.339   0.299  0.8617  0.1257 -0.1617
37227SOL    HW214637   9.257   3.309   0.248  0.4798  0.0689  0.8934
37228SOL     OW14638   3.051   2.238   6.979  0.1970  0.0350 -0.2464
37228SOL    HW114639   3.107   2.308   7.014  0.2330  0.1965 -0.6286
37228SOL    HW214640   2.994   2.215   7.053  0.1428  0.5072 -0.1309
37229SOL     OW14641   0.782   6.917   7.219 -0.4937  0.0383 -0.1149
37229SOL    HW114642   0.783   6.851   7.288 -1.0028  0.2052  0.0572
37229SOL    HW214643   0.689   6.929   7.199 -0.3129 -2.0577 -2.8078
37230SOL     OW14644   3.699   8.790   9.067  0.0221  0.1086  0.0661
37230SOL    HW114645   3.690   8.882   9.041 -1.1876  0.3168  1.1525
37230SOL    HW214646   3.676   8.741   8.988 -0.5860  0.7313 -0.1542
37231SOL     OW14647   4.003   6.783   9.101  0.4425  0.3244  0.1175
37231SOL    HW114648   4.057   6.718   9.146  1.3132  1.6325  1.0344
37231SOL    HW214649   4.064   6.849   9.069 -0.2528 -0.0917 -2.2745
37232SOL     OW14650   7.586   9.878   1.775 -0.1706  0.1948 -0.3335
37232SOL    HW114651   7.638   9.798   1.774 -0.5144 -0.0538  0.8441
37232SOL    HW214652   7.514   9.860   1.836 -0.2013  1.4268  0.0202
37233SOL     OW14653   5.569   8.922   7.337  0.6092 -0.0084  0.4048
37233SOL    HW114654   5.509   8.968   7.395  0.1002  2.1071 -1.6436
37233SOL    HW214655   5.520   8.844   7.309  0.4029 -0.4104  1.8107
37234SOL     OW14656   2.919   4.707   2.701  0.3967 -0.1006  0.4432
37234SOL    HW114657   2.954   4.626   2.739 -0.1358  0.6146  2.5557
37234SOL    HW214658   2.957   4.777   2.754 -0.6867  0.9357 -0.0999
37235SOL     OW14659   4.652   5.206   7.967  0.5480 -0.1798 -0.4009
37235SOL    HW114660   4.691   5.270   7.907 -0.3956  2.0286  1.1855
37235SOL    HW214661   4.558   5.216   7.954  0.3441 -0.1258  0.9324
37236SOL     OW14662   4.013   5.417   6.281 -0.4591 -0.5866 -0.1442
37236SOL    HW114663   4.034   5.324   6.284  2.0769 -0.0656  1.2167
37236SOL    HW214664   3.973   5.436   6.367  0.1867 -0.2081  0.0811
37237SOL     OW14665   1.711  10.629   5.471  0.2010 -0.3952  0.4140
37237SOL    HW114666   1.685  10.622   5.563 -0.5040 -0.4976  0.2166
37237SOL    HW214667   1.659  10.561   5.427 -0.6678  0.6961 -0.2930
37238SOL     OW14668   2.822   7.499   0.200  0.5315 -0.5442  0.2260
37238SOL    HW114669   2.875   7.435   0.152 -0.6817 -0.8245 -0.8046
37238SOL    HW214670   2.805   7.568   0.136  0.1494 -0.1675  0.7272
37239SOL     OW14671   4.218   3.842   8.568 -0.4655 -0.3141  0.6928
37239SOL    HW114672   4.279   3.902   8.524 -2.9711  2.7423  1.0706
37239SOL    HW214673   4.239   3.850   8.661 -0.4252 -0.4972  0.7001
37240SOL     OW14674   0.429  10.325  10.476  0.2554  0.3931  0.0065
37240SOL    HW114675   0.391  10.237  10.475 -1.0793  0.9331 -1.5106
37240SOL    HW214676   0.494  10.322  10.547 -0.5067 -1.4753  0.7046
37241SOL     OW14677   9.753   4.281   3.944  0.3782  0.2105  0.3384
37241SOL    HW114678   9.745   4.357   3.885 -1.2616 -0.7988 -0.8090
37241SOL    HW214679   9.680   4.290   4.005 -0.2008 -0.7363 -0.1894
37242SOL     OW14680  10.539   5.938   9.591  0.9661  0.2701 -0.4469
37242SOL    HW114681  10.465   5.969   9.538 -0.7250 -0.5909  1.3029
37242SOL    HW214682  10.561   5.853   9.555  0.2754 -0.0125 -0.2080
37243SOL     OW14683   4.171  10.048   4.214 -0.2052 -0.5058 -0.5274
37243SOL    HW114684   4.193  10.018   4.303 -0.3639  2.1352  0.5119
37243SOL    HW214685   4.255  10.050   4.168  0.2839  0.3494  0.3541
37244SOL     OW14686   6.063   3.797   8.420  0.0053 -0.5076 -0.0150
37244SOL    HW114687   5.988   3.836   8.374  0.2549  0.3729  0.3064
37244SOL    HW214688   6.139   3.833   8.375  0.2759 -2.3667 -1.1620
37245SOL     OW14689   5.835   2.512   8.404 -0.1155  0.9006  0.1686
37245SOL    HW114690   5.801   2.533   8.317  0.9084  1.1237 -0.1968
37245SOL    HW214691   5.763   2.532   8.464 -1.0441  0.1817 -0.6687
37246SOL     OW14692   2.356   3.714   1.610  0.5623  0.6538  0.4196
37246SOL    HW114693   2.276   3.685   1.652  0.7400  0.8707  0.9200
37246SOL    HW214694   2.422   3.714   1.679  0.7461  1.4919  0.2698
37247SOL     OW14695   2.663  10.238   5.871  0.1131  0.3114  0.0807
37247SOL    HW114696   2.600  10.191   5.818  1.3825 -2.1174  0.5940
37247SOL    HW214697   2.726  10.273   5.808 -0.8166  1.3432 -0.3012
37248SOL     OW14698   0.580   4.598   4.815 -0.2384 -0.4003 -0.1974
37248SOL    HW114699   0.584   4.539   4.890 -1.6385 -1.6470 -1.0482
37248SOL    HW214700   0.585   4.686   4.853 -0.7918 -0.9977  1.3395
37249SOL     OW14701   4.931   9.551   3.544  0.6646 -0.3116 -0.3725
37249SOL    HW114702   4.981   9.472   3.521 -1.1909 -1.7155  0.1728
37249SOL    HW214703   4.840   9.525   3.534 -0.0119  1.6420  0.3409
37250SOL     OW14704   6.017   2.154   2.326 -0.9857 -0.3212  0.2131
37250SOL    HW114705   6.017   2.212   2.250  3.3935  1.0741  0.9383
37250SOL    HW214706   6.014   2.066   2.290 -2.1833  0.3063 -1.3145
37251SOL     OW14707   9.862   7.725   8.266  0.2982 -0.2371  0.1173
37251SOL    HW114708   9.945   7.773   8.262  0.4806 -0.6045 -0.9152
37251SOL    HW214709   9.830   7.727   8.176 -2.2113  2.2916  0.9275
37252SOL     OW14710   5.267   9.968   9.939 -0.2234  0.0147 -0.4154
37252SOL    HW114711   5.317   9.886   9.937 -1.5685 -0.9308  1.7525
37252SOL    HW214712   5.249   9.983  10.031  0.8855  3.3873 -0.6119
37253SOL     OW14713   9.347   9.316   4.810  0.0903  0.2760 -0.0683
37253SOL    HW114714   9.309   9.233   4.840  0.9784 -0.5375 -1.1049
37253SOL    HW214715   9.290   9.344   4.738 -0.6429  0.9748  0.7629
37254SOL     OW14716   9.331   8.591  10.579 -0.0729  0.0319  0.9567
37254SOL    HW114717   9.403   8.652  10.562  0.0408 -0.4033 -0.2196
37254SOL    HW214718   9.335   8.575  10.673  0.7481  0.7741  1.0644
37255SOL     OW14719   3.371   1.497   0.743  0.7571  0.2563 -0.0513
37255SOL    HW114720   3.309   1.558   0.783  1.8124  0.7286  0.8858
37255SOL    HW214721   3.335   1.411   0.762 -0.1532  0.5395 -0.4181
37256SOL     OW14722   9.075   5.465   4.661 -0.1626  0.2583 -0.1028
37256SOL    HW114723   9.117   5.526   4.600 -0.8267  0.0627 -0.7771
37256SOL    HW214724   8.982   5.487   4.656 -0.2960 -0.1781  0.3745
37257SOL     OW14725   5.595   4.683   4.348  0.0621 -0.1351  0.1897
37257SOL    HW114726   5.628   4.642   4.428 -1.9221 -1.6870  0.2724
37257SOL    HW214727   5.587   4.612   4.285 -1.0574  0.5532 -0.4853
37258SOL     OW14728   0.813   7.569   7.354  0.5023 -0.1784  0.0776
37258SOL    HW114729   0.846   7.518   7.429 -0.8965 -0.9974  0.1734
37258SOL    HW214730   0.734   7.611   7.387  1.0611  1.2356 -0.3237
37259SOL     OW14731  10.520   9.313   7.591  0.0468  0.3432 -0.2733
37259SOL    HW114732  10.448   9.358   7.634  0.0320 -0.1669  0.2488
37259SOL    HW214733  10.478   9.247   7.536  0.1272 -0.6058  0.7723
37260SOL     OW14734  10.097   6.366   5.692 -0.4136 -0.0516  0.0318
37260SOL    HW114735  10.070   6.382   5.783 -0.9049  1.5871 -0.3559
37260SOL    HW214736  10.182   6.323   5.699 -0.2534  0.4127  1.2842
37261SOL     OW14737   6.641   3.494  10.198  0.1137 -0.0067 -0.1869
37261SOL    HW114738   6.580   3.452  10.137 -0.8723  0.7947  0.2266
37261SOL    HW214739   6.635   3.587  10.179 -0.7372  0.3495  1.5499
37262SOL     OW14740   1.651   5.449  10.531 -0.1117 -0.0587 -1.0565
37262SOL    HW114741   1.610   5.486  10.609  0.8646 -1.2699  0.0757
37262SOL    HW214742   1.745   5.459  10.546  0.0892 -0.0690 -2.2203
37263SOL     OW14743   1.140   1.601   2.397 -0.5912 -0.1719 -0.3578
37263SOL    HW114744   1.191   1.553   2.332 -1.6030 -2.0074  0.1333
37263SOL    HW214745   1.172   1.569   2.482 -1.6478 -0.4215 -0.0318
37264SOL     OW14746   1.973   7.342   7.574  0.4836  0.2396 -0.4397
37264SOL    HW114747   1.990   7.316   7.483 -1.8452 -0.2637 -0.7971
37264SOL    HW214748   1.916   7.273   7.608  1.5784  0.2452  1.5436
37265SOL     OW14749  10.314   5.309   9.502  0.0499 -0.3696  0.7009
37265SOL    HW114750  10.398   5.269   9.526  0.6215  2.0379  3.1034
37265SOL    HW214751  10.332   5.351   9.417  1.3326  0.1587  1.2007
37266SOL     OW14752   4.040   1.037   0.876  0.0182 -0.3491  0.4458
37266SOL    HW114753   4.069   0.946   0.887  1.5760 -0.1432 -1.3540
37266SOL    HW214754   4.082   1.084   0.948  0.4698 -0.8187  0.4993
37267SOL     OW14755   7.162   7.709   7.554 -0.2536  0.1458 -0.0208
37267SOL    HW114756   7.141   7.626   7.594  0.2405  0.4008  0.7942
37267SOL    HW214757   7.189   7.765   7.627 -4.6062  2.4345  0.1669
37268SOL     OW14758   6.040   3.455   6.486  0.3471 -0.0628 -0.4409
37268SOL    HW114759   6.067   3.515   6.417  0.6896 -1.4866 -1.6014
37268SOL    HW214760   5.946   3.472   6.498 -0.0928 -0.8743 -2.4153
37269SOL     OW14761   9.660   5.725  10.469 -0.0830  0.1418 -0.4256
37269SOL    HW114762   9.697   5.689  10.389 -1.5541 -0.4754 -0.8681
37269SOL    HW214763   9.594   5.661  10.495  0.5458  0.1996  1.4361
37270SOL     OW14764   1.669   2.697   1.875  0.0626 -0.7541 -0.5000
37270SOL    HW114765   1.698   2.606   1.872  1.6022 -0.3350 -4.7842
37270SOL    HW214766   1.741   2.746   1.836 -1.8918  1.9208 -0.9825
37271SOL     OW14767   5.696   1.672   0.546 -0.3142  0.5753 -0.6848
37271SOL    HW114768   5.787   1.654   0.523 -0.4894 -0.1761 -0.8040
37271SOL    HW214769   5.693   1.767   0.559  0.6933  0.4937  0.2362
37272SOL     OW14770   0.485   5.680   2.159  0.5200  0.0250  0.3546
37272SOL    HW114771   0.432   5.758   2.142  0.2166 -0.3230 -0.2809
37272SOL    HW214772   0.477   5.667   2.254  1.2191  1.2295  0.6130
37273SOL     OW14773   3.551   7.614   8.627  0.5263  0.3715  0.7039
37273SOL    HW114774   3.489   7.541   8.625  0.6657  0.2606 -0.0040
37273SOL    HW214775   3.556   7.643   8.536  0.7976  0.9896  0.9115
37274SOL     OW14776   8.881   8.640   1.713 -0.6472 -0.1887 -0.2262
37274SOL    HW114777   8.904   8.549   1.698 -0.7710 -0.0378 -1.4319
37274SOL    HW214778   8.950   8.690   1.669 -0.6390  0.3114  0.3268
37275SOL     OW14779   6.653   7.275  10.614  0.0586 -0.4036  0.1875
37275SOL    HW114780   6.576   7.223  10.638 -0.9685  1.7667  2.0208
37275SOL    HW214781   6.616   7.355  10.577  1.5592 -0.6268 -1.9271
37276SOL     OW14782   6.350   6.750   9.051 -0.8035 -1.2487 -0.2055
37276SOL    HW114783   6.264   6.791   9.061 -0.0197  0.3578  0.1968
37276SOL    HW214784   6.342   6.667   9.098 -1.6040 -0.3070  1.3995
37277SOL     OW14785   8.348  10.050   4.118 -0.5860  0.4291  0.7670
37277SOL    HW114786   8.285  10.033   4.047  0.6612 -0.2951 -0.2053
37277SOL    HW214787   8.337  10.143   4.138 -0.3433  0.8862 -1.0320
37278SOL     OW14788   8.306   9.333   8.261 -0.4311 -0.3744 -0.1136
37278SOL    HW114789   8.372   9.346   8.329 -1.3025 -0.3862  0.7498
37278SOL    HW214790   8.314   9.240   8.238 -0.2093 -0.3965  0.0445
37279SOL     OW14791   2.006   5.188   5.006 -0.2902  0.0446  0.4790
37279SOL    HW114792   2.056   5.264   4.976  2.0099 -1.4751  0.2235
37279SOL    HW214793   2.026   5.182   5.100  0.0837 -0.5983  0.3669
37280SOL     OW14794   5.305   1.309   4.803  0.1531  0.0988  0.3052
37280SOL    HW114795   5.374   1.260   4.758 -0.2391 -1.6530  1.5266
37280SOL    HW214796   5.246   1.242   4.836 -0.7011  1.4392  1.5881
37281SOL     OW14797   7.616   2.938   9.696  0.5167 -0.0105 -0.1924
37281SOL    HW114798   7.592   3.024   9.662  0.1833  0.5158  1.2932
37281SOL    HW214799   7.643   2.954   9.786 -1.2948 -1.6714  0.7324
37282SOL     OW14800  10.343   8.981   9.364  0.0106 -0.2877 -0.3231
37282SOL    HW114801  10.272   8.918   9.353  1.1074 -1.8913  1.1615
37282SOL    HW214802  10.421   8.935   9.333  0.6298  0.9107 -0.6081
37283SOL     OW14803   4.857   9.219   9.538 -0.2462  0.1615 -0.6900
37283SOL    HW114804   4.845   9.128   9.567 -1.9038  0.2489 -1.0042
37283SOL    HW214805   4.807   9.271   9.600 -0.1578  0.7669 -1.1239
37284SOL     OW14806   7.150   6.009  10.279  0.5102 -0.0939 -0.0138
37284SOL    HW114807   7.089   6.038  10.212  0.5445 -1.5091 -0.7026
37284SOL    HW214808   7.201   5.940  10.237 -0.1906 -1.8058  1.7342
37285SOL     OW14809   1.631   9.651   4.763 -0.0792  0.1763 -0.1557
37285SOL    HW114810   1.552   9.705   4.756 -0.5177 -0.3502  0.5675
37285SOL    HW214811   1.641   9.636   4.857  2.0367  1.9197 -0.0200
37286SOL     OW14812   3.069   6.903   4.527  0.2518  0.2307 -0.3606
37286SOL    HW114813   2.976   6.926   4.532  0.5240  1.8674 -1.7991
37286SOL    HW214814   3.110   6.959   4.593  0.5280  1.6898 -1.7108
37287SOL     OW14815   2.207   5.030   2.240  0.0596 -0.0553  0.1310
37287SOL    HW114816   2.260   5.023   2.320 -0.8310  0.6607  0.8137
37287SOL    HW214817   2.206   5.123   2.220  0.8752 -0.3104 -1.1600
37288SOL     OW14818   3.981   2.833   2.700  0.4915 -0.0424 -0.3809
37288SOL    HW114819   4.056   2.881   2.665  1.3439 -1.0355  0.0536
37288SOL    HW214820   3.915   2.901   2.715  0.6142  0.6308 -2.4584
37289SOL     OW14821   1.523   4.984   7.767 -0.3670 -0.2746  0.6043
37289SOL    HW114822   1.458   5.005   7.834 -1.3100  1.3266 -0.7451
37289SOL    HW214823   1.480   5.004   7.684  0.9126 -1.7969 -0.4942
37290SOL     OW14824   1.494   8.681   3.248  0.1654  0.2762 -1.3490
37290SOL    HW114825   1.561   8.615   3.234  0.5823  0.5298 -0.6205
37290SOL    HW214826   1.525   8.758   3.200  1.1414  0.8541  0.1197
37291SOL     OW14827   8.162   4.986   5.077 -0.4497 -0.3586 -0.4931
37291SOL    HW114828   8.183   5.065   5.027 -1.5355 -0.3879 -1.0240
37291SOL    HW214829   8.181   4.914   5.018  0.1559 -0.4869 -0.1510
37292SOL     OW14830   4.722   2.294   5.416  0.2865 -0.4938  0.1959
37292SOL    HW114831   4.779   2.324   5.345 -0.9436 -1.1011 -1.0979
37292SOL    HW214832   4.644   2.350   5.409  0.9451  0.8347  2.4069
37293SOL     OW14833   8.242   1.164   2.980  0.3424  0.3046  0.5665
37293SOL    HW114834   8.315   1.213   3.019  0.6193  1.3321 -1.1133
37293SOL    HW214835   8.267   1.072   2.989  0.2522  0.4544  2.9744
37294SOL     OW14836   9.682   4.857   8.323  0.8491 -0.4590 -0.2329
37294SOL    HW114837   9.683   4.942   8.279 -0.7178 -0.4723 -0.3770
37294SOL    HW214838   9.725   4.873   8.407 -0.9478  0.9537  0.4917
37295SOL     OW14839   0.902   9.716   6.255 -0.0189 -0.1261 -0.3234
37295SOL    HW114840   0.898   9.621   6.245 -0.5930 -0.1645  0.1546
37295SOL    HW214841   0.946   9.729   6.339 -0.5141  0.0059 -0.0809
37296SOL     OW14842   1.131   6.591   7.150 -0.4199 -0.4349 -0.1085
37296SOL    HW114843   1.200   6.636   7.199 -0.8152 -1.9745  2.0159
37296SOL    HW214844   1.164   6.587   7.060  2.0048 -0.6068  0.7085
37297SOL     OW14845   2.509   7.603   2.259  0.4756 -0.0907  0.6988
37297SOL    HW114846   2.491   7.562   2.344 -0.8940  0.1238  0.5292
37297SOL    HW214847   2.524   7.695   2.280  0.5802 -0.1183  0.7496
37298SOL     OW14848   1.226   2.948   9.771 -0.1439  0.6084 -0.1610
37298SOL    HW114849   1.278   3.013   9.725  0.4382  1.3199  1.4211
37298SOL    HW214850   1.207   2.881   9.705 -0.7794  2.3601 -1.8461
37299SOL     OW14851   0.723   4.831   5.501 -1.0440  0.0373  0.2105
37299SOL    HW114852   0.765   4.900   5.553 -1.2252  0.1871  0.1575
37299SOL    HW214853   0.781   4.755   5.511 -2.1567 -0.6062  2.3955
37300SOL     OW14854   9.956   2.857   9.198  0.6717 -0.0479 -0.4099
37300SOL    HW114855  10.047   2.830   9.211  0.3486 -0.9388  0.0837
37300SOL    HW214856   9.909   2.776   9.177 -0.2822  0.1325  0.8689
37301SOL     OW14857   9.430   5.146   0.296 -0.4403 -0.2356  0.0445
37301SOL    HW114858   9.402   5.124   0.385  0.1141 -0.0652  0.2647
37301SOL    HW214859   9.495   5.080   0.275  1.5443  1.3623  0.8618
37302SOL     OW14860   1.600   7.429   9.602  0.1365  0.2808 -0.5395
37302SOL    HW114861   1.652   7.350   9.619  0.8396  0.8922  0.2186
37302SOL    HW214862   1.624   7.489   9.672 -2.5388  0.1590  0.5738
37303SOL     OW14863   9.559   2.909   1.314 -0.1475  0.6777 -0.5962
37303SOL    HW114864   9.515   2.966   1.251 -1.2404 -0.9936 -1.4448
37303SOL    HW214865   9.558   2.822   1.272  0.1794 -0.2604  1.2178
37304SOL     OW14866   5.400   6.841   4.983  0.3134 -0.5238  0.3449
37304SOL    HW114867   5.318   6.795   4.999  0.2582 -0.1418  1.2195
37304SOL    HW214868   5.411   6.897   5.060  0.1113  1.3095 -0.9156
37305SOL     OW14869   7.750   5.205   1.416  0.0904  0.6366  0.0776
37305SOL    HW114870   7.746   5.136   1.482  0.8459  1.1735  0.7030
37305SOL    HW214871   7.723   5.284   1.462 -0.3390  0.8404 -0.5182
37306SOL     OW14872   5.073   1.669   6.913 -0.0890  0.4523 -0.3239
37306SOL    HW114873   5.013   1.613   6.963 -0.9264 -0.6154 -2.4382
37306SOL    HW214874   5.158   1.656   6.957 -0.7448 -0.5532  0.7269
37307SOL     OW14875  10.134   2.574   2.814  0.9193 -0.5056  0.7025
37307SOL    HW114876  10.077   2.524   2.873  0.4567  0.5874  1.2272
37307SOL    HW214877  10.138   2.661   2.854  1.3119  0.0125 -0.4241
37308SOL     OW14878   2.399   6.699   8.880  0.2066  0.0054  0.2656
37308SOL    HW114879   2.458   6.709   8.806 -1.1728  0.7290 -0.7666
37308SOL    HW214880   2.345   6.778   8.879 -3.0021 -2.0148 -0.8752
37309SOL     OW14881   8.919   2.981   3.615  0.3103 -0.4451  0.2366
37309SOL    HW114882   8.827   2.996   3.634  1.0533  1.7975  2.6029
37309SOL    HW214883   8.935   2.891   3.643 -1.6757 -1.9651 -2.9217
37310SOL     OW14884   2.742   8.294   6.082 -0.0243 -0.3549  0.0370
37310SOL    HW114885   2.784   8.365   6.034  0.4613 -0.3358  0.4791
37310SOL    HW214886   2.649   8.307   6.069  0.1087 -1.4586 -2.5207
37311SOL     OW14887   4.305   1.034   2.932 -0.2889 -0.3397 -0.4334
37311SOL    HW114888   4.400   1.021   2.925 -0.1387 -0.0923  0.8150
37311SOL    HW214889   4.272   1.019   2.844  1.0213  0.4741 -1.1048
37312SOL     OW14890   6.948   2.634   5.014 -0.0130 -0.2607  0.2529
37312SOL    HW114891   6.970   2.716   5.058  0.7197  0.1989 -0.8949
37312SOL    HW214892   6.993   2.567   5.065  0.1044  0.1563  0.7089
37313SOL     OW14893   5.817   0.128   7.542 -0.1091 -0.0590  0.2578
37313SOL    HW114894   5.857   0.050   7.582 -0.3537 -0.0242  0.5697
37313SOL    HW214895   5.866   0.139   7.460  0.9551  0.3511  0.9213
37314SOL     OW14896   8.515   7.726   2.969  0.3720 -0.0710 -0.7151
37314SOL    HW114897   8.453   7.796   2.950 -1.9617 -1.6423  0.5840
37314SOL    HW214898   8.565   7.758   3.043 -1.3077 -0.0418  0.4731
37315SOL     OW14899   8.910   0.905   0.376 -0.1953 -0.3106 -0.0685
37315SOL    HW114900   8.945   0.959   0.446 -1.2398 -2.7591  2.5287
37315SOL    HW214901   8.983   0.849   0.349 -0.0071  0.0974 -0.4240
37316SOL     OW14902   5.615   5.560   4.028 -0.3234 -0.0204  0.4873
37316SOL    HW114903   5.706   5.531   4.027 -0.3042  0.0625 -0.5429
37316SOL    HW214904   5.608   5.623   3.956 -1.6172 -1.3780 -0.6552
37317SOL     OW14905   6.991   4.625   7.214 -0.3393 -0.3929 -0.3098
37317SOL    HW114906   7.042   4.674   7.150  0.0225 -1.5934 -0.9842
37317SOL    HW214907   6.903   4.662   7.209 -0.0859  0.1532 -0.8089
37318SOL     OW14908   3.539   3.040   2.780  0.2826  0.0506 -0.1058
37318SOL    HW114909   3.628   3.040   2.815  0.6930 -1.2745 -1.0449
37318SOL    HW214910   3.500   2.959   2.815 -2.4204  2.8930  4.5227
37319SOL     OW14911   8.007   0.411   3.208  0.0690 -0.4267 -0.0974
37319SOL    HW114912   8.060   0.411   3.288 -0.2340  1.1814  0.1521
37319SOL    HW214913   7.988   0.504   3.192 -0.7725 -0.7961 -1.4474
37320SOL     OW14914   3.927   9.070   6.378  0.1511 -0.7523 -0.1173
37320SOL    HW114915   3.876   9.011   6.323 -0.2653  0.7270 -1.3959
37320SOL    HW214916   3.875   9.079   6.458 -0.7854 -0.5988 -0.7163
37321SOL     OW14917   0.677   3.301   4.058  0.0221 -0.3275  0.1211
37321SOL    HW114918   0.707   3.251   3.982 -2.3838 -2.7420  0.6015
37321SOL    HW214919   0.607   3.357   4.023  1.8058  1.8687 -0.1527
37322SOL     OW14920  10.140   8.447   0.907  0.0290  0.3469 -0.0510
37322SOL    HW114921  10.047   8.470   0.902  0.0168  0.1456 -1.0626
37322SOL    HW214922  10.147   8.368   0.853  0.5910 -0.3069  0.9519
37323SOL     OW14923   1.914  10.644   8.049  0.0673 -0.4054 -0.7597
37323SOL    HW114924   1.875  10.564   8.085  0.9670 -1.4950 -2.0625
37323SOL    HW214925   1.963  10.613   7.972  0.3725  1.4267 -1.3425
37324SOL     OW14926   9.323   5.954   6.135  0.2247  0.8283 -0.4333
37324SOL    HW114927   9.364   5.895   6.199 -1.2747  0.8108  0.5752
37324SOL    HW214928   9.230   5.930   6.136 -0.1308  2.0336 -1.3108
37325SOL     OW14929   7.929   6.922   0.480 -0.8490 -0.3324 -0.0049
37325SOL    HW114930   7.954   7.011   0.453 -3.5148  0.2868 -0.7870
37325SOL    HW214931   7.920   6.874   0.397  0.4865 -1.3496  0.4101
37326SOL     OW14932   7.761   5.874   1.737  0.8451  0.3595 -0.1101
37326SOL    HW114933   7.811   5.837   1.664 -1.6076 -1.6492 -0.8947
37326SOL    HW214934   7.693   5.927   1.696  0.0709  0.0704  0.7596
37327SOL     OW14935   5.308  10.297   5.515 -0.1186  0.1682  0.3627
37327SOL    HW114936   5.262  10.347   5.447 -0.1734 -2.0487 -1.3425
37327SOL    HW214937   5.365  10.361   5.557 -1.0244  1.9094 -0.9122
37328SOL     OW14938   7.857   8.830   3.821  0.1496  0.2866  0.0466
37328SOL    HW114939   7.834   8.852   3.730  2.2081  0.6289 -0.4385
37328SOL    HW214940   7.883   8.914   3.859  0.6918 -0.0826  0.5054
37329SOL     OW14941   7.298  10.008   3.201 -0.3969  0.0276 -0.7319
37329SOL    HW114942   7.202   9.998   3.201 -0.3229 -0.7844  0.1532
37329SOL    HW214943   7.326   9.971   3.285  0.6361  0.9045 -0.6773
37330SOL     OW14944   6.669   6.532   6.454 -1.1555 -0.2943  0.0044
37330SOL    HW114945   6.624   6.617   6.450  1.4811  1.1580 -2.2305
37330SOL    HW214946   6.648   6.491   6.370 -0.2484 -0.5977 -0.0852
37331SOL     OW14947   4.187   3.019   2.179 -0.3897 -0.2340  0.2844
37331SOL    HW114948   4.095   3.014   2.205 -1.9431 -0.9758 -4.3301
37331SOL    HW214949   4.208   2.931   2.147  1.0909  0.5552 -1.0807
37332SOL     OW14950   0.663   2.490   4.092 -0.3267  0.1280 -0.0371
37332SOL    HW114951   0.659   2.401   4.127 -0.2388 -0.4468 -1.4074
37332SOL    HW214952   0.572   2.513   4.074 -0.4087  0.5692  0.8614
37333SOL     OW14953   3.350   4.052   8.750  0.2215 -0.7025 -0.2474
37333SOL    HW114954   3.360   4.129   8.694  0.4631 -1.1874 -0.8848
37333SOL    HW214955   3.412   4.066   8.821  2.2050 -1.4982 -1.7216
37334SOL     OW14956   8.075   2.457   9.039  0.5793  0.7055 -0.5389
37334SOL    HW114957   8.012   2.413   8.982 -0.1355  1.4384 -0.3542
37334SOL    HW214958   8.045   2.548   9.040  0.3904  0.6560  1.2217
37335SOL     OW14959   2.421   9.402   4.709 -0.7194 -0.1094 -0.3356
37335SOL    HW114960   2.469   9.394   4.792  1.3308 -0.0467 -1.4474
37335SOL    HW214961   2.331   9.380   4.731 -0.2774  0.1184  1.9508
37336SOL     OW14962   9.944   2.887   2.656 -0.6394 -0.3327 -0.0628
37336SOL    HW114963   9.876   2.821   2.651 -0.5903 -0.3505 -0.5429
37336SOL    HW214964   9.971   2.887   2.748 -1.2658 -0.3395  0.1256
37337SOL     OW14965   4.438   5.479   0.836  0.3057  0.3326  0.1635
37337SOL    HW114966   4.498   5.553   0.848 -0.6918  1.0758  0.7017
37337SOL    HW214967   4.360   5.518   0.796  0.1369 -0.6048 -0.4538
37338SOL     OW14968   4.478   7.317  10.680  0.3848  0.0568  0.2305
37338SOL    HW114969   4.389   7.349  10.695  0.0679 -0.1602 -1.1038
37338SOL    HW214970   4.532   7.396  10.676  0.6035  0.1387  2.8693
37339SOL     OW14971   3.692   6.429   4.228  0.2627 -0.0978  0.5577
37339SOL    HW114972   3.761   6.362   4.235  0.2603 -0.2797 -0.9104
37339SOL    HW214973   3.652   6.413   4.143  0.1542  1.6848  0.2359
37340SOL     OW14974   0.958   1.392   8.760 -0.2897  0.5495  0.0512
37340SOL    HW114975   0.978   1.416   8.669  1.7951 -2.1562 -0.3265
37340SOL    HW214976   0.869   1.358   8.757 -0.0106 -0.1457 -1.1627
37341SOL     OW14977   5.750   8.805   9.659 -0.0288 -0.5856  0.0327
37341SOL    HW114978   5.728   8.796   9.752 -1.6561 -0.5580 -0.3175
37341SOL    HW214979   5.740   8.899   9.641  0.8222 -0.5090 -0.0496
37342SOL     OW14980   3.578   6.075   8.370 -0.6309 -0.0031  0.5752
37342SOL    HW114981   3.535   6.103   8.289  0.1375 -1.4491 -0.3641
37342SOL    HW214982   3.587   5.980   8.362  1.7375  0.0877  1.1835
37343SOL     OW14983   4.859   6.983  10.624  0.0578 -0.5185  0.3981
37343SOL    HW114984   4.816   6.898  10.629 -0.0669 -0.4065  1.3540
37343SOL    HW214985   4.898   6.996  10.710 -0.3025  0.5911  0.4169
37344SOL     OW14986   1.651   5.956   7.495  0.1174  0.2645  0.4829
37344SOL    HW114987   1.716   5.932   7.429 -1.0602  1.2486 -1.1020
37344SOL    HW214988   1.702   5.982   7.571  1.5897  0.9230 -0.6794
37345SOL     OW14989   1.021   4.484   3.194 -0.2584  0.0239  0.1512
37345SOL    HW114990   1.041   4.407   3.140  0.0037  0.5666 -0.5486
37345SOL    HW214991   0.991   4.448   3.277  1.5026 -0.8697  0.4675
37346SOL     OW14992   9.746   9.198  10.438 -0.1674 -0.0387 -0.0130
37346SOL    HW114993   9.662   9.165  10.470 -0.9729 -0.3564 -2.3010
37346SOL    HW214994   9.734   9.293  10.434 -0.7196 -0.1345 -1.0338
37347SOL     OW14995   2.093   3.437   5.478 -0.1736  0.7994 -0.3941
37347SOL    HW114996   2.149   3.437   5.555  2.3122 -2.6302 -1.9213
37347SOL    HW214997   2.119   3.515   5.429  1.8065  0.4487 -0.0000
37348SOL     OW14998   7.970   7.201   1.830 -0.3045 -0.0843 -0.5096
37348SOL    HW114999   8.059   7.229   1.852 -0.3959 -0.7520  0.8206
37348SOL    HW215000   7.913   7.260   1.879 -0.5627 -0.3212 -0.5216
37349SOL     OW15001   2.211   3.344   9.560 -0.2646 -0.0875 -0.1002
37349SOL    HW115002   2.305   3.344   9.543 -0.3131 -0.3311 -0.3664
37349SOL    HW215003   2.171   3.377   9.479 -0.3036  1.7653  0.6160
37350SOL     OW15004   0.091  10.508   1.695  0.7089  0.1056 -0.2437
37350SOL    HW115005   0.158  10.575   1.711 -0.1268  0.8965  0.0519
37350SOL    HW215006   0.139  10.425   1.700  1.8152  0.6809 -0.8585
37351SOL     OW15007   6.031   2.567   8.078  0.0817 -0.6877  0.0015
37351SOL    HW115008   6.019   2.661   8.064 -0.4462 -0.9387 -1.4333
37351SOL    HW215009   6.119   2.559   8.115  0.1933  0.3525 -0.0126
37352SOL     OW15010   2.310  10.530   9.419  0.5130 -0.2532  0.0859
37352SOL    HW115011   2.253  10.524   9.342 -1.2931  0.0246  1.3421
37352SOL    HW215012   2.252  10.560   9.489  2.0079 -0.9369  1.6779
37353SOL     OW15013   4.073   3.199   4.290 -0.2438  0.0951  0.0174
37353SOL    HW115014   4.101   3.246   4.211 -1.1757  0.1114 -0.3206
37353SOL    HW215015   4.153   3.158   4.323  0.4401  1.2316 -0.1476
37354SOL     OW15016   6.626   3.079   9.956  0.2045 -0.2329  0.2832
37354SOL    HW115017   6.657   2.988   9.962  0.2766 -0.2524 -0.3354
37354SOL    HW215018   6.698   3.131   9.992  0.7910 -0.3108 -0.7330
37355SOL     OW15019   5.687   7.210   4.042  0.0868  0.2307  0.5439
37355SOL    HW115020   5.600   7.250   4.045 -0.4673 -0.7854 -0.7536
37355SOL    HW215021   5.671   7.121   4.008  1.5771 -0.1381  0.7497
37356SOL     OW15022  10.342   4.347   3.488  0.9366  0.3783  0.0083
37356SOL    HW115023  10.420   4.314   3.532 -0.2676 -0.0628  1.9235
37356SOL    HW215024  10.286   4.379   3.559 -1.9040 -2.0461 -0.9162
37357SOL     OW15025   0.721   4.963   4.664  0.3778  0.7152 -0.2501
37357SOL    HW115026   0.792   4.903   4.646  0.4025  0.3535  0.9488
37357SOL    HW215027   0.651   4.938   4.603  0.6897  0.0233 -0.3238
37358SOL     OW15028   2.526   9.665   9.476 -0.3030 -0.5346  0.0794
37358SOL    HW115029   2.434   9.692   9.473 -0.1674 -0.0961 -2.6095
37358SOL    HW215030   2.574   9.746   9.491 -0.2558 -0.4130 -0.7101
37359SOL     OW15031  10.034   3.716   6.680 -0.0493  0.3211  0.4120
37359SOL    HW115032  10.119   3.702   6.721  1.0162  1.7457 -1.1374
37359SOL    HW215033  10.048   3.694   6.588 -1.0210  1.6757 -0.0912
37360SOL     OW15034   0.360   9.073   2.155  0.4248  0.8975  0.0211
37360SOL    HW115035   0.344   9.139   2.222  0.9736  1.6545 -0.5841
37360SOL    HW215036   0.324   8.992   2.193  0.4925  1.3563  1.1112
37361SOL     OW15037   7.832   2.125   1.433  0.1579  0.7910  0.6024
37361SOL    HW115038   7.877   2.117   1.517  1.4279 -0.6291 -0.1416
37361SOL    HW215039   7.825   2.219   1.417  0.8656  1.0588  1.7879
37362SOL     OW15040   7.866   8.187   0.843  0.4251 -0.4720 -0.2198
37362SOL    HW115041   7.859   8.206   0.750 -0.0457  0.3513 -0.0296
37362SOL    HW215042   7.889   8.094   0.847  0.5893 -0.4808 -1.1511
37363SOL     OW15043   7.262   9.614  10.589  0.3049 -0.7685  0.6259
37363SOL    HW115044   7.182   9.562  10.597 -0.1858  0.0509  1.2685
37363SOL    HW215045   7.248   9.667  10.511  0.3634 -0.8754  0.5437
37364SOL     OW15046   0.699  10.093  10.667  0.4474  0.0481  0.1423
37364SOL    HW115047   0.670  10.184  10.671  0.4653  0.0401  0.4973
37364SOL    HW215048   0.791  10.099  10.640 -0.2764 -0.0024 -2.6531
37365SOL     OW15049   5.288   5.390   2.044  0.0978 -0.4671 -0.0544
37365SOL    HW115050   5.361   5.415   2.101 -0.5890  2.3276 -0.2471
37365SOL    HW215051   5.321   5.405   1.955 -0.5475  0.5195 -0.1525
37366SOL     OW15052   4.814   1.196   6.288 -0.0263  0.1016 -0.3569
37366SOL    HW115053   4.909   1.208   6.285  0.0534 -0.2261  0.5605
37366SOL    HW215054   4.789   1.178   6.198  1.0831 -2.0901 -0.2781
37367SOL     OW15055   0.413   7.597   1.415 -0.3680 -0.8737  0.2989
37367SOL    HW115056   0.465   7.605   1.495  0.3892  0.5625 -0.3135
37367SOL    HW215057   0.472   7.556   1.351 -0.6697 -1.1490  0.1921
37368SOL     OW15058   0.345   3.841   7.399  0.5535 -0.1319 -0.5787
37368SOL    HW115059   0.391   3.902   7.457  1.6969 -1.6585  0.1967
37368SOL    HW215060   0.265   3.887   7.374  1.2615  1.5783  0.1456
37369SOL     OW15061   9.701   8.064   2.168 -0.3519  0.1080  0.3757
37369SOL    HW115062   9.650   8.129   2.216 -0.7648  1.2848 -1.5524
37369SOL    HW215063   9.668   7.980   2.199 -0.3925  0.7977  2.3197
37370SOL     OW15064   2.501   3.980   5.436 -0.6054  0.4314  0.2691
37370SOL    HW115065   2.460   3.954   5.354 -1.8231  1.3570  0.5477
37370SOL    HW215066   2.451   4.056   5.465  0.7749  1.0649  1.1046
37371SOL     OW15067   5.841   5.899   2.142  0.4601  0.2594 -0.3720
37371SOL    HW115068   5.876   5.922   2.228 -0.4149 -1.6089  0.5346
37371SOL    HW215069   5.756   5.859   2.160  0.1567  0.0104 -2.1373
37372SOL     OW15070   6.429   6.037   3.229 -0.1690  0.0568  0.1595
37372SOL    HW115071   6.412   6.118   3.277 -2.5911  0.6258 -1.5417
37372SOL    HW215072   6.349   5.986   3.238  0.1826 -0.8200 -1.3633
37373SOL     OW15073   9.571   4.669   3.881  0.0383  0.4745  0.3476
37373SOL    HW115074   9.530   4.734   3.825 -1.4754  1.3665  2.3507
37373SOL    HW215075   9.593   4.717   3.961  0.2476 -1.1457  1.3185
37374SOL     OW15076   3.047   8.594   5.886  0.2329  0.0951  0.3637
37374SOL    HW115077   3.070   8.541   5.809 -0.6875  1.1010 -0.6388
37374SOL    HW215078   3.126   8.592   5.940  1.2585  0.1051 -1.0434
37375SOL     OW15079   7.065   1.857   0.675  0.1806  0.3655 -0.2556
37375SOL    HW115080   7.049   1.876   0.583  1.6378  2.1172 -0.1946
37375SOL    HW215081   7.158   1.871   0.687 -0.1000  0.9044  1.6457
37376SOL     OW15082   5.201   8.116   0.654 -0.3145 -0.2031  0.3406
37376SOL    HW115083   5.217   8.109   0.748  1.2216  0.5548  0.1631
37376SOL    HW215084   5.287   8.134   0.616 -0.7803 -1.2161 -1.2946
37377SOL     OW15085   3.611   3.510  10.154 -0.4117 -0.0089 -0.9239
37377SOL    HW115086   3.531   3.492  10.204  1.4710 -2.2670  1.5975
37377SOL    HW215087   3.598   3.466  10.070 -2.8965  2.1962 -1.8226
37378SOL     OW15088   1.767   0.891   3.618  0.3377  0.9000 -0.5122
37378SOL    HW115089   1.738   0.810   3.661  1.2420 -0.0230 -1.5595
37378SOL    HW215090   1.848   0.915   3.663  0.7455  0.4990 -1.0207
37379SOL     OW15091   5.084   9.085   3.748  0.0043  0.0744  0.0492
37379SOL    HW115092   5.115   9.170   3.780 -0.6669  0.5942 -0.6500
37379SOL    HW215093   5.158   9.050   3.699  0.2981  0.2394  0.3713
37380SOL     OW15094   5.217   6.233  10.162 -0.2582  0.4945 -1.0308
37380SOL    HW115095   5.264   6.191  10.090  0.7630  0.8056 -0.5653
37380SOL    HW215096   5.278   6.229  10.236 -1.3063  0.1161 -0.1532
37381SOL     OW15097   2.235   6.025   1.824  0.5565 -0.0281  0.1463
37381SOL    HW115098   2.298   5.987   1.886  0.8717 -0.3862 -0.3872
37381SOL    HW215099   2.189   5.949   1.787  0.7154  0.1484 -0.4227
37382SOL     OW15100  10.190   6.548   6.308  0.5876 -0.5234  0.2798
37382SOL    HW115101  10.187   6.624   6.249  0.1611 -0.5523  0.2568
37382SOL    HW215102  10.101   6.512   6.304  0.4223 -0.2624  1.2896
37383SOL     OW15103   3.494   6.893   9.115 -0.7815 -0.1937  0.3159
37383SOL    HW115104   3.476   6.986   9.128 -0.8212 -0.1446 -0.0766
37383SOL    HW215105   3.571   6.876   9.169 -0.9760 -0.0095  0.6519
37384SOL     OW15106   0.843   2.079   6.246  0.1436 -0.3954 -0.4916
37384SOL    HW115107   0.779   2.023   6.203  0.6341 -0.2435 -1.4408
37384SOL    HW215108   0.843   2.160   6.195  0.1782  0.0948  0.2577
37385SOL     OW15109   7.300   7.803   2.365  0.1079 -0.1785  0.1921
37385SOL    HW115110   7.314   7.709   2.354  1.0542 -0.3935  2.5196
37385SOL    HW215111   7.278   7.813   2.458  2.3966  2.0709  0.6268
37386SOL     OW15112  10.127   1.138   4.174 -0.2240 -0.0031  0.6264
37386SOL    HW115113  10.112   1.087   4.253  0.5573  1.2701  1.6462
37386SOL    HW215114  10.050   1.194   4.166 -1.4441 -1.8162 -0.9278
37387SOL     OW15115   1.919   6.981   2.702  0.3026  0.3168 -0.3505
37387SOL    HW115116   1.896   6.889   2.692 -0.8644  0.6720 -1.1030
37387SOL    HW215117   1.954   6.988   2.791 -0.2478 -0.7209 -0.0432
37388SOL     OW15118   7.795   8.859   0.866  0.5083 -0.3377  0.4430
37388SOL    HW115119   7.722   8.839   0.807  0.4184 -1.7347  0.9889
37388SOL    HW215120   7.824   8.773   0.897  2.7509  0.1473 -0.1927
37389SOL     OW15121  10.057   2.709   3.864  0.3403 -0.2467 -0.1678
37389SOL    HW115122  10.087   2.771   3.930  0.5352 -1.2562  0.7368
37389SOL    HW215123  10.073   2.752   3.781  0.0536  1.0877  0.4331
37390SOL     OW15124   9.809   4.924   5.353 -0.0731 -0.7688 -0.0513
37390SOL    HW115125   9.782   5.014   5.335  1.1252 -0.6025 -1.1148
37390SOL    HW215126   9.727   4.875   5.355 -0.6569  0.1531 -0.5743
37391SOL     OW15127   9.896   6.661   4.533 -0.5928 -0.4477  0.1626
37391SOL    HW115128   9.968   6.639   4.474 -1.8661 -0.8867 -1.2904
37391SOL    HW215129   9.858   6.577   4.557 -1.3582 -0.1721 -0.0646
37392SOL     OW15130   1.089   2.521   3.879 -0.5973 -0.2623  0.0587
37392SOL    HW115131   1.032   2.598   3.867  0.8400  1.2436  2.1797
37392SOL    HW215132   1.177   2.554   3.858  0.1487 -1.0941  1.7419
37393SOL     OW15133  10.259   7.496   3.244  0.4820  0.4834 -0.2254
37393SOL    HW115134  10.292   7.584   3.224 -0.4239  1.0611  0.6956
37393SOL    HW215135  10.204   7.508   3.321 -1.1316 -0.5672 -1.1437
37394SOL     OW15136   2.090   8.651   8.957  0.5732  0.3884  0.2539
37394SOL    HW115137   2.042   8.722   9.000 -2.7083 -1.5144  0.1008
37394SOL    HW215138   2.133   8.604   9.028 -0.2726  0.4424  0.8182
37395SOL     OW15139  10.129   1.780   7.400 -0.2393 -0.0860  0.5074
37395SOL    HW115140  10.135   1.685   7.394  1.5623 -0.1023  1.9449
37395SOL    HW215141  10.218   1.809   7.417 -0.6938  1.9156 -0.2689
37396SOL     OW15142   9.472   5.354   6.439  0.4456  0.2739  0.5959
37396SOL    HW115143   9.413   5.280   6.451  0.2663  0.1687 -0.7604
37396SOL    HW215144   9.465   5.375   6.346  2.2003  0.5476  0.4973
37397SOL     OW15145   0.831   1.322   9.608 -0.3814  0.2269  0.4642
37397SOL    HW115146   0.893   1.313   9.536  0.8043  0.8561  1.3706
37397SOL    HW215147   0.745   1.317   9.566  0.2696  0.5341 -0.9799
37398SOL     OW15148   6.234   1.585   3.222  0.0996 -0.0293  0.3623
37398SOL    HW115149   6.307   1.643   3.247 -0.6294  1.1026 -0.0540
37398SOL    HW215150   6.184   1.575   3.303 -0.1444  0.4949  0.2834
37399SOL     OW15151   2.739   3.435   5.382 -0.3553 -0.0991 -0.4247
37399SOL    HW115152   2.725   3.527   5.358  2.0451  0.4339 -0.1378
37399SOL    HW215153   2.799   3.440   5.456  1.2459 -1.8984 -1.5212
37400SOL     OW15154   4.615   7.732  10.290  0.0845  0.1256  0.1113
37400SOL    HW115155   4.690   7.732  10.348  0.0115 -0.1908  0.2048
37400SOL    HW215156   4.642   7.680  10.215 -0.1760 -0.3244  0.3237
37401SOL     OW15157   8.518   7.451   3.015 -0.3852 -0.5258  0.4111
37401SOL    HW115158   8.464   7.399   2.954 -0.6616  0.5082 -0.2540
37401SOL    HW215159   8.494   7.541   2.996  1.2795 -0.0540  0.3978
37402SOL     OW15160   3.464  10.310   1.455 -0.5451 -0.3719 -0.1853
37402SOL    HW115161   3.518  10.232   1.462  0.1194  0.2182  2.1323
37402SOL    HW215162   3.376  10.281   1.479 -0.5567 -0.6622 -0.5852
37403SOL     OW15163   7.883   0.264   7.182  0.2827  0.2718  0.0071
37403SOL    HW115164   7.933   0.185   7.162  2.4300  1.5255  0.1649
37403SOL    HW215165   7.854   0.297   7.097  2.3744  1.1491 -0.4223
37404SOL     OW15166   4.595   4.713   4.761  0.5411  0.1696 -0.3195
37404SOL    HW115167   4.627   4.666   4.684  0.0474  0.4666 -0.7107
37404SOL    HW215168   4.648   4.679   4.833 -1.6097 -3.1152 -0.0501
37405SOL     OW15169   4.360   3.425   9.911 -0.2174 -0.3375  0.0161
37405SOL    HW115170   4.399   3.479   9.979  0.7584 -0.3914 -0.4908
37405SOL    HW215171   4.424   3.424   9.840 -1.4071  0.1111 -1.1191
37406SOL     OW15172   4.478   5.536   9.070 -0.3094 -0.2430 -0.3988
37406SOL    HW115173   4.427   5.613   9.096  0.8099  0.0699  1.0376
37406SOL    HW215174   4.502   5.553   8.979 -0.5208  0.8704 -0.2633
37407SOL     OW15175   4.555   1.763   1.170  0.1131 -0.0696  0.3963
37407SOL    HW115176   4.642   1.742   1.203 -0.4608 -0.8467  1.4896
37407SOL    HW215177   4.496   1.710   1.223 -1.4490  3.8982  3.1400
37408SOL     OW15178   1.652   4.182   0.444  0.1418  0.2824  0.1260
37408SOL    HW115179   1.631   4.263   0.492 -2.5555 -0.6723  0.7525
37408SOL    HW215180   1.611   4.195   0.358  2.4040  0.7719 -0.9556
37409SOL     OW15181   6.199   7.250   8.971  0.4112  0.1273  0.9784
37409SOL    HW115182   6.192   7.218   9.061  1.3135 -0.8079  0.7478
37409SOL    HW215183   6.265   7.193   8.931 -0.1359  0.3852 -0.3400
37410SOL     OW15184   6.207  10.040   0.283 -0.1756  0.6586  0.2350
37410SOL    HW115185   6.296  10.006   0.274 -0.4224 -0.1538  0.7727
37410SOL    HW215186   6.216  10.135   0.274  0.4900  0.4653 -1.6064
37411SOL     OW15187   1.193   6.026   7.773  0.1214  0.4017  0.2382
37411SOL    HW115188   1.130   5.983   7.831 -2.0966 -0.7326 -2.7401
37411SOL    HW215189   1.178   6.120   7.787 -0.6418  0.1622  1.1732
37412SOL     OW15190   1.142   3.652   9.262 -0.4814 -0.2905 -0.3675
37412SOL    HW115191   1.146   3.723   9.198 -0.6673 -1.2167 -1.4264
37412SOL    HW215192   1.229   3.650   9.301  0.3107 -1.0656 -2.0873
37413SOL     OW15193   0.368   2.274   0.298  0.5920 -0.5240 -0.7157
37413SOL    HW115194   0.282   2.245   0.271  0.6318 -1.3626  0.0127
37413SOL    HW215195   0.396   2.335   0.230 -1.0744  0.6942 -0.3600
37414SOL     OW15196   6.327   0.909   9.693  0.1341 -0.7310  0.2418
37414SOL    HW115197   6.353   0.989   9.649 -1.0374 -1.3193 -1.6435
37414SOL    HW215198   6.404   0.882   9.743  1.0567  0.7120 -0.3630
37415SOL     OW15199   3.996   1.822   2.318  0.2617  0.3388 -0.1483
37415SOL    HW115200   3.922   1.876   2.288  0.5794  0.3226 -0.9934
37415SOL    HW215201   3.955   1.750   2.366 -0.5596 -1.3234 -3.0625
37416SOL     OW15202   1.717   3.020   7.559 -0.1722 -0.1849 -0.0730
37416SOL    HW115203   1.665   2.992   7.634 -0.5085  0.8629  0.1102
37416SOL    HW215204   1.744   3.109   7.581 -0.0817  0.0519 -1.0942
37417SOL     OW15205   0.444   0.252   2.380 -0.7313 -0.1574  0.0318
37417SOL    HW115206   0.418   0.338   2.412 -2.2803 -0.2689 -0.8304
37417SOL    HW215207   0.379   0.230   2.313  0.0033 -1.7186 -0.2289
37418SOL     OW15208   4.652   1.958   6.704  0.4880  0.3111  0.9108
37418SOL    HW115209   4.596   1.983   6.630  0.7811 -0.5897  0.3804
37418SOL    HW215210   4.660   2.039   6.755 -2.3645  0.1943  1.7269
37419SOL     OW15211   3.187   2.579   3.994 -0.1314  1.0076  0.0232
37419SOL    HW115212   3.255   2.541   4.049  0.4597  0.5740 -0.9742
37419SOL    HW215213   3.106   2.536   4.022  0.2274  0.4593  0.2380
37420SOL     OW15214   8.759   8.483   5.445  0.2765 -0.0479  0.3083
37420SOL    HW115215   8.708   8.405   5.421 -0.6677  0.6640 -0.0670
37420SOL    HW215216   8.828   8.487   5.378 -1.2104  0.8560 -1.2674
37421SOL     OW15217   6.400   1.318   5.382  0.0303  0.0398 -0.0782
37421SOL    HW115218   6.317   1.302   5.338  0.2957  0.1956 -0.6432
37421SOL    HW215219   6.462   1.261   5.338  0.1983 -0.1881  0.4426
37422SOL     OW15220   7.084   3.196   6.734  0.2032 -1.0763  0.4316
37422SOL    HW115221   7.156   3.205   6.797 -1.3548  0.0259  2.1565
37422SOL    HW215222   7.013   3.248   6.771 -0.4568  0.6670 -2.8339
37423SOL     OW15223   1.971   1.031   7.230  0.5778 -0.1013  0.1593
37423SOL    HW115224   2.047   0.972   7.232  0.6740 -0.0273 -0.8398
37423SOL    HW215225   1.993   1.097   7.166  1.1074  1.9568  2.3212
37424SOL     OW15226   4.542   9.104  10.480  0.2723  0.4659 -0.1750
37424SOL    HW115227   4.531   9.154  10.399 -0.6225  0.8850  0.1910
37424SOL    HW215228   4.453   9.079  10.505  0.3901  1.4059  1.3430
37425SOL     OW15229   1.482   4.316   8.376 -0.2828 -0.0448 -0.0347
37425SOL    HW115230   1.544   4.266   8.323  0.6176  1.2532 -0.2517
37425SOL    HW215231   1.401   4.318   8.324  0.2404  0.2643 -0.8522
37426SOL     OW15232   8.946   9.793   5.379 -0.4182  0.1648 -0.4102
37426SOL    HW115233   8.937   9.878   5.335 -0.5020  0.7126  0.6179
37426SOL    HW215234   8.884   9.736   5.335 -2.5459  1.4473  0.7685
37427SOL     OW15235   2.559   2.430   0.519  0.4541 -0.2826 -0.1416
37427SOL    HW115236   2.494   2.498   0.537 -2.6376 -2.9677 -0.1043
37427SOL    HW215237   2.558   2.421   0.424 -0.7044 -1.5420 -0.0424
37428SOL     OW15238   0.583   7.148  10.454 -0.4942  0.3724 -1.1068
37428SOL    HW115239   0.506   7.094  10.468 -0.9944  1.4616  0.7316
37428SOL    HW215240   0.625   7.112  10.376 -1.3741 -1.9447 -0.5729
37429SOL     OW15241   4.223   0.604   0.461  0.3694  0.5230  0.3494
37429SOL    HW115242   4.247   0.672   0.524 -0.7685  2.3896 -1.1308
37429SOL    HW215243   4.239   0.643   0.376  0.9689 -1.5976 -0.5879
37430SOL     OW15244   7.937   9.805   6.585  0.4612  0.2923  0.1667
37430SOL    HW115245   7.864   9.749   6.560 -0.3534  0.3258  2.2915
37430SOL    HW215246   7.901   9.894   6.582  1.0512  0.5120 -0.8253
37431SOL     OW15247   2.755   4.144   1.728  0.1170 -0.4589  0.3630
37431SOL    HW115248   2.801   4.086   1.788 -3.4763 -0.8640  3.0531
37431SOL    HW215249   2.761   4.230   1.769 -1.7297 -0.5958  0.9889
37432SOL     OW15250   3.240   9.616   1.403 -0.0193  0.0804  0.1623
37432SOL    HW115251   3.330   9.583   1.405  0.7178  1.8533 -1.2033
37432SOL    HW215252   3.213   9.606   1.312 -0.0310  2.4391 -0.1476
37433SOL     OW15253   8.455   1.516   2.116  0.4816  0.3507  0.1786
37433SOL    HW115254   8.549   1.530   2.115  0.1512  3.4731  1.3057
37433SOL    HW215255   8.420   1.586   2.060 -1.1407 -2.5217 -2.7723
37434SOL     OW15256   8.875  10.115   0.329 -0.3711 -0.1619 -0.5580
37434SOL    HW115257   8.931  10.170   0.384  0.6507 -2.5420  0.9589
37434SOL    HW215258   8.787  10.126   0.365 -0.0375 -0.1428  0.2610
37435SOL     OW15259   8.029   1.392   3.426 -0.0772  0.1695 -0.2854
37435SOL    HW115260   8.009   1.311   3.378  0.3391  0.5826 -1.1774
37435SOL    HW215261   8.111   1.423   3.389 -0.2802  1.0565 -0.0276
37436SOL     OW15262   4.499   1.270   3.007 -0.0281  0.3892  0.2739
37436SOL    HW115263   4.444   1.233   2.938 -3.7797  0.0310  3.1532
37436SOL    HW215264   4.540   1.194   3.048 -0.4503  0.2632  0.4721
37437SOL     OW15265   5.545   5.756   1.459 -0.0873 -0.4679 -0.0801
37437SOL    HW115266   5.580   5.708   1.534  1.1332 -1.4876 -1.2564
37437SOL    HW215267   5.583   5.843   1.466  1.5178 -1.0962 -0.4743
37438SOL     OW15268   6.235   4.034   1.569 -0.4464 -0.1966  0.0796
37438SOL    HW115269   6.214   3.949   1.608  0.7207 -0.3545  0.4042
37438SOL    HW215270   6.307   4.016   1.509  0.2945  0.6810  0.6885
37439SOL     OW15271   9.034   1.766   3.092  0.2424 -0.4312  1.0051
37439SOL    HW115272   9.047   1.790   3.000 -1.4561  1.0693  1.0902
37439SOL    HW215273   9.011   1.673   3.089 -0.7652 -0.1758 -0.2212
37440SOL     OW15274   6.249   1.824   1.782  0.1319 -0.5537  0.0035
37440SOL    HW115275   6.237   1.901   1.725 -0.0230 -0.7016 -0.1639
37440SOL    HW215276   6.242   1.749   1.723  1.9682 -0.6678 -0.1391
37441SOL     OW15277   9.440   8.519   5.801  0.1459  0.3333 -0.0436
37441SOL    HW115278   9.393   8.482   5.876 -1.5320  0.2252 -1.1140
37441SOL    HW215279   9.454   8.444   5.743 -0.7078  0.8276 -0.9126
37442SOL     OW15280   9.823   2.136   6.288  0.3203 -0.2129 -0.3582
37442SOL    HW115281   9.842   2.052   6.329 -0.7884 -0.5635 -0.5176
37442SOL    HW215282   9.856   2.128   6.198 -1.5118 -1.2329 -0.9924
37443SOL     OW15283   0.211   3.794   8.259 -0.1480  0.1049 -0.9271
37443SOL    HW115284   0.263   3.762   8.333 -0.5713  2.9557  0.7197
37443SOL    HW215285   0.122   3.766   8.279  0.0388 -0.9158 -1.4618
37444SOL     OW15286  10.574   8.701   4.927  0.0473  0.1438  0.4696
37444SOL    HW115287  10.508   8.636   4.907 -1.3171  1.8733 -1.0155
37444SOL    HW215288  10.657   8.660   4.903 -0.6259 -1.4561  0.7600
37445SOL     OW15289   0.949   3.632   8.214  0.6260  0.0920 -0.3764
37445SOL    HW115290   0.965   3.667   8.127 -1.1638  1.2108 -0.3073
37445SOL    HW215291   0.880   3.688   8.250  0.7944 -0.8107  1.4678
37446SOL     OW15292   2.940   8.292   7.269  0.6146  0.0557  0.5007
37446SOL    HW115293   2.884   8.360   7.305 -0.2275 -0.2930 -0.1112
37446SOL    HW215294   3.008   8.279   7.335 -1.9024 -1.9212  2.9525
37447SOL     OW15295   9.302   5.178   3.754  0.3891  0.1964  0.0634
37447SOL    HW115296   9.345   5.261   3.773 -0.3265  0.3960  0.9057
37447SOL    HW215297   9.209   5.200   3.749  0.4360  0.0412 -3.2777
37448SOL     OW15298   2.100   8.924   9.134 -0.4164 -0.3307 -0.1590
37448SOL    HW115299   2.135   8.894   9.219 -0.8977 -0.3245  0.0425
37448SOL    HW215300   2.055   9.006   9.154  1.6739  1.0567 -0.8641
37449SOL     OW15301   7.898   5.431   8.643  0.2552  0.1185 -0.4635
37449SOL    HW115302   7.865   5.521   8.645  2.2602  0.9387 -1.8363
37449SOL    HW215303   7.963   5.427   8.713 -0.8905 -0.7783  0.6162
37450SOL     OW15304   7.569   8.755   2.741  0.0288  0.0663 -0.0395
37450SOL    HW115305   7.511   8.715   2.806 -0.5771 -1.4267 -1.4223
37450SOL    HW215306   7.561   8.849   2.756 -0.1480 -0.2218  1.9606
37451SOL     OW15307   0.766   2.075   8.040 -0.1431  0.0374 -0.4626
37451SOL    HW115308   0.814   1.999   8.074 -1.0007 -0.5777 -0.5788
37451SOL    HW215309   0.823   2.112   7.974  0.3908 -0.3748 -0.2414
37452SOL     OW15310   8.560   5.644   1.827  0.0523  0.1042 -0.2312
37452SOL    HW115311   8.510   5.704   1.772  0.2304  0.4913  0.0218
37452SOL    HW215312   8.558   5.684   1.914 -0.4976 -0.6531  0.1288
37453SOL     OW15313   8.352   1.788   9.841 -0.7397  0.0073  0.2736
37453SOL    HW115314   8.313   1.866   9.881  1.3046  1.3722 -0.2152
37453SOL    HW215315   8.312   1.782   9.754 -3.3475 -1.5145  1.4551
37454SOL     OW15316   4.980   1.031  10.377 -0.5890 -0.3271 -0.6074
37454SOL    HW115317   5.062   1.078  10.393  0.0778 -2.3601  2.9166
37454SOL    HW215318   4.912   1.088  10.414 -0.3285 -0.2622 -0.2290
37455SOL     OW15319   3.193   4.787   4.696  0.3972  0.2154 -0.2490
37455SOL    HW115320   3.201   4.792   4.792 -1.8467 -1.0090  0.0674
37455SOL    HW215321   3.171   4.876   4.669  0.2897  0.4107  0.4604
37456SOL     OW15322   8.985   7.860   5.904  0.1391  0.0312 -0.1504
37456SOL    HW115323   8.946   7.867   5.817 -1.0294 -3.4368 -0.0707
37456SOL    HW215324   9.062   7.804   5.892  1.4478  1.5656  0.7054
37457SOL     OW15325   2.777   9.871   4.183  0.0428  0.2134  0.2096
37457SOL    HW115326   2.758   9.964   4.200  0.6345  0.5770 -0.9737
37457SOL    HW215327   2.730   9.851   4.103  4.0067  1.0635 -2.6518
37458SOL     OW15328   1.394   5.705   2.355  0.1294 -0.3726 -0.2438
37458SOL    HW115329   1.358   5.708   2.444  0.3369 -1.9151 -0.0743
37458SOL    HW215330   1.421   5.795   2.337  2.1088 -0.3883  2.1082
37459SOL     OW15331   6.795   2.204   3.964 -0.0916 -0.1374  0.3455
37459SOL    HW115332   6.743   2.265   3.912  1.7797  0.7900 -0.5437
37459SOL    HW215333   6.866   2.176   3.905 -0.9992 -3.4461  0.6191
37460SOL     OW15334   1.207   4.416   9.493  0.0143  0.2813 -0.4757
37460SOL    HW115335   1.289   4.384   9.533 -0.8419  2.1648  3.2544
37460SOL    HW215336   1.139   4.385   9.552 -1.4669  2.7242 -0.7796
37461SOL     OW15337   0.159   3.403   4.160  0.1276 -0.8350  0.4418
37461SOL    HW115338   0.128   3.478   4.211  2.0877 -0.7482  1.6545
37461SOL    HW215339   0.207   3.443   4.087 -0.5622 -0.9331 -0.0642
37462SOL     OW15340   2.360   9.330   8.796  0.1588 -0.0334 -0.1379
37462SOL    HW115341   2.273   9.339   8.835  0.7750  2.4453  0.8353
37462SOL    HW215342   2.420   9.338   8.870  1.2488 -0.4350 -0.9596
37463SOL     OW15343   4.580   2.603  10.207  0.4409 -0.3386  0.1547
37463SOL    HW115344   4.568   2.509  10.196  0.6446 -0.1887 -1.6200
37463SOL    HW215345   4.584   2.638  10.118  0.7076  1.3159  0.7684
37464SOL     OW15346   6.963   4.007   2.088 -0.5172 -0.8307  0.1667
37464SOL    HW115347   7.003   4.054   2.015 -0.7851 -0.6425  0.1375
37464SOL    HW215348   7.023   3.936   2.107 -0.1896 -0.5738  0.1001
37465SOL     OW15349   7.812   5.292   6.163  0.2678 -0.2878 -0.0614
37465SOL    HW115350   7.727   5.302   6.122  1.1843 -1.7633 -2.5094
37465SOL    HW215351   7.859   5.372   6.142 -0.4314  0.5111  1.2601
37466SOL     OW15352   5.214   1.867   1.076 -0.2503  0.3347  0.0338
37466SOL    HW115353   5.271   1.890   1.002 -1.2697  2.7288 -0.1006
37466SOL    HW215354   5.135   1.920   1.063 -0.2050  1.3625  3.1797
37467SOL     OW15355   3.640   1.073   6.838  0.4467 -0.2009 -0.8196
37467SOL    HW115356   3.676   1.034   6.759  0.8447  2.2378 -1.9320
37467SOL    HW215357   3.700   1.044   6.908  1.2508 -0.7840 -1.7240
37468SOL     OW15358   6.535   0.000   1.005  0.2330 -0.1514 -0.9686
37468SOL    HW115359   6.445  -0.025   1.027  0.3598 -0.0697 -0.3376
37468SOL    HW215360   6.590  -0.054   1.061  0.5207  1.5151  0.4424
37469SOL     OW15361   4.754   9.675   5.041  0.3430 -0.3241 -0.5616
37469SOL    HW115362   4.784   9.691   4.952 -1.1885 -1.5419 -1.3374
37469SOL    HW215363   4.665   9.710   5.044  1.0247  1.4366  1.0954
37470SOL     OW15364  10.008   1.406   3.652  0.4172  0.1379  0.3501
37470SOL    HW115365  10.018   1.470   3.582  0.5514 -0.6982 -0.4238
37470SOL    HW215366  10.097   1.372   3.667  0.1935 -0.6613 -0.0468
37471SOL     OW15367   8.224   7.934  10.325 -0.2135 -0.4609  0.0314
37471SOL    HW115368   8.186   7.856  10.365 -0.4408  0.8142  2.4908
37471SOL    HW215369   8.318   7.927  10.343 -0.2117 -0.2733  0.1048
37472SOL     OW15370   6.577   7.247   8.140  0.3331  0.9004 -0.0845
37472SOL    HW115371   6.583   7.203   8.225 -1.8344  0.4286 -0.0988
37472SOL    HW215372   6.612   7.183   8.078  0.5222  0.6416  0.2849
37473SOL     OW15373   1.283   6.608   5.564 -0.4268  0.0553  0.0711
37473SOL    HW115374   1.253   6.661   5.490 -1.5577  0.8127  1.0229
37473SOL    HW215375   1.285   6.669   5.638  0.8042 -0.6516  0.6469
37474SOL     OW15376   8.678   3.259   2.619 -0.2033  0.3578 -0.1015
37474SOL    HW115377   8.587   3.233   2.633 -0.0407 -0.2321 -0.1143
37474SOL    HW215378   8.715   3.189   2.565  0.6553 -0.1698  1.1276
37475SOL     OW15379   0.208   2.558   0.230 -0.3420 -0.3686  0.5549
37475SOL    HW115380   0.284   2.546   0.173 -1.2026  0.2921 -0.8201
37475SOL    HW215381   0.233   2.521   0.314  1.0454 -1.2658 -0.2269
37476SOL     OW15382   7.493   2.517   2.482 -0.0482  0.1358 -0.0514
37476SOL    HW115383   7.431   2.588   2.501 -0.5485  0.0537 -1.2778
37476SOL    HW215384   7.451   2.467   2.412  0.7855 -0.7511  0.0660
37477SOL     OW15385   3.358   5.732   9.192  0.2473 -0.3282  0.3560
37477SOL    HW115386   3.334   5.640   9.197 -0.5035 -0.0975  1.4512
37477SOL    HW215387   3.326   5.762   9.107 -1.1673 -0.6320  0.7678
37478SOL     OW15388   0.669   1.249   9.232  0.0957  0.0988  0.5695
37478SOL    HW115389   0.722   1.307   9.176  0.8383  0.0435  1.1913
37478SOL    HW215390   0.581   1.285   9.226  0.4080  0.8818  0.3932
37479SOL     OW15391   6.060   4.118   7.792 -0.0521  0.4510  0.3528
37479SOL    HW115392   5.980   4.146   7.746  0.3353  0.3564 -0.3811
37479SOL    HW215393   6.032   4.042   7.843 -0.4768  0.5277  0.2435
37480SOL     OW15394   9.205   0.210   2.176 -0.1850  0.1460  0.1920
37480SOL    HW115395   9.243   0.251   2.253 -0.5269 -0.6077  0.7782
37480SOL    HW215396   9.153   0.278   2.134 -1.3331  0.1319  1.5385
37481SOL     OW15397   6.541   6.683   5.179 -0.2538  0.6245 -0.4151
37481SOL    HW115398   6.469   6.746   5.178 -0.2922  0.6577  1.1013
37481SOL    HW215399   6.609   6.723   5.126  0.1184  2.4857  1.3206
37482SOL     OW15400   3.695   8.175   1.892 -0.5084  0.5141 -0.0328
37482SOL    HW115401   3.683   8.231   1.968 -0.5969  0.8765 -0.3137
37482SOL    HW215402   3.656   8.224   1.819  0.3910  0.5778 -0.4851
37483SOL     OW15403   9.655   7.185   2.607 -0.0453 -0.2848  0.5600
37483SOL    HW115404   9.733   7.241   2.607 -0.7558  0.7507 -0.5390
37483SOL    HW215405   9.650   7.152   2.517 -1.9483  1.2578  0.0398
37484SOL     OW15406   7.173   5.052   4.721 -0.1921  0.2117 -0.5148
37484SOL    HW115407   7.133   5.133   4.754  1.3082  0.9857 -0.5006
37484SOL    HW215408   7.219   5.079   4.641 -1.1184 -0.9988 -1.4968
37485SOL     OW15409   7.851   0.537   5.264  0.4773  0.0063  0.8075
37485SOL    HW115410   7.786   0.565   5.327  0.6866  0.0956  0.9843
37485SOL    HW215411   7.849   0.441   5.268  0.5620  0.0132  1.0249
37486SOL     OW15412   0.293   1.526   5.094  0.2297  0.1454  0.0978
37486SOL    HW115413   0.335   1.554   5.176  0.2644  0.2261  0.0524
37486SOL    HW215414   0.342   1.448   5.068  1.3707  1.1153 -0.7750
37487SOL     OW15415   3.276   5.073  10.436 -0.2186 -0.2303 -0.2119
37487SOL    HW115416   3.280   5.155  10.487  0.9443  0.6053 -1.5734
37487SOL    HW215417   3.365   5.038  10.441 -0.2812 -0.5111 -1.0492
37488SOL     OW15418   2.062   7.774   7.642  1.3588 -0.2827 -0.6353
37488SOL    HW115419   2.117   7.827   7.701  0.7018 -0.7490  0.4211
37488SOL    HW215420   2.113   7.695   7.626  1.3236 -0.3774 -0.2790
37489SOL     OW15421   4.144   5.802   1.134  0.6883 -0.1766 -1.0739
37489SOL    HW115422   4.049   5.786   1.134  1.1152 -3.5202 -1.8444
37489SOL    HW215423   4.156   5.872   1.071 -1.4415  2.5770  1.2945
37490SOL     OW15424   3.603   0.615   8.838  0.4964  0.2278  0.0768
37490SOL    HW115425   3.587   0.570   8.755  0.4751  0.4123 -0.0188
37490SOL    HW215426   3.698   0.628   8.840  0.3178  1.9953 -0.8443
37491SOL     OW15427   6.724   5.403   2.215  0.2306  0.2166  0.0185
37491SOL    HW115428   6.661   5.377   2.148 -0.0962 -0.8353  0.7183
37491SOL    HW215429   6.671   5.439   2.286  0.5876  1.5211 -0.3392
37492SOL     OW15430   1.937   5.390   3.870 -0.5301  0.2040  0.1241
37492SOL    HW115431   1.856   5.372   3.918 -0.1593 -0.5377  0.4922
37492SOL    HW215432   1.993   5.314   3.888  0.2255  0.6762 -0.1726
37493SOL     OW15433   8.620   0.403   1.472  0.2985  0.1508  0.0665
37493SOL    HW115434   8.677   0.459   1.525  0.9043  2.9463 -3.0972
37493SOL    HW215435   8.659   0.407   1.384 -2.9716 -0.4575 -1.5676
37494SOL     OW15436   8.750   7.725   6.057  0.0181  0.1173  0.0177
37494SOL    HW115437   8.671   7.746   6.008  0.6390 -0.1122 -1.1229
37494SOL    HW215438   8.812   7.793   6.032 -0.1887  1.0502  1.8960
37495SOL     OW15439  10.507   9.108   2.363 -0.1679 -0.0594  0.8194
37495SOL    HW115440  10.503   9.100   2.268  0.9272  0.5578  0.7135
37495SOL    HW215441  10.455   9.034   2.395  0.4210 -0.9630 -0.2452
37496SOL     OW15442   2.494   2.583   9.346  0.1787 -0.3659  0.2593
37496SOL    HW115443   2.530   2.605   9.432  1.4254  0.0453 -0.3489
37496SOL    HW215444   2.434   2.655   9.327 -0.3740 -0.6355  0.9230
37497SOL     OW15445   6.561   9.228   2.958  0.0400  0.0356  0.5680
37497SOL    HW115446   6.574   9.144   3.002 -1.0253 -1.3569 -1.6126
37497SOL    HW215447   6.554   9.291   3.029 -0.5281 -1.9047  2.3440
37498SOL     OW15448   4.119   3.782   1.535  0.3425  0.5259 -0.3198
37498SOL    HW115449   4.077   3.798   1.451  0.8482  2.3532 -0.2585
37498SOL    HW215450   4.089   3.853   1.591  1.5234  0.4356  0.4640
37499SOL     OW15451   4.344   5.483   5.542 -0.1370  0.1326  0.0914
37499SOL    HW115452   4.271   5.436   5.502  0.3343 -1.4899  1.0092
37499SOL    HW215453   4.319   5.575   5.536 -1.0465 -0.1795 -1.9273
37500SOL     OW15454   7.888   0.832   6.976 -0.4038  0.3117  0.4260
37500SOL    HW115455   7.850   0.897   7.035  0.0890  1.4871 -0.4994
37500SOL    HW215456   7.882   0.872   6.889  0.5619 -0.5802 -0.0765
37501SOL     OW15457   0.275   1.686   0.748 -0.2442 -0.2710 -0.2137
37501SOL    HW115458   0.258   1.780   0.756 -1.8745 -0.5680  0.1129
37501SOL    HW215459   0.335   1.667   0.820 -1.1444  0.2525  0.6998
37502SOL     OW15460   9.405   3.772  10.114 -0.0441  0.8734  0.3503
37502SOL    HW115461   9.316   3.803  10.135  0.3095  1.7352  0.6374
37502SOL    HW215462   9.448   3.848  10.075  1.0508  0.9493  1.6301
37503SOL     OW15463   4.263   0.245   2.516 -0.2418 -0.3326  0.0428
37503SOL    HW115464   4.171   0.222   2.532 -0.4475 -1.3692 -2.2808
37503SOL    HW215465   4.260   0.310   2.447  0.7864 -3.6140 -3.4075
37504SOL     OW15466   5.655   7.821   3.876 -0.2444  0.3079 -0.5269
37504SOL    HW115467   5.562   7.813   3.898 -0.3808  1.2173 -0.7277
37504SOL    HW215468   5.677   7.736   3.836 -1.1247  0.2634 -0.9636
37505SOL     OW15469   2.067   8.188   8.538 -0.6328 -0.1650 -0.0698
37505SOL    HW115470   2.158   8.177   8.512 -1.4276 -1.3742 -2.6771
37505SOL    HW215471   2.061   8.278   8.568  1.4636 -0.1470  0.4464
37506SOL     OW15472   4.938   4.406   2.765 -0.1553 -0.2092  0.3083
37506SOL    HW115473   5.013   4.465   2.752 -0.3998 -0.0778 -0.6279
37506SOL    HW215474   4.862   4.464   2.765 -0.2350 -0.2881  1.7601
37507SOL     OW15475   3.626   5.240  10.367  0.3716 -0.2332 -0.1399
37507SOL    HW115476   3.592   5.330  10.370  0.4335 -0.1760 -0.9747
37507SOL    HW215477   3.721   5.251  10.356  0.2726 -0.3802 -1.3287
37508SOL     OW15478   5.471   1.730   2.969  0.6246 -0.1322  0.3220
37508SOL    HW115479   5.378   1.747   2.978  1.0374  2.4134  0.6495
37508SOL    HW215480   5.495   1.767   2.884  1.7400  1.6310  1.3456
37509SOL     OW15481   6.541   1.838  10.525 -0.0631  0.4648 -0.0302
37509SOL    HW115482   6.459   1.886  10.513 -0.8533 -0.9460 -0.4411
37509SOL    HW215483   6.541   1.772  10.456  1.1589  0.0776  0.3123
37510SOL     OW15484   2.056  10.103   6.958 -0.2721 -0.1348  0.0632
37510SOL    HW115485   2.070  10.039   6.889  0.2540  0.8182 -0.7377
37510SOL    HW215486   1.962  10.115   6.962 -0.4544 -1.5930  0.8341
37511SOL     OW15487   1.405   7.958   5.319 -0.3182 -0.0651  0.0612
37511SOL    HW115488   1.346   7.882   5.318 -0.0062 -0.3092 -0.7025
37511SOL    HW215489   1.413   7.981   5.411 -2.7161  0.8624  0.1096
37512SOL     OW15490   1.144  10.156   0.364  0.1541  0.6354 -0.2186
37512SOL    HW115491   1.081  10.122   0.301  0.7370 -1.2716  0.1651
37512SOL    HW215492   1.159  10.083   0.425  2.1832  1.2692  0.1146
37513SOL     OW15493   0.777   7.477   3.240  0.6240 -0.3901 -0.4671
37513SOL    HW115494   0.702   7.483   3.300  0.7138 -1.3315 -0.2553
37513SOL    HW215495   0.843   7.535   3.278 -0.0407  0.5904 -0.7498
37514SOL     OW15496   0.454   7.861   0.261 -0.0042  0.5393  0.2258
37514SOL    HW115497   0.543   7.875   0.294  0.8309  0.7887 -1.9506
37514SOL    HW215498   0.466   7.806   0.184 -1.9515 -0.9799  0.9087
37515SOL     OW15499  10.448   3.218   9.158  0.7121  0.0094  0.2130
37515SOL    HW115500  10.421   3.260   9.239  2.2379  2.8871 -0.6531
37515SOL    HW215501  10.460   3.290   9.096 -2.4733 -2.1419 -3.3258
37516SOL     OW15502   1.313  10.488   7.744  0.7933 -0.3980 -0.1474
37516SOL    HW115503   1.325  10.393   7.741  1.2866 -0.3715  0.7095
37516SOL    HW215504   1.219  10.499   7.755  0.7114 -0.7840 -0.4279
37517SOL     OW15505   7.967   5.200   4.928 -0.1616  0.4651 -0.8580
37517SOL    HW115506   7.896   5.159   4.879 -0.6321  1.5212 -1.0619
37517SOL    HW215507   7.924   5.264   4.985  0.6697  1.5402 -1.4067
37518SOL     OW15508   3.129   8.088   3.397  0.1380  0.1258  0.9065
37518SOL    HW115509   3.061   8.134   3.347  0.9031 -0.7048 -0.9722
37518SOL    HW215510   3.160   8.154   3.459  0.0476  1.6581 -0.5790
37519SOL     OW15511   5.700   4.692   9.349 -0.0382 -0.0888 -0.3874
37519SOL    HW115512   5.616   4.655   9.324  0.0585 -0.2240 -0.5159
37519SOL    HW215513   5.702   4.685   9.444 -0.4598  0.5396 -0.3300
37520SOL     OW15514   2.534   0.230   9.687  0.1497 -0.3482  0.7280
37520SOL    HW115515   2.516   0.151   9.737  2.0816  0.3611  2.7272
37520SOL    HW215516   2.487   0.299   9.733  2.2616  0.3817  1.9266
37521SOL     OW15517   4.574   6.914   9.238 -0.0931 -0.2279 -0.3911
37521SOL    HW115518   4.584   6.819   9.244  2.2771 -0.0303 -0.5665
37521SOL    HW215519   4.646   6.950   9.290 -0.5559  1.4884 -0.8559
37522SOL     OW15520   4.516   3.095  10.461 -0.3146  0.4077 -0.4614
37522SOL    HW115521   4.494   3.182  10.492  0.3356  1.1810 -2.0564
37522SOL    HW215522   4.439   3.067  10.411 -0.2757  0.3286 -0.4778
37523SOL     OW15523   5.300   0.121   3.996 -0.9136 -0.7007  0.4757
37523SOL    HW115524   5.214   0.159   3.982 -0.8183 -0.6501 -0.0102
37523SOL    HW215525   5.288   0.058   4.067 -0.9437  0.6826  1.7501
37524SOL     OW15526   6.526   4.234   8.403 -0.5841  0.1949 -0.4525
37524SOL    HW115527   6.519   4.320   8.362 -2.9786  0.5614  0.5603
37524SOL    HW215528   6.505   4.249   8.495 -0.0919 -1.3502 -0.0546
37525SOL     OW15529   1.325   7.064   7.014 -0.1563  0.1468  0.5811
37525SOL    HW115530   1.350   6.977   6.982 -1.6624  0.0304 -0.3695
37525SOL    HW215531   1.299   7.048   7.105  1.4932 -0.0045  1.0715
37526SOL     OW15532   6.397  10.020   1.589 -0.1935  0.1003 -0.0665
37526SOL    HW115533   6.363   9.938   1.625 -3.8752  0.1667 -2.6968
37526SOL    HW215534   6.375  10.086   1.654 -0.3869 -0.5944  0.5813
37527SOL     OW15535   3.791   8.500   3.852 -0.4519  0.1053 -0.3044
37527SOL    HW115536   3.861   8.437   3.866 -0.2016  0.3073 -0.6420
37527SOL    HW215537   3.834   8.585   3.850 -0.6878  0.2201 -0.6315
37528SOL     OW15538   7.302   6.431   0.780  0.5249  0.2771 -0.2264
37528SOL    HW115539   7.237   6.361   0.787 -0.4124  1.2587  1.5807
37528SOL    HW215540   7.274   6.481   0.703  0.2664 -0.3853 -0.5768
37529SOL     OW15541   5.967   6.535   7.615 -0.0431 -0.3141 -0.3177
37529SOL    HW115542   6.055   6.571   7.625  0.2735 -0.2594 -2.8179
37529SOL    HW215543   5.981   6.442   7.594 -0.5418 -0.1496 -1.4112
37530SOL     OW15544   6.218   9.932   2.849 -0.3684  0.2819  0.1311
37530SOL    HW115545   6.129   9.906   2.872  0.2185 -1.1653  0.8422
37530SOL    HW215546   6.254   9.858   2.800  0.4981  0.7932 -0.0451
37531SOL     OW15547  10.211   1.717   2.592  0.2329 -0.1880 -0.0992
37531SOL    HW115548  10.185   1.809   2.595  0.2848 -0.1945  0.6969
37531SOL    HW215549  10.260   1.703   2.672 -2.7542 -1.7815  1.6207
37532SOL     OW15550   4.939   4.575   8.610 -0.1528 -0.0193  0.4559
37532SOL    HW115551   4.863   4.583   8.551 -0.7433  0.0574  1.2122
37532SOL    HW215552   4.936   4.655   8.663 -0.2260 -0.5546  1.2728
37533SOL     OW15553   1.299  10.590   9.184  0.1876 -0.3804  0.5099
37533SOL    HW115554   1.300  10.564   9.092 -0.0351  3.2967 -0.6896
37533SOL    HW215555   1.392  10.594   9.208  0.2642 -0.8435  0.3090
37534SOL     OW15556   2.715   3.840   7.872  0.3643 -0.1351  0.4978
37534SOL    HW115557   2.634   3.854   7.921  0.5406 -0.1436  0.7944
37534SOL    HW215558   2.728   3.921   7.823  1.1435  0.6067  1.8572
37535SOL     OW15559   3.796   4.839   5.226  0.4533 -0.0985  0.1676
37535SOL    HW115560   3.722   4.815   5.282  0.6089  1.3660  1.0403
37535SOL    HW215561   3.780   4.930   5.201  0.9077 -0.4085 -1.3701
37536SOL     OW15562   7.350  10.339   5.591  0.0685 -0.7172  0.3380
37536SOL    HW115563   7.259  10.368   5.577  0.1334 -0.2288  0.8774
37536SOL    HW215564   7.342  10.270   5.657  0.1353 -0.3343  0.7480
37537SOL     OW15565   4.558  10.118   3.540 -0.3240  0.1742 -0.0252
37537SOL    HW115566   4.578  10.104   3.447  0.7141 -0.2771  0.2535
37537SOL    HW215567   4.602  10.200   3.562 -1.8290  1.0973 -0.2842
37538SOL     OW15568   0.074   3.897   1.119 -0.7286  0.4766  0.2998
37538SOL    HW115569   0.059   3.845   1.198  0.2315  0.2031  0.3059
37538SOL    HW215570   0.128   3.970   1.148 -1.4183  1.0740  0.1325
37539SOL     OW15571   4.811   8.397   9.734 -0.3032  0.4478  0.0301
37539SOL    HW115572   4.822   8.489   9.758  1.9545  0.3778 -0.4698
37539SOL    HW215573   4.752   8.361   9.800 -0.2586  1.9699  0.9458
37540SOL     OW15574  10.386  10.038   0.399  0.2803 -0.5541  0.0174
37540SOL    HW115575  10.394   9.963   0.341  1.0264 -0.3136 -0.2094
37540SOL    HW215576  10.392  10.001   0.487  0.3420 -0.7954 -0.0864
37541SOL     OW15577   6.852   6.405   1.449 -0.2610 -0.0725  0.5088
37541SOL    HW115578   6.824   6.339   1.512 -0.1688 -1.5694 -0.9402
37541SOL    HW215579   6.901   6.356   1.382 -1.0726  1.2907 -1.1738
37542SOL     OW15580   1.938   4.095   6.476  0.0451  0.3489 -0.0832
37542SOL    HW115581   2.031   4.108   6.458  0.2537 -0.3397  0.4755
37542SOL    HW215582   1.934   4.073   6.569 -0.6160 -0.1850 -0.2297
37543SOL     OW15583  10.242   0.546   3.425  0.1953  0.1440 -0.0510
37543SOL    HW115584  10.176   0.606   3.460 -1.0649 -0.7182 -0.8716
37543SOL    HW215585  10.309   0.543   3.493 -1.4882 -0.3839  1.6943
37544SOL     OW15586   8.903   5.494   7.542  0.0647  0.2360 -0.2250
37544SOL    HW115587   8.935   5.582   7.520 -0.1881  0.5004  0.4316
37544SOL    HW215588   8.871   5.502   7.632 -0.4079 -0.4146 -0.3280
37545SOL     OW15589   2.235   6.249   3.974  0.2089  0.5081 -0.6660
37545SOL    HW115590   2.311   6.247   4.032 -1.6965  1.4565  2.0271
37545SOL    HW215591   2.259   6.190   3.902  2.9134 -0.3268  0.7768
37546SOL     OW15592   9.304   8.902   1.597  0.0269  0.2589 -0.1515
37546SOL    HW115593   9.289   8.846   1.674  1.0376  0.5888  0.3106
37546SOL    HW215594   9.314   8.989   1.634  0.9852  0.3496 -0.6155
37547SOL     OW15595   6.776   8.831  10.294 -0.2893  0.2804 -0.5891
37547SOL    HW115596   6.819   8.788  10.220 -2.5495 -0.9075 -1.2982
37547SOL    HW215597   6.751   8.917  10.261  0.3396  0.4755 -0.5780
37548SOL     OW15598   5.716   3.285   1.273  0.1592  0.1283  0.2712
37548SOL    HW115599   5.797   3.234   1.267  0.0859  0.0236  0.1663
37548SOL    HW215600   5.726   3.355   1.208 -0.4351 -0.7232 -0.7664
37549SOL     OW15601   7.139   5.399   4.164  0.1035  0.2176 -0.6857
37549SOL    HW115602   7.071   5.459   4.134  0.8253  0.7049 -1.3854
37549SOL    HW215603   7.113   5.313   4.131  0.6563  0.6694 -2.4012
37550SOL     OW15604  10.410   8.631   2.535 -0.1291 -0.2783 -0.4401
37550SOL    HW115605  10.383   8.703   2.478 -0.6441 -2.0037 -2.4722
37550SOL    HW215606  10.506   8.630   2.527 -0.0286  0.7114  0.3425
37551SOL     OW15607   2.669   9.389   5.684  0.2423 -0.2291  0.3799
37551SOL    HW115608   2.671   9.484   5.671 -0.2426 -0.1629  0.7758
37551SOL    HW215609   2.576   9.367   5.689  0.3427 -0.7899 -0.1374
37552SOL     OW15610   5.079   6.579   9.224  0.2414 -0.0239 -0.1278
37552SOL    HW115611   5.045   6.625   9.300  0.3572 -0.0086 -0.0850
37552SOL    HW215612   5.005   6.529   9.190  0.2959 -0.3593  0.2420
37553SOL     OW15613   9.475  10.385   1.594 -0.2472 -0.0778 -0.1041
37553SOL    HW115614   9.398  10.402   1.539  0.2351  0.8738 -0.5105
37553SOL    HW215615   9.511  10.472   1.611  0.7484 -0.5207  0.0668
37554SOL     OW15616   0.402   8.529  10.537  0.3881 -0.2379  0.8463
37554SOL    HW115617   0.459   8.548  10.611 -0.2706 -0.1012  1.3367
37554SOL    HW215618   0.395   8.434  10.535  2.2973 -0.3875 -0.5279
37555SOL     OW15619   3.824   8.537   0.971  0.6744 -0.1363 -0.1535
37555SOL    HW115620   3.770   8.460   0.987  0.7015  0.2153  1.8378
37555SOL    HW215621   3.880   8.545   1.048  1.6132  1.1104 -0.9164
37556SOL     OW15622   1.102   3.118   7.295  0.3414  0.1838  0.4150
37556SOL    HW115623   1.042   3.150   7.227 -0.1827  0.6679  1.0890
37556SOL    HW215624   1.185   3.160   7.276  0.4656 -0.4443 -0.4949
37557SOL     OW15625   0.175   4.209   9.540  0.1572  0.4382  0.1274
37557SOL    HW115626   0.237   4.264   9.588  0.4877 -0.0763  0.3008
37557SOL    HW215627   0.144   4.264   9.468 -1.5207  1.7909  1.7792
37558SOL     OW15628   8.596   9.261   5.551  0.1348  0.0458 -0.7046
37558SOL    HW115629   8.579   9.334   5.611 -2.8409 -1.2222  0.1735
37558SOL    HW215630   8.666   9.211   5.593 -1.3252 -0.3620  1.4233
37559SOL     OW15631   9.707   3.979   3.616 -0.8456  0.3316 -0.4918
37559SOL    HW115632   9.790   4.021   3.638  0.2749 -1.9542  0.0098
37559SOL    HW215633   9.731   3.914   3.550 -2.1437 -0.6569 -0.0236
37560SOL     OW15634   6.764   9.223   4.045  0.1410 -0.0573  0.0056
37560SOL    HW115635   6.685   9.273   4.022  1.0911  0.5887 -2.1403
37560SOL    HW215636   6.733   9.133   4.053 -1.0397  0.3778  0.6065
37561SOL     OW15637   1.864   0.012   9.616  0.0664 -0.3489  0.1068
37561SOL    HW115638   1.842   0.062   9.695 -4.0171 -1.3290 -0.2042
37561SOL    HW215639   1.824   0.062   9.545  1.6516 -0.7117 -1.0880
37562SOL     OW15640   7.091   9.931   0.613 -0.1228 -0.3715 -0.0305
37562SOL    HW115641   7.089  10.026   0.624  2.4589 -0.2011 -0.4046
37562SOL    HW215642   7.094   9.918   0.518  3.4000 -0.5447 -0.0236
37563SOL     OW15643   7.025   6.353  10.224 -0.5957  0.4184  0.3800
37563SOL    HW115644   7.020   6.267  10.183  0.7039 -1.0487  3.0107
37563SOL    HW215645   7.029   6.414  10.151  0.2927 -1.8894 -1.6514
37564SOL     OW15646   1.448   6.784   6.918 -0.0495  0.6452  0.1630
37564SOL    HW115647   1.511   6.814   6.852  0.1955  2.1186  1.0246
37564SOL    HW215648   1.499   6.726   6.975  0.6537  2.0093  0.9898
37565SOL     OW15649   2.333   3.680   5.407 -0.7515  0.0058  0.1399
37565SOL    HW115650   2.244   3.708   5.429 -2.0475 -1.2699 -2.8815
37565SOL    HW215651   2.353   3.612   5.472 -2.3364 -0.2305  0.4398
37566SOL     OW15652  10.608   1.643   4.433  0.5004  0.0647  0.4424
37566SOL    HW115653  10.609   1.723   4.380 -1.8089  0.5203  0.9474
37566SOL    HW215654  10.542   1.588   4.391 -0.9297  0.1776  2.3856
37567SOL     OW15655   3.646   5.737   0.241  0.3630 -0.1210 -0.3075
37567SOL    HW115656   3.596   5.815   0.261  1.5532  0.6939 -0.3818
37567SOL    HW215657   3.733   5.755   0.276  0.6812 -1.3775 -0.4023
37568SOL     OW15658   6.334   5.852   3.880 -0.0836  0.1110 -0.1527
37568SOL    HW115659   6.362   5.783   3.820 -0.0521  0.8453 -1.0234
37568SOL    HW215660   6.372   5.932   3.843 -0.0592  0.5842  0.8638
37569SOL     OW15661   1.730   9.048   7.722 -0.3368 -0.3523  0.2803
37569SOL    HW115662   1.754   9.130   7.679 -0.5935 -0.7678 -0.6646
37569SOL    HW215663   1.672   9.004   7.660 -1.3508 -0.6049  1.3838
37570SOL     OW15664   1.260   9.227   5.752 -0.1570  0.6038 -0.0362
37570SOL    HW115665   1.340   9.174   5.743 -0.3588  0.5469 -1.8475
37570SOL    HW215666   1.190   9.169   5.720 -0.3537  1.9700 -2.2955
37571SOL     OW15667   3.221   3.357   9.978  0.3273 -0.1086 -0.3923
37571SOL    HW115668   3.125   3.354   9.971  0.2797  0.9929 -0.4954
37571SOL    HW215669   3.249   3.267   9.964 -0.7200 -0.5208  0.0021
37572SOL     OW15670   8.846   2.531   1.027  0.4529  0.1163 -0.2790
37572SOL    HW115671   8.877   2.562   1.112  0.7157 -0.9279  0.0152
37572SOL    HW215672   8.753   2.511   1.042  0.5268 -0.1751 -0.2045
37573SOL     OW15673   5.182   9.485   5.948 -0.2872  0.6533 -0.0207
37573SOL    HW115674   5.152   9.437   5.871  0.3102  1.1760 -0.5844
37573SOL    HW215675   5.124   9.455   6.018  0.2737 -1.1188 -0.2742
37574SOL     OW15676   5.868   7.672  10.432  0.6831 -0.4090 -0.3298
37574SOL    HW115677   5.845   7.581  10.451 -1.1242  0.3543  1.5513
37574SOL    HW215678   5.789   7.722  10.452  1.2840  1.5212 -2.2817
37575SOL     OW15679   9.489   9.021  10.252 -0.3318 -0.2080 -0.1592
37575SOL    HW115680   9.551   9.094  10.258  0.3562 -0.8290  0.3812
37575SOL    HW215681   9.404   9.061  10.274  0.3259  0.0737  2.1682
37576SOL     OW15682   0.183   4.164   3.073 -0.5906 -0.2960 -0.2018
37576SOL    HW115683   0.207   4.179   3.164 -0.0028  0.1692 -0.4268
37576SOL    HW215684   0.265   4.171   3.025 -0.7169 -1.6337 -0.6450
37577SOL     OW15685   1.658   2.571   3.067  0.1957 -0.7184 -0.2494
37577SOL    HW115686   1.607   2.490   3.060  0.6859 -1.0787  0.3048
37577SOL    HW215687   1.729   2.560   3.003 -0.9385  0.2009 -1.7505
37578SOL     OW15688   4.046   6.896   8.760  0.0380 -0.6300  0.3136
37578SOL    HW115689   4.136   6.888   8.790 -0.2343 -0.0345  1.3260
37578SOL    HW215690   4.011   6.972   8.807 -1.7132 -2.2460  1.7941
37579SOL     OW15691   3.584   2.224   8.891  0.2132  0.2903 -0.2407
37579SOL    HW115692   3.636   2.147   8.918  1.3879  1.0778 -0.1661
37579SOL    HW215693   3.565   2.208   8.799 -2.6146 -1.7470  0.5508
37580SOL     OW15694   3.435   1.600   0.489 -0.6707  0.2331 -0.2505
37580SOL    HW115695   3.437   1.555   0.573  0.1759 -0.7971 -0.7887
37580SOL    HW215696   3.417   1.531   0.425  1.6158  0.4368 -1.2028
37581SOL     OW15697   2.528   1.591   6.451 -0.1792  0.6481 -0.2386
37581SOL    HW115698   2.440   1.565   6.477  0.1890 -1.1501 -0.6718
37581SOL    HW215699   2.516   1.638   6.368 -0.6875 -0.1091 -0.6018
37582SOL     OW15700   0.942   5.780   6.698 -0.2498 -0.5526 -0.5921
37582SOL    HW115701   0.995   5.737   6.765  3.5802  2.1871 -1.5270
37582SOL    HW215702   0.944   5.873   6.722 -3.1104 -0.0644 -1.8160
37583SOL     OW15703   4.273   7.911   4.935  0.0257  0.0713  0.1479
37583SOL    HW115704   4.338   7.879   4.872 -0.7837 -0.2952 -0.5151
37583SOL    HW215705   4.248   7.833   4.985 -0.3152  0.0996  0.0229
37584SOL     OW15706   5.895  10.316   9.310 -0.1503  0.0701 -0.2284
37584SOL    HW115707   5.887  10.323   9.405  1.4344 -0.1695 -0.0483
37584SOL    HW215708   5.819  10.263   9.284  0.3937 -1.5024  1.1591
37585SOL     OW15709   5.293   0.044   4.652 -0.0163  0.1151  0.2909
37585SOL    HW115710   5.323  -0.041   4.620 -0.0335  0.0832  0.3627
37585SOL    HW215711   5.233   0.075   4.583  0.5325  0.3873 -0.0749
37586SOL     OW15712   1.337   1.019   3.225 -0.6838 -0.7255 -0.3066
37586SOL    HW115713   1.344   0.976   3.140 -2.4131 -1.4965 -0.1086
37586SOL    HW215714   1.341   0.947   3.288  0.7731 -0.1457  0.3085
37587SOL     OW15715   8.870   0.619   1.451  0.4099 -0.5294  0.5954
37587SOL    HW115716   8.946   0.582   1.495 -0.1654  0.3207  2.4010
37587SOL    HW215717   8.886   0.713   1.448  0.3421 -0.5363 -0.9060
37588SOL     OW15718   4.456   4.559   6.214  0.4896  0.3034  0.3417
37588SOL    HW115719   4.450   4.615   6.137 -0.9540  0.1217  0.2944
37588SOL    HW215720   4.492   4.616   6.282  1.6146  0.5110 -0.3923
37589SOL     OW15721   4.266   3.183   4.003 -0.3384  0.3261  0.4340
37589SOL    HW115722   4.178   3.166   3.970 -1.2395  2.1255  1.7257
37589SOL    HW215723   4.321   3.185   3.925 -1.7759  0.9552 -0.6051
37590SOL     OW15724   4.323   9.871   7.398  0.5134 -0.1750 -0.0312
37590SOL    HW115725   4.232   9.863   7.425 -0.0185  0.3482 -1.5796
37590SOL    HW215726   4.368   9.904   7.476 -0.4482 -1.2222  1.0028
37591SOL     OW15727   7.085   5.251   3.842  0.1461  0.2748  0.7562
37591SOL    HW115728   7.100   5.233   3.749  2.0986  0.1202  1.0577
37591SOL    HW215729   6.990   5.255   3.850 -0.1105 -0.8006 -1.0419
37592SOL     OW15730   4.941   8.411  10.594 -0.0633 -0.0947  0.2627
37592SOL    HW115731   4.947   8.459  10.677 -1.1055  1.5903 -0.5738
37592SOL    HW215732   4.933   8.319  10.620  0.3511  0.3135  1.9937
37593SOL     OW15733   4.596   0.274   6.358  0.2305 -0.2288  0.4060
37593SOL    HW115734   4.675   0.296   6.406  0.4345 -1.6432  0.7867
37593SOL    HW215735   4.614   0.299   6.268  0.9488 -0.1401  0.5736
37594SOL     OW15736   1.354  10.163   2.852  0.3900 -0.6145 -0.3556
37594SOL    HW115737   1.301  10.145   2.775 -0.4671 -1.7090  0.4666
37594SOL    HW215738   1.333  10.092   2.914  0.4135  0.6699  1.2072
37595SOL     OW15739   9.957   2.802   0.699 -0.2000  0.7696 -0.9569
37595SOL    HW115740   9.942   2.834   0.610 -0.1440  1.1278 -0.8377
37595SOL    HW215741  10.045   2.831   0.721  0.5662 -0.9788 -1.4980
37596SOL     OW15742   5.815   1.725   4.565 -0.2955 -0.5879  0.3544
37596SOL    HW115743   5.731   1.741   4.523  0.1297  0.4397 -0.1386
37596SOL    HW215744   5.877   1.779   4.516  0.4744 -0.5237  1.3718
37597SOL     OW15745   3.789   0.191   8.673  0.0856 -0.0412 -0.0263
37597SOL    HW115746   3.776   0.097   8.679 -1.5508  0.2138  1.1465
37597SOL    HW215747   3.786   0.210   8.580 -1.6682 -0.9213 -0.1949
37598SOL     OW15748   4.842   7.611   0.554 -0.0343  0.2753  0.5915
37598SOL    HW115749   4.917   7.669   0.542  0.1313  0.0298  0.4285
37598SOL    HW215750   4.877   7.534   0.598  0.1125 -0.4804 -0.7769
37599SOL     OW15751   4.475   2.935   1.766 -0.2130  0.2987 -0.2890
37599SOL    HW115752   4.470   3.009   1.826  0.1718 -0.9751  1.3844
37599SOL    HW215753   4.398   2.882   1.787 -0.0460 -0.1968 -0.8981
37600SOL     OW15754   3.141   5.022   7.114  0.5482  0.0026 -0.7530
37600SOL    HW115755   3.048   5.001   7.114  0.8461 -1.4903 -1.7024
37600SOL    HW215756   3.145   5.115   7.093 -0.7503  0.3252  0.3333
37601SOL     OW15757   7.029   7.407   7.941  0.0846  0.1136 -0.0320
37601SOL    HW115758   6.997   7.497   7.936 -0.8869 -0.2763 -1.3213
37601SOL    HW215759   7.035   7.389   8.035 -0.9459  1.1019  0.2462
37602SOL     OW15760  10.162   5.758   6.342  0.5853  0.0678  0.2001
37602SOL    HW115761  10.083   5.706   6.352  1.5956 -1.4861  0.3976
37602SOL    HW215762  10.131   5.844   6.313 -1.0416 -1.0034 -1.4287
37603SOL     OW15763   6.191   4.313   3.950  0.0205 -0.2657 -0.1296
37603SOL    HW115764   6.125   4.255   3.912 -0.1906 -0.7122  0.8894
37603SOL    HW215765   6.153   4.401   3.941 -0.3350 -0.4344 -0.3014
37604SOL     OW15766   0.036   2.429   6.521 -0.1342  0.2684  0.2933
37604SOL    HW115767  -0.028   2.474   6.466  1.5290  1.0539 -1.1302
37604SOL    HW215768   0.045   2.342   6.481 -0.2369  0.1907  0.4379
37605SOL     OW15769   3.915   7.611   5.994  0.5648  0.3688 -0.0912
37605SOL    HW115770   3.902   7.520   5.966  2.4189  0.2048 -0.5002
37605SOL    HW215771   3.970   7.604   6.072  0.3349  1.1258  0.1451
37606SOL     OW15772   5.330   3.907   3.886  0.2288 -0.3427  0.5197
37606SOL    HW115773   5.320   3.819   3.924 -0.5368 -0.5930 -0.2237
37606SOL    HW215774   5.424   3.916   3.871  0.2893 -1.1532  0.3519
37607SOL     OW15775   4.594   9.939   9.217 -0.4707 -0.8066 -0.1166
37607SOL    HW115776   4.600   9.898   9.304  0.3311 -0.7879 -0.1557
37607SOL    HW215777   4.503   9.927   9.192 -0.9168 -0.0974  1.0772
37608SOL     OW15778   3.977   2.528   2.081  0.2313 -0.3728 -0.2044
37608SOL    HW115779   3.940   2.487   2.159 -1.3613  1.9953  0.3801
37608SOL    HW215780   4.071   2.518   2.091  0.0805 -0.0497  2.0881
37609SOL     OW15781   8.814   5.272   3.401 -0.1206  0.0988 -0.0994
37609SOL    HW115782   8.779   5.274   3.490  1.9094  1.7742  0.7439
37609SOL    HW215783   8.846   5.361   3.386  1.6832 -0.7431 -1.6361
37610SOL     OW15784   7.463   9.387   3.331 -0.8040  0.2880  0.1449
37610SOL    HW115785   7.532   9.321   3.336 -1.7940 -0.6919  2.0545
37610SOL    HW215786   7.496   9.451   3.268  2.6371  0.7956  2.1931
37611SOL     OW15787   7.647   7.391  10.652  0.1151 -0.6727 -0.3073
37611SOL    HW115788   7.680   7.478  10.673  0.9666 -1.0079 -0.2098
37611SOL    HW215789   7.578   7.375  10.716  0.3570 -0.3074  0.0468
37612SOL     OW15790   5.454   8.595   9.403 -0.1035  0.1571 -0.1657
37612SOL    HW115791   5.472   8.583   9.496  0.9394 -1.9655 -0.5832
37612SOL    HW215792   5.518   8.540   9.359 -0.8112  0.8310 -2.1545
37613SOL     OW15793   2.361   9.323  10.569 -0.0182 -0.1402 -0.2214
37613SOL    HW115794   2.275   9.314  10.609  0.7334 -1.2755  1.2227
37613SOL    HW215795   2.391   9.233  10.558  1.6783  0.2514  0.8765
37614SOL     OW15796   1.822   0.230  10.113 -0.1588 -0.1045 -0.8325
37614SOL    HW115797   1.748   0.264  10.162  0.0878  0.1628 -0.6433
37614SOL    HW215798   1.879   0.189  10.179 -0.9135 -1.7679 -1.1553
37615SOL     OW15799   5.254   7.707   7.436 -0.0099  0.0594 -0.1240
37615SOL    HW115800   5.241   7.684   7.528  2.7257  2.1770  0.9352
37615SOL    HW215801   5.176   7.756   7.411 -0.0536  0.9527  1.6350
37616SOL     OW15802   8.680   7.720   4.828  0.5279  0.3100  0.1424
37616SOL    HW115803   8.749   7.787   4.830 -0.7900  1.7175 -0.2180
37616SOL    HW215804   8.622   7.743   4.901 -0.7110  0.4235 -0.8487
37617SOL     OW15805   8.982   5.367   8.922  0.3851  0.1274  0.0167
37617SOL    HW115806   9.068   5.327   8.928 -0.0902 -0.8501  0.4460
37617SOL    HW215807   8.956   5.356   8.831  0.8558  0.7451 -0.1985
37618SOL     OW15808   5.424   5.622   6.489  0.2557 -0.0369  0.1559
37618SOL    HW115809   5.418   5.578   6.404 -1.9535  2.0193 -0.8379
37618SOL    HW215810   5.373   5.567   6.548 -0.2497 -0.2047 -0.4314
37619SOL     OW15811   9.225   9.265   8.857  0.3838  0.0301  0.0682
37619SOL    HW115812   9.134   9.240   8.872  0.0756  0.6644 -0.6216
37619SOL    HW215813   9.276   9.210   8.915 -0.5337  0.5305  1.3855
37620SOL     OW15814   6.843   5.020   9.592 -0.1519 -0.1927 -0.5616
37620SOL    HW115815   6.762   4.971   9.603  0.3211 -1.4375 -2.2184
37620SOL    HW215816   6.851   5.033   9.498  1.8261 -0.5357 -0.4844
37621SOL     OW15817   1.420   9.814   0.959 -0.2002  0.4919  0.4906
37621SOL    HW115818   1.327   9.808   0.981 -0.1580 -0.0181  0.5443
37621SOL    HW215819   1.466   9.791   1.040 -0.0427 -0.7985  0.0741
37622SOL     OW15820   4.800   5.021   2.201 -0.5644  0.5745  0.7396
37622SOL    HW115821   4.821   5.010   2.293 -0.1999  0.2102  0.6172
37622SOL    HW215822   4.762   4.938   2.174  3.2198 -0.9808 -0.4668
37623SOL     OW15823   4.461   7.288   4.646  0.0413  0.1195  0.0890
37623SOL    HW115824   4.537   7.334   4.682  0.6558  0.2432 -1.2920
37623SOL    HW215825   4.490   7.258   4.560 -1.1286 -0.8079 -0.0036
37624SOL     OW15826   4.098   2.619   7.393 -0.7963 -0.2828  0.1461
37624SOL    HW115827   4.159   2.546   7.382 -0.3802  0.1078 -0.2283
37624SOL    HW215828   4.143   2.679   7.453  0.4141  1.2669 -2.1693
37625SOL     OW15829   9.976   9.836   9.621 -0.2663 -0.0093 -0.0057
37625SOL    HW115830   9.916   9.833   9.696  0.2670  1.0584  0.4961
37625SOL    HW215831  10.043   9.900   9.647  2.2668 -2.6052  0.3137
37626SOL     OW15832   5.948   0.187   7.270  0.7612  0.0091  0.2635
37626SOL    HW115833   6.015   0.118   7.272  1.3607  0.4873 -1.2902
37626SOL    HW215834   5.872   0.146   7.229  1.0583  0.2051 -0.4991
37627SOL     OW15835   0.175   5.318   0.444  0.2220 -0.1987  0.0512
37627SOL    HW115836   0.151   5.318   0.537  0.8723  0.0095  0.2262
37627SOL    HW215837   0.237   5.246   0.435  0.2685 -0.1290 -0.1875
37628SOL     OW15838   7.308   9.499   4.394 -0.1491 -0.1090  0.5108
37628SOL    HW115839   7.330   9.586   4.363 -1.4745  0.2398  0.5033
37628SOL    HW215840   7.234   9.471   4.340 -0.4065 -0.8054  1.1943
37629SOL     OW15841   6.244   4.923   0.722  0.1994 -0.8506  0.1038
37629SOL    HW115842   6.168   4.869   0.698  0.2829 -0.5089 -0.9691
37629SOL    HW215843   6.307   4.860   0.759  0.5424 -1.6268 -1.6969
37630SOL     OW15844   6.949   5.851   0.973  0.2311 -0.3285 -0.9113
37630SOL    HW115845   7.043   5.844   0.962  0.4518  0.0644  0.4239
37630SOL    HW215846   6.923   5.920   0.912  1.2995  1.6240  0.7148
37631SOL     OW15847   1.372   1.945   2.740  0.2072  0.0798  0.1095
37631SOL    HW115848   1.446   2.003   2.722  0.5154  0.6385  2.8208
37631SOL    HW215849   1.302   2.003   2.767  0.0356 -0.6825  1.3864
37632SOL     OW15850   3.669   0.045   4.854  0.1481 -0.2255 -0.1631
37632SOL    HW115851   3.732   0.097   4.805  0.0269 -1.0857 -1.2726
37632SOL    HW215852   3.620   0.109   4.906  0.7639  0.6291 -0.6075
37633SOL     OW15853   5.258   9.176   5.794 -0.0701  0.3335  0.1877
37633SOL    HW115854   5.327   9.143   5.851 -0.6693 -2.8352 -0.7191
37633SOL    HW215855   5.176   9.146   5.834 -0.6337  0.1159 -1.0754
37634SOL     OW15856   1.726   6.736   3.100  0.2460  0.1808  0.2160
37634SOL    HW115857   1.798   6.779   3.148 -0.8155  1.6825  0.5611
37634SOL    HW215858   1.735   6.768   3.010 -0.0706  0.5237  0.3004
37635SOL     OW15859   5.018   5.215   3.028  0.1579  0.4998  0.1341
37635SOL    HW115860   4.941   5.202   3.083  1.4042  2.1234  2.4281
37635SOL    HW215861   5.091   5.186   3.082  1.2773 -0.2093 -1.6568
37636SOL     OW15862   5.085   3.253   9.061 -0.3583  0.0837  0.0852
37636SOL    HW115863   5.118   3.340   9.086 -2.0552  0.6476  0.4967
37636SOL    HW215864   5.093   3.251   8.966  0.0283  0.5425  0.1004
37637SOL     OW15865   9.954   6.367   7.919 -0.1404 -0.0043  0.3043
37637SOL    HW115866   9.891   6.435   7.943 -0.8488 -0.9415  1.2066
37637SOL    HW215867   9.919   6.287   7.958  1.0222 -0.7707 -0.1598
37638SOL     OW15868   6.968   8.873   6.352  0.3398  0.7673  0.1765
37638SOL    HW115869   6.913   8.796   6.363 -1.2519  2.0747  2.0718
37638SOL    HW215870   7.051   8.839   6.319 -0.5551 -1.6445  0.2299
37639SOL     OW15871   1.397   5.327   3.999  0.3838  0.1947 -0.0283
37639SOL    HW115872   1.483   5.287   3.990  0.5534  0.7793 -1.1459
37639SOL    HW215873   1.348   5.294   3.923  0.3415  1.6082 -0.6427
37640SOL     OW15874  10.262   6.727   6.574 -0.8845 -0.1231  0.2867
37640SOL    HW115875  10.305   6.791   6.631 -0.7715 -0.9047  1.1002
37640SOL    HW215876  10.327   6.657   6.564 -1.3836 -0.5813  0.2403
37641SOL     OW15877   2.729  10.407   6.275 -0.3229  0.3956 -0.4083
37641SOL    HW115878   2.688  10.484   6.235 -0.0905  1.5958  1.4865
37641SOL    HW215879   2.814  10.439   6.305  0.0339 -0.7745 -0.1392
37642SOL     OW15880   1.116   4.555   7.228  0.6485 -0.2585  0.1693
37642SOL    HW115881   1.191   4.502   7.201  0.6321 -1.1941  1.8678
37642SOL    HW215882   1.053   4.492   7.262  0.7845  0.8186  2.6120
37643SOL     OW15883   0.967   6.500   0.424  0.3987 -0.0407  0.3252
37643SOL    HW115884   1.019   6.571   0.386 -0.9568  1.1338  0.5965
37643SOL    HW215885   1.003   6.490   0.512  0.6013  0.3053  0.2863
37644SOL     OW15886   2.753   9.290   5.162  0.2365  0.4044 -0.3663
37644SOL    HW115887   2.761   9.316   5.254 -0.1941 -0.3453 -0.1119
37644SOL    HW215888   2.745   9.373   5.115 -3.2394  0.8077  0.6466
37645SOL     OW15889   0.832   5.266   0.299 -0.3039  0.0147 -0.0924
37645SOL    HW115890   0.798   5.349   0.266 -0.6295  0.4444  1.2488
37645SOL    HW215891   0.793   5.200   0.242 -2.7189  0.5542  0.8258
37646SOL     OW15892   2.926  10.077   0.973  0.0676 -0.1904 -0.2741
37646SOL    HW115893   2.885  10.163   0.984  0.6782 -0.0161  0.7522
37646SOL    HW215894   2.956  10.053   1.061 -0.8449 -1.8405 -0.3721
37647SOL     OW15895   9.575   3.090   8.523 -0.5808  0.0388  0.0847
37647SOL    HW115896   9.553   3.183   8.528 -1.2011 -0.1576  1.2460
37647SOL    HW215897   9.513   3.047   8.583 -1.3208 -1.3143 -1.5731
37648SOL     OW15898   2.080   7.084   6.789  0.0982  0.1122  0.2735
37648SOL    HW115899   2.032   7.002   6.775 -1.3835  0.7544  1.4093
37648SOL    HW215900   2.167   7.067   6.752 -0.7505 -1.3289 -1.2028
37649SOL     OW15901   9.343   8.853   1.982  0.0494  0.3161  0.3850
37649SOL    HW115902   9.350   8.758   1.971  0.4478  0.3760  0.1384
37649SOL    HW215903   9.259   8.865   2.028 -0.7628 -0.0524 -0.9465
37650SOL     OW15904   0.122   9.739  10.572  0.2343  0.1873 -0.3353
37650SOL    HW115905   0.139   9.831  10.590 -2.2126  0.4100  1.3509
37650SOL    HW215906   0.078   9.739  10.487  1.6384  0.3683 -1.0866
37651SOL     OW15907   3.960  10.159   4.358  0.2783  0.4458 -0.1102
37651SOL    HW115908   3.930  10.237   4.312 -1.5846 -0.4629 -0.5532
37651SOL    HW215909   4.012  10.111   4.292  1.0531  1.0775  0.0301
37652SOL     OW15910   7.994   4.025   8.022 -0.3728  0.0860  0.0198
37652SOL    HW115911   7.959   4.114   8.021 -2.9353 -0.8616 -0.1977
37652SOL    HW215912   7.993   3.999   8.115  0.9194  0.4368  0.1568
37653SOL     OW15913   7.408   6.186   2.420 -0.1846 -0.0857  0.4175
37653SOL    HW115914   7.497   6.167   2.389 -0.8394  0.1055 -1.7621
37653SOL    HW215915   7.406   6.151   2.509  2.1455  0.1344  0.6406
37654SOL     OW15916   4.424   6.237   7.831 -0.4958 -0.1958 -0.2550
37654SOL    HW115917   4.403   6.199   7.746  0.4095 -1.4247  0.0447
37654SOL    HW215918   4.447   6.163   7.886  0.6829  0.7269  0.5505
37655SOL     OW15919   0.993   8.461   8.480  0.0951  0.2488  0.1296
37655SOL    HW115920   0.971   8.369   8.475 -0.9689  0.1436  3.7856
37655SOL    HW215921   0.931   8.505   8.422 -0.6007 -1.1577 -0.2101
37656SOL     OW15922   9.836   0.085   1.533  0.5049 -0.6357  0.2387
37656SOL    HW115923   9.872   0.154   1.589 -2.9343 -0.0533  2.0235
37656SOL    HW215924   9.802   0.131   1.456  1.0250 -0.8139 -0.1067
37657SOL     OW15925   8.460   9.935   8.377  0.0863 -0.4535  0.3226
37657SOL    HW115926   8.522   9.897   8.439  0.5510  1.0298  0.8166
37657SOL    HW215927   8.374   9.911   8.411  0.3403  0.1604  1.4535
37658SOL     OW15928   1.247   9.276   1.657  0.1898  0.1716  0.4883
37658SOL    HW115929   1.186   9.217   1.701  1.2281 -2.2298 -1.0792
37658SOL    HW215930   1.319   9.287   1.719 -0.0743 -0.1254  0.8508
37659SOL     OW15931   6.297   5.658   3.307 -0.1967 -0.2588  0.2553
37659SOL    HW115932   6.245   5.594   3.258 -0.5449  0.6830 -0.6427
37659SOL    HW215933   6.379   5.665   3.257 -0.1657  0.0012  0.3404
37660SOL     OW15934   2.643   6.021   7.317  0.0727  0.0730 -0.2320
37660SOL    HW115935   2.598   5.942   7.347 -2.7453  0.9831 -1.7066
37660SOL    HW215936   2.609   6.091   7.373  0.7350  0.5921 -0.4721
37661SOL     OW15937   6.081   1.764  10.164 -0.9243 -0.0475  0.0104
37661SOL    HW115938   6.075   1.785  10.071  1.2064  0.5195 -0.0656
37661SOL    HW215939   6.155   1.703  10.170 -1.4163 -0.5425  1.2674
37662SOL     OW15940   2.235   5.931   2.155 -0.4778  0.0745  0.1915
37662SOL    HW115941   2.168   5.865   2.137 -1.7637  1.6066 -0.7985
37662SOL    HW215942   2.195   6.014   2.131 -0.3417  1.7898  4.7575
37663SOL     OW15943   8.228   9.273   9.773 -0.3506 -0.2925  0.4375
37663SOL    HW115944   8.270   9.293   9.856  1.7051 -1.6037 -0.2064
37663SOL    HW215945   8.249   9.348   9.717  0.7178 -0.6701  0.2992
37664SOL     OW15946   5.499   5.697   2.749 -0.0212 -0.1430  0.2705
37664SOL    HW115947   5.583   5.673   2.709  0.4675  0.2132  1.0673
37664SOL    HW215948   5.443   5.717   2.674  0.1301 -1.8377 -0.3463
37665SOL     OW15949   7.316   2.340   7.544 -0.3615  0.4940 -0.0386
37665SOL    HW115950   7.295   2.249   7.567 -1.3332  0.7088 -0.0172
37665SOL    HW215951   7.308   2.343   7.449 -4.0945  1.3689  0.1394
37666SOL     OW15952   3.168   6.587   2.339 -0.1813 -0.2346  0.3678
37666SOL    HW115953   3.239   6.550   2.392 -0.0285  0.5593  0.7262
37666SOL    HW215954   3.101   6.612   2.403 -0.1746  0.3423  0.1552
37667SOL     OW15955   3.012   1.940   1.031  0.1194  0.2664  0.0485
37667SOL    HW115956   3.102   1.973   1.027 -0.2654  1.1963 -1.7290
37667SOL    HW215957   3.022   1.846   1.045  1.3969  0.1993 -1.1361
37668SOL     OW15958   0.897   7.234  10.253 -0.3197  0.1536  0.2866
37668SOL    HW115959   0.861   7.251  10.166 -0.1464 -1.4626 -0.1291
37668SOL    HW215960   0.824   7.252  10.313 -0.2925  1.7549 -0.1143
37669SOL     OW15961   0.198   6.467   3.003 -0.7186 -0.6411  0.2817
37669SOL    HW115962   0.242   6.543   2.965  0.4498 -2.0738 -1.3664
37669SOL    HW215963   0.110   6.467   2.964 -0.8120 -0.0346  0.4784
37670SOL     OW15964  10.573   3.569   7.798 -0.7131  0.2215 -0.2213
37670SOL    HW115965  10.492   3.527   7.827 -0.1002 -0.5753  0.3874
37670SOL    HW215966  10.589   3.532   7.711 -0.8688  0.1805 -0.2330
37671SOL     OW15967   7.242   7.792   0.782 -0.2956  0.4517 -0.4735
37671SOL    HW115968   7.257   7.783   0.688  1.2331 -1.3663 -0.1202
37671SOL    HW215969   7.240   7.703   0.815 -2.5242  0.9647  1.0388
37672SOL     OW15970   9.797   9.364   6.386 -0.0000 -0.5942  0.1047
37672SOL    HW115971   9.840   9.279   6.396  1.1453 -0.1633 -0.9286
37672SOL    HW215972   9.793   9.379   6.292 -1.2630 -0.0122  0.2206
37673SOL     OW15973   4.378  10.344   1.335  0.1025  0.2452 -0.0094
37673SOL    HW115974   4.360  10.401   1.260 -2.3831  0.7706  0.8988
37673SOL    HW215975   4.316  10.271   1.324  1.2690 -0.8288  0.3766
37674SOL     OW15976   5.424   7.558   3.509  0.0515  0.2850 -0.0416
37674SOL    HW115977   5.505   7.603   3.531  1.2998 -1.2264 -1.2955
37674SOL    HW215978   5.438   7.468   3.541 -0.8114 -0.1875 -0.9428
37675SOL     OW15979   1.946   0.111   0.728  0.3444  0.0800 -0.3495
37675SOL    HW115980   1.939   0.136   0.820  0.0028 -0.1334 -0.3169
37675SOL    HW215981   2.032   0.068   0.721  1.1443  1.6519 -0.5056
37676SOL     OW15982   9.238   2.205   5.724  0.4275  0.0828 -0.2558
37676SOL    HW115983   9.324   2.203   5.766 -0.8662  0.0068  2.5860
37676SOL    HW215984   9.207   2.295   5.738  0.0385  0.1398 -1.3487
37677SOL     OW15985   9.644   6.986   8.336 -0.1722  0.2990 -0.9061
37677SOL    HW115986   9.724   6.961   8.291 -0.6262 -0.3204 -1.3859
37677SOL    HW215987   9.665   7.069   8.378  1.1813 -0.5791  0.2254
37678SOL     OW15988   2.625   4.694   3.583 -0.1062 -0.9374  0.0596
37678SOL    HW115989   2.612   4.784   3.555  0.2618 -1.6512 -2.6603
37678SOL    HW215990   2.717   4.690   3.608 -0.4364 -0.2944  1.4969
37679SOL     OW15991   6.728   3.521   4.726  0.3821 -0.1511  0.3867
37679SOL    HW115992   6.782   3.571   4.665  0.8320 -0.0305  0.8764
37679SOL    HW215993   6.783   3.447   4.752 -0.0201 -0.5238  0.2052
37680SOL     OW15994   7.931   5.682   2.747 -0.7276  0.2851 -0.0907
37680SOL    HW115995   7.931   5.706   2.839 -2.7974 -0.6164  0.2033
37680SOL    HW215996   8.006   5.624   2.737 -0.0712  0.9516  0.8438
37681SOL     OW15997   9.653   4.475   2.054  0.1099 -0.0543  0.0327
37681SOL    HW115998   9.615   4.533   2.120 -0.2329 -1.7490  1.4076
37681SOL    HW215999   9.746   4.470   2.078  0.4166  0.8997 -0.8725
37682SOL     OW16000   0.763   7.220   4.817  0.1087  0.1068 -0.0200
37682SOL    HW116001   0.812   7.278   4.875  0.4524  0.4381 -0.6267
37682SOL    HW216002   0.730   7.150   4.874 -0.1386  0.7862  0.6843
37683SOL     OW16003   1.223  10.020   8.202  0.2310 -0.2341 -0.5180
37683SOL    HW116004   1.301  10.074   8.206  0.2403 -0.1649 -1.4534
37683SOL    HW216005   1.227   9.977   8.117 -0.3954 -0.7740 -0.2901
37684SOL     OW16006   4.613   2.576   6.615  0.2634  0.3941  0.7380
37684SOL    HW116007   4.682   2.596   6.552 -0.3182 -1.0661 -0.4427
37684SOL    HW216008   4.537   2.626   6.584  0.5646  1.4055  1.5941
37685SOL     OW16009   1.866   2.233   6.089  0.1832 -0.6484 -0.0067
37685SOL    HW116010   1.804   2.168   6.057  1.1268 -1.5746 -0.0256
37685SOL    HW216011   1.875   2.295   6.017 -0.6560 -0.5466 -0.0270
37686SOL     OW16012   2.995   8.777   3.927 -0.5139  0.0503  0.0208
37686SOL    HW116013   3.063   8.719   3.963 -0.3965  0.5057  0.5504
37686SOL    HW216014   2.985   8.845   3.993 -0.7200  0.5833 -0.5530
37687SOL     OW16015   5.454   5.263   9.956  0.4273 -0.3078 -0.9026
37687SOL    HW116016   5.486   5.248   9.867  0.4352  0.6818 -1.0808
37687SOL    HW216017   5.530   5.247  10.012  0.4313 -0.9020 -1.0666
37688SOL     OW16018   2.119   0.597   7.175 -0.7359 -0.2878  0.0523
37688SOL    HW116019   2.174   0.538   7.124 -0.9105 -0.9656  0.6377
37688SOL    HW216020   2.170   0.614   7.255 -1.4179 -1.0452  0.6725
37689SOL     OW16021   9.044   5.033   1.437  0.3273 -0.1460  0.0779
37689SOL    HW116022   9.014   4.945   1.419  1.4439 -0.3750 -0.7206
37689SOL    HW216023   9.124   5.022   1.488 -1.0254  0.4558  2.4878
37690SOL     OW16024   3.307  10.028   9.947  0.0729  0.1872  0.4164
37690SOL    HW116025   3.321  10.012   9.854 -1.5047 -0.0883  0.1967
37690SOL    HW216026   3.315  10.123   9.957 -0.4132  0.2852 -0.1233
37691SOL     OW16027   3.772   3.373   9.387  0.1061  0.0238 -0.8755
37691SOL    HW116028   3.751   3.327   9.306  0.2248  0.6978 -1.3040
37691SOL    HW216029   3.840   3.436   9.362  0.1715  0.2159 -0.2436
37692SOL     OW16030   6.318   0.932   2.038 -0.2436 -0.2343  0.1998
37692SOL    HW116031   6.291   0.925   1.946  1.3594  0.3480 -0.3444
37692SOL    HW216032   6.327   0.842   2.068 -0.7533 -0.4286 -0.2133
37693SOL     OW16033   2.486   7.885   8.225  0.1457  0.1332 -1.0508
37693SOL    HW116034   2.425   7.926   8.286  0.5296 -0.0451 -0.5362
37693SOL    HW216035   2.547   7.837   8.281  1.0854  0.7582 -1.5181
37694SOL     OW16036   4.066   3.629   3.956 -0.3690 -0.1283 -0.0478
37694SOL    HW116037   3.991   3.639   3.897  0.3708 -0.1116 -1.0170
37694SOL    HW216038   4.136   3.597   3.899  0.4437  0.1514  0.7826
37695SOL     OW16039   1.764   1.295   0.806  0.2030 -0.0197 -0.2749
37695SOL    HW116040   1.719   1.217   0.774 -0.3126 -0.1865  0.8076
37695SOL    HW216041   1.747   1.296   0.900  2.3287  0.0027  0.1684
37696SOL     OW16042   5.090   0.474   9.711 -0.2534 -0.4954  0.5058
37696SOL    HW116043   5.166   0.443   9.761  0.1008 -1.2690 -0.4783
37696SOL    HW216044   5.036   0.520   9.775  1.8643  1.6125  0.9541
37697SOL     OW16045   3.313   9.307   8.079  0.0736  0.1750  0.1139
37697SOL    HW116046   3.335   9.215   8.067  0.4071  0.1466  0.8754
37697SOL    HW216047   3.389   9.344   8.124 -0.7040  0.4670  1.2234
37698SOL     OW16048   4.723   2.197   8.459 -0.3704 -0.0650  0.0375
37698SOL    HW116049   4.769   2.160   8.384  0.0519 -1.0894  0.7856
37698SOL    HW216050   4.778   2.271   8.486 -0.2439 -0.0220 -0.3365
37699SOL     OW16051   7.294   7.621   8.741 -0.1616  0.1122  0.0845
37699SOL    HW116052   7.360   7.663   8.797  0.2061 -0.6935  0.2766
37699SOL    HW216053   7.322   7.641   8.652 -1.0104  1.8039  0.1595
37700SOL     OW16054   4.585   2.334   4.084 -0.0558  0.0389  0.0652
37700SOL    HW116055   4.623   2.418   4.112  2.6451 -0.8566 -0.5447
37700SOL    HW216056   4.596   2.277   4.160 -0.1508 -0.2507 -0.1395
37701SOL     OW16057   1.779   4.062   6.203  0.6322 -0.2129 -0.4073
37701SOL    HW116058   1.732   3.992   6.250 -0.4167 -0.4414 -1.7272
37701SOL    HW216059   1.866   4.062   6.242 -0.4205  0.2154  2.1638
37702SOL     OW16060   8.896   6.563   2.105 -0.4162 -0.0923 -0.0688
37702SOL    HW116061   8.804   6.573   2.129 -0.6380 -0.9056 -0.5523
37702SOL    HW216062   8.897   6.571   2.010  0.2626  1.6524  0.0472
37703SOL     OW16063   9.168   3.228   3.328  0.1561  0.1873 -0.2947
37703SOL    HW116064   9.220   3.306   3.308  2.6807 -1.2455  0.2760
37703SOL    HW216065   9.225   3.175   3.384 -2.0323 -1.4331  0.5277
37704SOL     OW16066   5.134   8.630   4.085  0.2696  0.1605 -0.3844
37704SOL    HW116067   5.161   8.619   3.994  0.9816  1.3905 -0.3458
37704SOL    HW216068   5.215   8.626   4.135 -0.1596 -0.9314  0.2533
37705SOL     OW16069   8.337   9.313   5.250 -0.2474 -0.1374  0.4036
37705SOL    HW116070   8.421   9.354   5.227 -0.5057  0.8519  1.1527
37705SOL    HW216071   8.360   9.240   5.306  0.1357 -0.0788  0.3246
37706SOL     OW16072   2.536   5.528   0.066 -0.5689  0.2637  0.2802
37706SOL    HW116073   2.534   5.548  -0.027  1.4888  0.4111  0.2135
37706SOL    HW216074   2.525   5.434   0.072 -0.1365  0.1843 -0.1675
37707SOL     OW16075   9.082   2.796   8.320  0.4478 -0.4075 -0.0194
37707SOL    HW116076   9.030   2.741   8.379 -0.2111  0.6263  0.3833
37707SOL    HW216077   9.153   2.829   8.374  0.1847  0.0607  0.0451
37708SOL     OW16078   6.426   5.131   6.449 -0.0719 -0.3629 -0.0953
37708SOL    HW116079   6.370   5.151   6.374 -1.8232  0.0312  1.2753
37708SOL    HW216080   6.383   5.173   6.523  0.7515 -2.0946  1.4251
37709SOL     OW16081  10.269   1.748   3.391 -0.4387 -0.2497  0.4778
37709SOL    HW116082  10.189   1.739   3.339 -0.0491 -0.8905 -0.0032
37709SOL    HW216083  10.340   1.733   3.330  0.1113  1.4364  0.6496
37710SOL     OW16084   1.965   4.192   6.978 -0.0183  0.4787 -0.5561
37710SOL    HW116085   1.894   4.246   6.944 -1.3515 -0.3401  0.8307
37710SOL    HW216086   1.956   4.196   7.073  1.9138  0.4949 -0.3291
37711SOL     OW16087   4.561   2.394   0.537 -0.4073 -0.5137 -0.1609
37711SOL    HW116088   4.603   2.445   0.606 -0.7030  0.4836 -0.6967
37711SOL    HW216089   4.633   2.363   0.482 -0.2951  0.4938 -0.6071
37712SOL     OW16090   2.343   3.849   4.289  0.5721 -0.3259 -0.6063
37712SOL    HW116091   2.358   3.943   4.301 -1.3233  0.0332 -0.7316
37712SOL    HW216092   2.372   3.809   4.371 -1.3306  0.7337  0.6476
37713SOL     OW16093   0.967   1.491   6.194  0.0688 -0.2700  0.2238
37713SOL    HW116094   1.053   1.521   6.166  0.2565 -1.9409 -1.1805
37713SOL    HW216095   0.949   1.415   6.138 -1.7357 -0.7606  1.3856
37714SOL     OW16096   4.659   8.899   7.106  0.0355 -0.2260  0.1998
37714SOL    HW116097   4.703   8.818   7.134  2.2117  0.7992  0.0057
37714SOL    HW216098   4.663   8.896   7.010 -0.9097 -0.3983  0.1587
37715SOL     OW16099   8.906   2.452   5.099  0.1874  0.2739  0.1458
37715SOL    HW116100   8.997   2.447   5.126  1.1726 -0.6213 -2.9179
37715SOL    HW216101   8.880   2.362   5.082 -1.2801  0.5203  0.8971
37716SOL     OW16102   0.570   4.112   9.310  0.3849  0.6242  0.1881
37716SOL    HW116103   0.490   4.064   9.288  0.1104  1.2376 -0.1674
37716SOL    HW216104   0.641   4.057   9.275  0.0109  1.0755 -1.3552
37717SOL     OW16105   3.184   0.038   4.423  0.0703  0.4815 -0.1618
37717SOL    HW116106   3.134   0.000   4.351 -0.0437  1.1743 -0.4606
37717SOL    HW216107   3.236  -0.034   4.457 -0.2150  0.0398 -0.6463
37718SOL     OW16108   9.107   8.322   9.454 -0.0482 -0.4903 -0.2145
37718SOL    HW116109   9.148   8.309   9.369  0.3010  1.7202 -0.4314
37718SOL    HW216110   9.157   8.392   9.496 -0.5595 -1.1372  1.5924
37719SOL     OW16111   5.500   5.148   5.368 -0.0191 -0.1968  0.3842
37719SOL    HW116112   5.406   5.157   5.350  0.0586 -0.6690 -0.2910
37719SOL    HW216113   5.513   5.055   5.381 -0.2791  0.1510  4.2997
37720SOL     OW16114   4.057   5.454   0.482  0.2316 -0.1092 -0.3552
37720SOL    HW116115   4.029   5.538   0.444  0.2693  0.1580  0.1875
37720SOL    HW216116   4.116   5.479   0.553 -0.1376 -0.5720  0.1246
37721SOL     OW16117   3.757   7.075   6.508 -0.2029  0.4790  0.3133
37721SOL    HW116118   3.727   7.074   6.417  0.4187  0.1153  0.1042
37721SOL    HW216119   3.840   7.028   6.506  1.0724  2.6379  0.6466
37722SOL     OW16120   6.928   0.189  10.117  0.5210 -0.8106  0.0145
37722SOL    HW116121   6.876   0.223  10.044  0.7291  0.0100  0.2361
37722SOL    HW216122   7.007   0.155  10.076  0.5912 -0.4470 -0.1593
37723SOL     OW16123   9.712   7.276   8.405 -0.2044 -0.5755  0.4685
37723SOL    HW116124   9.712   7.363   8.445  0.5236 -0.3623  0.0264
37723SOL    HW216125   9.621   7.248   8.409 -0.5623  0.4766  0.0467
37724SOL     OW16126   2.114   8.319   4.183 -0.5046 -0.5896 -0.0336
37724SOL    HW116127   2.098   8.252   4.250  0.0415 -0.8823 -0.1895
37724SOL    HW216128   2.190   8.367   4.216 -0.7043 -0.2399 -0.0750
37725SOL     OW16129   2.195   6.189   3.314 -0.7449 -0.1778  0.0372
37725SOL    HW116130   2.212   6.233   3.231 -0.9784  1.4821  0.8303
37725SOL    HW216131   2.131   6.244   3.358  0.0071 -0.5519  1.6821
37726SOL     OW16132   6.756   0.564   4.821 -0.5826 -0.1619  0.9772
37726SOL    HW116133   6.729   0.651   4.791  1.2729  0.0537 -0.1875
37726SOL    HW216134   6.794   0.580   4.908 -2.5687 -0.2342  1.9063
37727SOL     OW16135   0.939   6.935   9.823  0.0352  0.3602 -0.4496
37727SOL    HW116136   0.862   6.902   9.869 -0.2649  1.6804  0.0322
37727SOL    HW216137   0.951   7.024   9.856  1.9340  0.1062 -0.3136
37728SOL     OW16138  10.194   8.733   4.724  0.1548  0.0300  0.0614
37728SOL    HW116139  10.224   8.657   4.775 -0.4925 -1.3810 -1.5728
37728SOL    HW216140  10.110   8.706   4.688  0.2197  1.2967 -1.0892
37729SOL     OW16141   5.915   7.792   9.676 -0.3715  0.1569  0.3918
37729SOL    HW116142   5.916   7.748   9.761 -0.1554  0.7310  0.6897
37729SOL    HW216143   5.836   7.847   9.678 -0.4033  0.1211  0.1925
37730SOL     OW16144   2.677   0.842   4.510  0.1579  0.1714  0.2659
37730SOL    HW116145   2.753   0.896   4.534  1.1148 -1.8294  2.0679
37730SOL    HW216146   2.712   0.777   4.449 -0.9016  1.2452 -1.5700
37731SOL     OW16147   0.124   2.116   6.973  0.2552  0.6816  0.2235
37731SOL    HW116148   0.114   2.155   7.059 -1.3757  1.6545 -0.3622
37731SOL    HW216149   0.148   2.189   6.916 -0.2854  0.3603 -0.4306
37732SOL     OW16150   7.463   5.485   1.857 -0.4948  0.2040 -0.9320
37732SOL    HW116151   7.382   5.439   1.834 -0.7973  1.4081 -2.4133
37732SOL    HW216152   7.456   5.499   1.951 -1.8097 -0.1010 -0.9616
37733SOL     OW16153   8.349   2.571   5.475  0.1455 -0.2955  0.3714
37733SOL    HW116154   8.353   2.587   5.380  0.8772  0.5821  0.5406
37733SOL    HW216155   8.290   2.639   5.508 -0.9269 -1.2293  0.4289
37734SOL     OW16156   7.619   5.294  10.633 -0.3454  0.0542  0.2984
37734SOL    HW116157   7.676   5.220  10.613  0.8374  0.4581  1.9112
37734SOL    HW216158   7.566   5.264  10.707 -1.8521 -0.1048 -0.8022
37735SOL     OW16159   0.010   7.145   9.525  0.0042  0.7452 -0.0094
37735SOL    HW116160   0.046   7.184   9.604 -2.1350  2.2736  0.3031
37735SOL    HW216161  -0.083   7.133   9.544 -0.3513  0.0808 -1.8950
37736SOL     OW16162   1.582   9.884   9.574  0.3597  0.2898  0.2947
37736SOL    HW116163   1.621   9.962   9.535  2.0012 -0.7861 -0.3615
37736SOL    HW216164   1.581   9.820   9.502 -1.2830 -0.2015  0.7153
37737SOL     OW16165   4.764   8.648   6.930  0.5829  0.1398  0.4000
37737SOL    HW116166   4.702   8.576   6.941  0.3647  0.1883 -0.4328
37737SOL    HW216167   4.850   8.605   6.924  0.4227 -0.0908 -0.4170
37738SOL     OW16168   5.050   8.621   6.961 -0.4682  0.0587  0.0427
37738SOL    HW116169   5.044   8.571   7.043 -3.1568  1.0504  0.5540
37738SOL    HW216170   5.081   8.707   6.988 -1.2253  0.3450  0.0138
37739SOL     OW16171   1.931   2.921   8.174 -0.0795 -0.4184 -0.1880
37739SOL    HW116172   1.975   2.874   8.104  1.3152 -0.6173  0.7761
37739SOL    HW216173   1.995   2.985   8.205 -1.2751  0.8442 -0.2057
37740SOL     OW16174   3.255   7.142   2.149  0.4328  0.0642 -0.6010
37740SOL    HW116175   3.253   7.168   2.241 -0.5477 -0.8571 -0.3420
37740SOL    HW216176   3.176   7.179   2.111  0.3401 -0.3672 -0.8396
37741SOL     OW16177   2.778   4.379   1.399 -0.0757 -0.5690 -0.1697
37741SOL    HW116178   2.864   4.337   1.406 -0.0238 -0.4159  0.1239
37741SOL    HW216179   2.778   4.446   1.468 -2.0153 -3.3487  2.8747
37742SOL     OW16180   3.585   4.640   1.466  0.0727 -0.7182  0.8569
37742SOL    HW116181   3.549   4.558   1.431 -1.3429  0.4728 -0.6272
37742SOL    HW216182   3.594   4.697   1.390  2.7155 -0.0228  1.5659
37743SOL     OW16183  10.365   9.808   6.270 -0.2353 -0.3983 -0.4480
37743SOL    HW116184  10.406   9.788   6.354 -1.3571  2.2034  0.8160
37743SOL    HW216185  10.321   9.727   6.245 -0.1210 -1.1480  1.6224
37744SOL     OW16186   7.337   6.395   5.803 -0.0199 -0.1817  0.6238
37744SOL    HW116187   7.399   6.346   5.749 -0.0929  0.1888  0.2056
37744SOL    HW216188   7.288   6.327   5.851 -0.2473 -0.5309 -0.0918
37745SOL     OW16189   4.923   8.463  10.144 -0.4839 -0.1322 -0.1532
37745SOL    HW116190   4.960   8.377  10.124  0.5237 -0.1684  1.6604
37745SOL    HW216191   4.998   8.522  10.147 -0.6919  0.1005  2.0658
37746SOL     OW16192   0.833   2.281   4.741 -0.4462 -0.5175 -0.3036
37746SOL    HW116193   0.837   2.323   4.826 -1.0876  0.1666 -0.6082
37746SOL    HW216194   0.812   2.190   4.760 -0.3252 -0.4262  0.2764
37747SOL     OW16195   7.383   4.684   4.055  0.3314  0.2495  0.1047
37747SOL    HW116196   7.295   4.719   4.039  0.9411  1.3378 -1.1584
37747SOL    HW216197   7.385   4.664   4.148 -1.2147  0.2990  0.1724
37748SOL     OW16198   0.765   2.854   5.322  0.1063  0.0631  0.2214
37748SOL    HW116199   0.675   2.827   5.301  0.1324 -0.3970  0.6725
37748SOL    HW216200   0.767   2.857   5.418 -0.0578  2.2605  0.2088
37749SOL     OW16201   6.849   7.843  10.449 -0.0232  0.1939  0.2592
37749SOL    HW116202   6.755   7.847  10.463 -0.2356 -0.7946 -0.7228
37749SOL    HW216203   6.859   7.815  10.358  1.2033 -0.9078  0.6886
37750SOL     OW16204   8.342   8.769   3.625  0.8121 -0.5770 -0.3814
37750SOL    HW116205   8.362   8.676   3.608  0.4807 -0.4761 -1.3741
37750SOL    HW216206   8.252   8.780   3.596  0.1162 -0.4113  1.6594
37751SOL     OW16207   5.861   0.196   5.843 -0.3020  0.1653 -0.4035
37751SOL    HW116208   5.883   0.104   5.830  0.2210 -0.1322  2.0994
37751SOL    HW216209   5.941   0.243   5.817 -0.3910 -0.0993 -1.1944
37752SOL     OW16210   5.264   9.531   5.449 -0.3220 -0.3155  0.2906
37752SOL    HW116211   5.323   9.587   5.499 -0.3413 -1.0618  1.1783
37752SOL    HW216212   5.272   9.445   5.491 -1.7755 -0.5104  0.2191
37753SOL     OW16213   9.674   2.086   7.433  0.3222  0.0401  0.4271
37753SOL    HW116214   9.753   2.032   7.427 -0.0871 -0.6039  0.6469
37753SOL    HW216215   9.615   2.050   7.367 -1.0752 -1.7599  2.4844
37754SOL     OW16216   3.432   9.007   9.147  0.1285 -0.2248 -0.1419
37754SOL    HW116217   3.522   9.029   9.174  1.2536 -1.6901 -2.3884
37754SOL    HW216218   3.378   9.075   9.187  2.6883  3.0991 -1.8464
37755SOL     OW16219   6.066   7.618   4.637  0.2121  0.1907 -0.1068
37755SOL    HW116220   6.014   7.650   4.563  0.1411  3.1212  1.0543
37755SOL    HW216221   6.006   7.624   4.712  0.9778 -0.4292  0.5765
37756SOL     OW16222   5.342   6.126   2.517 -0.2969 -0.1170  0.0140
37756SOL    HW116223   5.371   6.035   2.527 -1.6523 -0.5937 -0.1136
37756SOL    HW216224   5.254   6.127   2.553 -0.7542  0.8754 -1.0480
37757SOL     OW16225   1.355   5.887   1.968  0.7944 -0.6429 -0.1273
37757SOL    HW116226   1.449   5.869   1.960  0.7952 -0.3988 -0.7734
37757SOL    HW216227   1.339   5.956   1.904  0.0922 -0.9949 -0.3421
37758SOL     OW16228   2.861   8.580   6.079 -0.0767 -0.3737 -0.1076
37758SOL    HW116229   2.931   8.598   6.017 -1.5258  1.1143 -1.4070
37758SOL    HW216230   2.906   8.551   6.158  1.9845  0.3293 -0.9525
37759SOL     OW16231   5.248   0.893   7.183  0.0609 -0.2322  0.1424
37759SOL    HW116232   5.269   0.800   7.189 -0.5319 -0.3653  0.2321
37759SOL    HW216233   5.292   0.923   7.103 -0.6026 -0.8331 -0.4588
37760SOL     OW16234   4.390   8.492   2.562  0.0881  0.0867  0.4417
37760SOL    HW116235   4.428   8.417   2.609  0.8853 -0.1853 -0.5903
37760SOL    HW216236   4.353   8.548   2.630 -1.9277 -1.9715  1.1745
37761SOL     OW16237   2.138  10.431   5.482  0.0111  0.4997 -0.3044
37761SOL    HW116238   2.196  10.417   5.407  0.3242  3.3207 -0.6973
37761SOL    HW216239   2.186  10.491   5.539 -1.6376  1.2384  0.3962
37762SOL     OW16240   8.939  10.264   5.681 -0.0016  0.3930  0.0945
37762SOL    HW116241   8.950  10.304   5.595 -0.7982  1.0033  0.2618
37762SOL    HW216242   9.028  10.258   5.716  0.2323  1.1495 -0.3275
37763SOL     OW16243   5.748   3.185   0.258 -0.9811 -0.2347 -0.0974
37763SOL    HW116244   5.664   3.213   0.220 -0.0394  0.1037 -2.0830
37763SOL    HW216245   5.804   3.263   0.250 -0.8627  0.0612  2.6565
37764SOL     OW16246   7.835   7.636   7.705  0.4622 -0.1363  0.3437
37764SOL    HW116247   7.856   7.642   7.799 -0.0905  1.3177  0.4046
37764SOL    HW216248   7.763   7.698   7.693  0.1146 -0.7662 -0.9394
37765SOL     OW16249   9.839   1.219   1.748  0.0820  0.4166 -0.0800
37765SOL    HW116250   9.883   1.177   1.673 -0.3028  0.8906 -0.5782
37765SOL    HW216251   9.833   1.149   1.814  1.9074  0.4226  0.1595
37766SOL     OW16252   5.907   1.205   6.444  0.5013 -0.2689  0.1209
37766SOL    HW116253   5.888   1.292   6.408 -0.8236 -0.6139 -0.0815
37766SOL    HW216254   6.000   1.192   6.428  1.2830  2.0704  2.2666
37767SOL     OW16255   9.175   4.409   8.967 -0.0318 -0.1192 -0.2004
37767SOL    HW116256   9.268   4.428   8.954 -0.2155  0.2451 -1.0045
37767SOL    HW216257   9.172   4.315   8.982  0.6391  0.0896  1.5143
37768SOL     OW16258   6.695   9.421   2.027  0.3370  0.4104  0.2259
37768SOL    HW116259   6.726   9.509   2.047  0.6848  0.0819  1.2086
37768SOL    HW216260   6.628   9.403   2.093  0.5730 -0.2207  0.2992
37769SOL     OW16261   1.716   1.901   7.411  0.1708  0.2322  0.2737
37769SOL    HW116262   1.781   1.964   7.440  0.9005 -1.0038  1.4816
37769SOL    HW216263   1.706   1.917   7.317  1.5319  1.0604  0.2459
37770SOL     OW16264   3.734   6.058   4.370  0.4429 -0.3617  0.1248
37770SOL    HW116265   3.779   6.104   4.299 -0.7323 -0.2511 -0.5855
37770SOL    HW216266   3.711   6.127   4.432  0.5102 -0.2928  0.0739
37771SOL     OW16267   1.131   3.576  10.507  0.1311  0.1140 -0.0593
37771SOL    HW116268   1.082   3.557  10.587  0.2594  0.1325  0.0260
37771SOL    HW216269   1.218   3.601  10.539  0.4403 -0.7097 -0.2415
37772SOL     OW16270   0.410   9.463   0.924 -0.7810 -0.4678  0.4160
37772SOL    HW116271   0.360   9.382   0.936 -2.1101  0.3041  0.3498
37772SOL    HW216272   0.437   9.460   0.832 -1.8913 -0.2691  0.0732
37773SOL     OW16273   7.575  10.568   9.046  0.7019 -0.0091 -0.4970
37773SOL    HW116274   7.565  10.502   9.114 -0.1009  0.3510 -0.2587
37773SOL    HW216275   7.606  10.519   8.969  3.0409 -0.2159  0.4824
37774SOL     OW16276   0.866   1.558   3.208  0.0621  0.0431  0.2578
37774SOL    HW116277   0.961   1.551   3.197  0.0912  0.2558  0.3668
37774SOL    HW216278   0.854   1.560   3.303 -0.1291 -1.0549  0.2666
37775SOL     OW16279   2.548  10.173   3.061 -0.5363 -0.2063 -0.0989
37775SOL    HW116280   2.599  10.237   3.011  1.5583 -2.1863 -0.6617
37775SOL    HW216281   2.468  10.162   3.010 -0.6586  1.4365 -0.3270
37776SOL     OW16282   4.481   5.768   9.452  0.4445 -0.1001  0.5126
37776SOL    HW116283   4.416   5.774   9.382 -0.0537  1.2595  1.0652
37776SOL    HW216284   4.493   5.674   9.465 -2.2807 -0.4352  1.1763
37777SOL     OW16285   6.753   4.649  10.246  0.0070 -0.2855 -0.3553
37777SOL    HW116286   6.762   4.744  10.245  2.3700 -0.4245  0.8411
37777SOL    HW216287   6.688   4.632  10.315  0.4964  0.4455  0.3091
37778SOL     OW16288   5.112   0.690   2.180 -0.9001  0.0979 -0.1621
37778SOL    HW116289   5.193   0.687   2.230  0.2490  1.5870 -1.8208
37778SOL    HW216290   5.050   0.735   2.237  0.2833  1.4714  0.0862
37779SOL     OW16291   4.831   2.680   0.166 -0.2801  0.0376 -0.0017
37779SOL    HW116292   4.755   2.706   0.115  0.1090  0.8814 -0.1607
37779SOL    HW216293   4.888   2.636   0.104 -0.0896  0.5058 -0.1650
37780SOL     OW16294   0.404   3.165   7.436 -0.1288 -0.2301 -0.7506
37780SOL    HW116295   0.409   3.176   7.341  1.0327 -0.0013 -0.6771
37780SOL    HW216296   0.311   3.169   7.455 -0.4092 -0.6306 -1.9186
37781SOL     OW16297   2.867   7.292   0.372  0.5233  0.1219 -0.7697
37781SOL    HW116298   2.853   7.375   0.327 -0.1298  0.7144  0.4869
37781SOL    HW216299   2.789   7.280   0.425  0.5666 -1.3567 -0.9955
37782SOL     OW16300   0.592  10.149   7.809  0.3849 -0.7772  0.2811
37782SOL    HW116301   0.620  10.158   7.900  0.4147 -0.0991  0.2077
37782SOL    HW216302   0.527  10.079   7.811  2.3758 -2.7194  0.3856
37783SOL     OW16303   4.380   5.249   5.235 -0.5126 -0.9257 -0.2811
37783SOL    HW116304   4.436   5.235   5.159  1.4654  0.1480  0.9135
37783SOL    HW216305   4.359   5.160   5.265  1.7382 -1.4023  0.0430
37784SOL     OW16306   5.954   7.941   5.400 -0.8264 -0.0565 -0.0754
37784SOL    HW116307   6.008   7.862   5.399  0.2263  0.6180 -2.2839
37784SOL    HW216308   5.918   7.945   5.489 -0.1619 -2.4916  0.3568
37785SOL     OW16309   0.256   4.299   3.320  0.7177  0.1443 -0.3991
37785SOL    HW116310   0.335   4.352   3.329  0.5962  0.1564  0.8229
37785SOL    HW216311   0.224   4.288   3.410 -0.3688 -0.3176 -0.8182
37786SOL     OW16312   4.930   3.434   8.394  0.3343  0.0075  0.6943
37786SOL    HW116313   4.868   3.506   8.402  0.2433  0.1197 -0.7702
37786SOL    HW216314   5.013   3.471   8.424  0.6683  1.3091 -1.5942
37787SOL     OW16315   8.911   2.741   0.810  0.4648 -0.1228  0.7340
37787SOL    HW116316   8.876   2.759   0.897 -1.5806 -1.3220  0.2232
37787SOL    HW216317   8.987   2.685   0.825 -0.1957 -0.7700  1.7476
37788SOL     OW16318   5.815   1.307   0.424 -0.0467 -0.1855  0.1098
37788SOL    HW116319   5.763   1.300   0.345 -0.5318  1.3885  0.2643
37788SOL    HW216320   5.905   1.294   0.395 -0.3944 -1.8008 -0.3331
37789SOL     OW16321   7.783   5.848   5.081  0.5282  0.0495 -0.3618
37789SOL    HW116322   7.735   5.776   5.040  0.5591 -0.6313  0.7401
37789SOL    HW216323   7.763   5.925   5.028 -0.1479 -0.6206 -1.0942
37790SOL     OW16324   4.278   1.539   9.663  0.5367 -0.0307 -0.0647
37790SOL    HW116325   4.262   1.628   9.694  0.5373  0.2367 -0.8248
37790SOL    HW216326   4.349   1.507   9.719 -0.2605  0.0037  1.0139
37791SOL     OW16327   3.633   0.508   2.827 -0.6126  0.6151 -0.5206
37791SOL    HW116328   3.721   0.506   2.863 -0.1810 -0.5696 -1.5674
37791SOL    HW216329   3.587   0.436   2.872 -0.5697  0.2257 -1.0873
37792SOL     OW16330  10.413   6.208   9.369  0.4819  0.2771 -0.1623
37792SOL    HW116331  10.372   6.126   9.397 -0.8278  1.1051  0.4268
37792SOL    HW216332  10.442   6.249   9.449  0.7298  0.5996 -0.4163
37793SOL     OW16333   4.733   2.098   4.940  0.0254  0.4234 -0.1155
37793SOL    HW116334   4.750   2.185   4.976 -1.0976  0.2517  0.8748
37793SOL    HW216335   4.656   2.110   4.883  1.2221  0.5059 -1.7993
37794SOL     OW16336   9.715  10.385   0.989  0.4066 -0.1304 -0.3282
37794SOL    HW116337   9.793  10.394   1.044 -0.1622 -1.6076  0.7819
37794SOL    HW216338   9.695  10.292   0.991 -1.7199  0.2907 -0.1253
37795SOL     OW16339   3.816   9.938   6.478  0.0054 -0.3341  0.3106
37795SOL    HW116340   3.862   9.862   6.444  0.8800 -0.0232  0.7633
37795SOL    HW216341   3.744   9.952   6.417  0.9952 -0.3347 -0.9073
37796SOL     OW16342  10.639   6.998   3.047 -0.8209 -0.0057  0.3860
37796SOL    HW116343  10.649   7.009   3.141  0.0346 -2.6436  0.6927
37796SOL    HW216344  10.550   6.964   3.036 -0.7654 -0.1211  0.2912
37797SOL     OW16345   8.454  10.400   7.379 -0.8706  0.3793 -0.6007
37797SOL    HW116346   8.460  10.325   7.439 -1.3966  0.7061 -0.1289
37797SOL    HW216347   8.361  10.421   7.377 -0.9677 -0.1126 -2.1540
37798SOL     OW16348   4.905   0.610   7.001  0.2487 -0.2173  0.2042
37798SOL    HW116349   4.938   0.699   7.003  0.8118 -0.2474 -2.7667
37798SOL    HW216350   4.951   0.565   7.072  0.8787  1.5439  0.9474
37799SOL     OW16351   0.880   8.371   3.388 -0.1043  0.0656 -0.0471
37799SOL    HW116352   0.881   8.300   3.452 -0.0858  0.4542  0.3916
37799SOL    HW216353   0.947   8.347   3.324 -1.5429 -1.3706 -1.0886
37800SOL     OW16354   9.686   3.761   1.740 -0.1383 -0.8497 -0.3931
37800SOL    HW116355   9.659   3.719   1.822  0.8284 -1.0226 -0.1478
37800SOL    HW216356   9.642   3.846   1.741  3.8062  1.5093  2.9216
37801SOL     OW16357   7.431   3.618   2.222 -0.1845  0.2489 -0.4699
37801SOL    HW116358   7.469   3.698   2.258 -0.9591 -0.2482  1.5818
37801SOL    HW216359   7.504   3.572   2.182  1.1445  0.0325  2.0468
37802SOL     OW16360   4.477   7.187   2.742  0.0123  0.1786  0.1160
37802SOL    HW116361   4.399   7.176   2.688 -0.1564  2.1939 -0.1305
37802SOL    HW216362   4.524   7.104   2.734 -0.8576 -0.1804 -1.7324
37803SOL     OW16363   8.828   2.698   7.381  0.4904  0.5297  0.3923
37803SOL    HW116364   8.897   2.638   7.409  1.4845  0.6372 -1.6675
37803SOL    HW216365   8.825   2.765   7.449  0.9344 -0.6029  1.5760
37804SOL     OW16366   3.190   4.427   8.473 -0.0327  0.2455 -1.2733
37804SOL    HW116367   3.172   4.511   8.515  0.0852 -0.6552  0.6402
37804SOL    HW216368   3.111   4.375   8.486  0.8252 -0.8264 -0.1594
37805SOL     OW16369   9.162   8.067  10.271  0.8068 -0.2387 -0.5588
37805SOL    HW116370   9.084   8.041  10.222  0.1075  0.4398  0.1932
37805SOL    HW216371   9.146   8.157  10.299  1.9350 -0.0188 -0.5422
37806SOL     OW16372   6.118  10.517   3.316 -0.1763  0.0423 -0.0409
37806SOL    HW116373   6.205  10.544   3.285 -0.5606  0.8515 -0.4612
37806SOL    HW216374   6.059  10.584   3.281 -0.7196  0.6655  1.9469
37807SOL     OW16375   1.027   2.510   7.605  0.0495  0.6672  0.4036
37807SOL    HW116376   1.047   2.484   7.695  0.4586  0.9545  0.4011
37807SOL    HW216377   0.953   2.569   7.613 -0.9647 -0.5726  0.3958
37808SOL     OW16378   2.454   2.842   6.519  0.0048  0.4157  0.1916
37808SOL    HW116379   2.546   2.815   6.518 -0.6246 -2.1465  2.1008
37808SOL    HW216380   2.421   2.817   6.432  0.3557 -1.8623  0.6567
37809SOL     OW16381   9.808   3.489   9.168 -0.2853  0.4065  0.1363
37809SOL    HW116382   9.871   3.539   9.116  0.1949 -1.7455 -1.4758
37809SOL    HW216383   9.834   3.505   9.259  2.4646 -0.1993 -0.4698
37810SOL     OW16384   6.199   5.431   7.518  0.0796 -0.0695  0.3391
37810SOL    HW116385   6.288   5.465   7.521 -0.0345  0.5302 -1.8374
37810SOL    HW216386   6.204   5.347   7.563  2.5107 -1.6071 -2.5176
37811SOL     OW16387   7.972   2.960   1.627  0.0908  0.5639  1.2310
37811SOL    HW116388   8.024   3.035   1.598  0.2581  1.0431  2.6999
37811SOL    HW216389   7.969   2.967   1.722  2.3615 -2.7487  1.7266
37812SOL     OW16390   9.236   5.430  10.231  0.0844  0.3570 -0.0938
37812SOL    HW116391   9.184   5.356  10.200  0.2888 -0.2204  0.8842
37812SOL    HW216392   9.315   5.429  10.177 -0.0800  0.0836 -0.3289
37813SOL     OW16393   8.636   3.087   9.362  0.1389 -0.1307  0.1297
37813SOL    HW116394   8.686   3.069   9.442  1.4562 -0.0869 -0.6441
37813SOL    HW216395   8.553   3.122   9.393  0.3286 -0.8217  1.4954
37814SOL     OW16396   7.863   3.713   9.943  0.0994 -0.6828 -0.2881
37814SOL    HW116397   7.776   3.675   9.952  0.2645 -1.0769 -0.3129
37814SOL    HW216398   7.914   3.675  10.015 -0.1951  0.8864  0.8002
37815SOL     OW16399   9.160   3.455   0.942 -0.2393  0.0322 -0.3386
37815SOL    HW116400   9.066   3.438   0.946 -0.0574 -0.8381  0.7199
37815SOL    HW216401   9.198   3.395   1.007  1.0067  0.6419 -0.4777
37816SOL     OW16402   7.826   6.486   1.839 -0.2120  0.1983 -0.3805
37816SOL    HW116403   7.798   6.438   1.917 -0.1723  1.9375  0.7645
37816SOL    HW216404   7.749   6.489   1.783 -0.9211  0.7948  0.5904
37817SOL     OW16405   3.525   2.178   7.825  0.1027  0.2113 -0.3172
37817SOL    HW116406   3.541   2.142   7.912 -0.0845  1.1881  0.1287
37817SOL    HW216407   3.609   2.172   7.780  0.4603  0.6504  0.2856
37818SOL     OW16408   6.526  10.170   8.769  0.5865 -0.2207 -0.2050
37818SOL    HW116409   6.555  10.081   8.746 -0.5281 -0.3052 -1.4346
37818SOL    HW216410   6.444  10.157   8.818 -0.3779  0.1170 -1.6448
37819SOL     OW16411   9.060   7.259   4.957 -0.1544  0.1110 -0.0825
37819SOL    HW116412   9.071   7.320   5.030  0.7762 -0.0104 -0.1124
37819SOL    HW216413   9.100   7.304   4.882 -3.5294  1.4714 -1.2440
37820SOL     OW16414   5.917   3.179   5.199  0.5543  0.0525  0.3458
37820SOL    HW116415   6.010   3.188   5.220  0.5522 -0.6287  0.6928
37820SOL    HW216416   5.887   3.108   5.256 -0.2281  0.3999  0.3787
37821SOL     OW16417   5.208   2.572   5.173 -0.1814  0.7349 -0.1559
37821SOL    HW116418   5.198   2.611   5.085 -1.2958  1.3959  0.2402
37821SOL    HW216419   5.188   2.644   5.233 -1.1633 -0.1537  0.6139
37822SOL     OW16420   4.700   1.861   7.264 -0.0796 -0.3674  0.0760
37822SOL    HW116421   4.757   1.829   7.194 -0.6684 -1.2404 -0.0217
37822SOL    HW216422   4.613   1.828   7.241 -0.0475 -1.9411  1.9677
37823SOL     OW16423   9.839   6.024   1.283  0.0919  0.3836  0.7145
37823SOL    HW116424   9.846   5.935   1.318  2.5702  0.5342  0.8085
37823SOL    HW216425   9.806   6.076   1.357  0.2942 -0.1725  1.2112
37824SOL     OW16426   4.124   6.216   8.680  0.2605 -0.7067  0.2141
37824SOL    HW116427   4.083   6.136   8.647 -0.3573 -0.5609  0.6002
37824SOL    HW216428   4.201   6.228   8.625 -0.1338 -1.0771 -0.4365
37825SOL     OW16429   9.827   2.014   8.294  0.2941  0.1489  0.1006
37825SOL    HW116430   9.913   2.056   8.292  0.4632 -0.2108 -0.4720
37825SOL    HW216431   9.796   2.018   8.203 -0.7611  1.2232  0.4904
37826SOL     OW16432   9.962   9.216   8.026 -0.4132 -0.2534 -0.4234
37826SOL    HW116433  10.008   9.134   8.047  3.0570  1.1351 -1.8331
37826SOL    HW216434   9.995   9.279   8.090 -2.3147  0.3078  0.0527
37827SOL     OW16435   9.889   3.341   4.987  0.0183 -0.0793  0.1022
37827SOL    HW116436   9.814   3.293   5.021  1.1789 -2.1265 -0.0932
37827SOL    HW216437   9.902   3.305   4.899  1.5083 -0.1283  0.3158
37828SOL     OW16438   4.202   5.046   6.509  0.5684 -0.1259  0.4163
37828SOL    HW116439   4.243   4.974   6.461  1.5153  1.1629 -0.7570
37828SOL    HW216440   4.206   5.018   6.601  2.0695 -1.0067  0.1175
37829SOL     OW16441   2.865   2.066   9.858 -0.5048  0.2451 -0.4754
37829SOL    HW116442   2.825   2.023   9.782 -1.5086 -0.3339  0.3595
37829SOL    HW216443   2.791   2.094   9.911  0.1858  0.2233  0.5237
37830SOL     OW16444   0.392   1.282   7.090 -0.0718 -0.3466 -0.2924
37830SOL    HW116445   0.448   1.339   7.142 -0.9982  0.3461 -0.0247
37830SOL    HW216446   0.415   1.303   6.999  1.1792 -1.1872 -0.2007
37831SOL     OW16447   0.324  10.137   2.041  0.3643 -0.1830 -0.0629
37831SOL    HW116448   0.418  10.121   2.033  0.1014 -0.8857 -3.6692
37831SOL    HW216449   0.287  10.052   2.065  0.5592 -0.2321  0.0619
37832SOL     OW16450   1.228   9.789   3.802 -0.2817 -0.0748 -0.6947
37832SOL    HW116451   1.269   9.704   3.786  0.0599  0.4162 -2.6678
37832SOL    HW216452   1.134   9.770   3.802 -0.1858 -0.5657 -0.4085
37833SOL     OW16453   9.999   0.261   9.383 -0.0431 -0.3992 -0.4139
37833SOL    HW116454  10.085   0.246   9.422 -0.9753 -3.3351  0.7588
37833SOL    HW216455   9.940   0.271   9.458 -0.7341  2.2756 -1.1903
37834SOL     OW16456   5.533   3.388  10.299  0.0585  0.1340 -0.3623
37834SOL    HW116457   5.547   3.294  10.315  0.4651 -0.0763 -1.7829
37834SOL    HW216458   5.595   3.432  10.358 -1.3370 -0.3973  1.5817
37835SOL     OW16459   9.116   3.991   1.595  0.0357 -0.9431  0.0210
37835SOL    HW116460   9.026   3.974   1.623 -0.3279 -0.5366 -0.8734
37835SOL    HW216461   9.135   3.920   1.533 -0.9184  0.8127 -2.4639
37836SOL     OW16462   4.426   2.246   8.012 -0.0960  0.1306  0.0881
37836SOL    HW116463   4.409   2.187   7.939  1.6082  1.0917 -1.1792
37836SOL    HW216464   4.341   2.263   8.051 -0.8273 -1.7364 -0.6221
37837SOL     OW16465   0.323   8.361   2.794 -0.3294 -0.0311 -0.4667
37837SOL    HW116466   0.259   8.396   2.732  0.3413  0.9032 -0.6396
37837SOL    HW216467   0.286   8.380   2.880 -0.6493 -0.1918 -0.5660
37838SOL     OW16468  10.564   6.165   3.652  0.0133 -0.0237 -0.2732
37838SOL    HW116469  10.656   6.176   3.627  0.3284 -3.0169 -0.7869
37838SOL    HW216470  10.521   6.134   3.573 -1.8077  2.4849 -0.3917
37839SOL     OW16471   5.526   6.420   7.133  0.4413  0.0232  0.3754
37839SOL    HW116472   5.532   6.356   7.062  0.3692  1.9155 -1.4489
37839SOL    HW216473   5.616   6.451   7.146  0.3728  0.0888  0.7032
37840SOL     OW16474   3.289   1.453   5.860 -0.7853  0.2985 -0.8204
37840SOL    HW116475   3.305   1.542   5.828  0.4227 -0.2527 -1.8708
37840SOL    HW216476   3.302   1.459   5.954 -0.3756  1.1779 -0.9225
37841SOL     OW16477   9.376   0.908  10.533  0.3361  0.3765  0.0959
37841SOL    HW116478   9.403   0.970  10.601 -0.0633  0.8557 -0.1773
37841SOL    HW216479   9.392   0.953  10.451  0.5020 -0.0727 -0.1232
37842SOL     OW16480   2.866   9.527  10.253  0.2178 -0.0388  0.3049
37842SOL    HW116481   2.950   9.517  10.297  0.1691 -0.8499  0.2218
37842SOL    HW216482   2.830   9.609  10.288 -0.3872 -1.2543  2.7311
37843SOL     OW16483   3.395  10.219   3.718 -0.1415  0.1619  0.3782
37843SOL    HW116484   3.429  10.130   3.727 -1.1091 -0.2630 -0.0822
37843SOL    HW216485   3.308  10.216   3.756  0.4853  1.3830  2.0474
37844SOL     OW16486  10.331   6.830   3.467 -0.7278  0.2217  0.2006
37844SOL    HW116487  10.354   6.851   3.377  1.7666  0.1810  0.7462
37844SOL    HW216488  10.308   6.914   3.506  0.9916  0.7165  0.2202
37845SOL     OW16489   5.800   5.834   6.483 -0.5069  0.0294  0.3733
37845SOL    HW116490   5.868   5.786   6.530  0.0586  0.7365  0.3017
37845SOL    HW216491   5.836   5.845   6.395 -0.2841  1.2276  0.5968
37846SOL     OW16492   9.781   3.267   3.242  0.0472  0.3458 -0.0281
37846SOL    HW116493   9.800   3.347   3.290  0.7414 -0.4483  1.0837
37846SOL    HW216494   9.690   3.275   3.216 -0.2789  0.9165  1.2237
37847SOL     OW16495   0.883   4.482   3.439 -0.0699  0.5304  0.5448
37847SOL    HW116496   0.842   4.494   3.525  1.9379  0.7119  1.5366
37847SOL    HW216497   0.829   4.534   3.379 -0.5761  1.7531  1.9871
37848SOL     OW16498   0.574   9.526   6.260 -0.1953  0.2270 -0.0255
37848SOL    HW116499   0.642   9.479   6.212 -1.0007 -0.8111 -0.1653
37848SOL    HW216500   0.608   9.533   6.349 -0.2616 -1.0349  0.1127
37849SOL     OW16501   6.446   0.690   6.447  0.0736  0.0465 -0.2630
37849SOL    HW116502   6.356   0.663   6.427  0.0201 -0.2084  0.2985
37849SOL    HW216503   6.498   0.650   6.377 -0.3474  1.0266 -1.1727
37850SOL     OW16504   2.461   7.692   9.254  0.0743 -0.4536  0.0363
37850SOL    HW116505   2.505   7.680   9.170  0.1057  0.3877 -0.0765
37850SOL    HW216506   2.500   7.625   9.311  1.3454  0.0997 -0.1277
37851SOL     OW16507   2.146   1.020   5.462  0.7023  0.1595 -0.3377
37851SOL    HW116508   2.142   0.998   5.369  2.1614  2.1492 -0.9453
37851SOL    HW216509   2.128   1.114   5.465 -0.6718 -0.1012  1.5808
37852SOL     OW16510   3.452   2.735   9.830  0.9368 -0.0117  0.3845
37852SOL    HW116511   3.405   2.717   9.911 -0.4314  0.5694 -0.2368
37852SOL    HW216512   3.441   2.829   9.816  0.9213 -0.1432 -0.6003
37853SOL     OW16513   5.568   9.609   2.800 -0.0191 -0.0944  0.7857
37853SOL    HW116514   5.591   9.543   2.866  1.3055 -0.3516  0.0976
37853SOL    HW216515   5.652   9.641   2.767 -0.5933 -0.8447 -1.6290
37854SOL     OW16516   4.506   7.416   0.949  0.6746  0.3134  0.1155
37854SOL    HW116517   4.519   7.419   0.854  0.2367  1.5853  0.0734
37854SOL    HW216518   4.444   7.345   0.963 -2.1662  2.3959 -0.9775
37855SOL     OW16519   6.960   1.629   9.406  0.1787  0.2685  0.1048
37855SOL    HW116520   6.889   1.594   9.459  0.0579  0.6716  0.2141
37855SOL    HW216521   7.039   1.614   9.457  0.2327 -0.5546 -0.1955
37856SOL     OW16522   0.638   8.863   9.885 -0.6778 -0.1259  0.1617
37856SOL    HW116523   0.690   8.879   9.964  0.2114  3.6187 -0.9699
37856SOL    HW216524   0.549   8.886   9.910  0.0248  4.1609 -0.4222
37857SOL     OW16525   3.727  10.641   1.136 -0.1067  0.3991 -0.2227
37857SOL    HW116526   3.779  10.708   1.181  0.2821 -0.3269  0.4166
37857SOL    HW216527   3.692  10.586   1.206  0.3986 -0.6618 -0.7823
37858SOL     OW16528   0.658   4.492   5.355 -0.6877 -0.0009  0.8699
37858SOL    HW116529   0.743   4.526   5.380 -0.7787 -0.2525  1.5529
37858SOL    HW216530   0.676   4.405   5.318 -0.5327  0.4528 -0.1640
37859SOL     OW16531   3.098   6.381   3.525 -0.3129 -0.1259 -0.3478
37859SOL    HW116532   3.010   6.344   3.518 -0.2052 -0.5791  0.5166
37859SOL    HW216533   3.128   6.390   3.435 -0.6814 -1.3660 -0.6118
37860SOL     OW16534   2.588   4.108   2.687  0.2185  0.4762 -0.6516
37860SOL    HW116535   2.659   4.085   2.626  0.6254  1.7378 -0.6734
37860SOL    HW216536   2.581   4.203   2.681  1.5412  0.8847  2.6235
37861SOL     OW16537   5.891   2.857  10.427  0.0792 -0.2744  0.2858
37861SOL    HW116538   5.930   2.772  10.407  0.6389  0.1816 -0.6036
37861SOL    HW216539   5.856   2.847  10.516  1.2796 -1.0181  0.6931
37862SOL     OW16540   6.089   7.379   8.541  0.0914 -0.1130 -0.2980
37862SOL    HW116541   6.064   7.329   8.463 -0.7134  1.7555 -1.3050
37862SOL    HW216542   6.171   7.423   8.516 -0.5082  1.0017 -0.3533
37863SOL     OW16543   2.148   4.812   1.287 -0.3958  0.0412  0.4163
37863SOL    HW116544   2.231   4.807   1.335 -0.3861 -1.4453  0.2861
37863SOL    HW216545   2.126   4.905   1.288  2.5427  0.9117 -1.7173
37864SOL     OW16546   5.564   5.843   5.903 -0.3562 -0.1279  0.5365
37864SOL    HW116547   5.470   5.826   5.911 -0.2667 -0.7383  0.3653
37864SOL    HW216548   5.577   5.868   5.812 -0.3272 -0.2013  0.5206
37865SOL     OW16549   6.664   6.319   2.342  0.3158  0.5656  0.2648
37865SOL    HW116550   6.637   6.393   2.288  0.9994 -0.5171 -1.6489
37865SOL    HW216551   6.747   6.346   2.381 -0.0250  1.2345  0.5346
37866SOL     OW16552   4.902   2.581  10.120  0.0869 -0.1177  0.1809
37866SOL    HW116553   4.855   2.663  10.136 -0.6851 -0.2339 -1.3073
37866SOL    HW216554   4.994   2.606  10.116 -0.2935  1.2536 -3.1042
37867SOL     OW16555   0.258   1.113  10.272 -0.1054  0.2342 -0.4937
37867SOL    HW116556   0.293   1.146  10.354  0.4357 -1.5732  0.0434
37867SOL    HW216557   0.197   1.044  10.298  1.7809 -1.9711 -1.6103
37868SOL     OW16558   3.535   4.346   1.917  0.4962 -0.0127 -0.0432
37868SOL    HW116559   3.501   4.422   1.870 -0.2830 -0.4079 -0.1376
37868SOL    HW216560   3.583   4.384   1.991 -1.5198  0.5877  1.0518
37869SOL     OW16561   8.845   9.755   1.949  0.4177  0.0434  0.1061
37869SOL    HW116562   8.829   9.672   1.992 -3.2664  0.9195  0.7182
37869SOL    HW216563   8.859   9.733   1.857  1.9999 -1.3408  0.6290
37870SOL     OW16564   0.775   3.405   9.001 -0.2738 -0.1855  0.2534
37870SOL    HW116565   0.798   3.335   8.940  2.4890  1.2057 -0.4751
37870SOL    HW216566   0.682   3.421   8.986 -0.1270 -1.2482 -2.1916
37871SOL     OW16567   8.436   9.176   8.488 -0.2624  0.0620 -0.0492
37871SOL    HW116568   8.423   9.084   8.466 -0.2674 -0.1481  0.7997
37871SOL    HW216569   8.516   9.201   8.441  1.8079 -1.3694  2.4255
37872SOL     OW16570   0.780  10.085   6.128  0.9258  0.0947 -0.3205
37872SOL    HW116571   0.736  10.045   6.203  1.4754  1.8908  1.0077
37872SOL    HW216572   0.733  10.166   6.112  1.2766  0.0955 -1.4769
37873SOL     OW16573   0.263   5.169   5.107 -0.0993  0.2750 -0.4945
37873SOL    HW116574   0.227   5.234   5.168 -1.9502 -1.5842  0.5430
37873SOL    HW216575   0.274   5.090   5.160  0.1438 -0.8481 -2.1425
37874SOL     OW16576   6.246   7.132   3.295  0.3838 -0.2374 -0.0039
37874SOL    HW116577   6.181   7.185   3.250  0.8821 -1.0088 -1.7030
37874SOL    HW216578   6.212   7.042   3.291  1.3488 -0.5956 -0.5690
37875SOL     OW16579   6.035  10.082   7.487 -0.3502  0.2954 -0.5654
37875SOL    HW116580   6.017  10.074   7.393 -1.6688  1.4496 -0.4380
37875SOL    HW216581   5.994  10.164   7.512  0.0884  0.0569  1.0188
37876SOL     OW16582   2.681   4.087   3.711  0.3081 -0.0966 -0.0252
37876SOL    HW116583   2.751   4.052   3.656  0.8701  0.9403  0.0064
37876SOL    HW216584   2.690   4.182   3.703 -0.7015  0.0527  0.4866
37877SOL     OW16585   7.742   2.760   2.288  0.5742 -0.7482  0.4571
37877SOL    HW116586   7.731   2.853   2.307  1.3202 -0.7358  0.8793
37877SOL    HW216587   7.674   2.740   2.224  1.0048  0.3064 -0.3508
37878SOL     OW16588   7.367   7.310   3.192  0.3167  0.4532 -0.0990
37878SOL    HW116589   7.450   7.285   3.152  0.2031  0.4213 -0.3193
37878SOL    HW216590   7.304   7.249   3.155  0.5366 -0.9207  1.6809
37879SOL     OW16591   7.193   7.239   5.147  0.4142  0.5865 -0.0285
37879SOL    HW116592   7.160   7.202   5.229 -1.1265  2.2973  0.1765
37879SOL    HW216593   7.183   7.333   5.157  1.2583  0.9009 -1.7601
37880SOL     OW16594   5.256   0.704   7.432 -0.0354  0.0773  0.4759
37880SOL    HW116595   5.340   0.709   7.477 -0.0807 -0.2121  0.5980
37880SOL    HW216596   5.197   0.758   7.484  0.0208  0.0977  0.5177
37881SOL     OW16597   9.533   0.330   8.768  0.3949 -0.2980 -0.3955
37881SOL    HW116598   9.576   0.378   8.839 -0.6991 -0.4365  0.3853
37881SOL    HW216599   9.587   0.251   8.757  1.1122  0.1762 -0.3841
37882SOL     OW16600   0.002   5.065   3.583 -0.3116  0.4266 -0.5058
37882SOL    HW116601   0.018   5.003   3.654 -1.2235  0.7632  0.0122
37882SOL    HW216602  -0.093   5.077   3.582 -0.4239 -0.2530 -2.3795
37883SOL     OW16603   1.847   5.185   6.195 -0.3500  0.5104 -0.3017
37883SOL    HW116604   1.936   5.195   6.227 -0.2439  1.8113 -0.9257
37883SOL    HW216605   1.792   5.217   6.266 -0.2838  0.4377 -0.2170
37884SOL     OW16606   7.608   9.037   3.052 -0.0168 -0.1164 -0.2987
37884SOL    HW116607   7.591   8.964   3.111  1.3828 -0.8085 -0.6973
37884SOL    HW216608   7.630   8.995   2.969 -1.1596  0.8215 -1.1151
37885SOL     OW16609   9.463   2.058   3.708 -0.0142 -0.0329  0.1550
37885SOL    HW116610   9.392   2.077   3.769  0.4568  0.1883  0.6443
37885SOL    HW216611   9.466   1.963   3.703 -0.4725 -0.0369 -0.0188
37886SOL     OW16612  10.423   4.482   5.673  0.0936 -0.3292 -0.2857
37886SOL    HW116613  10.488   4.412   5.678  0.8607  0.4382  0.9972
37886SOL    HW216614  10.341   4.438   5.651  0.2935 -1.8208  1.7342
37887SOL     OW16615   2.834   6.848   5.459 -0.1921 -0.1295  0.2919
37887SOL    HW116616   2.860   6.927   5.412  0.9334 -1.6542 -1.7826
37887SOL    HW216617   2.901   6.836   5.526 -0.2048  0.4898  0.4191
37888SOL     OW16618   5.885   0.788   0.570  0.5276  0.4074 -0.8794
37888SOL    HW116619   5.886   0.692   0.577  1.8166  0.2919 -2.1763
37888SOL    HW216620   5.796   0.813   0.592  0.6976 -0.8960  1.6938
37889SOL     OW16621   7.433   9.974   9.750 -0.1680  0.3655 -0.2646
37889SOL    HW116622   7.392  10.039   9.807  1.1040  0.9656 -0.0058
37889SOL    HW216623   7.359   9.923   9.716 -0.9706 -0.4795  2.4321
37890SOL     OW16624   1.078   6.086   2.998  0.7779  0.1636  0.3404
37890SOL    HW116625   1.161   6.124   2.971  2.0276 -0.5920  2.7758
37890SOL    HW216626   1.050   6.140   3.072 -1.4279  0.9487 -0.9641
37891SOL     OW16627   6.507   2.639   2.999  0.6959 -0.0715 -0.7249
37891SOL    HW116628   6.435   2.578   2.987  1.2988 -0.9469  0.0438
37891SOL    HW216629   6.576   2.588   3.041  1.2508  1.1084 -0.1568
37892SOL     OW16630   1.584   5.771   8.924  0.6050  0.1776  0.2866
37892SOL    HW116631   1.503   5.720   8.924 -0.7162  2.1323  1.4454
37892SOL    HW216632   1.635   5.734   8.996 -0.1499  0.2124  0.8530
37893SOL     OW16633   2.497   0.526   4.290 -0.3657 -0.3303 -0.1418
37893SOL    HW116634   2.468   0.436   4.305 -0.5160 -0.5058 -1.3969
37893SOL    HW216635   2.440   0.558   4.220  1.1976 -0.0560 -1.3445
37894SOL     OW16636   4.225   9.940   6.135 -0.0664 -0.1108 -0.9003
37894SOL    HW116637   4.297   9.878   6.140  1.4547  1.5209 -1.4699
37894SOL    HW216638   4.237   9.985   6.051 -1.9178  0.0366 -1.1392
37895SOL     OW16639   2.610  10.475   2.127 -0.1652 -0.0048 -0.1460
37895SOL    HW116640   2.555  10.548   2.098 -1.3072 -0.9886 -0.5779
37895SOL    HW216641   2.694  10.490   2.085 -1.1983 -0.3527 -2.5248
37896SOL     OW16642   7.328   3.463   3.538 -0.1944  0.2855 -0.0973
37896SOL    HW116643   7.376   3.515   3.602  1.8395 -1.7739  0.1954
37896SOL    HW216644   7.283   3.397   3.590  1.2410 -1.2249 -0.6797
37897SOL     OW16645   9.834   1.283   3.252  0.1216  0.0932 -0.5153
37897SOL    HW116646   9.843   1.189   3.264 -0.5374  0.0914 -0.0106
37897SOL    HW216647   9.824   1.318   3.341  3.0426  0.9558 -0.4030
37898SOL     OW16648   9.672   0.531   8.630 -0.1218 -0.5340 -0.3403
37898SOL    HW116649   9.697   0.530   8.537 -1.7198  0.3402 -0.8128
37898SOL    HW216650   9.628   0.447   8.644 -1.0928 -0.1121 -0.7562
37899SOL     OW16651   4.174   9.568   0.662 -0.2216 -1.1227 -0.1987
37899SOL    HW116652   4.269   9.566   0.659 -0.1053  0.9599  0.2556
37899SOL    HW216653   4.147   9.575   0.570  0.2161  0.4623 -0.2420
37900SOL     OW16654   8.290   2.598   5.220  0.0740  0.4206  0.1848
37900SOL    HW116655   8.201   2.563   5.231  0.1192  0.4738  0.7856
37900SOL    HW216656   8.277   2.687   5.188 -0.1138  0.6255  0.8073
37901SOL     OW16657   8.264   7.541   2.620  0.0256 -0.5554  0.1908
37901SOL    HW116658   8.199   7.611   2.621  0.4255 -0.1652  1.1757
37901SOL    HW216659   8.347   7.586   2.638  0.0304 -1.4633  2.9933
37902SOL     OW16660  10.025   9.485  10.462 -0.0957  0.5571 -0.0293
37902SOL    HW116661   9.987   9.461  10.378 -1.4957  1.9148  0.1582
37902SOL    HW216662  10.026   9.404  10.513 -1.5860  0.2300 -0.4898
37903SOL     OW16663  10.015   7.611   0.123 -0.0853  0.0738  0.2685
37903SOL    HW116664  10.094   7.658   0.149 -0.7576  1.4396 -0.0689
37903SOL    HW216665   9.957   7.679   0.088 -0.5710 -1.1922 -1.4996
37904SOL     OW16666   5.666   9.855   4.604 -0.1885  0.3508 -0.3677
37904SOL    HW116667   5.751   9.836   4.563  0.3776  0.1584  0.8420
37904SOL    HW216668   5.629   9.769   4.623 -0.7303  0.4332 -1.0166
37905SOL     OW16669   5.920   6.800   8.322  0.1036  0.2543  0.0017
37905SOL    HW116670   5.828   6.789   8.345 -0.2883  1.3579 -0.9417
37905SOL    HW216671   5.935   6.737   8.252 -0.1268  0.5741 -0.3345
37906SOL     OW16672   5.820   9.719   2.850  0.5288 -0.0547  0.1248
37906SOL    HW116673   5.901   9.681   2.885  1.5247  1.0152 -0.9136
37906SOL    HW216674   5.827   9.812   2.871  0.8623  0.5255 -2.2443
37907SOL     OW16675   4.348   9.127   7.635 -0.8367  0.1662  0.4228
37907SOL    HW116676   4.406   9.148   7.709 -0.9782  0.6305  0.4044
37907SOL    HW216677   4.376   9.040   7.607 -0.1971  0.3478  0.4660
37908SOL     OW16678   5.223   9.044   7.987  0.3144  0.4726  0.0597
37908SOL    HW116679   5.307   9.076   8.020  0.0639 -1.3756  2.8375
37908SOL    HW216680   5.157   9.096   8.033 -0.0786  0.2464 -0.2344
37909SOL     OW16681   6.439   8.669   2.056  0.1668 -0.2798 -0.1604
37909SOL    HW116682   6.479   8.627   1.980  0.9623 -0.6341  0.4381
37909SOL    HW216683   6.473   8.758   2.056 -1.9281  0.5935 -1.7302
37910SOL     OW16684   9.540   7.299  10.562  0.2879  0.1445  0.4810
37910SOL    HW116685   9.563   7.279  10.653  0.1088  0.8663  0.6891
37910SOL    HW216686   9.588   7.379  10.543 -1.4636  1.2690  0.6750
37911SOL     OW16687   8.036   9.489   2.925 -0.1360  0.2492  0.1202
37911SOL    HW116688   8.021   9.505   2.832 -2.4064  0.3892  0.4548
37911SOL    HW216689   8.052   9.395   2.931 -1.8951 -0.1161 -0.2631
37912SOL     OW16690   6.664   8.589   8.233  0.0821 -0.8034  0.7370
37912SOL    HW116691   6.586   8.569   8.286  0.4953 -1.7085  1.0241
37912SOL    HW216692   6.734   8.602   8.297  0.0076  0.8340  0.5166
37913SOL     OW16693   9.353   0.294   8.047  0.3642 -0.1714 -0.1837
37913SOL    HW116694   9.421   0.226   8.045  1.3677  0.7950 -0.2252
37913SOL    HW216695   9.402   0.376   8.044 -0.8453  0.5538 -0.7477
37914SOL     OW16696   6.259   7.921   6.876  0.2021 -0.0356  0.6864
37914SOL    HW116697   6.288   7.889   6.790  0.6161  1.0211  0.4107
37914SOL    HW216698   6.247   8.015   6.863  0.5941  0.1938  1.8780
37915SOL     OW16699   0.973  10.543   8.840 -0.3515 -0.2159 -0.9415
37915SOL    HW116700   1.065  10.546   8.867 -0.7611  2.1589  0.4986
37915SOL    HW216701   0.950  10.451   8.844  1.2340 -0.6077  1.3931
37916SOL     OW16702   9.980   9.328   9.176 -0.8582 -0.2008  0.3368
37916SOL    HW116703   9.972   9.368   9.262 -0.7904 -0.5144  0.4914
37916SOL    HW216704  10.033   9.250   9.191 -0.0105  0.2720 -0.1619
37917SOL     OW16705   8.151   1.770   0.969  0.3087 -0.1556  0.1811
37917SOL    HW116706   8.166   1.685   0.927 -1.3105 -0.7911  0.8235
37917SOL    HW216707   8.091   1.815   0.910  0.0646 -0.0128  0.5393
37918SOL     OW16708   8.357   3.664   1.978  0.0799  0.1675 -0.0599
37918SOL    HW116709   8.283   3.603   1.973  0.0829  0.2148 -0.7291
37918SOL    HW216710   8.327   3.741   1.929  0.7261  0.0258 -0.6906
37919SOL     OW16711   0.931   8.206   3.737 -0.1101  0.3523 -0.2831
37919SOL    HW116712   0.856   8.260   3.763 -0.7194 -0.2216 -0.8205
37919SOL    HW216713   0.970   8.177   3.819 -0.4398  0.6934 -0.0015
37920SOL     OW16714   3.204   8.892   2.903 -0.6027  0.3114 -0.1938
37920SOL    HW116715   3.117   8.877   2.939  0.8029 -3.6031  2.1857
37920SOL    HW216716   3.220   8.817   2.846  1.9919 -0.4450  1.3393
37921SOL     OW16717   3.033   6.375   8.269 -0.0053 -0.4077 -0.3681
37921SOL    HW116718   3.031   6.419   8.184  2.1161  2.5631  0.9472
37921SOL    HW216719   2.952   6.403   8.312 -1.4417 -2.4866 -1.5267
37922SOL     OW16720   7.740   2.713   8.091 -0.2285 -0.2212  0.1479
37922SOL    HW116721   7.697   2.755   8.165 -0.5085 -0.6727  0.2464
37922SOL    HW216722   7.785   2.784   8.046  3.1399 -0.3796  2.8218
37923SOL     OW16723   9.268   3.687   8.492  0.4906 -0.4524  0.4647
37923SOL    HW116724   9.186   3.680   8.541  0.8794 -1.2449  1.0324
37923SOL    HW216725   9.308   3.600   8.500  1.9266  0.2388  1.1674
37924SOL     OW16726   2.815   5.635   3.810 -0.0028 -0.4622  0.2674
37924SOL    HW116727   2.774   5.686   3.740  0.1726 -1.5375 -0.6636
37924SOL    HW216728   2.741   5.607   3.865 -0.5406 -1.9608 -1.1134
37925SOL     OW16729   4.227  10.290   8.493 -0.3952 -0.3487  0.2070
37925SOL    HW116730   4.181  10.254   8.569  0.2449 -0.4045  0.5760
37925SOL    HW216731   4.313  10.315   8.527  0.3302 -1.4591 -0.7438
37926SOL     OW16732   6.349   7.481   8.491 -0.0899  0.0695 -0.2368
37926SOL    HW116733   6.396   7.539   8.550 -0.1175 -0.7976  0.6609
37926SOL    HW216734   6.406   7.472   8.415  0.0256  1.0499 -0.2681
37927SOL     OW16735   1.501   9.281   3.095  0.1356 -0.1714 -0.4117
37927SOL    HW116736   1.430   9.225   3.128  0.7056 -0.3003  0.6191
37927SOL    HW216737   1.495   9.360   3.148  1.3330 -0.5513  0.3144
37928SOL     OW16738   7.160   8.828   7.792  0.0894  0.6842  0.2947
37928SOL    HW116739   7.093   8.760   7.802  0.2955  0.6569  1.6646
37928SOL    HW216740   7.163   8.871   7.878 -0.1088  2.4999 -0.5655
37929SOL     OW16741   6.197   1.419   1.886 -0.0864 -0.2335 -0.1613
37929SOL    HW116742   6.287   1.427   1.854  0.3611 -1.0533  0.8342
37929SOL    HW216743   6.157   1.354   1.828 -0.0059  0.0519 -0.5387
37930SOL     OW16744   9.140   8.779  10.111 -0.2235 -0.2434  0.5017
37930SOL    HW116745   9.059   8.743  10.148  0.2135 -1.5314  0.2531
37930SOL    HW216746   9.117   8.868  10.085 -1.9520 -1.0111 -0.7859
37931SOL     OW16747   5.723   7.251   7.381  0.0550  0.1294 -0.2587
37931SOL    HW116748   5.730   7.253   7.286  0.1987  0.8783 -0.2369
37931SOL    HW216749   5.630   7.264   7.399  0.2508  1.6960 -0.2643
37932SOL     OW16750   8.693   1.942   8.867  0.5631 -0.5456 -0.7310
37932SOL    HW116751   8.651   1.858   8.849  0.9578 -0.8454 -0.2817
37932SOL    HW216752   8.675   1.959   8.960 -0.3631  0.3597 -1.0632
37933SOL     OW16753   9.672   7.402   5.680  0.3946 -0.3520  0.0541
37933SOL    HW116754   9.715   7.331   5.727  1.9673  1.0107  0.7919
37933SOL    HW216755   9.639   7.460   5.749  1.1462  0.7736 -0.5002
37934SOL     OW16756  10.568   9.510   6.395  0.4438 -0.3200  0.6818
37934SOL    HW116757  10.622   9.579   6.357  0.3838 -0.3292  0.5778
37934SOL    HW216758  10.619   9.430   6.382 -0.0339 -0.4784 -0.3286
37935SOL     OW16759   3.339   4.815   0.666 -0.0916 -0.0625  0.7737
37935SOL    HW116760   3.392   4.815   0.586 -0.3880 -2.2863  0.5118
37935SOL    HW216761   3.253   4.845   0.637 -0.2878 -1.1672  0.1645
37936SOL     OW16762   4.453   7.166   3.052  0.0149  0.0304 -0.3179
37936SOL    HW116763   4.467   7.189   2.960  0.6186  2.6095  0.3233
37936SOL    HW216764   4.411   7.244   3.089 -0.6804 -1.1542  1.4950
37937SOL     OW16765  10.155   4.463   6.332  0.4383  0.7895 -0.2906
37937SOL    HW116766  10.229   4.462   6.271  0.7426 -1.6068  0.0230
37937SOL    HW216767  10.159   4.550   6.373  3.1533  0.7044 -0.1991
37938SOL     OW16768   1.792   1.846   2.317  0.3615 -0.3894  0.1910
37938SOL    HW116769   1.710   1.811   2.282  1.6227 -2.3230 -0.9972
37938SOL    HW216770   1.813   1.789   2.391 -0.7207  1.8320  2.3596
37939SOL     OW16771   8.435   8.743   6.626  0.0788  0.0364  0.2388
37939SOL    HW116772   8.434   8.681   6.554 -1.6666  1.0443 -0.6622
37939SOL    HW216773   8.433   8.688   6.705  0.7126 -1.0556 -0.4817
37940SOL     OW16774   5.457   2.842   9.300  0.4108  0.3246  0.1049
37940SOL    HW116775   5.421   2.929   9.286  0.2048  0.1553 -0.4641
37940SOL    HW216776   5.510   2.850   9.379 -2.3595  0.1207  2.1095
37941SOL     OW16777   5.054   0.551   9.192  0.0491  0.1129  0.1454
37941SOL    HW116778   5.039   0.534   9.285  0.1560  1.3661  0.4056
37941SOL    HW216779   4.978   0.514   9.148  0.2125 -0.8980  0.6729
37942SOL     OW16780   7.683   8.539   4.128  0.0854 -0.4447 -0.2385
37942SOL    HW116781   7.677   8.475   4.199 -0.7769 -0.7814 -0.5916
37942SOL    HW216782   7.654   8.491   4.050  0.5526  0.0541 -0.7314
37943SOL     OW16783   3.731   5.736   4.027 -0.0880  0.1851 -0.3339
37943SOL    HW116784   3.769   5.775   4.106  0.0370 -0.6552  0.0330
37943SOL    HW216785   3.653   5.690   4.059  0.1524 -0.4491 -0.6399
37944SOL     OW16786   8.541   6.141   7.617 -0.3967  0.3885 -0.0482
37944SOL    HW116787   8.636   6.139   7.607 -0.2292  2.7714  0.4643
37944SOL    HW216788   8.523   6.082   7.689  0.5344 -1.0063 -0.9105
37945SOL     OW16789   8.159  10.242  10.556 -0.4425 -0.1411  0.1409
37945SOL    HW116790   8.142  10.311  10.492 -1.9016 -0.4494  0.1492
37945SOL    HW216791   8.169  10.288  10.639  1.1210  0.2336 -0.2173
37946SOL     OW16792   2.325   3.331   3.344  0.0888  0.4280  0.0651
37946SOL    HW116793   2.387   3.384   3.294  4.1826 -1.5511  2.4484
37946SOL    HW216794   2.300   3.261   3.284  2.0395  0.0394 -0.3595
37947SOL     OW16795   7.864   1.415   0.508  0.5251  0.0294 -0.2266
37947SOL    HW116796   7.925   1.379   0.572  0.0147 -1.2722 -0.4259
37947SOL    HW216797   7.823   1.338   0.469 -1.1323  0.8583 -0.2071
37948SOL     OW16798   1.153   4.667   0.679 -0.0630  0.3483 -0.2665
37948SOL    HW116799   1.240   4.641   0.648 -0.2590 -1.4126  0.5331
37948SOL    HW216800   1.167   4.752   0.720  0.7059  1.4573 -2.6427
37949SOL     OW16801   3.768   2.908   0.822  0.3616  0.1455  0.4352
37949SOL    HW116802   3.767   2.935   0.914  0.9243  0.2246  0.4207
37949SOL    HW216803   3.677   2.917   0.794  0.0362 -0.5728  1.1827
37950SOL     OW16804  10.348   1.402   9.868  0.2848 -0.0662  0.0588
37950SOL    HW116805  10.303   1.464   9.924 -0.0858 -1.1565  0.9996
37950SOL    HW216806  10.439   1.404   9.897  0.5053  0.8137 -0.6435
37951SOL     OW16807   1.125   5.922   5.022  0.0719 -1.1693  0.1295
37951SOL    HW116808   1.042   5.944   5.064  0.6457  0.5907  0.4283
37951SOL    HW216809   1.104   5.850   4.963 -2.0294  0.3651 -1.0961
37952SOL     OW16810   0.766   8.009   1.366 -0.6624 -0.4891  0.1326
37952SOL    HW116811   0.743   8.038   1.454 -1.1860 -0.5609  0.0240
37952SOL    HW216812   0.857   7.980   1.373 -1.2217 -2.1938  1.0927
37953SOL     OW16813   2.277   1.549   6.154  0.0388 -0.2436 -0.1759
37953SOL    HW116814   2.325   1.631   6.139 -1.2639  0.2586 -1.8574
37953SOL    HW216815   2.331   1.482   6.113  1.1345 -0.2848  1.2435
37954SOL     OW16816   1.013   7.994   2.278 -0.3486  0.0558 -0.0896
37954SOL    HW116817   1.033   7.908   2.239  0.3945  0.3894 -0.4652
37954SOL    HW216818   0.920   7.989   2.300 -0.0421 -1.3122  1.0793
37955SOL     OW16819   5.380   2.067   9.301  0.0695 -0.0401  0.2300
37955SOL    HW116820   5.294   2.040   9.269  0.1601 -1.2488  0.9483
37955SOL    HW216821   5.393   2.016   9.381  1.4699  0.0832  0.1036
37956SOL     OW16822   3.505   4.052   8.988 -0.0254 -0.0548 -0.1921
37956SOL    HW116823   3.597   4.045   9.014 -0.1101 -0.6100 -0.0255
37956SOL    HW216824   3.480   4.141   9.012  0.4736  0.1099 -0.2627
37957SOL     OW16825   3.834   1.341   5.376 -0.5045 -0.8600 -0.3501
37957SOL    HW116826   3.783   1.413   5.414  0.7713 -0.1904  0.1617
37957SOL    HW216827   3.846   1.365   5.285 -2.0935 -1.6159 -0.7931
37958SOL     OW16828   2.658   0.067   9.117 -0.3547 -0.3590 -0.0719
37958SOL    HW116829   2.632   0.057   9.209 -2.4706  1.4344 -0.4017
37958SOL    HW216830   2.600   0.008   9.069  0.9213 -1.4899 -0.2837
37959SOL     OW16831   2.366   7.824   5.668  0.5574 -0.0111  0.1574
37959SOL    HW116832   2.397   7.894   5.610 -0.3766 -0.9689 -1.5771
37959SOL    HW216833   2.305   7.867   5.728  2.1316  1.1464  1.0299
37960SOL     OW16834   5.256   3.810   7.226 -0.3593 -0.0121 -0.4522
37960SOL    HW116835   5.303   3.770   7.153  1.0601  1.2637 -0.2872
37960SOL    HW216836   5.261   3.744   7.296  1.5762  0.2097 -0.3100
37961SOL     OW16837   0.998   8.082  10.681  0.0675  0.2388  0.0467
37961SOL    HW116838   0.940   8.150  10.715 -1.1237  0.5421 -2.3731
37961SOL    HW216839   0.984   8.007  10.740  0.2214  1.5362  1.8243
37962SOL     OW16840   3.093   7.655   5.360 -0.2514  0.0954 -0.3975
37962SOL    HW116841   3.132   7.571   5.337  0.2392  0.9033 -2.8059
37962SOL    HW216842   3.164   7.704   5.401 -0.3886 -0.4366  0.5070
37963SOL     OW16843   3.230   5.734   8.933 -0.2710 -0.1370  0.4482
37963SOL    HW116844   3.198   5.824   8.936  1.1374  0.3897  0.1400
37963SOL    HW216845   3.152   5.681   8.949 -1.3716  1.0865 -0.5638
37964SOL     OW16846   3.639   1.710   7.205 -0.1800 -1.1547 -0.0410
37964SOL    HW116847   3.553   1.697   7.245  0.8295 -2.3368  1.9562
37964SOL    HW216848   3.629   1.788   7.151 -2.3365 -0.9022  0.6091
37965SOL     OW16849   4.016   2.442   0.279  0.5947  0.0588 -0.5349
37965SOL    HW116850   4.007   2.536   0.294  2.1678  0.1979 -0.2106
37965SOL    HW216851   4.029   2.405   0.367 -2.7488 -0.8846 -0.3160
37966SOL     OW16852   0.318   0.971   7.523  0.3440  0.1699  0.0065
37966SOL    HW116853   0.243   0.944   7.576  0.5753 -0.8708 -0.1743
37966SOL    HW216854   0.309   1.066   7.516  0.0623  0.2728  1.5119
37967SOL     OW16855   0.754   2.293   8.857 -0.0519 -0.4780 -0.1503
37967SOL    HW116856   0.805   2.220   8.892  0.8296 -0.5279 -1.4740
37967SOL    HW216857   0.698   2.253   8.790  1.3294  0.1848 -1.7788
37968SOL     OW16858   7.041   9.535   6.061  0.1895 -0.1042 -0.2706
37968SOL    HW116859   7.133   9.554   6.079  0.2230  0.0019 -0.5376
37968SOL    HW216860   7.007   9.617   6.023 -0.2133  0.1063  0.5396
37969SOL     OW16861   4.826   3.361   5.910  0.1245 -0.5935  0.3769
37969SOL    HW116862   4.853   3.337   5.999  1.2279 -3.0170 -0.5393
37969SOL    HW216863   4.744   3.313   5.896  0.4678 -1.0145 -0.2373
37970SOL     OW16864   7.149   6.493   5.019 -0.0871 -0.6341 -0.2847
37970SOL    HW116865   7.063   6.463   5.048 -0.3350  0.4583  0.1842
37970SOL    HW216866   7.132   6.541   4.938 -0.0030  0.0370  0.0885
37971SOL     OW16867   1.135   9.509   2.930 -0.1165  0.2293 -0.4249
37971SOL    HW116868   1.157   9.449   2.858  1.0049 -2.2863  1.8380
37971SOL    HW216869   1.210   9.567   2.937 -0.4841  0.8711 -1.6029
37972SOL     OW16870   1.823   5.706   5.871  0.3185  0.0343  0.7567
37972SOL    HW116871   1.796   5.754   5.793 -0.0627 -2.0554 -0.4635
37972SOL    HW216872   1.775   5.623   5.867 -0.2373  0.1262  3.5952
37973SOL     OW16873  10.024   5.665   3.337 -0.1734  0.4063  0.0106
37973SOL    HW116874  10.046   5.582   3.381 -1.3305 -0.5355 -1.0813
37973SOL    HW216875  10.092   5.676   3.271 -0.2741  0.0465 -0.1600
37974SOL     OW16876   0.066  10.601   2.749  0.2646  0.0358  0.2429
37974SOL    HW116877   0.110  10.557   2.821  0.1402  0.6165  0.6836
37974SOL    HW216878   0.036  10.684   2.786 -1.5909 -0.5270  0.0846
37975SOL     OW16879  10.223   1.553   8.946 -0.1810 -0.8264  0.3263
37975SOL    HW116880  10.291   1.620   8.956 -1.7584  0.6956  1.5240
37975SOL    HW216881  10.248   1.484   9.009  0.7385 -0.7351  0.0693
37976SOL     OW16882   8.660   8.087   3.031  0.3104 -0.6077  0.3458
37976SOL    HW116883   8.594   8.050   3.090  0.6235 -0.5076  0.7623
37976SOL    HW216884   8.627   8.068   2.944 -0.9461  0.5946  0.5183
37977SOL     OW16885   2.834  10.235   9.490  0.6559 -0.1603 -0.2386
37977SOL    HW116886   2.867  10.298   9.554 -1.5924  1.0900 -0.1949
37977SOL    HW216887   2.800  10.163   9.543 -1.1068  0.8247  0.0837
37978SOL     OW16888   3.731   5.243   3.219 -0.1630  0.1085 -0.4282
37978SOL    HW116889   3.790   5.213   3.151  1.1704 -1.2069  1.2084
37978SOL    HW216890   3.732   5.338   3.212  3.5098  0.2786  0.5339
37979SOL     OW16891   4.514   2.451   8.537 -0.0630 -0.5362 -0.5603
37979SOL    HW116892   4.600   2.464   8.577 -0.4769  3.0141 -0.5097
37979SOL    HW216893   4.530   2.461   8.443 -0.3766 -0.0523 -0.5637
37980SOL     OW16894   1.299   3.126   8.092 -0.4548  0.4031 -0.2481
37980SOL    HW116895   1.367   3.185   8.060 -0.7006  1.2354  0.7014
37980SOL    HW216896   1.346   3.057   8.138 -0.2495  1.0408  0.5117
37981SOL     OW16897   4.075   7.972   8.563 -0.4269  0.1331  0.2785
37981SOL    HW116898   4.086   7.978   8.658 -0.4979  1.9432  0.1970
37981SOL    HW216899   3.983   7.989   8.548  0.0635  2.6786 -0.2719
37982SOL     OW16900   7.318   9.703   0.450 -0.8031 -0.5108 -0.6939
37982SOL    HW116901   7.395   9.709   0.507  0.1108 -0.3255 -1.9174
37982SOL    HW216902   7.264   9.635   0.491 -0.1610 -0.4043  0.3732
37983SOL     OW16903   1.623   7.059   4.753  0.1001  0.2590 -0.0876
37983SOL    HW116904   1.644   7.080   4.844 -1.8799 -1.7571  0.9254
37983SOL    HW216905   1.704   7.025   4.716  0.5818 -0.2430  1.3746
37984SOL     OW16906   9.249   3.490   9.093  0.4607  0.1702 -0.0906
37984SOL    HW116907   9.279   3.401   9.110  1.8128  0.7730  0.9511
37984SOL    HW216908   9.164   3.496   9.138 -0.4728 -1.0634 -1.6156
37985SOL     OW16909   9.206   9.558   3.636  0.3136  0.2390 -0.2432
37985SOL    HW116910   9.275   9.577   3.699 -0.9105 -0.6970  1.4361
37985SOL    HW216911   9.238   9.595   3.554  2.9486 -0.4281  0.3947
37986SOL     OW16912   4.943  10.183   1.174  0.0140  0.2658  0.4636
37986SOL    HW116913   4.873  10.206   1.235  0.1107 -1.9714  1.5437
37986SOL    HW216914   4.967  10.265   1.131 -2.2090  1.3515  1.1691
37987SOL     OW16915   6.241   3.233   1.609  0.8132  0.2280 -0.6928
37987SOL    HW116916   6.175   3.298   1.631 -1.3902 -2.0347 -0.2378
37987SOL    HW216917   6.301   3.233   1.684 -0.4597  0.1530  0.3549
37988SOL     OW16918   6.342   6.454   0.793  0.0897 -0.2483  0.6482
37988SOL    HW116919   6.353   6.367   0.756  0.3450  0.0861 -0.0772
37988SOL    HW216920   6.350   6.441   0.888 -0.1997 -1.0543  0.5710
37989SOL     OW16921  10.672   3.172   5.171 -0.0544  0.3389  0.4678
37989SOL    HW116922  10.712   3.243   5.121  1.0681  0.4288  1.4776
37989SOL    HW216923  10.612   3.215   5.231  1.9890  0.6450  2.3879
37990SOL     OW16924   6.455   2.048   9.032  0.1046  0.4748 -0.4061
37990SOL    HW116925   6.491   2.065   8.945 -0.0404 -1.3108 -0.8539
37990SOL    HW216926   6.478   2.126   9.083  0.6607  1.3231 -1.8775
37991SOL     OW16927   1.131  10.494   3.680 -0.0441  0.0427  0.1764
37991SOL    HW116928   1.098  10.570   3.631  1.3418  0.9715  0.6172
37991SOL    HW216929   1.223  10.515   3.698  0.2116 -1.4935  0.8238
37992SOL     OW16930   9.653   6.645   9.471 -0.4563  0.5172  0.3074
37992SOL    HW116931   9.604   6.585   9.527 -0.4217 -0.9404 -1.1462
37992SOL    HW216932   9.693   6.588   9.404  0.0284  2.1076 -0.8095
37993SOL     OW16933   9.916   9.002  10.664  0.2057 -0.1862 -0.3656
37993SOL    HW116934   9.923   8.952  10.584 -0.6850  0.9227 -1.1706
37993SOL    HW216935   9.981   9.072  10.654 -0.0376  0.0638 -0.2109
37994SOL     OW16936   1.785   8.965   9.907  0.1543  0.0202 -0.4008
37994SOL    HW116937   1.839   8.955   9.828 -0.0050 -1.4796 -0.3607
37994SOL    HW216938   1.705   9.006   9.876  0.9165  1.3912 -0.6362
37995SOL     OW16939  10.256   5.709   4.417  0.2022 -0.7334  0.1834
37995SOL    HW116940  10.274   5.622   4.453 -0.3244 -0.6540  0.6523
37995SOL    HW216941  10.203   5.752   4.484  0.0890 -0.2081 -0.2396
37996SOL     OW16942   1.696   9.144   8.755  0.1020  0.2821  0.3112
37996SOL    HW116943   1.634   9.075   8.732 -0.3165  0.7576  0.0004
37996SOL    HW216944   1.738   9.167   8.672 -0.8155  1.4224  0.1384
37997SOL     OW16945   1.590   9.190   5.929  0.1833 -0.0251 -0.0553
37997SOL    HW116946   1.542   9.152   5.856 -0.1724 -0.1552  0.2445
37997SOL    HW216947   1.619   9.276   5.897  0.4996 -0.3067 -0.5349
37998SOL     OW16948   3.927   5.912   1.411 -0.0844  0.2647  0.2103
37998SOL    HW116949   3.885   5.907   1.325 -0.2558  0.7973  0.2597
37998SOL    HW216950   3.931   5.821   1.441 -3.8354  0.3488  1.4584
37999SOL     OW16951   7.989   6.390   4.227 -1.0042 -0.1179  0.2082
37999SOL    HW116952   8.013   6.356   4.141 -0.8937 -1.2673  0.6770
37999SOL    HW216953   7.990   6.485   4.216  3.6303  0.0518  0.1062
38000SOL     OW16954   5.393   0.916   8.728 -0.7204 -0.0384  0.1480
38000SOL    HW116955   5.457   0.978   8.762  0.0063 -0.7209  0.0742
38000SOL    HW216956   5.394   0.931   8.633  0.4665 -1.0506 -0.0314
38001SOL     OW16957   7.686   5.368   9.228 -0.3251 -0.3389  0.1935
38001SOL    HW116958   7.771   5.333   9.204  0.5142  1.7373 -0.0821
38001SOL    HW216959   7.680   5.354   9.323  1.4096  1.5318  0.6542
38002SOL     OW16960   3.642   7.466  10.359 -0.7199 -0.5152  0.0227
38002SOL    HW116961   3.561   7.509  10.389 -1.2815 -1.7311  0.3025
38002SOL    HW216962   3.635   7.467  10.264 -0.6217  0.1933  0.0140
38003SOL     OW16963   9.242   3.896   1.829  0.3058  0.0095  0.2055
38003SOL    HW116964   9.329   3.933   1.838  0.3993 -0.1405 -0.0689
38003SOL    HW216965   9.197   3.953   1.766 -0.5494  1.4149  2.0011
38004SOL     OW16966   8.653   4.847  10.006  0.2113 -0.4836  0.1693
38004SOL    HW116967   8.725   4.845  10.068  0.7107  1.3250 -0.3035
38004SOL    HW216968   8.633   4.940   9.994 -1.1932 -0.8739 -0.8592
38005SOL     OW16969   8.928   5.669   8.893 -0.3372 -0.0345 -0.1058
38005SOL    HW116970   8.930   5.573   8.900 -0.0860 -0.1013 -0.8838
38005SOL    HW216971   8.930   5.685   8.798  0.7894  0.7587  0.0273
38006SOL     OW16972   7.057   2.821   1.406  0.4820 -0.2263  0.0077
38006SOL    HW116973   7.093   2.785   1.325 -0.0947  0.3381 -0.5059
38006SOL    HW216974   7.094   2.909   1.412 -2.5714  1.3369 -1.7932
38007SOL     OW16975   7.899   2.197   9.442 -0.2018 -0.0954  0.0997
38007SOL    HW116976   7.919   2.139   9.369 -1.5952 -0.1381 -0.2701
38007SOL    HW216977   7.894   2.284   9.402 -2.1928 -0.2661 -0.1340
38008SOL     OW16978   8.557   5.374   1.210 -0.2385 -0.0222  0.1768
38008SOL    HW116979   8.596   5.459   1.232 -0.3503 -0.2539  1.3250
38008SOL    HW216980   8.478   5.396   1.161  0.9846  0.4662 -1.7070
38009SOL     OW16981   4.325   0.680   8.036  0.5111  0.5036 -0.4013
38009SOL    HW116982   4.386   0.607   8.029  0.3573  0.0062  2.4218
38009SOL    HW216983   4.380   0.755   8.060  0.1351  0.0576  2.1355
38010SOL     OW16984   4.139   3.877   9.895 -0.1963 -0.0253 -0.5127
38010SOL    HW116985   4.091   3.820   9.835 -0.7370  0.1475 -0.2463
38010SOL    HW216986   4.086   3.956   9.902 -0.0113  0.0592 -0.0077
38011SOL     OW16987   3.448   8.886   3.849  0.4039  0.6626  0.5466
38011SOL    HW116988   3.488   8.909   3.933  1.2526 -0.1874  0.3846
38011SOL    HW216989   3.429   8.970   3.808  2.9752  1.1560  0.1885
38012SOL     OW16990   7.905   0.718   1.129 -0.3933 -0.2087  0.1560
38012SOL    HW116991   8.001   0.720   1.126 -0.3587  0.0713  1.1753
38012SOL    HW216992   7.884   0.717   1.222 -1.4111  1.4951 -0.0222
38013SOL     OW16993   9.936  10.281   7.059 -0.2164 -0.3641 -0.4070
38013SOL    HW116994   9.869  10.314   6.999 -2.1218 -0.7222  1.4316
38013SOL    HW216995   9.934  10.185   7.047 -0.9861 -0.4780  0.6042
38014SOL     OW16996   1.051   1.928   9.746 -0.2698  0.0510  0.3361
38014SOL    HW116997   0.967   1.937   9.790  0.3163  1.0411  1.3010
38014SOL    HW216998   1.044   1.982   9.668  0.1395  1.8247  1.4751
38015SOL     OW16999  10.653  10.378   5.568 -0.2628 -0.4568  0.2857
38015SOL    HW117000  10.633  10.414   5.654  0.5890 -0.1702  0.3734
38015SOL    HW217001  10.583  10.410   5.511 -1.3192 -1.3767  1.0449
38016SOL     OW17002   6.494   3.717   5.703  0.0852  0.5271  0.0982
38016SOL    HW117003   6.462   3.713   5.793  0.9542  0.4278  0.4102
38016SOL    HW217004   6.454   3.796   5.667 -1.9373 -0.5332 -0.1060
38017SOL     OW17005   5.611   3.781  10.157 -0.1441  0.2879  0.2304
38017SOL    HW117006   5.650   3.695  10.141 -0.4371  0.3434 -0.8858
38017SOL    HW217007   5.626   3.798  10.250  1.2097 -0.3128  0.1344
38018SOL     OW17008  10.684   6.425   3.596  0.2743  0.0672 -0.4293
38018SOL    HW117009  10.756   6.363   3.607  0.9413  0.6999 -1.0928
38018SOL    HW217010  10.687   6.449   3.504  0.9682  2.1875  0.0955
38019SOL     OW17011   0.337   8.274   9.850  0.2897  0.2969 -0.2642
38019SOL    HW117012   0.303   8.314   9.770  0.9511  0.5192 -0.4440
38019SOL    HW217013   0.260   8.244   9.897 -0.0839 -0.6242 -1.4069
38020SOL     OW17014   2.139   2.453   6.726  0.1776 -0.0174  0.3244
38020SOL    HW117015   2.061   2.426   6.677 -0.6390  2.8613 -0.1405
38020SOL    HW217016   2.109   2.525   6.781  2.5600  1.3182 -0.0076
38021SOL     OW17017   3.465   6.749   4.932 -0.8507 -0.2668  0.3823
38021SOL    HW117018   3.522   6.684   4.891 -1.1243 -0.4492  0.2907
38021SOL    HW217019   3.465   6.823   4.871  0.9328  0.5919  1.3349
38022SOL     OW17020   8.401   7.727   7.802  0.4230  0.5132  0.7493
38022SOL    HW117021   8.429   7.724   7.711  1.1200  1.1223  0.9376
38022SOL    HW217022   8.314   7.685   7.802 -0.3875  2.0986 -0.4879
38023SOL     OW17023   6.075   1.826   9.251  0.3490  0.1137  0.0776
38023SOL    HW117024   6.054   1.769   9.324 -0.5156  1.0498  0.5793
38023SOL    HW217025   6.031   1.787   9.175  1.3859 -0.9513 -0.0138
38024SOL     OW17026   2.801   9.403   5.405  0.4561 -0.5982 -0.1436
38024SOL    HW117027   2.739   9.343   5.449 -0.6260 -0.3797 -1.3177
38024SOL    HW217028   2.869   9.419   5.471  0.4038 -2.5373  0.4571
38025SOL     OW17029   5.465   0.802   5.305 -0.2491 -0.7083 -0.0690
38025SOL    HW117030   5.536   0.739   5.321  1.5443  1.2422  0.1549
38025SOL    HW217031   5.424   0.771   5.224  1.4777 -1.4224 -0.7278
38026SOL     OW17032   3.244   2.604   2.507 -0.3817 -0.4208  0.0997
38026SOL    HW117033   3.219   2.516   2.535 -0.5500 -0.2836  0.3950
38026SOL    HW217034   3.338   2.600   2.492 -0.5826 -0.9738 -1.1177
38027SOL     OW17035   6.126   5.377   7.249  0.2589 -0.4152 -0.3215
38027SOL    HW117036   6.134   5.300   7.193  2.1720 -0.4223 -0.1169
38027SOL    HW217037   6.195   5.366   7.315  0.6300  1.4826 -0.3188
38028SOL     OW17038   0.632   5.202   4.111 -0.0429 -0.0075  0.0853
38028SOL    HW117039   0.539   5.209   4.086 -0.2405  1.3757  1.0476
38028SOL    HW217040   0.635   5.128   4.171 -0.4872 -0.1581 -0.0681
38029SOL     OW17041   6.526  10.157  10.693  0.4333  0.1427  0.0654
38029SOL    HW117042   6.467  10.212  10.640  0.8377 -0.1356 -0.6853
38029SOL    HW217043   6.503  10.068  10.668  0.8319  0.0195  0.1408
38030SOL     OW17044   8.650   7.571   0.449  0.2270  0.0400  0.1469
38030SOL    HW117045   8.559   7.557   0.474 -0.5452  2.1373 -1.2369
38030SOL    HW217046   8.669   7.501   0.386 -1.4017  1.2044 -1.7523
38031SOL     OW17047   7.364   5.212   3.194  0.2365  0.3346 -0.8775
38031SOL    HW117048   7.406   5.127   3.184  1.3214  0.6371  0.7883
38031SOL    HW217049   7.352   5.223   3.288 -0.1045  1.9209 -1.0668
38032SOL     OW17050   2.379   2.788   1.440  0.4565 -0.0173 -0.3365
38032SOL    HW117051   2.440   2.813   1.510  1.3806 -1.5426 -0.5512
38032SOL    HW217052   2.307   2.746   1.486  1.0632 -1.0193 -0.2814
38033SOL     OW17053   1.434   1.395   8.289  0.1437  0.5893  0.2437
38033SOL    HW117054   1.404   1.425   8.204  0.2778  0.8416  0.2873
38033SOL    HW217055   1.515   1.442   8.305 -0.7157  1.7834  1.2398
38034SOL     OW17056   4.676   8.805   4.293 -0.6388 -0.8478  0.1946
38034SOL    HW117057   4.742   8.863   4.329 -0.8728 -0.1110 -0.5427
38034SOL    HW217058   4.645   8.753   4.368 -0.1208 -0.3291  0.7685
38035SOL     OW17059   2.292   3.042   7.983 -0.3643  0.6856 -0.5421
38035SOL    HW117060   2.265   3.090   7.905  0.1603  0.2695 -0.9915
38035SOL    HW217061   2.352   2.975   7.950  0.3149  0.8686  0.2883
38036SOL     OW17062   3.968   5.484   1.698 -0.0253  0.4887  0.4403
38036SOL    HW117063   3.998   5.410   1.750 -1.5277  0.1850  0.9271
38036SOL    HW217064   3.873   5.473   1.693  0.0230  0.5801 -2.2429
38037SOL     OW17065  10.038   9.946   7.190 -0.0317 -0.5582  0.2931
38037SOL    HW117066  10.038   9.957   7.095 -0.9262 -1.4626  0.1837
38037SOL    HW217067   9.950   9.916   7.212 -0.9040  2.5899  1.7798
38038SOL     OW17068   4.580   4.824   0.235  0.1005 -0.0095  0.8678
38038SOL    HW117069   4.666   4.793   0.207 -0.8244  0.0571 -2.4579
38038SOL    HW217070   4.532   4.745   0.260  0.1062 -0.4731 -0.4982
38039SOL     OW17071  10.643   9.254   1.206  0.3005 -0.1590 -0.0292
38039SOL    HW117072  10.673   9.292   1.124  1.0404 -1.2054 -0.2623
38039SOL    HW217073  10.595   9.175   1.180  2.4411 -1.7575  0.5798
38040SOL     OW17074   9.430   3.929   0.965  0.3366 -0.4733 -0.0896
38040SOL    HW117075   9.494   4.000   0.964 -0.0581 -0.0857  0.9759
38040SOL    HW217076   9.367   3.954   0.897  1.0048 -0.5860 -0.7677
38041SOL     OW17077   0.824   0.790   0.564  0.3494 -0.5730 -0.5615
38041SOL    HW117078   0.792   0.824   0.648 -0.4293 -1.2521 -0.5706
38041SOL    HW217079   0.856   0.868   0.518  0.6347 -0.1652  0.2893
38042SOL     OW17080   0.328   9.081   8.779 -0.1304 -0.3182  0.1066
38042SOL    HW117081   0.387   9.154   8.762  0.0112 -0.8901 -2.0653
38042SOL    HW217082   0.383   9.013   8.817  0.3780 -0.4349 -0.8349
38043SOL     OW17083  10.361   3.092   9.858  1.1685 -0.5319  0.2071
38043SOL    HW117084  10.385   3.185   9.854  0.3076 -0.2832  0.4772
38043SOL    HW217085  10.414   3.057   9.930 -2.3283  1.0484  3.9497
38044SOL     OW17086   0.804   9.626   5.072  0.1936  0.2219 -0.2135
38044SOL    HW117087   0.755   9.591   4.997 -0.0247  2.6116 -1.2693
38044SOL    HW217088   0.737   9.643   5.138  0.0681  0.2550 -0.3483
38045SOL     OW17089   9.967   2.425   5.160 -0.0931  0.2625 -0.2472
38045SOL    HW117090  10.018   2.351   5.127  0.9793  0.5276  0.7575
38045SOL    HW217091  10.031   2.495   5.173 -1.0130  1.2274 -0.7018
38046SOL     OW17092   4.574   4.374   7.543  0.3364 -0.2203  0.2911
38046SOL    HW117093   4.620   4.291   7.536 -1.3579 -1.2239  0.4557
38046SOL    HW217094   4.608   4.415   7.622  0.4495 -1.2481  0.7818
38047SOL     OW17095   7.910   9.772   0.034  0.0941  0.3062  0.0830
38047SOL    HW117096   7.986   9.718   0.012 -0.3799 -0.0268 -0.7923
38047SOL    HW217097   7.839   9.738  -0.021  0.1947  2.9327 -1.8852
38048SOL     OW17098   4.773   6.369   1.438 -0.4045 -0.5500  0.1809
38048SOL    HW117099   4.739   6.439   1.494 -0.6505 -0.0028 -0.6381
38048SOL    HW217100   4.858   6.347   1.476 -0.3635  0.1383  0.5012
38049SOL     OW17101   4.591   9.910   8.741  0.1334  0.4903  0.1040
38049SOL    HW117102   4.512   9.957   8.714 -0.1489 -0.4736 -0.8052
38049SOL    HW217103   4.646   9.910   8.662  0.5304  0.1181  0.3807
38050SOL     OW17104   3.904   0.535   0.649 -0.1018 -0.9815 -1.0320
38050SOL    HW117105   3.993   0.568   0.650 -0.0295 -1.1466  0.7793
38050SOL    HW217106   3.859   0.589   0.584  1.1207 -0.4069 -1.4272
38051SOL     OW17107   6.664   4.019   8.929  0.1306  0.7997 -0.1251
38051SOL    HW117108   6.594   4.002   8.992  0.0955  1.1186 -0.0775
38051SOL    HW217109   6.732   3.955   8.950 -0.4915 -0.0680 -0.6972
38052SOL     OW17110   1.367   9.049   5.088 -0.4098 -0.2137  0.0974
38052SOL    HW117111   1.369   8.957   5.062  0.0593 -0.4743  0.9869
38052SOL    HW217112   1.275   9.074   5.084 -0.3695 -0.2734 -1.6182
38053SOL     OW17113   0.603   8.033   2.102 -0.1166 -0.4016 -0.2433
38053SOL    HW117114   0.574   7.970   2.036  0.0416  0.1489 -0.8527
38053SOL    HW217115   0.569   8.117   2.072  0.4786 -0.0479  0.0427
38054SOL     OW17116   4.434   1.963   2.039 -0.0370 -0.1982  0.1885
38054SOL    HW117117   4.388   2.043   2.013 -0.5027 -0.0364  1.4425
38054SOL    HW217118   4.389   1.934   2.118  0.8988 -1.0341  0.4350
38055SOL     OW17119   1.181  10.351   3.932  0.5036 -0.0454  0.1047
38055SOL    HW117120   1.145  10.410   3.865 -1.4393 -0.2873  0.8911
38055SOL    HW217121   1.215  10.277   3.882 -0.9425 -0.2358 -0.6378
38056SOL     OW17122   3.507   9.136   0.122  0.1094  0.1411  0.3637
38056SOL    HW117123   3.602   9.149   0.114  0.2732 -0.7043  0.8060
38056SOL    HW217124   3.470   9.224   0.116  1.0052  0.6079  1.3249
38057SOL     OW17125   4.274   0.910   4.341  0.0893 -0.0327 -0.0540
38057SOL    HW117126   4.197   0.855   4.325 -0.2669  0.1818  0.8481
38057SOL    HW217127   4.240   0.999   4.343  0.7804  0.3574 -2.3222
38058SOL     OW17128   6.549   3.644   4.072  0.7366 -0.0275 -0.5549
38058SOL    HW117129   6.469   3.662   4.023  0.9589 -2.1510 -1.8176
38058SOL    HW217130   6.553   3.549   4.077  1.1055  0.0720  3.0743
38059SOL     OW17131   8.770   8.635   0.035  0.2160  0.3569 -0.0103
38059SOL    HW117132   8.841   8.641   0.099  0.6035  1.1845 -0.5124
38059SOL    HW217133   8.735   8.547   0.047  1.3190 -0.0598  0.2536
38060SOL     OW17134   5.122   1.789   7.637 -0.4763 -0.4410  0.0396
38060SOL    HW117135   5.132   1.848   7.712  1.3597 -1.9837  1.0731
38060SOL    HW217136   5.049   1.827   7.588 -0.4726  1.7289  1.5349
38061SOL     OW17137   3.851   3.834   8.563 -0.5937 -0.1734 -0.1793
38061SOL    HW117138   3.865   3.861   8.472 -0.5176 -0.0139 -0.1202
38061SOL    HW217139   3.860   3.738   8.561 -1.8467 -0.3059 -0.5738
38062SOL     OW17140  10.230   1.402   9.344 -0.3481  0.1674 -0.0038
38062SOL    HW117141  10.230   1.396   9.440 -0.2838 -0.2160 -0.0289
38062SOL    HW217142  10.320   1.383   9.319 -0.5244 -0.4427 -0.1849
38063SOL     OW17143   5.088   9.834   6.657 -0.0829 -1.4410  0.4679
38063SOL    HW117144   5.110   9.858   6.568 -0.4928 -0.3834  0.6440
38063SOL    HW217145   5.049   9.747   6.650 -1.8926 -0.5935 -0.6315
38064SOL     OW17146   7.259   9.704   6.489  0.0259  0.2895  0.0816
38064SOL    HW117147   7.189   9.701   6.554 -0.5335  0.8572 -0.4909
38064SOL    HW217148   7.221   9.750   6.414  0.7920  0.0021 -0.4962
38065SOL     OW17149   8.484  10.584   3.819 -0.2303  0.2529  0.5047
38065SOL    HW117150   8.460  10.677   3.820 -1.2499  0.0056  0.0609
38065SOL    HW217151   8.400  10.538   3.822  0.1491 -0.6634 -1.7036
38066SOL     OW17152   5.551   4.234   3.594  0.5230  0.1098 -0.0936
38066SOL    HW117153   5.563   4.315   3.545 -0.3335  0.1738 -0.2226
38066SOL    HW217154   5.613   4.239   3.666  1.4437  0.2472 -0.8821
38067SOL     OW17155   2.761   0.992   3.122  0.1591 -0.1992 -0.1240
38067SOL    HW117156   2.822   0.919   3.108  0.7077  0.4507 -1.3006
38067SOL    HW217157   2.814   1.071   3.106 -0.6854  0.4201  0.0714
38068SOL     OW17158   6.242  10.502  10.181 -0.4812  0.4204  0.5297
38068SOL    HW117159   6.329  10.487  10.144  0.7833  1.2757  2.9203
38068SOL    HW217160   6.210  10.581  10.137 -0.2721 -0.1545 -0.6880
38069SOL     OW17161  10.435   7.772   8.832 -0.4190  0.5928 -0.0701
38069SOL    HW117162  10.353   7.724   8.841 -0.6430  0.8728 -0.5547
38069SOL    HW217163  10.467   7.783   8.921 -0.5049 -0.2143  0.0621
38070SOL     OW17164   0.842   1.788   5.909  0.4015  0.2568  0.1538
38070SOL    HW117165   0.937   1.791   5.907  0.4305 -0.3359  0.2557
38070SOL    HW217166   0.822   1.697   5.934 -0.1595  0.8569  2.0557
38071SOL     OW17167   3.180   5.532   7.845  0.0502  0.1844 -0.5481
38071SOL    HW117168   3.189   5.627   7.857 -1.4372  0.4749 -1.5398
38071SOL    HW217169   3.109   5.507   7.904  0.3973 -0.3296 -0.3336
38072SOL     OW17170   5.322   7.425  10.172 -0.2314  0.8307  0.1609
38072SOL    HW117171   5.418   7.431  10.181 -0.3327  1.7539  0.8340
38072SOL    HW217172   5.308   7.350  10.115  0.8853  0.4346  0.3738
38073SOL     OW17173   4.355   4.034   8.383  0.3740 -0.6973 -0.1636
38073SOL    HW117174   4.332   4.071   8.298  0.6395  0.2301  0.1651
38073SOL    HW217175   4.445   4.063   8.399 -0.3281  0.8272  1.3196
38074SOL     OW17176   1.353   1.477   8.918 -0.1707 -0.6482 -0.6902
38074SOL    HW117177   1.374   1.539   8.848 -0.2945  0.9585  0.6174
38074SOL    HW217178   1.271   1.510   8.955  1.2746  0.2466  1.9843
38075SOL     OW17179   0.699   6.916   9.062  0.6231 -0.3269 -0.3432
38075SOL    HW117180   0.651   6.887   9.140  0.1728 -1.2287 -0.9374
38075SOL    HW217181   0.729   6.835   9.021 -0.8287 -0.0246 -2.1649
38076SOL     OW17182   3.547   2.181   5.103 -0.1435 -0.0876 -0.2005
38076SOL    HW117183   3.605   2.139   5.039  0.5949 -0.3033  0.5824
38076SOL    HW217184   3.596   2.177   5.185  0.0185  2.4183 -0.1018
38077SOL     OW17185   0.139   2.116   3.574  0.1411 -0.3074  0.5074
38077SOL    HW117186   0.083   2.106   3.651 -0.6932  0.6044  0.0390
38077SOL    HW217187   0.228   2.123   3.610 -0.0975 -1.0973  1.3015
38078SOL     OW17188   8.852   9.697   3.798 -0.2247  0.1256  0.3092
38078SOL    HW117189   8.922   9.725   3.740  0.6573  0.9965  1.7081
38078SOL    HW217190   8.852   9.763   3.868 -1.1464 -0.9456  1.3632
38079SOL     OW17191   5.189   1.911   9.087 -0.0962 -0.1213  0.0104
38079SOL    HW117192   5.174   1.931   8.995 -2.5754 -0.3787  0.2929
38079SOL    HW217193   5.166   1.818   9.096 -0.5306  0.0615  0.9913
38080SOL     OW17194   1.047   9.898   4.215 -0.2119  0.2195  0.2337
38080SOL    HW117195   0.969   9.843   4.218 -0.1988  0.1689 -0.2549
38080SOL    HW217196   1.059   9.919   4.122  2.5235 -2.9202 -0.3094
38081SOL     OW17197   4.967  10.329   3.250 -0.1730 -0.2565 -0.1367
38081SOL    HW117198   5.017  10.252   3.223 -2.1862 -2.3745  1.6798
38081SOL    HW217199   5.032  10.399   3.255  1.8605 -1.9101 -1.4401
38082SOL     OW17200   1.260   6.707   6.072  0.2970  0.2456  0.4438
38082SOL    HW117201   1.337   6.762   6.088 -0.3188  1.0883  0.5616
38082SOL    HW217202   1.193   6.741   6.130 -0.7479  0.7499 -0.9995
38083SOL     OW17203   5.574   6.233   9.049  0.0368  0.4886  0.2018
38083SOL    HW117204   5.659   6.191   9.032 -0.5788 -0.6241 -0.1774
38083SOL    HW217205   5.595   6.305   9.108  1.2841  0.3710 -0.0623
38084SOL     OW17206   7.362   0.207   9.525 -0.2821  0.5540  0.0644
38084SOL    HW117207   7.423   0.280   9.519 -2.0460  2.0917  0.2673
38084SOL    HW217208   7.418   0.129   9.523  1.7458  1.9087  1.3260
38085SOL     OW17209   6.748   1.630   1.058 -0.0411  0.0170 -0.4853
38085SOL    HW117210   6.748   1.577   0.979 -0.0721  1.4175 -1.4653
38085SOL    HW217211   6.692   1.705   1.037 -2.1602 -0.7653  1.7234
38086SOL     OW17212   3.086   4.318   8.168  0.2462  0.4563  0.9347
38086SOL    HW117213   3.006   4.345   8.213 -3.1704 -4.9573 -0.9365
38086SOL    HW217214   3.112   4.238   8.212  0.0236 -2.0006 -2.9419
38087SOL     OW17215   3.352   4.864  10.647  0.2870  0.1232  0.3733
38087SOL    HW117216   3.424   4.907  10.602 -0.8149  0.4633 -1.1330
38087SOL    HW217217   3.366   4.771  10.631  1.2016  0.0641  1.3849
38088SOL     OW17218   6.945   4.199   3.103  0.0048  0.0058  0.0944
38088SOL    HW117219   7.037   4.219   3.091  0.0322  0.3227  0.7750
38088SOL    HW217220   6.900   4.283   3.089 -0.1178 -0.0079  0.4006
38089SOL     OW17221   1.627  10.004   7.976 -0.1984  0.1607 -0.4524
38089SOL    HW117222   1.578   9.983   7.897  1.3991  0.8276 -1.6711
38089SOL    HW217223   1.692   9.934   7.983 -0.4206  0.0225  0.3818
38090SOL     OW17224   1.547   6.214   4.726 -0.0328 -0.0622 -0.5044
38090SOL    HW117225   1.591   6.292   4.759 -0.4058 -0.1518  0.2072
38090SOL    HW217226   1.557   6.149   4.795  0.5192 -0.7519 -1.2017
38091SOL     OW17227   2.894   9.591   8.743 -0.2965 -0.1521 -0.4994
38091SOL    HW117228   2.965   9.652   8.722  0.7750 -0.8690  0.8648
38091SOL    HW217229   2.917   9.510   8.698 -1.3164  0.1836 -1.6769
38092SOL     OW17230   6.139   3.997  10.103 -0.2955 -0.1527 -0.0740
38092SOL    HW117231   6.096   4.065  10.051  0.3230  0.5936  0.3773
38092SOL    HW217232   6.174   4.043  10.179 -1.4390 -1.2570  1.1833
38093SOL     OW17233   9.790   9.583   5.978  0.2754  0.0984 -0.3129
38093SOL    HW117234   9.790   9.662   6.033  3.0394 -0.3766  0.5222
38093SOL    HW217235   9.776   9.617   5.889 -3.1789  0.9817  0.4148
38094SOL     OW17236   8.506   3.273  10.149 -0.0643 -0.4650 -0.2435
38094SOL    HW117237   8.440   3.324  10.195  0.4476 -1.7713  2.1266
38094SOL    HW217238   8.590   3.305  10.182  0.2949 -2.0724  0.5291
38095SOL     OW17239   5.824   0.786   2.812 -0.3616 -0.3453 -0.3224
38095SOL    HW117240   5.913   0.754   2.829 -1.0819 -1.2802  2.0960
38095SOL    HW217241   5.795   0.736   2.736  0.5761 -1.3243 -0.0635
38096SOL     OW17242  10.428   7.577  10.682  0.6289  0.4979  0.6404
38096SOL    HW117243  10.486   7.526  10.625 -0.5817 -0.1637 -0.0407
38096SOL    HW217244  10.432   7.531  10.766 -0.8097 -1.0684 -0.0918
38097SOL     OW17245   0.053   8.570   3.220  0.4257  0.0619  0.1666
38097SOL    HW117246  -0.011   8.562   3.149  0.0765  1.2707  0.3214
38097SOL    HW217247   0.038   8.492   3.274 -1.8507  0.9494  0.9317
38098SOL     OW17248   4.686   9.667   4.012 -0.3480  0.2828  0.3595
38098SOL    HW117249   4.622   9.689   3.944 -0.0120  1.1694  0.3234
38098SOL    HW217250   4.760   9.630   3.965 -1.2416 -1.8196  0.4799
38099SOL     OW17251   0.678   5.339   6.022 -0.4162  0.1711 -0.1098
38099SOL    HW117252   0.644   5.407   5.965 -0.9467  2.6396  2.8718
38099SOL    HW217253   0.607   5.322   6.084  1.1038 -0.0551  1.6811
38100SOL     OW17254   7.707   8.802   7.868 -0.1633 -0.0658 -0.2207
38100SOL    HW117255   7.722   8.739   7.939  1.8170  0.4652 -0.1095
38100SOL    HW217256   7.618   8.834   7.883 -0.6232 -1.6213  0.6697
38101SOL     OW17257   3.801  10.122   6.095  0.1084  0.4477  0.0215
38101SOL    HW117258   3.831  10.134   6.005  1.0830  0.6397  0.3578
38101SOL    HW217259   3.880  10.103   6.144 -0.5186 -0.4381  0.7120
38102SOL     OW17260   7.489   5.505   7.643  0.0204 -0.1455 -0.1891
38102SOL    HW117261   7.405   5.537   7.610 -0.9127 -2.9497 -0.8242
38102SOL    HW217262   7.476   5.496   7.737  0.0803  0.6920 -0.0978
38103SOL     OW17263  10.449   7.584   4.426  0.2223 -0.4122  0.2042
38103SOL    HW117264  10.541   7.606   4.412  0.2606  0.1443  1.2678
38103SOL    HW217265  10.402   7.666   4.412  0.0756 -0.2795  1.3652
38104SOL     OW17266   8.076   0.900   3.684  0.0637  0.3743  0.2167
38104SOL    HW117267   8.081   0.805   3.688 -1.9987  0.1665 -0.8558
38104SOL    HW217268   8.143   0.926   3.621  0.7521 -0.3218  0.6456
38105SOL     OW17269   0.729   1.786   8.924  0.3650 -0.2807  0.3065
38105SOL    HW117270   0.699   1.873   8.949 -0.8581 -0.2380 -1.1545
38105SOL    HW217271   0.649   1.736   8.908  0.9377 -0.4964 -2.6181
38106SOL     OW17272   2.571   7.532   7.944 -0.5668  0.3279 -0.8408
38106SOL    HW117273   2.516   7.467   7.899 -2.2213  0.5109  0.7946
38106SOL    HW217274   2.525   7.615   7.929  1.6800  1.2927 -3.1708
38107SOL     OW17275   5.178   4.437   8.367  0.0103  0.4817 -0.4015
38107SOL    HW117276   5.164   4.529   8.349  0.1763  0.3910 -1.0200
38107SOL    HW217277   5.096   4.407   8.406 -0.1106  0.8430 -0.3758
38108SOL     OW17278   7.138   6.425   4.386  0.0006 -0.4337  0.1337
38108SOL    HW117279   7.048   6.396   4.397 -0.0906 -0.6833 -1.1473
38108SOL    HW217280   7.151   6.430   4.291  1.7122 -1.5942  0.2533
38109SOL     OW17281  10.659   5.788   4.134  0.4688  0.2488  0.1096
38109SOL    HW117282  10.646   5.820   4.224  1.9712  2.7383 -0.4642
38109SOL    HW217283  10.578   5.811   4.089  1.0267  2.2445  0.0349
38110SOL     OW17284   8.114   4.757   7.767 -0.4952  0.2872  0.3056
38110SOL    HW117285   8.107   4.666   7.796  0.1382  0.4243  0.9226
38110SOL    HW217286   8.109   4.809   7.847 -0.0456  0.7508  0.0413
38111SOL     OW17287   5.307   3.171   3.245 -0.4145 -0.1763  0.1495
38111SOL    HW117288   5.279   3.087   3.209 -0.9967 -0.4621  1.2200
38111SOL    HW217289   5.282   3.236   3.179 -1.7823 -0.6444  0.1804
38112SOL     OW17290   2.286   5.669   4.598 -0.3815 -0.1339 -0.3916
38112SOL    HW117291   2.325   5.643   4.682 -0.0922 -0.9711 -0.7719
38112SOL    HW217292   2.248   5.588   4.563  0.1932  0.0188 -1.4292
38113SOL     OW17293   6.777   7.376  10.219  0.4637 -0.4546 -0.3457
38113SOL    HW117294   6.770   7.305  10.155  0.8003 -0.6724 -0.1446
38113SOL    HW217295   6.686   7.393  10.246  0.4140 -1.0940 -0.0862
38114SOL     OW17296   8.969  10.272   8.273 -0.0943  0.0226  0.2880
38114SOL    HW117297   9.021  10.297   8.350 -0.2518 -0.5908  0.6023
38114SOL    HW217298   8.880  10.263   8.307 -0.1609 -0.2597  0.0311
38115SOL     OW17299   8.527   6.071   8.354  0.2127  0.0465  0.4989
38115SOL    HW117300   8.562   6.074   8.443  0.2827 -2.3301  0.6124
38115SOL    HW217301   8.601   6.091   8.298  0.0620  2.0310  0.9455
38116SOL     OW17302   9.243   1.793   6.986 -0.0520 -0.0542  0.4344
38116SOL    HW117303   9.293   1.822   6.909 -0.7032  1.9874  0.7126
38116SOL    HW217304   9.222   1.702   6.968  0.7095  0.0695 -1.3305
38117SOL     OW17305   0.983   3.805   3.046  0.0789 -0.2927 -0.0580
38117SOL    HW117306   0.952   3.846   2.965 -0.4310  0.8001  0.6630
38117SOL    HW217307   0.908   3.809   3.105  0.6763 -0.3505  0.7236
38118SOL     OW17308   5.998   3.956   0.044  0.3575 -0.6450  0.3166
38118SOL    HW117309   6.057   4.029   0.060 -2.6608  2.0067  0.3234
38118SOL    HW217310   5.960   3.937   0.130  0.0392 -1.2397  0.0503
38119SOL     OW17311   8.969   3.092   1.324 -0.2586  0.1770 -0.8318
38119SOL    HW117312   8.927   3.006   1.330 -0.4795  0.3069 -0.4269
38119SOL    HW217313   8.996   3.100   1.233  0.1264 -0.4899 -0.7848
38120SOL     OW17314   3.012   9.527   9.467  0.3717 -0.2027 -0.1395
38120SOL    HW117315   3.061   9.566   9.540  1.1158  0.3159 -0.9005
38120SOL    HW217316   3.036   9.434   9.469 -0.4059 -0.4028  0.8900
38121SOL     OW17317   5.326   7.107   9.254 -0.1593  0.1634  0.4370
38121SOL    HW117318   5.400   7.167   9.245  1.7091 -1.9216  1.0262
38121SOL    HW217319   5.303   7.111   9.347 -0.4030  0.3762  0.3674
38122SOL     OW17320   3.116   3.894   6.902  0.4488 -0.1540 -0.2922
38122SOL    HW117321   3.088   3.970   6.850  2.2588  1.1610  0.5654
38122SOL    HW217322   3.163   3.839   6.840 -0.7863 -0.5672 -0.8976
38123SOL     OW17323  10.429   9.407   2.331  0.1941 -0.7305 -0.7453
38123SOL    HW117324  10.423   9.401   2.236  2.3643 -1.5476 -0.8708
38123SOL    HW217325  10.430   9.316   2.361 -0.7921 -0.4768  0.1036
38124SOL     OW17326   3.551   4.601   1.711  0.2908  0.3743 -0.3105
38124SOL    HW117327   3.563   4.608   1.616 -0.4273  0.6830 -0.3891
38124SOL    HW217328   3.638   4.585   1.745  0.8836  2.3168 -0.8210
38125SOL     OW17329   9.108   2.784   3.250  0.2630 -0.4006 -0.3813
38125SOL    HW117330   9.118   2.837   3.328  0.1933 -1.3137  0.2577
38125SOL    HW217331   9.066   2.703   3.280  1.9686 -1.5900 -0.9867
38126SOL     OW17332   8.645   3.043   8.061  0.2682 -0.2470  0.5046
38126SOL    HW117333   8.715   2.985   8.095  1.2691  1.2955  1.1895
38126SOL    HW217334   8.613   3.088   8.139  0.2582  0.8934 -0.1524
38127SOL     OW17335   6.791   7.707   4.614 -0.1817  0.5629 -0.1133
38127SOL    HW117336   6.886   7.710   4.613 -0.0494 -1.2226 -2.3857
38127SOL    HW217337   6.768   7.702   4.707  2.0193 -0.1854  0.4581
38128SOL     OW17338  10.599   3.136   2.866  0.3350  0.2949  0.2216
38128SOL    HW117339  10.530   3.174   2.811  0.4738  0.7973  0.3853
38128SOL    HW217340  10.582   3.172   2.953  1.8571  1.9191 -0.0827
38129SOL     OW17341  10.038   8.960   2.618  0.3162 -0.3299  0.1437
38129SOL    HW117342  10.094   8.985   2.544  0.8860 -0.4530  0.5283
38129SOL    HW217343  10.081   8.999   2.695  1.2007 -2.3967  0.7672
38130SOL     OW17344   9.377   1.268   8.024 -0.1020  0.2834  0.2221
38130SOL    HW117345   9.361   1.206   8.095 -0.9174  0.1749 -0.0443
38130SOL    HW217346   9.356   1.354   8.061  1.6138  0.4961  0.7778
38131SOL     OW17347   3.653   3.818   4.639  0.0684 -0.0516  0.6500
38131SOL    HW117348   3.562   3.793   4.659 -0.5203  2.5621  1.6220
38131SOL    HW217349   3.702   3.793   4.717  0.0850 -0.8984  0.3774
38132SOL     OW17350   2.514  10.545   6.574  0.8030 -0.4901 -0.0619
38132SOL    HW117351   2.546  10.635   6.570 -0.5077 -0.0423 -1.7756
38132SOL    HW217352   2.433  10.549   6.623  0.6660 -0.7050 -0.2635
38133SOL     OW17353   1.986   7.686   4.438  0.3797  0.2283  0.4137
38133SOL    HW117354   2.035   7.641   4.369  2.4319  1.3006  1.0764
38133SOL    HW217355   1.903   7.638   4.444  1.1432 -1.4032 -1.1061
38134SOL     OW17356   4.719   6.742   8.615 -0.0685 -0.0838 -0.6845
38134SOL    HW117357   4.652   6.684   8.577  0.0822 -0.1616 -0.8337
38134SOL    HW217358   4.672   6.823   8.633 -0.4675 -0.5136  0.2595
38135SOL     OW17359   1.068  10.051   1.406  0.1634 -0.3780 -0.0964
38135SOL    HW117360   1.159  10.050   1.436 -0.0729 -0.1065  0.6439
38135SOL    HW217361   1.016  10.043   1.486 -0.4573 -1.4482 -0.5917
38136SOL     OW17362   0.264   4.652   3.806  0.4230 -0.6341  0.0129
38136SOL    HW117363   0.277   4.627   3.898  1.3785  0.2788  0.1550
38136SOL    HW217364   0.325   4.596   3.758  0.9728 -0.1297  0.1032
38137SOL     OW17365   5.625   6.052   6.403 -0.6406  0.1510  0.3612
38137SOL    HW117366   5.689   6.113   6.437  0.2339 -0.0041 -0.9385
38137SOL    HW217367   5.660   5.965   6.424  0.5985  0.0008 -1.9359
38138SOL     OW17368   8.536   6.768   5.291 -0.0067 -0.4300  0.2732
38138SOL    HW117369   8.592   6.698   5.257  0.1748 -1.3494  2.3108
38138SOL    HW217370   8.592   6.845   5.291  0.3451 -0.6793 -0.4025
38139SOL     OW17371  10.243   9.318   8.481 -0.1902  0.1625 -0.5213
38139SOL    HW117372  10.155   9.288   8.505 -0.3366  0.2892 -0.8908
38139SOL    HW217373  10.291   9.238   8.459 -0.2960  0.1153 -0.5839
38140SOL     OW17374   4.588   3.018   9.412 -0.3433  0.1236  0.2936
38140SOL    HW117375   4.572   2.929   9.442 -0.4889  0.3170  0.7926
38140SOL    HW217376   4.683   3.028   9.413 -0.3072 -0.1454 -0.1217
38141SOL     OW17377   4.008   3.494   9.300  0.0486 -0.1943  0.2283
38141SOL    HW117378   3.992   3.546   9.221 -2.3267 -0.6761  0.3488
38141SOL    HW217379   4.068   3.549   9.352 -2.3469  2.5434  0.3669
38142SOL     OW17380   0.937  10.234   9.039  0.1200 -0.1754  0.0801
38142SOL    HW117381   1.002  10.270   9.099  0.7335  0.3942 -0.8843
38142SOL    HW217382   0.965  10.144   9.025  0.7237  0.0640 -0.3226
38143SOL     OW17383   6.815   6.950   2.656  0.0202  0.2758  0.2712
38143SOL    HW117384   6.876   6.986   2.592  1.7163 -0.2969  1.4850
38143SOL    HW217385   6.729   6.959   2.615  1.1395 -1.7860 -2.9299
38144SOL     OW17386   7.853   7.486   8.180 -0.0454 -0.6548  0.2825
38144SOL    HW117387   7.788   7.418   8.196  1.2893 -2.4310 -1.3718
38144SOL    HW217388   7.851   7.500   8.085  1.3939 -0.1738  0.2924
38145SOL     OW17389   9.053   9.033   5.940 -0.1977  0.1015  0.1792
38145SOL    HW117390   9.110   9.074   5.875 -0.9348  0.3641 -0.3266
38145SOL    HW217391   9.088   9.060   6.025 -0.0038  0.8515 -0.1337
38146SOL     OW17392   1.224   1.474   9.889 -0.0526 -0.6011 -0.6489
38146SOL    HW117393   1.185   1.560   9.872 -0.4476 -0.5460  0.4156
38146SOL    HW217394   1.283   1.489   9.964  0.4610 -1.1043 -0.9452
38147SOL     OW17395   4.087   7.418   1.347 -0.5860  0.6781  0.1392
38147SOL    HW117396   4.147   7.422   1.421 -0.4703  0.9471  0.0338
38147SOL    HW217397   4.098   7.330   1.312 -0.6340  0.5531  0.4346
38148SOL     OW17398   3.520   2.626   3.570 -0.1128  0.0984  0.0069
38148SOL    HW117399   3.449   2.632   3.632  0.5163  0.4722  0.7051
38148SOL    HW217400   3.497   2.552   3.514 -0.0169 -1.1359  1.5460
38149SOL     OW17401   4.711   8.368   7.861 -0.0471  0.4043  0.1384
38149SOL    HW117402   4.724   8.462   7.871 -2.7672  0.9265 -0.4162
38149SOL    HW217403   4.753   8.329   7.937  0.2313  2.1572  0.9176
38150SOL     OW17404   0.863   4.682   1.594 -0.3937 -0.4291 -0.2404
38150SOL    HW117405   0.798   4.661   1.527  0.6686 -0.6821 -1.2218
38150SOL    HW217406   0.945   4.692   1.546  0.1337  0.8369  0.8446
38151SOL     OW17407   4.419   8.043   9.426  0.1818  0.3751  0.7527
38151SOL    HW117408   4.396   8.034   9.518  0.1418  1.7032  0.8953
38151SOL    HW217409   4.464   7.961   9.404  0.3624  0.1201  1.9955
38152SOL     OW17410   0.241   9.991  10.579 -0.1276  0.3088 -0.8498
38152SOL    HW117411   0.328   9.950  10.578 -0.4482 -0.3854 -1.4343
38152SOL    HW217412   0.236  10.040  10.497 -0.7293 -0.6483 -1.4074
38153SOL     OW17413   3.787  10.511   4.088 -0.2564  0.5228 -0.3854
38153SOL    HW117414   3.817  10.586   4.141 -0.1686  0.4427 -0.3215
38153SOL    HW217415   3.720  10.548   4.030 -1.1422  0.3900  0.5373
38154SOL     OW17416   9.544   3.517   1.814  0.0960  0.0598 -0.0608
38154SOL    HW117417   9.541   3.536   1.908 -1.7267 -0.7926  0.0944
38154SOL    HW217418   9.584   3.430   1.808  0.3837  0.1928 -0.1009
38155SOL     OW17419   2.701   6.007   1.811 -0.2893  0.5547  0.5822
38155SOL    HW117420   2.618   5.983   1.771 -0.6290  0.9197  1.0635
38155SOL    HW217421   2.678   6.070   1.879  0.3429  0.4115  0.9379
38156SOL     OW17422  10.573   1.814   3.770 -0.0738  0.0773  0.2843
38156SOL    HW117423  10.488   1.769   3.765  0.5050 -1.2074  1.4158
38156SOL    HW217424  10.636   1.744   3.783  0.9916  1.1445  1.0204
38157SOL     OW17425   4.166   9.846   7.744 -0.1687  0.0342 -0.1535
38157SOL    HW117426   4.133   9.921   7.794 -0.3189  0.4588 -0.8721
38157SOL    HW217427   4.114   9.847   7.663  0.9256  0.1170 -0.8700
38158SOL     OW17428   4.660   9.569   5.874  0.2203 -0.0827 -0.3496
38158SOL    HW117429   4.709   9.522   5.808 -1.2121  0.3990 -1.8194
38158SOL    HW217430   4.568   9.549   5.856 -0.2118 -0.6918  2.0969
38159SOL     OW17431   1.515   2.905   0.388 -0.3897 -0.1240 -0.0350
38159SOL    HW117432   1.455   2.880   0.458 -0.6211 -1.2107 -0.5998
38159SOL    HW217433   1.470   2.880   0.308  0.3312  0.1089 -0.5260
38160SOL     OW17434   6.015   9.383   0.788  0.4669 -0.1585 -0.1277
38160SOL    HW117435   6.004   9.309   0.728  1.6503  0.0395 -0.6315
38160SOL    HW217436   5.993   9.460   0.735  1.3697  0.0055 -0.2884
38161SOL     OW17437   8.695   6.597   3.343 -0.3617 -0.5351 -0.7002
38161SOL    HW117438   8.747   6.519   3.325 -0.1180 -0.6359  0.3760
38161SOL    HW217439   8.604   6.567   3.341 -0.2322 -1.3612  1.7570
38162SOL     OW17440   4.998  10.178   0.374 -0.2929 -0.0911 -0.0969
38162SOL    HW117441   5.075  10.122   0.363  0.2941  0.6467  0.1718
38162SOL    HW217442   4.969  10.195   0.284 -1.7742 -2.5254 -0.1614
38163SOL     OW17443   4.702  10.135   7.222 -0.1930  0.2989  0.2556
38163SOL    HW117444   4.640  10.063   7.213 -0.4722  0.7622 -2.8019
38163SOL    HW217445   4.653  10.212   7.194  1.0341  1.1209  0.2892
38164SOL     OW17446   0.519  10.069   8.734 -0.1366 -0.2858  0.0617
38164SOL    HW117447   0.586  10.094   8.797 -0.1234  0.3859 -0.2111
38164SOL    HW217448   0.456  10.018   8.785  0.8480 -1.4125  0.2107
38165SOL     OW17449   3.275   7.840  10.275  0.2174  0.3761  0.0432
38165SOL    HW117450   3.343   7.858  10.211 -1.5942  1.1449 -1.7668
38165SOL    HW217451   3.249   7.749  10.258  0.3895  0.2652  0.3571
38166SOL     OW17452   4.379   8.079   2.102  0.1997 -0.3974 -0.0726
38166SOL    HW117453   4.458   8.028   2.119  1.7084  2.1722  1.3167
38166SOL    HW217454   4.328   8.026   2.040  2.5717 -2.5470 -0.3295
38167SOL     OW17455  10.694   1.658   0.665 -0.8009  0.3484  0.1199
38167SOL    HW117456  10.667   1.569   0.688 -1.9941  0.0136 -2.3359
38167SOL    HW217457  10.781   1.667   0.705  0.3026 -2.7053 -1.2752
38168SOL     OW17458   3.571   6.212   8.639  0.2683  0.1771  0.1268
38168SOL    HW117459   3.550   6.180   8.552  1.0898 -1.6542  0.5513
38168SOL    HW217460   3.667   6.216   8.641  0.2303  2.4328  0.2280
38169SOL     OW17461   3.927   7.327   2.469  0.1503  0.4512 -0.2151
38169SOL    HW117462   3.909   7.343   2.377  0.4901  0.2482 -0.3202
38169SOL    HW217463   4.023   7.332   2.476  0.1638 -0.0870  0.0205
38170SOL     OW17464   7.765   9.927   7.818  0.6525  0.1258 -0.3956
38170SOL    HW117465   7.796   9.850   7.865  1.7614 -0.1507 -1.5349
38170SOL    HW217466   7.731   9.893   7.735 -0.1442  0.7299 -0.3338
38171SOL     OW17467   3.217   4.261   9.524 -0.1071  0.5551 -0.5170
38171SOL    HW117468   3.179   4.280   9.438  0.1309 -1.7587 -1.2040
38171SOL    HW217469   3.308   4.289   9.517  0.0510 -0.1182 -1.2210
38172SOL     OW17470   6.145   0.242   5.541  0.5300 -0.0330  0.0663
38172SOL    HW117471   6.211   0.259   5.474  1.5295  0.7563  1.2101
38172SOL    HW217472   6.063   0.232   5.492  1.4341 -0.7645 -1.3623
38173SOL     OW17473   3.289   2.073   6.419 -0.0988 -0.1216  0.2138
38173SOL    HW117474   3.303   2.140   6.351 -0.3145  0.1212  0.4054
38173SOL    HW217475   3.241   2.004   6.374  0.2576 -0.2165 -0.0258
38174SOL     OW17476   5.928   7.986   7.593  0.0645  0.0707 -0.2648
38174SOL    HW117477   6.001   7.944   7.549 -0.9232 -2.8436  0.6327
38174SOL    HW217478   5.853   7.970   7.536 -0.9131 -2.2857  1.5333
38175SOL     OW17479   8.527   6.053   0.443 -0.1935 -0.0323 -0.3632
38175SOL    HW117480   8.623   6.047   0.442 -0.1363  0.7899 -1.0709
38175SOL    HW217481   8.505   6.088   0.357 -1.3126 -2.5761 -1.2074
38176SOL     OW17482   8.716   8.856   1.608  0.2665  0.1191  0.2701
38176SOL    HW117483   8.783   8.865   1.677  0.4416 -1.0423  0.2655
38176SOL    HW217484   8.764   8.820   1.534 -0.2289 -0.0804  0.0462
38177SOL     OW17485   4.591   2.577   2.542 -0.5697  0.5095 -0.1555
38177SOL    HW117486   4.499   2.604   2.545 -0.8417 -0.4008  0.3561
38177SOL    HW217487   4.588   2.485   2.513  0.2880  0.8891 -1.5148
38178SOL     OW17488   7.284   8.125   3.591  0.2242  0.3481 -0.2794
38178SOL    HW117489   7.197   8.155   3.564 -0.7292 -1.6252  0.3670
38178SOL    HW217490   7.303   8.051   3.532  0.7969 -0.1511  0.5076
38179SOL     OW17491   1.785   5.827   4.698  0.9996 -0.3874  0.4701
38179SOL    HW117492   1.814   5.753   4.645 -0.0776 -0.4107 -0.1277
38179SOL    HW217493   1.700   5.800   4.732 -1.3473  1.8819 -2.8629
38180SOL     OW17494   4.315   0.411   8.200  0.1434  0.2873  0.3613
38180SOL    HW117495   4.331   0.492   8.247  0.6042  1.0447 -1.0347
38180SOL    HW217496   4.377   0.348   8.237  1.0822  1.0971  0.2166
38181SOL     OW17497   3.597  10.208   5.080  0.4636 -0.3775  1.0527
38181SOL    HW117498   3.658  10.139   5.106 -0.0773 -0.0788  3.3199
38181SOL    HW217499   3.514  10.182   5.119  0.2983  1.6181  2.1476
38182SOL     OW17500   4.029   7.852   8.280  0.5053  0.2781  0.3191
38182SOL    HW117501   4.011   7.758   8.284 -1.6885  0.6448  0.4199
38182SOL    HW217502   4.068   7.873   8.364 -0.1485 -0.3559  0.7965
38183SOL     OW17503   8.108   2.667   7.836  0.5985  0.3203 -0.0736
38183SOL    HW117504   8.192   2.690   7.876  0.2768  0.5408  0.4911
38183SOL    HW217505   8.071   2.602   7.896  0.4134  0.1417 -0.3799
38184SOL     OW17506   3.145   1.371   7.189 -0.5435 -0.1977 -0.1751
38184SOL    HW117507   3.166   1.430   7.117  0.1727 -1.4291 -1.0131
38184SOL    HW217508   3.229   1.349   7.228 -0.6694 -1.4396 -0.5339
38185SOL     OW17509   5.295   5.502   9.608 -0.5556 -0.5604  0.1472
38185SOL    HW117510   5.371   5.532   9.658 -1.0977 -1.4562  1.5716
38185SOL    HW217511   5.265   5.580   9.562  1.0273 -0.1166 -0.1997
38186SOL     OW17512   9.378   7.330   7.154 -0.3891 -0.4375  0.4009
38186SOL    HW117513   9.368   7.340   7.059  0.3559  0.3619  0.3941
38186SOL    HW217514   9.394   7.419   7.186 -1.2428 -0.6080  1.3682
38187SOL     OW17515   2.883   7.229   1.092 -0.0436  0.0777  0.3082
38187SOL    HW117516   2.949   7.237   1.023 -0.9933  0.9458 -0.5246
38187SOL    HW217517   2.869   7.318   1.122  0.3340 -0.2847  1.6357
38188SOL     OW17518   7.573   5.380   4.546  0.2653  0.2912  0.5171
38188SOL    HW117519   7.495   5.400   4.494 -1.1287 -1.3315  1.8280
38188SOL    HW217520   7.620   5.462   4.551 -1.4814  1.4022 -0.1423
38189SOL     OW17521   9.660   2.896   6.022  0.0182  0.0921  0.2293
38189SOL    HW117522   9.655   2.843   6.101  0.7196 -0.2068  0.0866
38189SOL    HW217523   9.599   2.855   5.961  1.3503 -1.2499 -0.2652
38190SOL     OW17524   6.445   8.589   1.046 -0.0477  0.0339 -0.0679
38190SOL    HW117525   6.400   8.526   0.990  0.2390  1.1418 -1.6246
38190SOL    HW217526   6.409   8.574   1.134 -0.9457 -1.3695 -0.6440
38191SOL     OW17527   1.844   4.300   0.108 -0.3604  0.6462  0.2712
38191SOL    HW117528   1.771   4.293   0.047 -0.9617  2.9992  0.6212
38191SOL    HW217529   1.833   4.386   0.150  1.2632  0.0613  2.0883
38192SOL     OW17530  10.195   5.163   9.704  0.1129 -0.8466 -0.9821
38192SOL    HW117531  10.232   5.217   9.634  2.4764 -0.0250  0.7381
38192SOL    HW217532  10.104   5.192   9.712  0.4360  0.6263 -2.2301
38193SOL     OW17533   9.671   0.365   5.455  0.0927  0.0438  0.5049
38193SOL    HW117534   9.677   0.400   5.366 -0.6091  0.9265  0.7833
38193SOL    HW217535   9.722   0.426   5.508 -0.7935  0.4339  0.9343
38194SOL     OW17536   0.284   8.025   2.341  0.3548 -0.5302 -0.2937
38194SOL    HW117537   0.280   7.982   2.256 -1.0701  1.4828 -1.3263
38194SOL    HW217538   0.192   8.041   2.364  0.5892 -2.2795  2.3636
38195SOL     OW17539   0.112   2.815   4.326  0.0632 -0.1320 -0.9376
38195SOL    HW117540   0.199   2.788   4.299 -0.2201 -0.2003 -1.8242
38195SOL    HW217541   0.126   2.894   4.378  0.7040 -0.5439 -0.4815
38196SOL     OW17542   1.904   3.535   0.959 -0.2540  0.4624 -0.0077
38196SOL    HW117543   1.955   3.613   0.936 -1.4940  0.5379 -2.9654
38196SOL    HW217544   1.965   3.462   0.951  0.1526  0.8397 -0.3201
38197SOL     OW17545   7.396   5.673  10.680  0.5481  0.5148  0.3458
38197SOL    HW117546   7.330   5.654  10.614 -0.2301  2.3162  0.5430
38197SOL    HW217547   7.359   5.640  10.762 -1.0028  3.0782  0.7742
38198SOL     OW17548   9.312   7.755  10.482  0.1534 -0.0312  0.5128
38198SOL    HW117549   9.314   7.659  10.490  1.3520  0.0539  1.6948
38198SOL    HW217550   9.251   7.783  10.551  0.1686  0.0784  0.4808
38199SOL     OW17551   2.059   4.546  10.221  0.6205 -0.3917 -0.1150
38199SOL    HW117552   2.149   4.529  10.248  0.9338 -0.5346 -1.2203
38199SOL    HW217553   2.065   4.624  10.166 -0.1440  0.4908  0.9941
38200SOL     OW17554   0.737   3.346   9.566 -0.0478 -0.0689 -0.7469
38200SOL    HW117555   0.670   3.412   9.550 -0.1693  0.3236  1.1673
38200SOL    HW217556   0.695   3.282   9.622  0.3027 -1.4142 -1.9631
38201SOL     OW17557   7.886   4.426   6.802 -0.1634  0.0988 -0.1569
38201SOL    HW117558   7.974   4.412   6.768 -0.8043 -2.3268 -1.1009
38201SOL    HW217559   7.898   4.458   6.891  1.7383 -1.8730  0.3740
38202SOL     OW17560   2.462   7.188   1.413  0.0631 -0.0649  0.0544
38202SOL    HW117561   2.487   7.164   1.324  0.1932 -1.2362  0.3882
38202SOL    HW217562   2.395   7.123   1.438  0.1001  0.1848  0.8383
38203SOL     OW17563   5.630   0.013   8.155 -0.1510  0.2970 -0.6034
38203SOL    HW117564   5.559   0.072   8.179 -1.5545 -1.6038  0.1711
38203SOL    HW217565   5.678  -0.001   8.237 -1.6607 -1.9178 -0.0040
38204SOL     OW17566   3.970   2.326   3.372 -0.4676 -1.0063 -0.0404
38204SOL    HW117567   3.935   2.406   3.334  2.5843  0.0295 -0.9832
38204SOL    HW217568   3.912   2.307   3.446 -0.3071  3.1808  1.4271
38205SOL     OW17569   4.152   1.796   7.586  0.0716  0.4131 -0.7784
38205SOL    HW117570   4.233   1.750   7.608 -0.1495 -0.2004 -1.2132
38205SOL    HW217571   4.179   1.886   7.567  0.5736  0.3447 -0.3946
38206SOL     OW17572   4.533   6.783   6.944 -0.0537 -0.0714 -0.1464
38206SOL    HW117573   4.623   6.788   6.912 -0.1456 -0.9710 -0.5790
38206SOL    HW217574   4.529   6.701   6.992 -0.4459  0.3371  0.5237
38207SOL     OW17575   2.861   1.002   8.767 -0.3291 -0.4566  0.4174
38207SOL    HW117576   2.871   0.910   8.743 -0.6289 -0.4947  0.4281
38207SOL    HW217577   2.767   1.013   8.780 -0.0371 -0.8992  3.5321
38208SOL     OW17578   2.286   4.918   7.372  0.9100  0.2041  0.2204
38208SOL    HW117579   2.281   4.902   7.278  1.1077 -2.4845  0.5892
38208SOL    HW217580   2.253   5.008   7.383  0.6842  0.5049 -2.3554
38209SOL     OW17581   9.356   9.952   9.693  0.0134 -0.2709  0.3748
38209SOL    HW117582   9.296   9.947   9.767 -1.4342  1.3288 -0.6334
38209SOL    HW217583   9.383  10.044   9.690  1.5380 -0.7028  0.0327
38210SOL     OW17584   6.026   3.807   4.329  0.0013  0.5763  0.3947
38210SOL    HW117585   6.035   3.734   4.391  2.2047  0.4588  0.0180
38210SOL    HW217586   6.052   3.884   4.379 -1.9002  1.0928  0.6601
38211SOL     OW17587   8.672   6.525   3.761  0.1821 -0.5009 -0.1552
38211SOL    HW117588   8.622   6.464   3.707 -1.3101  0.1808  0.3867
38211SOL    HW217589   8.689   6.599   3.704 -1.1718  0.1079  0.1938
38212SOL     OW17590  10.219   3.473   2.926  0.4791 -0.6450 -0.6260
38212SOL    HW117591  10.174   3.515   2.852 -2.4382 -0.0208  1.3232
38212SOL    HW217592  10.218   3.379   2.905 -2.0539 -0.6863 -0.6371
38213SOL     OW17593   3.504   5.557   3.728  0.0707 -0.0131  0.3998
38213SOL    HW117594   3.422   5.568   3.679  0.6636  1.6363 -0.3328
38213SOL    HW217595   3.550   5.488   3.681 -0.5904 -0.4564  0.3849
38214SOL     OW17596   9.104  10.607   5.772  0.1929  0.0784  0.1112
38214SOL    HW117597   9.025  10.655   5.799  0.5428  1.9850 -1.9295
38214SOL    HW217598   9.106  10.615   5.677  2.1685 -1.0544 -0.0082
38215SOL     OW17599   5.864   0.679   4.088  0.1743 -0.1311  0.7327
38215SOL    HW117600   5.809   0.640   4.157 -2.4454  1.0353 -0.5446
38215SOL    HW217601   5.856   0.618   4.014  1.9651 -0.7447  0.9926
38216SOL     OW17602   0.580   9.942   2.011 -0.2886 -0.6817  0.0946
38216SOL    HW117603   0.538   9.989   1.939  1.2841 -0.5321 -0.7650
38216SOL    HW217604   0.639  10.006   2.050  0.6574 -1.4628 -0.0325
38217SOL     OW17605   4.998   0.095  10.406  0.0531  0.3544  0.1262
38217SOL    HW117606   5.093   0.080  10.407  0.0675 -0.1039  3.2480
38217SOL    HW217607   4.961   0.015  10.444 -1.3697  1.3260  0.8979
38218SOL     OW17608  10.579   3.050   0.741 -0.2720  0.1368 -0.4040
38218SOL    HW117609  10.539   3.013   0.820  1.5356 -0.2927  0.3563
38218SOL    HW217610  10.611   2.973   0.693  0.7904  0.5034 -0.3180
38219SOL     OW17611   6.897   0.464   0.714 -0.6134  0.6908  0.3673
38219SOL    HW117612   6.932   0.393   0.662 -1.9315 -0.4330  0.9475
38219SOL    HW217613   6.912   0.543   0.662  0.0944 -0.1180 -0.6709
38220SOL     OW17614   5.073   8.360   9.190  0.1349 -0.4092  0.3051
38220SOL    HW117615   5.034   8.273   9.187  2.9923 -1.8950  1.6455
38220SOL    HW217616   5.153   8.352   9.137  0.2729  1.5434  0.1240
38221SOL     OW17617   0.579   4.332   8.677  0.2299  0.2001 -0.1965
38221SOL    HW117618   0.613   4.366   8.594  1.0567 -1.1476 -0.4264
38221SOL    HW217619   0.649   4.347   8.740 -0.6527  1.8470  0.4618
38222SOL     OW17620   7.518   2.321   6.926 -0.3273 -0.8539 -0.2785
38222SOL    HW117621   7.613   2.322   6.912  0.5299  2.2855  3.7790
38222SOL    HW217622   7.491   2.412   6.911 -2.7386 -1.6639 -1.2110
38223SOL     OW17623   2.031   7.441  10.604  0.1010  0.2333 -0.6664
38223SOL    HW117624   2.079   7.432  10.521  1.9513  1.5254  0.1984
38223SOL    HW217625   1.965   7.508  10.586  1.5173  1.6595 -0.6995
38224SOL     OW17626   1.653   8.660   8.752  0.2422  0.1153  0.1527
38224SOL    HW117627   1.696   8.592   8.701 -0.2927  1.7181 -2.6636
38224SOL    HW217628   1.723   8.720   8.777  0.6521 -1.1520  2.2907
38225SOL     OW17629   5.559   6.479   1.578  0.2713  0.0630  0.5080
38225SOL    HW117630   5.610   6.544   1.529  0.7513 -0.4916  0.2463
38225SOL    HW217631   5.508   6.530   1.641  1.3531  0.6342  0.9632
38226SOL     OW17632   3.428   8.024   4.288 -0.0740  0.3887  0.1524
38226SOL    HW117633   3.361   7.963   4.321  2.2108 -2.2016  0.3157
38226SOL    HW217634   3.413   8.027   4.194  1.2510 -2.5011 -0.2334
38227SOL     OW17635   1.601   5.454   3.444 -0.7045  0.6070 -0.5406
38227SOL    HW117636   1.595   5.358   3.450 -1.1258  0.7018  0.9878
38227SOL    HW217637   1.675   5.477   3.501 -0.1873  1.1638 -1.4070
38228SOL     OW17638   8.883   8.695   7.673  0.1294  0.3236 -0.0533
38228SOL    HW117639   8.846   8.669   7.757 -0.6002 -0.7265 -0.6756
38228SOL    HW217640   8.959   8.748   7.696 -1.3378  1.9816  1.2521
38229SOL     OW17641   5.541   7.664   6.523 -0.2427 -0.4257  0.5960
38229SOL    HW117642   5.627   7.623   6.511 -0.5853 -0.9872  0.0067
38229SOL    HW217643   5.558   7.739   6.580  0.2255 -2.0313  2.7141
38230SOL     OW17644   7.916   8.664   9.549  0.2458  0.5456  0.6218
38230SOL    HW117645   7.944   8.754   9.565  1.0725  0.3923  0.0957
38230SOL    HW217646   7.897   8.629   9.636  0.8679  0.9187  0.9108
38231SOL     OW17647   2.441   4.670  10.380 -0.3146  0.2615  0.8982
38231SOL    HW117648   2.510   4.615  10.418 -1.7312 -1.8471  0.6051
38231SOL    HW217649   2.402   4.616  10.311 -0.9043  2.2005 -0.3605
38232SOL     OW17650   5.400  10.508   0.679 -0.6148  0.0305 -0.3435
38232SOL    HW117651   5.331  10.457   0.637 -2.4525  1.1203  1.1796
38232SOL    HW217652   5.461  10.443   0.713 -0.0062 -0.9305 -2.9759
38233SOL     OW17653   2.950   0.093   5.297 -0.0585  0.4439  0.3425
38233SOL    HW117654   3.006   0.125   5.227  0.6600  1.9013  1.5401
38233SOL    HW217655   2.897   0.025   5.256  1.2215  0.3812 -1.2877
38234SOL     OW17656   6.662   4.611   9.141 -0.2342 -0.2344 -0.2600
38234SOL    HW117657   6.653   4.694   9.188  1.4500 -0.1102 -0.0788
38234SOL    HW217658   6.576   4.571   9.146 -1.0270  1.3915 -0.1444
38235SOL     OW17659   1.246   3.786   0.370 -0.0308  0.3412 -0.0954
38235SOL    HW117660   1.327   3.768   0.322 -0.2565  0.4281 -0.5133
38235SOL    HW217661   1.184   3.814   0.303 -0.1617  1.0955  0.3287
38236SOL     OW17662   2.249  10.491   4.453 -0.5374  0.3487  0.6377
38236SOL    HW117663   2.155  10.473   4.458 -0.2764 -1.0477  0.6664
38236SOL    HW217664   2.269  10.530   4.539 -1.3064  1.8395  0.1746
38237SOL     OW17665   8.589   6.886   7.844 -0.0715 -0.3838  0.6131
38237SOL    HW117666   8.500   6.913   7.866 -0.9731 -1.5638 -1.3193
38237SOL    HW217667   8.610   6.819   7.909 -1.2498 -1.2315  0.1593
38238SOL     OW17668   9.207   6.113   5.382  0.1620  0.0034 -0.2801
38238SOL    HW117669   9.181   6.069   5.301  0.7142 -1.9814  0.5647
38238SOL    HW217670   9.133   6.170   5.403 -0.3018  0.0050 -1.7595
38239SOL     OW17671   0.087   5.653   5.263 -0.6926 -0.3792 -0.1646
38239SOL    HW117672   0.020   5.683   5.202  0.2341 -2.2275 -2.2292
38239SOL    HW217673   0.048   5.666   5.349 -2.1203  2.2088 -1.0902
38240SOL     OW17674   9.988   2.848   2.939 -0.2312 -0.3014 -0.4300
38240SOL    HW117675  10.041   2.895   3.003 -1.0362  2.6611 -1.7744
38240SOL    HW217676   9.902   2.839   2.981 -0.2169 -0.0910 -0.3560
38241SOL     OW17677   8.880   5.387   7.864 -0.4130 -0.2227 -0.0871
38241SOL    HW117678   8.954   5.333   7.890 -1.2540 -1.0645  0.6505
38241SOL    HW217679   8.811   5.366   7.928 -0.5350  2.3196  0.7456
38242SOL     OW17680   1.741   3.028   8.631 -0.7969  0.1434 -0.3920
38242SOL    HW117681   1.680   2.956   8.642 -0.7605  0.0943 -0.5160
38242SOL    HW217682   1.827   2.987   8.633 -0.6821  0.3859  1.4309
38243SOL     OW17683   3.786   6.660   1.304 -0.0984 -0.3115  0.1285
38243SOL    HW117684   3.713   6.598   1.305 -0.7573  0.4035 -1.3151
38243SOL    HW217685   3.855   6.614   1.256 -0.1390 -0.3919  0.1462
38244SOL     OW17686   8.255   1.277   8.431  0.2192 -0.0553  0.2195
38244SOL    HW117687   8.301   1.197   8.407  0.4605  0.5643 -1.4879
38244SOL    HW217688   8.320   1.346   8.419 -0.4478  0.5646  0.1308
38245SOL     OW17689   3.215   4.804   1.116  0.1294  0.1348 -0.4114
38245SOL    HW117690   3.221   4.839   1.205 -2.2181 -0.8887  0.2240
38245SOL    HW217691   3.122   4.804   1.097  0.4025 -1.8081 -2.0047
38246SOL     OW17692   1.496   1.121   5.639  0.4420 -0.1530  0.1764
38246SOL    HW117693   1.499   1.189   5.571  1.2591  0.4127  0.7550
38246SOL    HW217694   1.449   1.048   5.598  1.8834 -0.2597 -1.3819
38247SOL     OW17695   8.696   2.142   2.918  0.0464 -0.8838  0.4103
38247SOL    HW117696   8.759   2.079   2.883  0.8738 -0.1015  0.4326
38247SOL    HW217697   8.623   2.090   2.948  0.6096 -1.8098  0.2051
38248SOL     OW17698   1.358   7.563   9.962  0.3811 -0.1513 -0.4801
38248SOL    HW117699   1.437   7.537  10.008  0.1899  0.6149  0.3092
38248SOL    HW217700   1.379   7.648   9.923  0.2012 -0.3089 -0.9245
38249SOL     OW17701   1.666   1.610   7.456 -0.2989  0.4476  0.5413
38249SOL    HW117702   1.679   1.680   7.392  0.4342  0.1562  0.3588
38249SOL    HW217703   1.571   1.603   7.465 -0.3946  2.0356  1.1909
38250SOL     OW17704   4.039   3.296   5.532  0.0199 -0.3601  0.0233
38250SOL    HW117705   3.975   3.356   5.571  0.6965  0.2650  0.1979
38250SOL    HW217706   4.020   3.298   5.438  2.2472  2.9625 -0.5249
38251SOL     OW17707   4.251   3.465   8.623 -0.1219 -0.0820 -0.1245
38251SOL    HW117708   4.271   3.372   8.614 -0.1827 -0.0911 -0.1683
38251SOL    HW217709   4.305   3.508   8.557  0.0647 -0.0661  0.0381
38252SOL     OW17710   5.818   2.212   9.272  0.2492  0.5000  0.1404
38252SOL    HW117711   5.759   2.208   9.347 -1.2762 -0.2673 -1.0474
38252SOL    HW217712   5.895   2.161   9.298 -0.1124  0.5098  1.2686
38253SOL     OW17713   0.807   8.402   4.643  0.1093  0.1418 -0.2963
38253SOL    HW117714   0.775   8.387   4.732  3.4526  0.1994  1.0521
38253SOL    HW217715   0.805   8.316   4.601  0.1116 -0.2130  0.4217
38254SOL     OW17716   3.873   5.208   7.072  0.8714  0.5967  0.2893
38254SOL    HW117717   3.914   5.135   7.119 -3.1891 -2.0713  0.2058
38254SOL    HW217718   3.884   5.186   6.979 -1.6882 -0.9963  0.2539
38255SOL     OW17719   5.055   2.297   9.481 -0.2342  0.4534  0.2663
38255SOL    HW117720   5.037   2.218   9.533 -2.2579  0.6138 -0.0946
38255SOL    HW217721   5.086   2.360   9.546  0.3540 -0.2936  0.7421
38256SOL     OW17722   5.712   4.207   0.917  0.1080  0.3551  0.1688
38256SOL    HW117723   5.739   4.257   0.994  0.5030 -0.0487  0.2916
38256SOL    HW217724   5.616   4.206   0.922  0.1309  0.3184  0.6573
38257SOL     OW17725   9.177   2.410   4.077 -0.0434  0.5070  0.2235
38257SOL    HW117726   9.226   2.399   3.995 -1.7932  1.7074 -1.0491
38257SOL    HW217727   9.194   2.500   4.104 -0.8216  0.6579  0.2444
38258SOL     OW17728   8.171   3.909   2.406  0.3458  0.1790 -0.4134
38258SOL    HW117729   8.131   3.824   2.387  0.7920  0.0703 -0.8590
38258SOL    HW217730   8.105   3.954   2.459 -0.5910  0.1900 -1.5371
38259SOL     OW17731  10.494   6.219   1.202 -0.9480  0.1182  0.5216
38259SOL    HW117732  10.431   6.276   1.246  1.1664  0.5637  3.2581
38259SOL    HW217733  10.457   6.206   1.115 -5.8439 -1.3287  2.4473
38260SOL     OW17734   0.634   3.625   1.577 -0.3171  0.2226 -0.6398
38260SOL    HW117735   0.615   3.670   1.659 -1.4591  0.7637 -1.1766
38260SOL    HW217736   0.711   3.669   1.541  0.7881 -0.6374  0.5751
38261SOL     OW17737   6.381   2.746   6.289 -0.4811 -0.1448  0.8174
38261SOL    HW117738   6.405   2.819   6.347 -1.3483 -0.4977  1.6596
38261SOL    HW217739   6.458   2.689   6.290 -0.4594 -0.1216  1.6103
38262SOL     OW17740   5.696   3.262   3.570  0.0004  0.0528  0.1870
38262SOL    HW117741   5.786   3.292   3.553  0.4584 -0.9181  0.7861
38262SOL    HW217742   5.655   3.263   3.483  0.2686  1.4663  0.0532
38263SOL     OW17743   7.966   5.477   9.183 -0.4561  0.3876 -0.2793
38263SOL    HW117744   7.937   5.387   9.168 -2.7949  0.9570  0.3152
38263SOL    HW217745   7.987   5.510   9.096  0.1765 -0.6448 -0.5303
38264SOL     OW17746   9.741   0.883   4.108  0.4388 -0.0913  0.0695
38264SOL    HW117747   9.781   0.960   4.069 -0.2197  0.5764  0.6777
38264SOL    HW217748   9.683   0.849   4.040  0.0311  0.4930  0.1212
38265SOL     OW17749   3.077   6.181   1.496 -0.3022  0.8014 -0.1573
38265SOL    HW117750   3.057   6.153   1.585 -0.6878 -1.7810 -0.9754
38265SOL    HW217751   2.991   6.196   1.456 -0.1233  2.6330  0.0270
38266SOL     OW17752  10.211   5.353   8.898  0.0476 -0.0322  0.1451
38266SOL    HW117753  10.151   5.339   8.825 -0.8083  1.5066  0.5128
38266SOL    HW217754  10.273   5.418   8.866  0.2262 -0.0343  0.4844
38267SOL     OW17755   8.779   5.458   5.278  0.7584  0.0341  0.0724
38267SOL    HW117756   8.793   5.493   5.367 -1.2360 -0.4486  0.6209
38267SOL    HW217757   8.685   5.467   5.263  0.7981 -1.4195 -1.3498
38268SOL     OW17758   3.204   2.114   0.314  0.2259 -1.2431  0.0530
38268SOL    HW117759   3.190   2.020   0.322  1.3657 -1.3527  1.0973
38268SOL    HW217760   3.122   2.148   0.280 -0.7179 -2.4394  1.0497
38269SOL     OW17761   6.789   3.726   8.141  0.3164  0.7526  0.4857
38269SOL    HW117762   6.743   3.668   8.081 -0.5542  2.2784 -0.3582
38269SOL    HW217763   6.774   3.687   8.228 -0.8153  0.0864  0.0109
38270SOL     OW17764   2.170  10.408   1.052 -0.0405 -0.4794 -0.2124
38270SOL    HW117765   2.083  10.419   1.012 -1.0248 -2.7572  1.0564
38270SOL    HW217766   2.197  10.320   1.024  1.6374 -0.0116 -0.1363
38271SOL     OW17767   1.112   4.274   0.011 -0.6383 -0.0185  0.0697
38271SOL    HW117768   1.129   4.200  -0.047  0.2208  0.9691 -0.9875
38271SOL    HW217769   1.152   4.249   0.094  1.5314  0.0930 -0.8756
38272SOL     OW17770   3.862   0.521   2.998  0.2879  0.5942 -0.1728
38272SOL    HW117771   3.918   0.577   2.944 -0.1336  1.1184 -0.0797
38272SOL    HW217772   3.858   0.567   3.082 -0.4267  0.6494 -0.2371
38273SOL     OW17773   1.679  10.651   3.440  0.5854 -0.2014  0.3433
38273SOL    HW117774   1.692  10.735   3.395 -2.2061  0.6461  0.9586
38273SOL    HW217775   1.706  10.668   3.530 -0.2113  0.1178  0.5242
38274SOL     OW17776   7.490   4.518   9.546 -0.1712  0.6895 -0.1978
38274SOL    HW117777   7.528   4.510   9.459 -0.5427  1.4442 -0.4425
38274SOL    HW217778   7.439   4.599   9.542 -1.2452  0.0540  0.3301
38275SOL     OW17779   6.976   0.937   3.677 -0.6147  0.4758  0.4458
38275SOL    HW117780   6.982   0.999   3.604  1.0155  0.7399  0.7821
38275SOL    HW217781   6.908   0.875   3.649 -1.6139  1.8335 -0.3118
38276SOL     OW17782   4.047   0.539   8.844  0.3576  0.1301  0.6867
38276SOL    HW117783   3.971   0.485   8.865 -1.0095  1.1689 -1.2893
38276SOL    HW217784   4.038   0.558   8.751  2.2172  1.6027  0.7488
38277SOL     OW17785   2.103   3.623   6.724 -0.1210 -0.3629 -0.2737
38277SOL    HW117786   2.129   3.620   6.632 -2.1544 -0.3322 -0.9053
38277SOL    HW217787   2.079   3.533   6.746  1.9663 -0.7246  0.7935
38278SOL     OW17788   7.089   1.828  10.586  0.1567 -0.3767  0.0515
38278SOL    HW117789   7.164   1.823  10.527 -0.4264  2.0714 -0.9818
38278SOL    HW217790   7.076   1.737  10.615  2.2983 -1.1637 -1.2182
38279SOL     OW17791   5.847   2.562   9.570  0.6689 -0.0962  0.0908
38279SOL    HW117792   5.939   2.573   9.549  0.7689 -1.4674 -0.3267
38279SOL    HW217793   5.847   2.514   9.653  0.3297  0.3738  0.3625
38280SOL     OW17794   0.214  10.269   6.023 -0.3073 -0.2306  0.3095
38280SOL    HW117795   0.263  10.350   6.014  0.2362 -0.4671  1.0126
38280SOL    HW217796   0.275  10.200   5.995 -0.3873 -0.4821  0.7322
38281SOL     OW17797   5.717   7.664   1.213  0.7312 -0.3262 -0.3915
38281SOL    HW117798   5.783   7.595   1.224 -0.7822 -1.5967  1.4253
38281SOL    HW217799   5.719   7.685   1.120  1.3236 -2.7951 -1.0043
38282SOL     OW17800   2.455   3.036   7.155  0.1281  0.0389 -0.0155
38282SOL    HW117801   2.519   2.995   7.098  0.1680  0.0831 -0.0030
38282SOL    HW217802   2.437   2.970   7.222 -0.1843 -0.1429 -0.2787
38283SOL     OW17803   3.549   3.106   1.225 -0.2571  0.0890 -0.3716
38283SOL    HW117804   3.538   3.112   1.320 -0.3516 -0.0910 -0.3710
38283SOL    HW217805   3.468   3.066   1.194  0.4609 -1.4384 -0.3480
38284SOL     OW17806   7.648   9.116   7.925 -0.1848  0.0065  0.4953
38284SOL    HW117807   7.622   9.088   7.838 -0.0292 -1.1511  0.8068
38284SOL    HW217808   7.572   9.096   7.981 -0.5590  1.3845  0.5316
38285SOL     OW17809   4.136   9.385  10.131  0.1513 -0.2310  0.4147
38285SOL    HW117810   4.155   9.473  10.163  0.6410 -0.8477  1.8869
38285SOL    HW217811   4.167   9.385  10.040 -0.7681  1.3959  0.0773
38286SOL     OW17812   6.676   9.371   1.541  0.4924  0.6187  0.0470
38286SOL    HW117813   6.647   9.296   1.489 -1.6052  1.6268 -0.3402
38286SOL    HW217814   6.657   9.346   1.631 -1.1590  1.0377 -0.1601
38287SOL     OW17815   7.519   3.789   9.260 -0.9716  0.2241  0.0928
38287SOL    HW117816   7.499   3.882   9.253 -1.4992  0.2332  1.4450
38287SOL    HW217817   7.593   3.776   9.200 -1.0969  1.4412 -0.3529
38288SOL     OW17818   4.557   7.632   6.056 -0.1245 -0.8824  0.0228
38288SOL    HW117819   4.646   7.621   6.089 -0.7359 -2.7721  1.2173
38288SOL    HW217820   4.568   7.654   5.964  1.5820  0.5027  0.4953
38289SOL     OW17821   2.608   9.618   2.907 -0.1265 -0.2570  0.0264
38289SOL    HW117822   2.614   9.682   2.978 -1.8788  0.8033 -0.7042
38289SOL    HW217823   2.634   9.535   2.947  1.6422  0.7762  1.1591
38290SOL     OW17824   6.855   5.695   2.713 -0.3279  1.0011  0.2070
38290SOL    HW117825   6.854   5.602   2.691 -0.8545  1.3095 -1.2039
38290SOL    HW217826   6.925   5.732   2.660  1.0486  1.1559  2.0509
38291SOL     OW17827   3.345   9.331   6.549  0.2088  0.0698 -0.0165
38291SOL    HW117828   3.313   9.307   6.636 -1.7665  0.4530 -0.5950
38291SOL    HW217829   3.319   9.422   6.538  0.9716  0.2108 -0.7923
38292SOL     OW17830   5.517   8.435   1.145 -0.4131  0.2982  0.4222
38292SOL    HW117831   5.515   8.399   1.234  2.7084 -0.6950  0.2063
38292SOL    HW217832   5.520   8.358   1.089 -0.0127  0.9104 -0.4137
38293SOL     OW17833   0.595   1.030   5.838  0.2178 -0.0075  0.1019
38293SOL    HW117834   0.686   1.016   5.864  0.5314 -0.6357 -1.2532
38293SOL    HW217835   0.544   0.975   5.897  0.8732 -1.0950 -0.3120
38294SOL     OW17836   6.840  10.479   2.874  0.0115 -0.1111 -0.6103
38294SOL    HW117837   6.858  10.508   2.963 -2.1265  0.5188 -0.3241
38294SOL    HW217838   6.846  10.383   2.879  0.1254 -0.0718  0.1456
38295SOL     OW17839   2.495   6.626   9.155  0.0471 -0.3555 -0.6816
38295SOL    HW117840   2.480   6.645   9.063 -0.9977  0.4103 -0.3780
38295SOL    HW217841   2.581   6.663   9.174 -0.6771  1.5212 -0.8366
38296SOL     OW17842   1.375   1.954   6.339  0.0726  0.0017  0.0874
38296SOL    HW117843   1.321   2.018   6.295 -1.0224 -1.2307 -0.4144
38296SOL    HW217844   1.415   2.002   6.412 -0.0228  1.4401 -0.7680
38297SOL     OW17845  10.280   6.897   7.852 -0.2915 -0.3004  0.1580
38297SOL    HW117846  10.225   6.822   7.829  0.0427 -0.3258 -0.5718
38297SOL    HW217847  10.369   6.869   7.829 -0.0447 -0.0197  0.7328
38298SOL     OW17848   7.928   4.353   1.992  0.0929  0.2089  0.4651
38298SOL    HW117849   7.846   4.305   1.981  0.3002  0.1481 -1.0621
38298SOL    HW217850   7.994   4.298   1.948  0.9887  0.1902  1.7821
38299SOL     OW17851   2.360   2.401   9.691  0.3284 -0.0011  0.6548
38299SOL    HW117852   2.362   2.313   9.729  1.3141  0.1710  1.0421
38299SOL    HW217853   2.448   2.435   9.705  0.4748  0.4157 -1.0242
38300SOL     OW17854  10.444   8.087   0.577 -0.3679 -0.5965 -0.3609
38300SOL    HW117855  10.414   8.175   0.601 -2.0105 -1.2950  0.3054
38300SOL    HW217856  10.363   8.037   0.563  0.4259 -2.7403  1.9971
38301SOL     OW17857   3.237   6.671   8.290  0.0545 -0.1210  0.1189
38301SOL    HW117858   3.330   6.692   8.277 -0.1257  0.2937 -0.5541
38301SOL    HW217859   3.216   6.611   8.218 -0.7822  1.6458 -1.1976
38302SOL     OW17860   7.676  10.492   6.938  0.7139  0.2622  0.3017
38302SOL    HW117861   7.610  10.556   6.965 -1.7173 -1.8394 -0.3166
38302SOL    HW217862   7.750  10.545   6.908 -0.5227  2.7274  1.3329
38303SOL     OW17863   1.362   0.844   7.221 -0.4490  0.0140 -0.0716
38303SOL    HW117864   1.374   0.750   7.211  0.8702  0.2923 -1.4195
38303SOL    HW217865   1.267   0.855   7.227 -0.6668 -1.3410 -0.5968
38304SOL     OW17866   6.490   5.738   2.415  0.1079 -0.1419 -0.2224
38304SOL    HW117867   6.467   5.714   2.325 -1.5901 -0.1317  0.1694
38304SOL    HW217868   6.411   5.779   2.450  0.8031  0.0391  1.2234
38305SOL     OW17869   0.452   9.651   8.988 -0.1735 -0.2323  0.5877
38305SOL    HW117870   0.382   9.587   8.975 -0.9643  0.5899  0.7343
38305SOL    HW217871   0.514   9.607   9.045  1.2350 -2.3125 -2.2762
38306SOL     OW17872   6.903   7.446   8.384 -0.8203 -0.1091 -0.1177
38306SOL    HW117873   6.888   7.493   8.467 -0.1025 -0.8581  0.4554
38306SOL    HW217874   6.917   7.355   8.411 -1.6130 -0.5497 -1.1650
38307SOL     OW17875   4.002   3.041   6.609  0.0759  0.0334 -0.5456
38307SOL    HW117876   3.998   2.946   6.612 -0.8243  0.0841  1.0016
38307SOL    HW217877   3.911   3.069   6.623  0.7116  1.1035  2.0839
38308SOL     OW17878   9.801   5.751  10.181  0.0994 -0.2275  0.5932
38308SOL    HW117879   9.878   5.769  10.234  0.4116 -0.6839  0.3076
38308SOL    HW217880   9.835   5.741  10.092 -0.6397  2.4894 -0.0972
38309SOL     OW17881   9.645   5.714   9.307  0.0373  0.3039  0.0176
38309SOL    HW117882   9.561   5.756   9.327 -0.0324 -0.9726  2.8633
38309SOL    HW217883   9.622   5.630   9.269  0.0382  0.2866  0.0558
38310SOL     OW17884   3.846   9.907   6.739 -0.2204  0.4960  0.2380
38310SOL    HW117885   3.864   9.814   6.743  0.9659  0.7170  0.4505
38310SOL    HW217886   3.834   9.926   6.646  2.1584  0.5585 -0.1242
38311SOL     OW17887   8.500   8.478  10.297 -0.1643 -0.0601 -0.0731
38311SOL    HW117888   8.501   8.445  10.387  0.6746 -1.6034 -0.6026
38311SOL    HW217889   8.563   8.550  10.296 -2.1524  1.8050  1.1580
38312SOL     OW17890   8.828   2.631   4.742  0.4899 -0.0507 -0.4264
38312SOL    HW117891   8.816   2.726   4.736 -2.6600 -0.3657 -0.7957
38312SOL    HW217892   8.839   2.602   4.651  1.6582 -0.0552 -0.2978
38313SOL     OW17893   6.306   4.060   3.926 -0.5175 -0.5323  0.1786
38313SOL    HW117894   6.300   4.035   3.834  0.1850 -0.6103  0.1530
38313SOL    HW217895   6.277   4.152   3.928 -0.0701 -0.3837 -0.1908
38314SOL     OW17896   5.511   0.342   2.913 -0.0298 -0.3762  0.2633
38314SOL    HW117897   5.603   0.366   2.902 -0.4260  0.7626 -0.7610
38314SOL    HW217898   5.510   0.247   2.902  1.0934 -0.4798  0.9018
38315SOL     OW17899   8.418   8.273   1.399 -0.1303  0.1738 -0.2126
38315SOL    HW117900   8.380   8.207   1.342 -0.4754 -0.5865  0.8791
38315SOL    HW217901   8.345   8.304   1.453  0.0727  1.2832 -0.5324
38316SOL     OW17902   3.857   9.715   0.775 -0.1283 -0.3236 -0.0901
38316SOL    HW117903   3.881   9.796   0.729  0.4734 -1.0546 -1.0950
38316SOL    HW217904   3.863   9.738   0.868 -0.0996  0.8206 -0.3596
38317SOL     OW17905   1.935   9.970   7.684 -0.1662 -0.9264  0.1152
38317SOL    HW117906   1.995   9.948   7.613 -1.4134  0.5095 -1.4692
38317SOL    HW217907   1.959  10.059   7.709 -2.6154  0.3809 -1.7463
38318SOL     OW17908   6.742   6.351   0.289 -0.0629 -0.4388  0.3814
38318SOL    HW117909   6.743   6.441   0.321 -1.2319 -0.9210  1.8978
38318SOL    HW217910   6.744   6.297   0.368 -0.5102 -1.7307 -0.4502
38319SOL     OW17911   1.958   2.138   0.542  0.0532  0.3878  0.4694
38319SOL    HW117912   1.906   2.120   0.464 -0.6979  0.5444  0.9182
38319SOL    HW217913   2.045   2.160   0.509  0.3579 -1.6772 -0.1988
38320SOL     OW17914   4.279   5.389   6.362  0.2522  0.6776 -0.3702
38320SOL    HW117915   4.233   5.348   6.436  0.2354 -1.9634 -1.7132
38320SOL    HW217916   4.209   5.427   6.308  0.0883  0.8423 -0.0455
38321SOL     OW17917   0.473   9.582   3.630  0.0129 -0.6354 -0.2617
38321SOL    HW117918   0.479   9.508   3.571 -1.3161 -0.5385 -0.5534
38321SOL    HW217919   0.418   9.646   3.583 -0.2389 -0.1548  0.6583
38322SOL     OW17920   3.847   6.333   8.143  0.2704  0.7233 -0.0324
38322SOL    HW117921   3.858   6.307   8.234  0.5467  0.0402 -0.2469
38322SOL    HW217922   3.774   6.395   8.144 -0.2306  0.1429  0.5581
38323SOL     OW17923   5.564   1.585   1.271  0.3071  0.1439 -0.7466
38323SOL    HW117924   5.614   1.665   1.289  1.9937 -0.8200 -1.0458
38323SOL    HW217925   5.498   1.583   1.341 -0.0849  2.0269 -0.9978
38324SOL     OW17926   0.151   3.666   9.738 -0.1592 -0.8407 -0.0863
38324SOL    HW117927   0.176   3.685   9.648  0.6938 -0.7079  0.1754
38324SOL    HW217928   0.082   3.731   9.758  0.1906 -0.3711 -0.3913
38325SOL     OW17929   4.886   3.444   4.220  0.0184  0.4582  0.1465
38325SOL    HW117930   4.821   3.503   4.183 -0.2502  1.3459  1.9240
38325SOL    HW217931   4.842   3.404   4.296  0.8340 -0.5826  0.0978
38326SOL     OW17932   6.629   6.136   7.044  0.1357  0.1204  0.0405
38326SOL    HW117933   6.616   6.139   7.138 -1.6612 -1.0383 -0.1284
38326SOL    HW217934   6.701   6.074   7.032  1.2802  1.2784  0.6763
38327SOL     OW17935   7.627   2.173   7.619  0.3045  0.3980 -0.0713
38327SOL    HW117936   7.595   2.243   7.562 -0.4408 -0.0862 -0.2654
38327SOL    HW217937   7.693   2.128   7.566  1.0744  1.1855  0.2011
38328SOL     OW17938  10.506   4.637   5.017 -0.4375 -0.5433 -0.3971
38328SOL    HW117939  10.519   4.547   4.988  0.9627 -0.3259 -0.4772
38328SOL    HW217940  10.432   4.668   4.964 -1.4429 -1.8592  0.1642
38329SOL     OW17941   4.432   6.790   4.420 -0.9715  0.3592 -0.0626
38329SOL    HW117942   4.344   6.753   4.425 -1.1277  0.5138 -1.3701
38329SOL    HW217943   4.463   6.767   4.332  0.1463  0.6317  0.2456
38330SOL     OW17944   4.809   1.723   5.687  0.3355 -0.4229  0.2402
38330SOL    HW117945   4.749   1.797   5.694  0.6213 -0.1362 -0.2696
38330SOL    HW217946   4.887   1.751   5.736  0.1957 -0.6525  0.6003
38331SOL     OW17947   9.402   5.069   0.826 -0.2940 -0.4875 -0.4006
38331SOL    HW117948   9.325   5.073   0.882  0.2904 -1.2486  0.4918
38331SOL    HW217949   9.467   5.022   0.878  0.2962 -1.1592 -1.6953
38332SOL     OW17950   2.613   2.419   0.255  0.8988  0.0413 -0.2093
38332SOL    HW117951   2.592   2.326   0.242  1.5395 -0.0676 -0.5656
38332SOL    HW217952   2.622   2.454   0.166  0.3145  0.5372 -0.0826
38333SOL     OW17953   9.370   8.948   7.772  0.0721 -0.3511 -0.3255
38333SOL    HW117954   9.406   8.989   7.851 -1.7482 -0.2234  0.4775
38333SOL    HW217955   9.447   8.917   7.725  1.2344 -0.0832  1.2977
38334SOL     OW17956   0.307   2.449   8.012  0.0947  0.0210 -0.0939
38334SOL    HW117957   0.377   2.446   8.078 -0.2024 -0.1645  0.2108
38334SOL    HW217958   0.227   2.460   8.062  0.1037  2.8964 -0.5389
38335SOL     OW17959   2.869   6.888   9.298 -0.5866 -0.4691  0.0800
38335SOL    HW117960   2.796   6.940   9.265 -1.8435 -0.5680  2.4332
38335SOL    HW217961   2.944   6.915   9.245 -1.6262  2.1774 -0.2046
38336SOL     OW17962   8.576   9.040   0.145 -0.2010 -0.1167  0.1546
38336SOL    HW117963   8.517   9.065   0.074 -0.3405  0.3882  0.4445
38336SOL    HW217964   8.541   9.084   0.222 -1.1926 -2.2025  0.9710
38337SOL     OW17965   7.024   0.082   1.959  0.3440 -0.0789 -0.2533
38337SOL    HW117966   7.075   0.058   1.882 -1.0716 -0.8848 -0.9809
38337SOL    HW217967   7.088   0.118   2.020  1.8709 -1.5518 -0.9034
38338SOL     OW17968   4.699   1.374   9.068  0.3312  0.0772  0.3338
38338SOL    HW117969   4.734   1.318   8.999  0.8904  1.3665 -0.4614
38338SOL    HW217970   4.766   1.372   9.136  0.3392 -0.2256  0.3198
38339SOL     OW17971   1.638   0.849   4.967  0.9584 -1.2648  0.1347
38339SOL    HW117972   1.655   0.755   4.966 -2.3856 -1.9891  0.3380
38339SOL    HW217973   1.620   0.869   5.059  1.0812 -0.5161  0.0040
38340SOL     OW17974   9.997   0.744   7.822  0.1984 -0.1195  0.1187
38340SOL    HW117975   9.978   0.834   7.795 -2.7520 -0.3072  1.2116
38340SOL    HW217976   9.938   0.691   7.769  1.0306 -1.3294  0.3751
38341SOL     OW17977   2.103   9.019  10.383 -0.0242  0.0173  0.4163
38341SOL    HW117978   2.044   9.065  10.443 -0.5173  0.2383 -0.2206
38341SOL    HW217979   2.063   8.932  10.374 -0.7914  0.4719 -0.7460
38342SOL     OW17980   2.732  10.551   1.119  0.5175  0.1821 -0.5629
38342SOL    HW117981   2.741  10.621   1.054 -0.0130  1.1628  0.3787
38342SOL    HW217982   2.767  10.590   1.200 -3.0344  0.7371  0.8865
38343SOL     OW17983   4.973   1.937   4.998 -0.2940  0.3437  0.1999
38343SOL    HW117984   4.928   1.875   5.055  0.9802 -1.0355 -0.2392
38343SOL    HW217985   5.047   1.888   4.961  0.7489  2.1086 -0.2071
38344SOL     OW17986   9.884   5.499   4.542 -0.2785 -0.0122  0.5623
38344SOL    HW117987   9.923   5.560   4.605  0.0990  0.9346 -0.5489
38344SOL    HW217988   9.826   5.554   4.489  0.8181 -0.3746 -1.1128
38345SOL     OW17989   2.160   4.872   8.585  0.4034  0.3291  0.5208
38345SOL    HW117990   2.093   4.834   8.529  0.4790 -0.2304  0.8057
38345SOL    HW217991   2.150   4.826   8.669 -0.7881  2.2536  1.5160
38346SOL     OW17992   2.322   0.975   2.899  0.2440  0.4614 -0.0453
38346SOL    HW117993   2.237   1.019   2.890 -0.0893 -0.3300 -1.0732
38346SOL    HW217994   2.374   1.010   2.827  0.7124  0.7675  0.4406
38347SOL     OW17995   3.977  10.359   1.057  0.4360  0.7356 -0.1581
38347SOL    HW117996   3.883  10.354   1.072  0.3336 -0.9688 -1.1498
38347SOL    HW217997   3.986  10.363   0.961  1.4147 -3.8432 -0.4620
38348SOL     OW17998   7.604   3.455   1.760 -0.1739 -0.2930  0.1900
38348SOL    HW117999   7.518   3.468   1.801  0.0883 -0.8879  0.9564
38348SOL    HW218000   7.590   3.385   1.697 -0.6828  0.9314 -1.0886
38349SOL     OW18001   7.549   8.945   5.910  0.6193 -0.0861 -0.2408
38349SOL    HW118002   7.624   8.948   5.851  0.7272  0.6597 -0.0711
38349SOL    HW218003   7.495   9.020   5.883 -2.3882 -3.0106 -3.4035
38350SOL     OW18004   6.010   4.754   8.896 -0.0551  0.3226  0.0401
38350SOL    HW118005   5.934   4.811   8.914  0.4321  0.4108  2.1083
38350SOL    HW218006   5.972   4.677   8.854 -1.1744  0.7618  0.1911
38351SOL     OW18007   0.645   3.867   4.756  0.1619 -0.2955  0.0228
38351SOL    HW118008   0.602   3.877   4.841  0.8502 -0.3636  0.3859
38351SOL    HW218009   0.664   3.773   4.749 -0.8503 -0.4598 -0.6887
38352SOL     OW18010   6.790   4.338   9.093 -0.2811 -0.0802 -1.0570
38352SOL    HW118011   6.734   4.356   9.017 -0.9610  0.9027 -0.3407
38352SOL    HW218012   6.818   4.424   9.123 -1.7403 -0.2871  1.0829
38353SOL     OW18013   6.298   0.158   3.662 -0.1139 -0.2682 -0.0510
38353SOL    HW118014   6.227   0.152   3.599  0.1009 -0.7833 -0.2552
38353SOL    HW218015   6.360   0.220   3.624 -0.2573 -0.1435 -0.0771
38354SOL     OW18016   6.440   2.986   5.110 -0.3192 -0.3559  0.5815
38354SOL    HW118017   6.524   2.952   5.081 -1.5623 -2.8955 -0.4521
38354SOL    HW218018   6.454   3.014   5.200  1.7371 -0.1836  0.2378
38355SOL     OW18019   7.420   4.983   6.133  0.0073  0.1948  0.1868
38355SOL    HW118020   7.351   4.946   6.189 -0.4287 -0.0557 -0.5004
38355SOL    HW218021   7.374   5.049   6.080  0.6013  1.1007  0.7693
38356SOL     OW18022   9.971   1.743   2.963  0.0287  0.4293  0.3721
38356SOL    HW118023   9.905   1.679   2.936 -1.1284  0.7193  2.3356
38356SOL    HW218024  10.053   1.694   2.965 -0.5719 -0.6063  0.3828
38357SOL     OW18025   6.408   3.150   5.796 -0.5994  0.2197  0.0297
38357SOL    HW118026   6.315   3.138   5.811 -0.4268  1.3057  2.2049
38357SOL    HW218027   6.423   3.244   5.804  0.6252  0.1219 -0.7270
38358SOL     OW18028   0.034   0.479   0.550  0.5556  0.0301 -0.1311
38358SOL    HW118029   0.018   0.411   0.616 -1.2554 -0.4186 -0.9618
38358SOL    HW218030   0.073   0.432   0.476  1.2518  0.2839  0.0651
38359SOL     OW18031   1.393   0.788   2.393  0.3986  0.1277 -0.0277
38359SOL    HW118032   1.366   0.697   2.397  0.1351  0.0820 -1.7745
38359SOL    HW218033   1.482   0.785   2.357  0.8472  0.5058  1.0309
38360SOL     OW18034   6.758   5.973   4.378  0.0140 -0.3369 -0.2169
38360SOL    HW118035   6.794   6.062   4.379  0.9362 -0.6989  1.5230
38360SOL    HW218036   6.672   5.983   4.337  0.2176  1.3060 -0.3148
38361SOL     OW18037   9.817   1.536   2.903 -0.0450 -0.2624 -0.5094
38361SOL    HW118038   9.879   1.485   2.955 -0.9746 -1.2984 -0.3699
38361SOL    HW218039   9.736   1.534   2.955 -0.8799 -0.9967 -1.7925
38362SOL     OW18040   3.942   3.103   9.949  0.4489 -0.1377 -0.3688
38362SOL    HW118041   4.027   3.137   9.922 -0.1811 -0.5967 -3.2574
38362SOL    HW218042   3.880   3.173   9.927 -0.0792 -0.2476  0.6844
38363SOL     OW18043   2.300   7.530   5.927 -0.0363  0.0238 -0.0699
38363SOL    HW118044   2.214   7.569   5.914 -0.6030 -1.5504 -1.3903
38363SOL    HW218045   2.284   7.454   5.983  0.6644  0.3242  0.5499
38364SOL     OW18046   6.758   1.969  10.379  0.5820 -0.4286  1.0128
38364SOL    HW118047   6.710   1.925  10.449  1.2122  0.4461  2.0262
38364SOL    HW218048   6.722   2.058  10.378 -0.6655 -0.8838 -0.9943
38365SOL     OW18049  10.199  10.230   6.678 -0.6164 -0.4043  0.4801
38365SOL    HW118050  10.292  10.245   6.664 -0.7010  0.1484  0.4603
38365SOL    HW218051  10.181  10.268   6.764 -1.3320  1.9230 -0.6048
38366SOL     OW18052   4.486   2.354  10.093  0.7323  0.1707 -0.3549
38366SOL    HW118053   4.513   2.265  10.116  0.7656  0.1990 -0.2849
38366SOL    HW218054   4.423   2.342  10.022 -2.0621 -0.1507  2.0089
38367SOL     OW18055   7.323   9.524   6.051 -0.4364 -0.3238 -0.1869
38367SOL    HW118056   7.360   9.582   6.118 -2.0344  1.6239 -0.8916
38367SOL    HW218057   7.384   9.528   5.978  0.5108 -1.2067  0.5343
38368SOL     OW18058   6.009   3.383   5.620 -0.3814  1.1112 -0.6724
38368SOL    HW118059   5.916   3.360   5.629  0.0316 -0.8113 -0.9783
38368SOL    HW218060   6.055   3.299   5.626  1.4554  2.1525  0.7927
38369SOL     OW18061   2.713   3.598   9.554  0.1401 -0.9231 -0.0590
38369SOL    HW118062   2.768   3.568   9.482 -0.7716  0.8941 -1.6157
38369SOL    HW218063   2.693   3.689   9.532 -1.5110 -0.8111  1.6616
38370SOL     OW18064   0.061   3.912   4.560 -0.1188  0.0838 -0.1048
38370SOL    HW118065   0.008   3.856   4.617 -1.6335  0.2515 -1.2828
38370SOL    HW218066   0.147   3.914   4.602 -1.0205 -0.2268  1.8702
38371SOL     OW18067   2.894   6.540   8.994  0.3548  0.4530 -0.0403
38371SOL    HW118068   2.859   6.588   9.070  1.1359 -1.5216  1.6840
38371SOL    HW218069   2.989   6.545   9.005  0.4831 -1.8164  0.5450
38372SOL     OW18070   9.910   9.984   9.192 -0.4078  0.0414 -0.0278
38372SOL    HW118071   9.860  10.042   9.249  0.8411 -0.5035  1.6850
38372SOL    HW218072   9.868   9.899   9.201 -1.1033  0.2521 -1.1008
38373SOL     OW18073   5.429   1.238   5.296 -0.2614  0.6726 -0.0693
38373SOL    HW118074   5.425   1.212   5.204  0.0285 -1.9015  0.5494
38373SOL    HW218075   5.388   1.324   5.299  0.2769  1.1093 -2.6764
38374SOL     OW18076   6.593  10.287   8.007  0.4806  0.1473 -0.4771
38374SOL    HW118077   6.563  10.205   7.967 -1.4799  1.3444 -1.6819
38374SOL    HW218078   6.688  10.284   8.001  0.5597 -2.6356  0.8290
38375SOL     OW18079   7.554   6.881   4.964  0.0635  0.1755  0.1454
38375SOL    HW118080   7.525   6.969   4.989 -1.7856 -0.0799 -0.8904
38375SOL    HW218081   7.519   6.869   4.875 -0.9375 -2.1009  0.7628
38376SOL     OW18082  10.694   8.225   1.530  0.0179 -0.1689  0.1187
38376SOL    HW118083  10.680   8.139   1.491 -1.2244 -1.1156  2.4886
38376SOL    HW218084  10.613   8.273   1.512  0.1058 -0.0192  0.1171
38377SOL     OW18085   1.300   2.032  10.340 -0.2561  0.2587 -0.0869
38377SOL    HW118086   1.279   1.951  10.388 -0.0520  0.0407 -0.3620
38377SOL    HW218087   1.372   2.007  10.282  0.6071  0.9385  0.6765
38378SOL     OW18088   4.062   8.849   3.380 -0.3575  0.0209 -0.5565
38378SOL    HW118089   4.071   8.898   3.462  1.5916 -0.6765 -0.3075
38378SOL    HW218090   3.987   8.890   3.336 -0.7134  1.1743  1.0286
38379SOL     OW18091   4.710   7.506   9.876 -0.0073  0.1434  0.2145
38379SOL    HW118092   4.724   7.465   9.962  0.0589 -0.1731  0.0533
38379SOL    HW218093   4.798   7.523   9.843 -0.0034  2.1541  1.0915
38380SOL     OW18094   9.814   9.825   2.182  0.8970  0.0215  0.2749
38380SOL    HW118095   9.738   9.883   2.172  1.9304  1.2304 -0.8928
38380SOL    HW218096   9.887   9.884   2.203  1.8169 -0.9469 -0.0872
38381SOL     OW18097   7.809   9.203   3.189  0.2637 -0.0892  0.3251
38381SOL    HW118098   7.899   9.172   3.200  0.0704  0.0874  3.1492
38381SOL    HW218099   7.758   9.124   3.172  0.5857 -0.6125  1.6541
38382SOL     OW18100   7.037   2.623   0.749 -0.5103 -0.1099  0.3651
38382SOL    HW118101   7.083   2.568   0.812  0.0618  1.4400  1.3542
38382SOL    HW218102   7.104   2.683   0.716 -1.1506  0.1163 -0.5623
38383SOL     OW18103   2.654   9.687   1.865 -0.4435 -0.0882 -0.1935
38383SOL    HW118104   2.590   9.640   1.811 -1.2386  0.1162  0.5449
38383SOL    HW218105   2.683   9.623   1.930 -1.2356  0.2952  0.5678
38384SOL     OW18106   2.642   6.190   2.025 -0.3388  0.6983  0.0439
38384SOL    HW118107   2.588   6.115   2.048  0.1256  0.0611 -0.9072
38384SOL    HW218108   2.629   6.252   2.097  0.0828 -0.6952  1.3611
38385SOL     OW18109   2.688   5.085   5.203 -0.1654  0.1658  0.2636
38385SOL    HW118110   2.608   5.064   5.251  0.3964  1.1977  1.7440
38385SOL    HW218111   2.701   5.179   5.217  0.5751  0.3019 -1.1085
38386SOL     OW18112   9.002   7.262   0.772 -0.4065  0.4429  0.0672
38386SOL    HW118113   9.072   7.282   0.835  0.0350 -0.6475 -0.0584
38386SOL    HW218114   8.921   7.273   0.822 -0.0885  0.2793  0.6306
38387SOL     OW18115   4.985   4.143   1.735  0.4272  0.1545 -0.1616
38387SOL    HW118116   4.907   4.125   1.682  2.1842 -1.3115 -2.4595
38387SOL    HW218117   5.028   4.216   1.690  0.4168  0.9395  1.0675
38388SOL     OW18118   7.197   5.537   2.448  0.7424 -0.0258  0.3378
38388SOL    HW118119   7.137   5.603   2.482  0.0366 -1.0206  1.0963
38388SOL    HW218120   7.277   5.549   2.498  0.8594  0.6809 -0.0039
38389SOL     OW18121   0.257   9.863   3.170 -0.0016  0.2332 -0.3087
38389SOL    HW118122   0.312   9.872   3.093  0.0930  1.5509 -0.1143
38389SOL    HW218123   0.293   9.925   3.233 -1.1225  0.4506  0.1546
38390SOL     OW18124   1.837   2.110   3.345  0.1083 -0.4127  0.0554
38390SOL    HW118125   1.784   2.163   3.285  0.3806  0.5731  0.6701
38390SOL    HW218126   1.791   2.026   3.350 -0.5085 -0.1238 -0.6810
38391SOL     OW18127   7.850   5.844   4.727 -0.1605  0.2045 -0.7211
38391SOL    HW118128   7.889   5.914   4.779 -0.3957  0.8912 -1.4646
38391SOL    HW218129   7.866   5.869   4.636 -1.5940  0.0883 -1.0299
38392SOL     OW18130   8.679   7.808   6.938  0.0662  0.0984 -0.2990
38392SOL    HW118131   8.753   7.759   6.971  0.4225 -0.8522 -2.3343
38392SOL    HW218132   8.692   7.897   6.971  1.3759 -0.3473  0.4561
38393SOL     OW18133   9.164   3.453   4.788  0.0782 -0.1954 -0.2025
38393SOL    HW118134   9.220   3.381   4.816  2.6363  1.1576 -1.4612
38393SOL    HW218135   9.160   3.511   4.864 -1.6130 -1.3590  0.6582
38394SOL     OW18136   0.505   2.286   5.436 -0.4958  0.2359 -0.2502
38394SOL    HW118137   0.553   2.245   5.364  0.1460 -0.4014  0.5118
38394SOL    HW218138   0.544   2.373   5.443  0.3341 -0.1477  0.1251
38395SOL     OW18139   5.756   5.084   8.469  0.2108 -0.1221  0.1974
38395SOL    HW118140   5.698   5.042   8.533  1.6431 -3.9824 -0.7374
38395SOL    HW218141   5.720   5.057   8.384  0.4799  1.7685 -0.5626
38396SOL     OW18142   2.484   7.136   2.595  0.0596  0.1125 -0.3726
38396SOL    HW118143   2.526   7.146   2.680  0.6488 -2.7622 -0.2351
38396SOL    HW218144   2.554   7.156   2.532 -0.2024  1.6125 -0.2208
38397SOL     OW18145   8.402   1.859   5.199 -0.3071 -0.3701 -0.3570
38397SOL    HW118146   8.352   1.858   5.281 -0.4293  3.0888 -0.2408
38397SOL    HW218147   8.335   1.847   5.131 -0.3408 -2.2175 -0.0495
38398SOL     OW18148   6.066   9.151   2.884 -0.1217  0.0561  0.6461
38398SOL    HW118149   6.154   9.112   2.880 -0.8764 -1.7149 -0.0725
38398SOL    HW218150   6.080   9.239   2.919  2.1860  0.6170 -1.3998
38399SOL     OW18151   6.253   1.676   6.142 -0.2460  0.0579 -0.1537
38399SOL    HW118152   6.263   1.592   6.097 -0.0655  0.4017 -0.7733
38399SOL    HW218153   6.297   1.739   6.085  1.0198  0.3446  1.0838
38400SOL     OW18154  10.027   3.943  10.664  0.3979 -0.1309 -0.2790
38400SOL    HW118155  10.011   3.905  10.578 -0.3957  0.4385 -0.4018
38400SOL    HW218156   9.974   4.022  10.665  1.3311  0.5034  0.2993
38401SOL     OW18157   4.098   5.314   8.375  0.3137 -0.0115 -0.3037
38401SOL    HW118158   4.035   5.241   8.380  0.8111 -0.3837  0.7766
38401SOL    HW218159   4.103   5.334   8.281 -0.4293 -0.8421 -0.5391
38402SOL     OW18160   6.650   3.952   9.466  0.7391  0.7615 -0.2616
38402SOL    HW118161   6.621   4.026   9.412  0.6284  0.8638 -0.0622
38402SOL    HW218162   6.744   3.944   9.447  0.0338 -1.8066 -3.6390
38403SOL     OW18163   3.191   8.140   6.445  0.7258 -0.0641  0.0076
38403SOL    HW118164   3.219   8.071   6.384 -0.0103 -0.9139  0.6081
38403SOL    HW218165   3.140   8.094   6.512 -0.5663  1.1749 -0.0671
38404SOL     OW18166   3.475   2.840   6.375 -0.2972 -0.1336  0.1631
38404SOL    HW118167   3.481   2.905   6.305  1.1972  0.7171  1.0235
38404SOL    HW218168   3.381   2.833   6.393 -0.4926  2.1168  0.2961
38405SOL     OW18169   0.410   6.426   6.510 -0.6233 -0.5737  0.3137
38405SOL    HW118170   0.369   6.344   6.534  0.3993 -1.4279 -0.7271
38405SOL    HW218171   0.483   6.436   6.571 -1.3178  0.0693  1.0582
38406SOL     OW18172   2.768   9.235   4.719  0.2720  0.1407  0.4486
38406SOL    HW118173   2.721   9.305   4.765 -0.0991 -0.0238  0.3245
38406SOL    HW218174   2.802   9.179   4.789 -2.0734 -1.2894  0.5519
38407SOL     OW18175   0.913   9.549   0.162  0.1347 -0.2436  0.3183
38407SOL    HW118176   0.920   9.500   0.080  0.8412 -0.8917  0.7518
38407SOL    HW218177   0.902   9.481   0.229 -0.7416  0.2923  0.7293
38408SOL     OW18178  10.026   5.056   2.989 -0.5690 -0.2332 -0.2830
38408SOL    HW118179  10.070   4.997   2.927 -0.5567  0.5392 -1.0299
38408SOL    HW218180  10.081   5.054   3.067  1.4810  1.5343 -1.5575
38409SOL     OW18181   4.985   4.211   6.208 -0.3839 -0.0344 -0.2860
38409SOL    HW118182   4.930   4.201   6.130 -0.7947 -1.6878  0.1594
38409SOL    HW218183   5.072   4.184   6.180 -0.1566  0.9387 -0.5592
38410SOL     OW18184   1.053   3.121   6.597  0.0153 -0.1209  0.1660
38410SOL    HW118185   0.981   3.081   6.646 -0.4670  1.4259  0.7895
38410SOL    HW218186   1.013   3.152   6.516  0.4977 -1.3212 -0.5597
38411SOL     OW18187   9.897   0.551  10.239  0.3428  0.6863  0.5403
38411SOL    HW118188   9.972   0.502  10.273 -1.4940 -1.5330  1.6187
38411SOL    HW218189   9.933   0.599  10.164  2.5995 -1.2343  0.2491
38412SOL     OW18190   6.973   1.831   2.129 -0.1345 -0.1379 -0.4439
38412SOL    HW118191   6.903   1.888   2.098  1.6941  2.0983 -0.7137
38412SOL    HW218192   6.935   1.786   2.205 -2.0705  0.4095 -1.0255
38413SOL     OW18193   9.980   7.574   3.692 -0.1164 -0.4840 -0.9986
38413SOL    HW118194   9.884   7.578   3.687 -0.1110  0.9057 -0.1714
38413SOL    HW218195   9.998   7.526   3.773 -0.1134  0.0748 -0.6667
38414SOL     OW18196   8.582   8.777   7.280 -0.0457  0.5487  0.2803
38414SOL    HW118197   8.639   8.854   7.273 -0.3501  0.8077  0.5892
38414SOL    HW218198   8.525   8.782   7.203  2.2498 -1.3267 -1.6889
38415SOL     OW18199   3.083   3.930   7.168 -0.1890  0.4483  0.2444
38415SOL    HW118200   3.031   3.853   7.192 -0.5726  1.0449  1.3739
38415SOL    HW218201   3.095   3.922   7.073 -0.0288 -1.1157  0.3666
38416SOL     OW18202   6.555   6.167   5.725  0.4446 -0.2154  0.3825
38416SOL    HW118203   6.636   6.218   5.718 -0.1243  0.5959 -0.2927
38416SOL    HW218204   6.585   6.076   5.722  1.1810  0.0577 -1.9116
38417SOL     OW18205  10.454   1.518   1.114 -0.1898 -0.5553 -0.0705
38417SOL    HW118206  10.501   1.568   1.181 -0.8480 -2.2386  1.7703
38417SOL    HW218207  10.403   1.583   1.066  0.6010  0.7645  0.8014
38418SOL     OW18208   1.153   4.387   0.932  0.7120 -0.1535  0.2892
38418SOL    HW118209   1.163   4.349   1.020  1.1934  1.2905  0.9015
38418SOL    HW218210   1.173   4.480   0.945  0.1814  0.1941 -1.2468
38419SOL     OW18211   3.100   2.214   7.920 -0.4378  0.5818  0.0053
38419SOL    HW118212   3.054   2.297   7.904 -1.5097 -0.0106 -0.1019
38419SOL    HW218213   3.041   2.165   7.978  0.1837 -0.1141  0.0635
38420SOL     OW18214   8.377   8.250   8.015  0.0987  0.2104 -1.0433
38420SOL    HW118215   8.416   8.181   7.961  0.5473 -0.6561  0.3319
38420SOL    HW218216   8.290   8.218   8.035  1.3289 -1.5831  2.1884
38421SOL     OW18217   8.219   0.061   4.526  0.0113 -0.2766  0.1136
38421SOL    HW118218   8.256  -0.025   4.507  0.0984  0.2507 -2.5314
38421SOL    HW218219   8.293   0.121   4.521 -0.4233  0.2219 -0.5766
38422SOL     OW18220   3.251   6.816   1.247 -0.0375 -0.3107  0.0865
38422SOL    HW118221   3.222   6.898   1.209 -0.0939 -0.1788  0.4111
38422SOL    HW218222   3.225   6.821   1.339 -0.6911 -0.9940 -0.0490
38423SOL     OW18223   0.602   8.651   0.033 -0.8929  0.2096  0.2370
38423SOL    HW118224   0.630   8.737   0.001 -0.3853 -0.4062 -1.0311
38423SOL    HW218225   0.677   8.619   0.083 -1.1847  0.6017  0.9460
38424SOL     OW18226   8.398   8.825   7.050  0.1617  0.2477  0.6528
38424SOL    HW118227   8.310   8.830   7.086  0.0935  1.7662  0.3504
38424SOL    HW218228   8.395   8.753   6.988 -1.4757  1.5795 -0.9098
38425SOL     OW18229   2.750   6.032   8.204  0.2379  0.3317 -0.0426
38425SOL    HW118230   2.700   6.112   8.220  0.8995  0.3315  2.4437
38425SOL    HW218231   2.839   6.053   8.233  0.8470 -0.7704 -1.0201
38426SOL     OW18232   3.522   6.172   6.137 -0.6098 -0.3662 -0.5401
38426SOL    HW118233   3.595   6.180   6.075  0.3919  0.1983  0.6547
38426SOL    HW218234   3.475   6.093   6.109  1.0833 -1.3565 -0.7206
38427SOL     OW18235   8.306   6.133   9.073 -0.1342  0.1512  0.4308
38427SOL    HW118236   8.319   6.039   9.091 -1.4168 -0.0344  0.5117
38427SOL    HW218237   8.245   6.135   8.999  0.6114  0.9378 -0.1848
38428SOL     OW18238   2.733   1.153   6.622  0.0113  0.5303 -0.0498
38428SOL    HW118239   2.768   1.091   6.685  1.3291  0.8649 -0.4223
38428SOL    HW218240   2.686   1.099   6.559  1.3703 -0.1519 -0.5258
38429SOL     OW18241   4.404   0.817   1.132  0.1143 -0.1889 -0.1397
38429SOL    HW118242   4.488   0.823   1.176 -0.4759  0.4039  0.9308
38429SOL    HW218243   4.392   0.723   1.114  1.4206 -0.1798 -1.1659
38430SOL     OW18244   1.180   3.373   9.013 -0.2107  0.5128 -0.3822
38430SOL    HW118245   1.166   3.452   8.960 -1.2422  0.2036 -0.5849
38430SOL    HW218246   1.117   3.381   9.085  1.3681  1.0720  0.9897
38431SOL     OW18247   2.864   1.573   7.130  0.4053  0.6030 -0.3026
38431SOL    HW118248   2.862   1.479   7.147  0.0446  0.3426 -1.7139
38431SOL    HW218249   2.916   1.609   7.203  0.6054 -0.6790  0.2162
38432SOL     OW18250   2.832   8.915   0.033 -0.1350 -0.2810 -0.3820
38432SOL    HW118251   2.805   8.827   0.061  0.9057 -0.1825  1.0051
38432SOL    HW218252   2.752   8.967   0.037 -0.2441 -0.5375  1.4151
38433SOL     OW18253   8.555   5.180   7.091  0.1525  0.3943  0.1862
38433SOL    HW118254   8.564   5.100   7.142  1.0274 -0.5509 -1.4056
38433SOL    HW218255   8.463   5.181   7.065  0.2949 -0.4609 -0.3656
38434SOL     OW18256   0.946   7.732   3.750  0.1958 -0.0496 -0.0932
38434SOL    HW118257   0.869   7.697   3.705 -0.2322  1.1386 -0.3179
38434SOL    HW218258   0.925   7.726   3.843  0.7104 -1.6645 -0.0462
38435SOL     OW18259   7.359   3.772   7.177 -0.8212 -0.0170 -0.0236
38435SOL    HW118260   7.435   3.829   7.165 -0.0737 -1.1664 -1.0062
38435SOL    HW218261   7.302   3.820   7.236  0.5515  1.0045  0.5232
38436SOL     OW18262   7.614   1.754   6.619  0.1874  0.1898 -0.1212
38436SOL    HW118263   7.672   1.714   6.684 -0.5766  0.6757  0.8869
38436SOL    HW218264   7.669   1.765   6.541  0.9492 -0.9768  0.2302
38437SOL     OW18265   0.192   4.755   0.157 -0.0712  0.0172  0.0265
38437SOL    HW118266   0.197   4.816   0.231  2.1777 -1.9413  1.6672
38437SOL    HW218267   0.198   4.668   0.198 -0.5707 -1.2097 -2.3628
38438SOL     OW18268   1.229  10.225   5.462 -0.1333  0.3912 -0.1618
38438SOL    HW118269   1.210  10.258   5.550 -3.5133 -1.3446 -0.0861
38438SOL    HW218270   1.233  10.130   5.471  0.7997  0.2393 -1.7009
38439SOL     OW18271  10.605   5.199   3.923  0.1456 -0.4207  0.0867
38439SOL    HW118272  10.696   5.211   3.897  0.3346 -1.4659  0.2107
38439SOL    HW218273  10.609   5.169   4.014 -0.4113  1.1281  0.6525
38440SOL     OW18274   0.468   2.256   6.831  0.5784 -0.4355 -0.7068
38440SOL    HW118275   0.383   2.222   6.805  0.2931 -0.1215 -0.2119
38440SOL    HW218276   0.488   2.323   6.765  0.9359 -1.2292 -1.4217
38441SOL     OW18277   0.355   7.480   7.874 -0.5288 -0.0840  0.0452
38441SOL    HW118278   0.382   7.435   7.794  0.1213 -0.9010  0.7054
38441SOL    HW218279   0.267   7.514   7.854 -0.2275  0.0347 -1.1215
38442SOL     OW18280   6.174   9.991   9.593  0.0707  0.4056 -0.2748
38442SOL    HW118281   6.153   9.985   9.500 -3.0464  0.6041  0.3199
38442SOL    HW218282   6.180  10.085   9.610 -0.8581  0.4150  0.0067
38443SOL     OW18283   8.346   4.107  10.235  0.7002  0.1613 -0.4329
38443SOL    HW118284   8.434   4.069  10.232  1.2011  1.0518  1.4479
38443SOL    HW218285   8.318   4.093  10.326 -1.1520 -0.1897 -1.0367
38444SOL     OW18286   2.063   5.762   1.171 -0.0197 -0.0160  0.0781
38444SOL    HW118287   1.986   5.795   1.124 -0.0544  0.3659  0.4061
38444SOL    HW218288   2.060   5.805   1.256  0.1591 -0.5575  0.3598
38445SOL     OW18289   0.005   8.940  10.063  0.1322  0.1399  0.4879
38445SOL    HW118290  -0.038   8.892  10.133 -0.1778 -0.0406  0.1774
38445SOL    HW218291   0.094   8.906  10.062  0.1846  0.2653  0.9065
38446SOL     OW18292   0.198   7.837   0.143 -0.0506 -0.0371 -0.4812
38446SOL    HW118293   0.284   7.845   0.185  0.6887 -3.0636 -1.1727
38446SOL    HW218294   0.157   7.923   0.155  1.9208  0.6430  2.3557
38447SOL     OW18295   4.783   8.691   7.267 -0.1726  0.3791 -0.3704
38447SOL    HW118296   4.704   8.649   7.302  0.6896  1.2233  2.9244
38447SOL    HW218297   4.846   8.620   7.258  0.4026  0.4087  2.5119
38448SOL     OW18298   2.075   1.702  10.598  0.1473 -0.0239 -0.5056
38448SOL    HW118299   2.016   1.723  10.670 -1.5221 -1.7419 -1.3032
38448SOL    HW218300   2.125   1.783  10.583 -0.7063  0.8997  1.3877
38449SOL     OW18301  10.413   6.278   3.837  0.4396  0.6014  0.4824
38449SOL    HW118302  10.467   6.251   3.763 -0.2936  0.6323 -0.0861
38449SOL    HW218303  10.402   6.199   3.890 -0.9145 -0.0447 -0.6731
38450SOL     OW18304   8.724   3.755   0.228  0.1624  0.0094 -0.4567
38450SOL    HW118305   8.764   3.818   0.169  1.3784 -1.0898 -0.8506
38450SOL    HW218306   8.698   3.682   0.172 -0.6744 -0.1113  0.0708
38451SOL     OW18307   0.515   5.464   1.451 -0.2244 -0.1356  0.2456
38451SOL    HW118308   0.425   5.459   1.484 -0.8061  0.8892 -1.0873
38451SOL    HW218309   0.539   5.374   1.432 -1.8071 -0.2512 -1.4551
38452SOL     OW18310   7.615   4.602   6.288  0.4400  0.0379  0.3342
38452SOL    HW118311   7.550   4.537   6.314  0.1534  0.2953  0.2691
38452SOL    HW218312   7.695   4.576   6.334  0.4189 -0.5526  0.0386
38453SOL     OW18313   8.852   4.367   0.817 -0.2891 -0.1906  0.0727
38453SOL    HW118314   8.944   4.359   0.840  0.0084 -1.5594 -1.3874
38453SOL    HW218315   8.820   4.277   0.814 -0.9247  0.0429 -2.1672
38454SOL     OW18316   4.176   7.418   4.123  0.4927 -0.2868  0.9896
38454SOL    HW118317   4.228   7.341   4.148 -0.3936 -0.9059  0.9725
38454SOL    HW218318   4.187   7.479   4.196  0.5406 -0.7634  1.3880
38455SOL     OW18319   6.942   2.955   4.443  0.0934  0.0629 -0.0274
38455SOL    HW118320   7.034   2.942   4.465  0.1067  1.1202  0.6214
38455SOL    HW218321   6.942   3.025   4.378 -0.1907 -0.7334 -0.9127
38456SOL     OW18322   5.796   6.190   2.227 -0.5660  0.3723 -0.2695
38456SOL    HW118323   5.798   6.281   2.198 -1.6158  0.4898 -0.0245
38456SOL    HW218324   5.768   6.141   2.150  2.6795 -0.1541 -1.2519
38457SOL     OW18325   0.503   6.444   4.797  0.1549  0.1032 -0.1424
38457SOL    HW118326   0.499   6.516   4.860 -0.3221 -0.7948  0.8838
38457SOL    HW218327   0.456   6.372   4.839 -2.6127  0.2718 -2.6154
38458SOL     OW18328   1.940  10.024   2.593  0.3095 -0.5851  0.0867
38458SOL    HW118329   1.924  10.035   2.687  0.3259  0.8387 -0.0508
38458SOL    HW218330   1.862   9.979   2.560 -1.1053  1.5478  0.3165
38459SOL     OW18331   2.369   9.770  10.048  0.3290  0.7581  0.2026
38459SOL    HW118332   2.376   9.751   9.954  1.6798  1.1991  0.1854
38459SOL    HW218333   2.425   9.704  10.089 -0.9465  0.0041  0.8047
38460SOL     OW18334   7.030   4.335   1.755  0.4826  0.1506  0.1758
38460SOL    HW118335   6.951   4.376   1.789  0.3893  2.0477 -2.0267
38460SOL    HW218336   7.009   4.314   1.664  2.9991  2.4835 -1.0836
38461SOL     OW18337   0.994   1.986   5.030 -0.3187 -0.2542  0.6053
38461SOL    HW118338   1.067   1.934   4.995 -0.6088  1.4346 -2.9185
38461SOL    HW218339   1.034   2.069   5.055 -0.4816 -0.7148  2.6149
38462SOL     OW18340   0.288  10.414   9.296 -0.0865 -0.4864  0.3214
38462SOL    HW118341   0.260  10.400   9.387  0.2190 -0.4037  0.4296
38462SOL    HW218342   0.221  10.369   9.244  1.4596 -3.5224  0.6889
38463SOL     OW18343   1.455   5.085   0.896  0.4950  0.2061  0.2640
38463SOL    HW118344   1.384   5.053   0.952  1.3802  0.9396  1.8708
38463SOL    HW218345   1.481   5.009   0.845 -0.3700 -0.4866  0.8213
38464SOL     OW18346   2.707   2.167   1.575 -0.3450 -0.2792 -1.0897
38464SOL    HW118347   2.782   2.204   1.622 -0.8042 -1.0427  0.2993
38464SOL    HW218348   2.695   2.225   1.500  1.3806  0.0907 -1.1257
38465SOL     OW18349   5.684   2.279   8.189 -0.2350  0.2810 -0.1623
38465SOL    HW118350   5.732   2.354   8.154  0.6067 -0.4746 -0.6691
38465SOL    HW218351   5.594   2.310   8.196  0.2872  1.7069  0.7559
38466SOL     OW18352  10.545   1.529   8.886 -0.2407  0.3335  0.2833
38466SOL    HW118353  10.525   1.500   8.797 -0.3838 -0.7873  0.6624
38466SOL    HW218354  10.517   1.620   8.888  0.4441  0.6095 -1.0311
38467SOL     OW18355   7.204  10.096   7.716 -0.1339  0.1867  0.1790
38467SOL    HW118356   7.258  10.060   7.645 -0.0195  0.0930  0.3121
38467SOL    HW218357   7.209  10.030   7.785  1.5264  1.2095  1.1196
38468SOL     OW18358   6.197   4.490   1.495 -0.4542  0.2233 -0.3375
38468SOL    HW118359   6.123   4.430   1.485 -0.2216 -0.5720  1.9723
38468SOL    HW218360   6.269   4.448   1.447 -0.8194 -0.3605 -0.3903
38469SOL     OW18361   5.563   2.621   6.562 -0.7170  0.3113  0.0428
38469SOL    HW118362   5.594   2.700   6.518  1.1006 -1.1366 -1.4631
38469SOL    HW218363   5.638   2.592   6.614 -1.2489 -0.5978  0.3221
38470SOL     OW18364   5.287   5.162   6.241  0.3598 -0.0393  0.0206
38470SOL    HW118365   5.193   5.145   6.236  0.6131 -2.2211  1.3705
38470SOL    HW218366   5.299   5.243   6.192 -1.7888 -1.2828 -2.8432
38471SOL     OW18367   9.376   7.092   9.770 -0.5193  0.1785  0.3525
38471SOL    HW118368   9.408   7.011   9.809 -2.1195 -1.0606 -0.7881
38471SOL    HW218369   9.449   7.123   9.715  0.2009 -0.3201  1.0094
38472SOL     OW18370   2.095   4.215   1.873 -0.2125 -0.0360 -0.0455
38472SOL    HW118371   2.151   4.292   1.867  0.1062 -0.2882 -0.3187
38472SOL    HW218372   2.008   4.246   1.845 -0.1035  0.2412 -0.0782
38473SOL     OW18373   0.567   2.806   9.608  0.3010 -0.0520 -0.3070
38473SOL    HW118374   0.479   2.818   9.644 -0.3604 -0.0589 -1.8511
38473SOL    HW218375   0.604   2.733   9.658 -0.9803 -0.7607 -0.3615
38474SOL     OW18376   8.077   7.802   8.236 -0.4546 -0.7628 -0.5752
38474SOL    HW118377   8.111   7.887   8.263 -0.1289 -0.9081 -0.5228
38474SOL    HW218378   8.155   7.749   8.221 -0.6585 -1.3449  0.3240
38475SOL     OW18379   1.146   6.776   7.392  0.5480 -0.4689  0.2080
38475SOL    HW118380   1.116   6.729   7.469  2.7471 -1.2487  0.6615
38475SOL    HW218381   1.093   6.741   7.320 -1.0250 -0.2431  1.2188
38476SOL     OW18382   8.199   2.122   4.679 -0.3833  0.3308  0.4183
38476SOL    HW118383   8.172   2.192   4.619  3.0206  0.9766 -0.5667
38476SOL    HW218384   8.230   2.168   4.757  0.9317 -0.0986  0.1707
38477SOL     OW18385   3.970   3.793   9.435 -0.3531 -0.0937  0.5536
38477SOL    HW118386   3.925   3.867   9.474  0.9560 -0.1066  2.2298
38477SOL    HW218387   3.943   3.718   9.488  0.1321 -0.4069  0.3675
38478SOL     OW18388   1.833   1.365   2.386 -0.1276  0.7120  0.3687
38478SOL    HW118389   1.906   1.409   2.342 -0.4342  0.1916 -0.6874
38478SOL    HW218390   1.760   1.428   2.381 -0.7299 -0.0678 -1.6366
38479SOL     OW18391   9.798   1.501   2.235 -0.7810 -0.2360  0.5352
38479SOL    HW118392   9.760   1.546   2.160 -0.8342  1.9635  1.8019
38479SOL    HW218393   9.818   1.413   2.203 -0.7654  0.6374 -2.0396
38480SOL     OW18394   1.269   7.680   7.455  0.2875  0.4152  0.6009
38480SOL    HW118395   1.192   7.705   7.404  1.2094  1.1666 -0.4626
38480SOL    HW218396   1.243   7.599   7.499 -0.5536 -0.2867 -1.0945
38481SOL     OW18397   4.269   1.156   8.354 -0.1220  0.4250  0.2273
38481SOL    HW118398   4.303   1.067   8.346 -1.1086  0.0241  0.3017
38481SOL    HW218399   4.280   1.194   8.266  1.1386  0.5644  0.4222
38482SOL     OW18400   8.301   4.682   8.246 -0.2339 -0.0348  0.5118
38482SOL    HW118401   8.272   4.762   8.202 -0.7387  0.5114  1.7795
38482SOL    HW218402   8.293   4.702   8.339 -1.6210 -1.9902  0.8679
38483SOL     OW18403   4.160   4.229   3.767 -0.4104  0.0968 -0.3854
38483SOL    HW118404   4.094   4.160   3.770 -0.6581  0.3649  1.6564
38483SOL    HW218405   4.111   4.307   3.740 -0.4854 -0.1265 -0.9156
38484SOL     OW18406   9.143   8.573   2.409  0.2790 -0.2890  0.2470
38484SOL    HW118407   9.146   8.482   2.381 -0.8816 -0.3762  0.3450
38484SOL    HW218408   9.106   8.620   2.333  0.3332  0.0040  0.4011
38485SOL     OW18409   3.416   1.376   5.172 -0.2572  0.5115 -0.2795
38485SOL    HW118410   3.349   1.392   5.106 -0.6110 -2.2585 -0.7284
38485SOL    HW218411   3.431   1.462   5.212 -1.6824  1.8401 -2.3704
38486SOL     OW18412   5.638   9.638   8.100  0.2223  0.0763  0.5665
38486SOL    HW118413   5.695   9.689   8.044 -2.0393 -0.1385 -2.1771
38486SOL    HW218414   5.625   9.556   8.052 -0.8379 -0.6506  2.0157
38487SOL     OW18415   4.215   1.689   1.905 -0.4767  0.3044  0.0104
38487SOL    HW118416   4.308   1.705   1.886 -0.9274  0.7606 -2.0009
38487SOL    HW218417   4.177   1.666   1.820 -2.2593  0.3300  0.7719
38488SOL     OW18418   5.497   1.134  10.185  0.3158 -0.2188 -1.0848
38488SOL    HW118419   5.415   1.134  10.234  0.3299 -2.0884 -0.9648
38488SOL    HW218420   5.566   1.139  10.252  0.3920  2.8611 -1.2358
38489SOL     OW18421   9.951   3.127   9.787  0.5763  0.3254 -0.5139
38489SOL    HW118422   9.890   3.090   9.850  0.8358  0.8190  0.0331
38489SOL    HW218423  10.028   3.150   9.838  1.8098 -1.5629 -1.3918
38490SOL     OW18424   4.461   6.889   6.639 -0.1637  0.0174 -0.2387
38490SOL    HW118425   4.491   6.909   6.728 -0.3261 -1.5104  0.1858
38490SOL    HW218426   4.475   6.970   6.591 -1.5975  1.4191  1.5631
38491SOL     OW18427   8.490   3.532   4.314 -0.5697  0.1628 -0.3212
38491SOL    HW118428   8.457   3.494   4.233 -0.5930 -0.7078  0.0853
38491SOL    HW218429   8.412   3.550   4.366 -0.5255  0.2025 -0.2678
38492SOL     OW18430   6.404   0.003   7.415  0.3607  0.2882 -0.4306
38492SOL    HW118431   6.430   0.095   7.423 -1.4873  0.7191  2.3402
38492SOL    HW218432   6.450  -0.040   7.486 -1.3717 -0.1700  0.4831
38493SOL     OW18433   1.169   9.499   1.298  0.8675  0.2210  0.2160
38493SOL    HW118434   1.261   9.511   1.274  1.1847 -0.9975  0.7455
38493SOL    HW218435   1.146   9.413   1.265  0.7393 -0.6594  2.3997
38494SOL     OW18436   9.383   4.037   2.883  0.1104  0.5530  0.5505
38494SOL    HW118437   9.364   4.131   2.887 -0.7323  0.3806  0.7285
38494SOL    HW218438   9.439   4.021   2.959  1.6965  1.2070 -0.4071
38495SOL     OW18439   3.230   5.574   9.887  0.0237 -0.8815  0.0717
38495SOL    HW118440   3.258   5.649   9.834  0.5086 -1.5172 -0.5984
38495SOL    HW218441   3.262   5.594   9.975  2.7976 -1.6235 -0.6685
38496SOL     OW18442   8.989   6.230   5.565 -0.3122 -0.8147  0.2060
38496SOL    HW118443   9.002   6.171   5.640  1.2091 -1.1685 -0.2953
38496SOL    HW218444   9.056   6.297   5.575 -0.9890 -0.0804 -0.1077
38497SOL     OW18445   4.339  10.206   5.499 -0.1803  0.5200 -0.1083
38497SOL    HW118446   4.352  10.264   5.574 -1.0253  0.5796 -0.0047
38497SOL    HW218447   4.246  10.215   5.477 -0.4995 -1.3248  0.3543
38498SOL     OW18448   0.506  10.509   1.352 -0.4076 -0.2815  0.3077
38498SOL    HW118449   0.521  10.520   1.258 -1.0538  0.2078  0.2567
38498SOL    HW218450   0.518  10.597   1.388 -0.5337 -0.3973  0.6281
38499SOL     OW18451   7.481   0.316  10.045 -0.2269  0.5949  0.0454
38499SOL    HW118452   7.479   0.299  10.139  0.3515  1.7540  0.3004
38499SOL    HW218453   7.415   0.384  10.031 -1.5097 -0.7632 -0.6858
38500SOL     OW18454   9.805  10.473   8.774  0.2469  0.5682 -0.2485
38500SOL    HW118455   9.744  10.494   8.845  0.2850 -0.0404 -0.0333
38500SOL    HW218456   9.889  10.509   8.803  0.2205  0.4895 -0.0739
38501SOL     OW18457   2.033   9.994   4.706  0.2505 -0.2730  0.2184
38501SOL    HW118458   2.077   9.924   4.658 -1.2553 -0.3949 -1.0740
38501SOL    HW218459   1.947   9.958   4.728  0.0371  0.6227  0.9515
38502SOL     OW18460   0.113   1.034   2.194 -0.0744  0.1005  0.5669
38502SOL    HW118461   0.092   0.944   2.169  0.1021 -0.0145  0.8313
38502SOL    HW218462   0.066   1.088   2.130  0.2548 -0.1866  0.0737
38503SOL     OW18463   7.226   5.826   3.940 -0.1406 -0.3463  1.0613
38503SOL    HW118464   7.270   5.909   3.956  0.0062 -0.0029 -0.8307
38503SOL    HW218465   7.136   5.840   3.968  0.4930 -0.4929  3.3415
38504SOL     OW18466   4.942   1.509   7.068  0.5835 -0.2227  0.1778
38504SOL    HW118467   4.974   1.469   7.149  3.2470  0.6642 -0.3295
38504SOL    HW218468   4.932   1.436   7.007 -1.1288 -0.8514  1.1427
38505SOL     OW18469   8.140   7.560   8.996  0.0739  0.0840 -0.2796
38505SOL    HW118470   8.220   7.518   8.965 -0.3531  0.1012 -1.4517
38505SOL    HW218471   8.170   7.634   9.048  0.8171 -0.2303 -0.2505
38506SOL     OW18472   0.238   1.269   3.663 -0.2009 -0.1425 -0.4596
38506SOL    HW118473   0.325   1.309   3.658  0.0676 -0.5120  0.8006
38506SOL    HW218474   0.253   1.184   3.703 -0.9399 -0.9831 -1.8857
38507SOL     OW18475   2.702   2.310   2.194 -0.3883  0.1255 -0.0148
38507SOL    HW118476   2.660   2.354   2.120 -1.0513 -1.4566 -0.6417
38507SOL    HW218477   2.666   2.221   2.191  0.6036 -0.3470  1.4082
38508SOL     OW18478   2.249   8.381   3.288 -0.1556  0.2406 -0.3541
38508SOL    HW118479   2.277   8.454   3.233 -0.0721  2.3083  2.2192
38508SOL    HW218480   2.329   8.352   3.332 -0.6480  0.7566  0.9526
38509SOL     OW18481   1.722   1.029   1.132 -0.8343 -0.1874 -0.6323
38509SOL    HW118482   1.681   1.114   1.116 -0.5685 -0.4938 -3.3660
38509SOL    HW218483   1.652   0.975   1.168 -1.9417  0.2787 -1.9989
38510SOL     OW18484   9.868   6.543   7.037  0.4769  0.4781  0.1391
38510SOL    HW118485   9.886   6.525   6.944  2.8121 -0.5021  0.7142
38510SOL    HW218486   9.797   6.608   7.035 -0.5665 -0.5815 -2.2870
38511SOL     OW18487   0.706   6.083   6.797  0.6011 -0.3068 -0.3575
38511SOL    HW118488   0.650   6.127   6.860  0.1787 -0.2746 -0.7533
38511SOL    HW218489   0.794   6.116   6.816  0.6721 -1.2041  1.0064
38512SOL     OW18490   3.393   6.427   1.045 -0.3888  0.0652 -0.0239
38512SOL    HW118491   3.423   6.455   0.959  0.7520  0.7532  0.5653
38512SOL    HW218492   3.322   6.488   1.067  0.2080  0.7435  0.0680
38513SOL     OW18493   2.829   5.409   9.759 -0.1609  0.3583 -0.3047
38513SOL    HW118494   2.800   5.335   9.813  0.4755  0.2462 -0.1089
38513SOL    HW218495   2.831   5.483   9.818 -0.5357  0.4776 -0.4381
38514SOL     OW18496   9.617   1.782   1.272 -0.7887  0.1688  0.1102
38514SOL    HW118497   9.538   1.829   1.301 -1.5455 -1.2980  0.5460
38514SOL    HW218498   9.588   1.734   1.194  0.2149  1.0965 -0.8691
38515SOL     OW18499   9.652   6.504   0.462  0.2693 -0.4765 -0.1269
38515SOL    HW118500   9.623   6.528   0.374  0.6899 -0.6753 -0.3242
38515SOL    HW218501   9.747   6.492   0.453  0.5758  1.0590  0.6976
38516SOL     OW18502   6.858   9.186   0.318 -0.1843 -0.7259 -0.6267
38516SOL    HW118503   6.786   9.133   0.352  0.9117 -1.5519  0.5348
38516SOL    HW218504   6.868   9.157   0.227 -0.8378 -1.1510 -0.5682
38517SOL     OW18505   8.797   8.489   2.171  0.2547  0.2844 -0.1572
38517SOL    HW118506   8.841   8.556   2.224 -0.5136 -0.1209  1.0354
38517SOL    HW218507   8.818   8.406   2.216 -0.0894 -0.1170 -0.7258
38518SOL     OW18508   8.871   7.678   9.407  0.2184 -0.5420 -0.1501
38518SOL    HW118509   8.886   7.742   9.338  0.2406  0.1025  0.4476
38518SOL    HW218510   8.818   7.610   9.365  0.9120 -0.5631 -1.0146
38519SOL     OW18511   9.593   7.461   0.356  0.0048 -0.2987 -0.4135
38519SOL    HW118512   9.590   7.525   0.428 -2.0985 -0.2222 -0.4975
38519SOL    HW218513   9.550   7.383   0.392  2.3490 -1.6725 -0.3795
38520SOL     OW18514   9.495  10.413   6.926 -0.2643 -0.2239 -0.0454
38520SOL    HW118515   9.509  10.493   6.976 -1.5488 -0.6756  1.0986
38520SOL    HW218516   9.434  10.438   6.857 -1.6500 -0.4331  1.0506
38521SOL     OW18517   4.243   1.966  10.647  0.2863 -0.7518 -0.4544
38521SOL    HW118518   4.316   1.955  10.587 -0.7317 -1.1597 -1.6714
38521SOL    HW218519   4.222   2.060  10.642 -1.7748 -1.2383 -3.2608
38522SOL     OW18520   9.133   4.123   9.877 -0.2994 -0.5642 -0.3038
38522SOL    HW118521   9.173   4.198   9.833 -0.9375 -1.0002 -1.6694
38522SOL    HW218522   9.069   4.163   9.936 -0.2065 -0.0070 -0.5667
38523SOL     OW18523   3.475   1.768   8.319  0.0080  0.2404  0.7342
38523SOL    HW118524   3.395   1.724   8.290  0.0150  0.8740 -0.2892
38523SOL    HW218525   3.494   1.831   8.250  1.4623  0.0170  0.9007
38524SOL     OW18526   0.353   0.450   1.236  0.2973  0.1088 -0.5175
38524SOL    HW118527   0.297   0.518   1.274 -0.0068 -0.6402  0.4193
38524SOL    HW218528   0.429   0.447   1.293  0.2335 -0.4377 -0.4597
38525SOL     OW18529   3.317   2.327   1.629 -0.8626  0.8730  0.5786
38525SOL    HW118530   3.338   2.310   1.721  0.8650 -0.0353  0.0833
38525SOL    HW218531   3.399   2.362   1.592 -0.1345 -2.4498 -1.4320
38526SOL     OW18532   5.634   4.922   6.116  0.3470 -0.3124 -0.4624
38526SOL    HW118533   5.540   4.915   6.132  0.5377 -0.4141  0.7580
38526SOL    HW218534   5.667   4.971   6.192  1.5466 -1.9440  0.1261
38527SOL     OW18535   4.105   3.447   9.582  0.1953 -0.2991 -0.4365
38527SOL    HW118536   4.017   3.422   9.609  0.4294 -0.5273  0.1497
38527SOL    HW218537   4.144   3.366   9.549 -0.0660 -0.0345 -1.4317
38528SOL     OW18538   4.090  10.170   3.026  0.4869 -0.3201  0.4062
38528SOL    HW118539   4.017  10.164   2.964  0.1282 -0.6440  0.8471
38528SOL    HW218540   4.055  10.132   3.107  0.9754  0.0129  0.7796
38529SOL     OW18541   1.010   4.052   6.682 -0.1421  0.2264 -0.0676
38529SOL    HW118542   0.977   4.111   6.614 -3.3243 -0.6070  0.5746
38529SOL    HW218543   0.980   4.090   6.764  0.3364 -0.7542  0.5834
38530SOL     OW18544   3.724   1.683   8.794 -0.3226 -0.1305 -0.0180
38530SOL    HW118545   3.664   1.630   8.846  0.4340 -1.3047 -0.2983
38530SOL    HW218546   3.706   1.659   8.703  0.0388  0.0812 -0.1522
38531SOL     OW18547   2.495   7.981   4.721  0.3754  0.1001 -0.2597
38531SOL    HW118548   2.435   7.908   4.708  0.0641 -0.4654  3.3583
38531SOL    HW218549   2.446   8.058   4.692 -0.8641 -0.6868 -0.3314
38532SOL     OW18550   8.268   7.845   6.427 -0.1116  0.2305 -0.3435
38532SOL    HW118551   8.322   7.807   6.496 -1.4428 -2.0131 -0.4585
38532SOL    HW218552   8.307   7.815   6.345 -1.7269 -1.8473 -0.4227
38533SOL     OW18553   1.731   6.737   7.636  0.1287  0.1526 -0.9969
38533SOL    HW118554   1.777   6.817   7.609 -1.0765  1.1772 -0.0904
38533SOL    HW218555   1.773   6.712   7.719  1.7718 -1.2760 -2.1747
38534SOL     OW18556   9.695   1.842   0.596 -0.9613  0.0819 -0.2918
38534SOL    HW118557   9.630   1.905   0.628 -0.4125  2.0392 -2.7591
38534SOL    HW218558   9.645   1.781   0.542 -1.1521 -0.2972  0.2951
38535SOL     OW18559  10.599   1.459   9.975  0.3334  0.3742 -0.9461
38535SOL    HW118560  10.600   1.545  10.016 -1.6512  1.2052 -2.4900
38535SOL    HW218561  10.588   1.398  10.047 -0.3038  1.5634 -0.0046
38536SOL     OW18562   7.259   6.913   0.110 -0.4011  0.0350  0.0488
38536SOL    HW118563   7.295   6.854   0.177 -0.8869 -0.1546  0.1434
38536SOL    HW218564   7.196   6.967   0.157  2.8898  3.5275  0.9259
38537SOL     OW18565   4.023  10.485   0.111  0.4844  0.4192  0.2798
38537SOL    HW118566   4.059  10.522   0.030 -0.8306  1.5393  0.1844
38537SOL    HW218567   3.953  10.544   0.136 -0.1025 -0.7217  1.4556
38538SOL     OW18568   7.363   8.589   2.857 -0.2717  0.3693  0.3354
38538SOL    HW118569   7.373   8.551   2.945  3.0892  0.3125  0.0521
38538SOL    HW218570   7.270   8.578   2.837 -0.6274 -2.1836  2.7354
38539SOL     OW18571   3.392   3.404   7.245 -0.4141  0.2561  0.6918
38539SOL    HW118572   3.395   3.313   7.215 -0.2781 -0.0598  1.6362
38539SOL    HW218573   3.469   3.445   7.206  0.1232 -0.3181  1.1354
38540SOL     OW18574   2.125  10.471   3.196  0.4003 -0.3061  0.6032
38540SOL    HW118575   2.059  10.490   3.130  0.0788  3.3628  1.7582
38540SOL    HW218576   2.208  10.495   3.155  0.2625  1.3713  1.2204
38541SOL     OW18577   0.933   9.505   9.953 -0.0057 -0.2823 -0.1498
38541SOL    HW118578   0.900   9.418   9.980  0.3081 -0.5655 -0.6695
38541SOL    HW218579   1.025   9.505   9.978  0.0619 -0.2023 -0.3933
38542SOL     OW18580   3.357   8.585   9.913  0.2114  0.1038  0.1268
38542SOL    HW118581   3.387   8.675   9.918  0.1023  0.1608 -0.2306
38542SOL    HW218582   3.387   8.554   9.828 -0.6951  0.1506 -0.2295
38543SOL     OW18583   7.341   9.685   5.366  0.1860  0.3481 -0.3211
38543SOL    HW118584   7.421   9.683   5.314 -0.0709  2.0828 -0.8497
38543SOL    HW218585   7.271   9.665   5.304  0.1862 -1.1827  0.1427
38544SOL     OW18586   2.435   5.375  10.339 -0.3121  0.0202  0.7750
38544SOL    HW118587   2.344   5.348  10.328 -0.3958 -0.0490  1.5567
38544SOL    HW218588   2.471   5.313  10.402  1.3106 -2.1605 -2.0577
38545SOL     OW18589   2.609   2.772   2.036 -0.1465 -0.3265  0.3834
38545SOL    HW118590   2.643   2.750   2.123  0.0358  1.4724  0.8229
38545SOL    HW218591   2.675   2.833   2.000 -0.3195 -0.8853 -0.9414
38546SOL     OW18592   0.121   1.906   6.805  0.1493  0.5768 -0.3413
38546SOL    HW118593   0.038   1.862   6.825 -0.3762  1.8801  0.5017
38546SOL    HW218594   0.112   1.993   6.846  2.3562  0.3724  0.6827
38547SOL     OW18595   3.814   9.444   4.830  0.0513  0.3496  0.1596
38547SOL    HW118596   3.819   9.414   4.920  2.5993  0.1431  0.0242
38547SOL    HW218597   3.822   9.365   4.777  0.7866  0.6605 -0.2181
38548SOL     OW18598   3.853   1.093   8.758 -0.2113  0.1043  0.0119
38548SOL    HW118599   3.796   1.109   8.682 -0.1789  1.5521  0.2493
38548SOL    HW218600   3.902   1.175   8.768  1.4159 -0.8638  0.2466
38549SOL     OW18601   4.211   3.613   7.257 -0.5026 -0.1738 -0.1870
38549SOL    HW118602   4.187   3.680   7.193 -0.9485  1.1537  1.3009
38549SOL    HW218603   4.127   3.582   7.291 -0.2752 -0.9511 -0.3188
38550SOL     OW18604  10.010   2.514   1.972 -0.3970  0.4439  0.1170
38550SOL    HW118605   9.942   2.506   2.039 -1.6295 -2.7885 -1.3329
38550SOL    HW218606  10.024   2.425   1.940 -1.1769  1.8402 -5.1069
38551SOL     OW18607  10.424  10.334  10.675 -0.1110  0.0492  0.7428
38551SOL    HW118608  10.459  10.423  10.666 -2.2181  1.0885  1.9147
38551SOL    HW218609  10.494  10.285  10.717  1.1819  1.0874 -0.1244
38552SOL     OW18610   0.531  10.325   0.036 -0.3790 -0.2464  0.3927
38552SOL    HW118611   0.450  10.280   0.058  0.7464 -2.2014  0.7166
38552SOL    HW218612   0.574  10.341   0.121 -0.5992  1.2197  0.2675
38553SOL     OW18613   3.857   9.318   9.197 -0.0504  0.2229 -0.4771
38553SOL    HW118614   3.895   9.345   9.280  0.6286  0.3095 -0.8049
38553SOL    HW218615   3.931   9.318   9.136 -0.6896  0.9907 -1.2747
38554SOL     OW18616   9.714   7.180   6.945 -0.4836  0.0898 -0.0426
38554SOL    HW118617   9.632   7.143   6.976 -1.4298 -1.1531 -3.5287
38554SOL    HW218618   9.778   7.109   6.954 -0.5990 -0.0465 -0.2832
38555SOL     OW18619   6.708   3.486   7.990  0.0457 -0.2102  0.2630
38555SOL    HW118620   6.753   3.467   7.908  0.6651  1.7496  0.0942
38555SOL    HW218621   6.747   3.426   8.054  0.9826 -0.3847 -0.4544
38556SOL     OW18622   7.934   6.746   1.863 -0.1718 -0.3271  0.2339
38556SOL    HW118623   7.893   6.660   1.854 -1.2059  0.1531  0.1029
38556SOL    HW218624   8.013   6.742   1.810 -0.9927 -0.7243 -0.9952
38557SOL     OW18625   5.160  10.583   9.790  0.0986 -0.0387 -0.5724
38557SOL    HW118626   5.247  10.547   9.772 -0.0480 -0.5306 -0.3066
38557SOL    HW218627   5.101  10.530   9.738  0.0553  1.0394 -1.6801
38558SOL     OW18628   1.457   1.091   6.100  0.1883  0.1368 -0.0335
38558SOL    HW118629   1.478   1.143   6.022 -0.9282 -1.2639 -1.3301
38558SOL    HW218630   1.365   1.068   6.089 -0.2352  0.6073  2.1581
38559SOL     OW18631   1.862   6.078   9.188  0.0750  0.0876  0.1981
38559SOL    HW118632   1.949   6.096   9.153 -0.1986 -0.3495 -0.7379
38559SOL    HW218633   1.871   5.994   9.234 -0.2936 -1.0519 -1.6892
38560SOL     OW18634   5.850   4.229   9.300 -0.1943 -0.1798 -0.3765
38560SOL    HW118635   5.946   4.223   9.306 -0.1573 -0.9176 -1.5077
38560SOL    HW218636   5.825   4.280   9.377  1.2084  0.9441 -0.6201
38561SOL     OW18637   0.060   9.076  10.444  0.3771 -0.0962 -0.1258
38561SOL    HW118638   0.020   9.104  10.362 -1.8178 -0.1409  0.8543
38561SOL    HW218639  -0.013   9.041  10.496  1.8375 -0.9031  1.4982
38562SOL     OW18640   4.820   5.214   1.345 -0.4730 -0.0220  0.1430
38562SOL    HW118641   4.818   5.143   1.280 -0.6512  0.3101 -0.2205
38562SOL    HW218642   4.776   5.287   1.302  0.6887  0.6752  0.0929
38563SOL     OW18643   1.614   9.115   2.534  0.1161  0.2447  0.5563
38563SOL    HW118644   1.684   9.084   2.477  0.5757 -0.7986  1.6478
38563SOL    HW218645   1.636   9.080   2.621 -1.2262  0.7300  1.1221
38564SOL     OW18646   3.914   7.323   4.226  0.2608 -0.0985 -0.3442
38564SOL    HW118647   3.947   7.233   4.226  0.4994 -0.0638  1.8141
38564SOL    HW218648   3.962   7.366   4.155  3.1372 -0.6787  1.0837
38565SOL     OW18649   0.359   0.995   8.651  0.0847  0.3733  0.1834
38565SOL    HW118650   0.383   0.917   8.700  0.9636  1.4852  1.6431
38565SOL    HW218651   0.405   0.986   8.567 -0.7211 -1.1561 -0.1168
38566SOL     OW18652   6.382   7.064   4.242 -0.1342  0.1117  0.6773
38566SOL    HW118653   6.370   6.970   4.256  0.0373  0.0078  0.1333
38566SOL    HW218654   6.451   7.071   4.176  0.3469  0.6350  1.2113
38567SOL     OW18655   1.964   3.952   0.687 -0.4632  0.8966  0.1950
38567SOL    HW118656   1.899   3.937   0.618 -0.7157 -0.8982  0.7582
38567SOL    HW218657   1.964   4.046   0.701 -2.0299  1.0567 -0.6958
38568SOL     OW18658   9.438   9.357   4.363  0.3787  0.3295  0.0112
38568SOL    HW118659   9.435   9.440   4.316 -0.6844  0.1134 -0.3420
38568SOL    HW218660   9.465   9.293   4.296  2.1096  0.5118  0.4999
38569SOL     OW18661   8.815   6.004   9.759  1.0140 -0.0163  0.0931
38569SOL    HW118662   8.794   6.045   9.675 -0.3291  0.0351  0.4364
38569SOL    HW218663   8.885   5.942   9.738  1.9715  1.3048 -0.7130
38570SOL     OW18664   5.479   7.406   0.663  0.2838  0.3640  0.1223
38570SOL    HW118665   5.444   7.481   0.615  0.0296 -0.7832 -1.5824
38570SOL    HW218666   5.447   7.330   0.615  0.9553 -0.8336  1.5024
38571SOL     OW18667   2.727   2.676   0.277  0.5722  0.0605 -0.3018
38571SOL    HW118668   2.701   2.712   0.362  1.0384  0.0548 -0.1590
38571SOL    HW218669   2.693   2.586   0.278 -1.1128  0.6456 -0.8929
38572SOL     OW18670   5.145   6.716   7.960  0.2522  0.2913  0.1554
38572SOL    HW118671   5.070   6.697   8.017 -0.8885  1.2882 -0.9315
38572SOL    HW218672   5.214   6.744   8.019 -0.7776  0.9504  1.0968
38573SOL     OW18673   1.111   0.577   2.512  0.3240 -0.4703  0.4617
38573SOL    HW118674   1.056   0.655   2.521 -2.2724 -1.7044 -2.8708
38573SOL    HW218675   1.050   0.504   2.505  2.5088 -2.3299 -0.6264
38574SOL     OW18676   4.856   3.185   8.341 -0.3974 -0.6898  0.0820
38574SOL    HW118677   4.902   3.265   8.366  0.1096 -0.9895  0.1280
38574SOL    HW218678   4.919   3.138   8.287 -1.1925 -0.4057 -1.1328
38575SOL     OW18679   4.507   4.811   8.589 -0.1407 -0.2874 -0.1182
38575SOL    HW118680   4.533   4.752   8.660  0.4153 -0.3587 -0.3812
38575SOL    HW218681   4.442   4.869   8.629  0.1829 -0.3144  0.4548
38576SOL     OW18682   3.760   3.859   7.930 -0.3251  0.0767 -0.7393
38576SOL    HW118683   3.722   3.944   7.952  0.1197  0.0515  0.1803
38576SOL    HW218684   3.712   3.797   7.986  1.7361  0.1690  1.2645
38577SOL     OW18685   9.812   9.395   0.034 -0.2291 -0.2962 -0.4207
38577SOL    HW118686   9.895   9.352   0.013 -0.6014 -0.0886 -2.5121
38577SOL    HW218687   9.750   9.324   0.044 -0.0771 -0.3982 -0.2019
38578SOL     OW18688   6.567   2.115   7.579  0.1146 -0.1483  0.4202
38578SOL    HW118689   6.593   2.031   7.542 -0.5905 -0.4243  0.5323
38578SOL    HW218690   6.485   2.136   7.534  1.2375  1.4179 -1.0225
38579SOL     OW18691   8.142   7.464   8.173 -0.2858 -0.7290  0.5003
38579SOL    HW118692   8.199   7.458   8.250  0.3258  2.9374  0.4749
38579SOL    HW218693   8.053   7.459   8.209  0.0086 -0.3730  1.3062
38580SOL     OW18694   9.247   3.913   3.491  0.4168  0.7277 -0.1556
38580SOL    HW118695   9.262   3.989   3.546  0.0441  1.3607 -0.9008
38580SOL    HW218696   9.216   3.949   3.408  2.9135 -0.0497 -1.5339
38581SOL     OW18697   2.736   7.478   2.149  0.6002  0.4409 -0.0144
38581SOL    HW118698   2.674   7.519   2.209 -0.0123 -0.7482  0.1994
38581SOL    HW218699   2.684   7.450   2.075  1.1446  0.7768 -0.5307
38582SOL     OW18700   9.232   2.697   3.032  0.0590 -0.0621  0.2355
38582SOL    HW118701   9.320   2.734   3.034  0.1208 -0.1541 -0.4916
38582SOL    HW218702   9.179   2.757   3.085  0.5072  0.1285  0.4670
38583SOL     OW18703   8.332   3.223   2.945 -0.4002 -0.2618 -0.3531
38583SOL    HW118704   8.383   3.300   2.969 -0.1201 -0.1685 -1.2284
38583SOL    HW218705   8.244   3.241   2.979 -0.2341  0.2504 -0.1868
38584SOL     OW18706   2.719   0.887   1.092  0.2262 -0.3593 -0.2412
38584SOL    HW118707   2.661   0.879   1.167 -0.1336 -0.7640 -0.5590
38584SOL    HW218708   2.774   0.809   1.096  0.6560 -0.0494 -0.0230
38585SOL     OW18709   5.384   5.163   1.275  0.1816 -0.2973  0.6352
38585SOL    HW118710   5.368   5.134   1.185  0.8517  0.1712  0.3561
38585SOL    HW218711   5.468   5.124   1.298  1.0281  1.2522  0.3024
38586SOL     OW18712  10.460   2.192   6.398  0.0916  0.2916  0.5127
38586SOL    HW118713  10.418   2.127   6.455 -0.6422  0.2251 -0.0867
38586SOL    HW218714  10.554   2.170   6.402 -0.1031 -0.5529  0.6269
38587SOL     OW18715   8.800   9.133   2.194  0.0079 -0.9357  0.7318
38587SOL    HW118716   8.826   9.107   2.106 -3.5004  1.2991 -1.1849
38587SOL    HW218717   8.856   9.208   2.215 -1.6583  1.0358 -1.4193
38588SOL     OW18718   4.050   2.349   5.623  0.6927  0.3904 -0.1320
38588SOL    HW118719   4.078   2.376   5.536  1.7908 -0.6996 -0.1505
38588SOL    HW218720   4.006   2.426   5.659  2.3169  1.6839 -0.7582
38589SOL     OW18721   8.741   3.742   9.765 -0.3485  0.1984 -0.0091
38589SOL    HW118722   8.727   3.813   9.702 -1.1508 -0.7454 -0.9346
38589SOL    HW218723   8.826   3.704   9.740  0.7126  1.5820  1.2855
38590SOL     OW18724   9.948   7.366   0.087 -0.0639 -0.7628  0.0649
38590SOL    HW118725   9.952   7.458   0.115 -0.8583 -0.4634 -0.7462
38590SOL    HW218726   9.941   7.371  -0.009 -0.2528 -1.6671  0.0245
38591SOL     OW18727   3.200   3.125   6.283  0.3124  0.5833 -0.3237
38591SOL    HW118728   3.130   3.149   6.222 -0.4223 -0.4807  0.0871
38591SOL    HW218729   3.205   3.030   6.278  1.4014  0.6105  0.0273
38592SOL     OW18730   6.440   8.925   4.415 -0.4528  0.8484  0.7255
38592SOL    HW118731   6.507   8.866   4.449 -0.9989 -0.1287  0.1688
38592SOL    HW218732   6.392   8.871   4.352  1.1387  2.8001 -2.3993
38593SOL     OW18733   2.204   5.854   9.777  0.5889  0.6024 -0.1114
38593SOL    HW118734   2.204   5.867   9.872 -0.1731  0.6299 -0.1108
38593SOL    HW218735   2.115   5.824   9.757  0.3667  1.7657 -0.9660
38594SOL     OW18736   9.085   7.457   7.367 -0.1501  0.0024  0.4106
38594SOL    HW118737   9.054   7.548   7.371  0.1479  0.0952  0.6380
38594SOL    HW218738   9.053   7.424   7.283 -0.7185  0.1514  0.5660
38595SOL     OW18739   0.457   4.568   3.578 -0.1065 -0.1598 -0.5900
38595SOL    HW118740   0.498   4.488   3.612 -2.3183 -1.9873 -1.9093
38595SOL    HW218741   0.427   4.544   3.490 -2.6607  1.4450 -0.2783
38596SOL     OW18742   2.365   7.838   0.971 -0.0631  0.1746 -0.2399
38596SOL    HW118743   2.296   7.804   1.027  0.0632  0.8637  0.3347
38596SOL    HW218744   2.426   7.765   0.962  0.3652  0.3198  1.2498
38597SOL     OW18745   5.825   2.564  10.361  0.1769  0.4607 -0.3946
38597SOL    HW118746   5.781   2.515  10.431 -0.0685  2.2701  0.7924
38597SOL    HW218747   5.917   2.537  10.367 -0.0114 -0.1083  0.0177
38598SOL     OW18748   4.535   9.903   0.550 -0.0774  0.2993 -0.3374
38598SOL    HW118749   4.546   9.963   0.624  1.1285 -0.9125  0.5114
38598SOL    HW218750   4.613   9.916   0.496  0.2449 -0.5451 -0.0935
38599SOL     OW18751   9.410   4.465   3.940 -0.7824  0.1147 -0.1283
38599SOL    HW118752   9.471   4.533   3.913 -1.5439 -0.1310 -2.7798
38599SOL    HW218753   9.437   4.442   4.028  2.3684  0.6492 -0.8348
38600SOL     OW18754   7.337  10.544   5.356  0.0686 -0.0535 -0.1830
38600SOL    HW118755   7.334  10.559   5.450  1.7126  3.1938 -0.5151
38600SOL    HW218756   7.258  10.584   5.322  0.0456 -0.1892 -0.2907
38601SOL     OW18757   6.225   1.098   2.667 -0.4921  0.1087 -0.0701
38601SOL    HW118758   6.239   1.177   2.614  2.2035 -1.5855 -2.1900
38601SOL    HW218759   6.255   1.122   2.754  0.5840  1.3375 -0.7409
38602SOL     OW18760   9.566   5.737   2.528  0.4541  0.9161  0.8847
38602SOL    HW118761   9.573   5.647   2.558 -0.8682  0.2657 -0.6553
38602SOL    HW218762   9.621   5.740   2.449 -0.1195  1.2542  0.4965
38603SOL     OW18763   9.766   4.556   4.150  0.4130 -0.4120  0.1906
38603SOL    HW118764   9.699   4.488   4.162 -0.7006  0.2389 -1.7051
38603SOL    HW218765   9.725   4.635   4.186  0.4335 -0.1545 -0.3434
38604SOL     OW18766   5.870   0.183   2.878  0.1117 -0.2890 -0.4054
38604SOL    HW118767   5.779   0.154   2.870  0.5462 -2.1384  0.7370
38604SOL    HW218768   5.874   0.226   2.964 -0.1666  1.9782 -1.4420
38605SOL     OW18769   2.635  10.118   4.219  0.5265  0.1186 -0.4326
38605SOL    HW118770   2.643  10.171   4.298 -0.0732 -0.3941 -0.0220
38605SOL    HW218771   2.559  10.155   4.173  0.6879  0.2213 -0.6164
38606SOL     OW18772   9.569   8.725   4.306  1.1046 -0.0953  0.5204
38606SOL    HW118773   9.663   8.737   4.298  1.0751 -0.3810 -0.2903
38606SOL    HW218774   9.534   8.814   4.313  1.3387  0.0655 -0.2795
38607SOL     OW18775   5.773   9.102  10.639 -0.3634  0.1842  0.8446
38607SOL    HW118776   5.747   9.092  10.547 -0.1053 -1.3559  0.9051
38607SOL    HW218777   5.701   9.063  10.688  0.0341 -0.0706  1.2340
38608SOL     OW18778   9.842   9.871   7.632  0.0405  0.6166  0.6316
38608SOL    HW118779   9.868   9.930   7.561  0.2999  1.2276  1.2219
38608SOL    HW218780   9.747   9.864   7.624  0.0227  0.9964  0.4573
38609SOL     OW18781   8.257   4.372   2.648  0.8660 -0.6188  0.4113
38609SOL    HW118782   8.260   4.445   2.587  1.6219 -0.8764  0.1348
38609SOL    HW218783   8.224   4.299   2.595 -0.8906 -0.2492  0.9369
38610SOL     OW18784   7.791   1.907   6.909  0.0120 -0.4291  0.2923
38610SOL    HW118785   7.780   1.817   6.878 -0.3711 -0.0284 -0.7967
38610SOL    HW218786   7.702   1.941   6.915  0.1493 -0.1474  0.8063
38611SOL     OW18787   2.700   8.033   4.873  0.0771 -0.3131 -0.3597
38611SOL    HW118788   2.715   8.127   4.863  0.4963 -0.5585 -2.8184
38611SOL    HW218789   2.630   8.014   4.811  2.6140 -2.1533 -2.9818
38612SOL     OW18790   7.167   8.636   7.361  0.8048  0.0224  0.3495
38612SOL    HW118791   7.164   8.729   7.338  0.2550  0.0863  0.6552
38612SOL    HW218792   7.254   8.608   7.334 -0.0042 -0.0995 -2.4418
38613SOL     OW18793   7.472  10.264   3.785  0.5678 -0.0564 -0.4371
38613SOL    HW118794   7.527  10.193   3.817 -0.7558 -0.6352  0.6452
38613SOL    HW218795   7.438  10.232   3.701  0.0790 -0.6627 -0.0158
38614SOL     OW18796   7.981   5.531   1.880  0.0154  0.3215  0.0755
38614SOL    HW118797   7.977   5.435   1.879 -0.5565  0.2776  2.4677
38614SOL    HW218798   7.898   5.559   1.842  0.8025 -0.0435 -2.0890
38615SOL     OW18799   6.279   0.239   4.510  0.0195 -0.1767 -0.0907
38615SOL    HW118800   6.185   0.243   4.491  0.1645  0.1933 -0.7702
38615SOL    HW218801   6.284   0.203   4.599 -0.7930  0.4130  0.2081
38616SOL     OW18802   1.083   2.670   4.403  0.6168  0.5313 -0.6880
38616SOL    HW118803   1.039   2.683   4.319 -0.7175  1.0996  0.0804
38616SOL    HW218804   1.123   2.755   4.422  1.1947  0.3088 -0.8975
38617SOL     OW18805   4.396   3.010   3.158 -0.1531 -0.4518 -0.5375
38617SOL    HW118806   4.449   3.031   3.081 -0.5253  0.0618 -0.6564
38617SOL    HW218807   4.386   2.915   3.155  1.3973 -0.6568 -0.1038
38618SOL     OW18808   2.616   4.366   2.338  0.1266  0.3715  0.2562
38618SOL    HW118809   2.587   4.430   2.402  0.6071  0.7042  0.1490
38618SOL    HW218810   2.697   4.329   2.374 -0.2578 -0.3341  0.4187
38619SOL     OW18811   8.171   2.600   4.844  0.6425 -0.1321 -0.3664
38619SOL    HW118812   8.177   2.695   4.857  0.6604 -0.1058 -0.5578
38619SOL    HW218813   8.130   2.591   4.758 -1.2302 -0.3044  0.4923
38620SOL     OW18814   0.301   6.311   6.884  0.2820 -0.1881  0.6893
38620SOL    HW118815   0.252   6.261   6.949 -1.0034  0.2174  0.0653
38620SOL    HW218816   0.269   6.401   6.892  2.4667  0.5493  1.6909
38621SOL     OW18817   1.971   3.784   7.588 -0.1590 -0.0362  0.2648
38621SOL    HW118818   1.885   3.746   7.604  0.4879 -1.0854  1.4222
38621SOL    HW218819   1.953   3.863   7.536 -1.6497 -1.2052 -1.1070
38622SOL     OW18820   8.101   7.690   1.068 -0.2438 -0.2754 -0.6461
38622SOL    HW118821   8.173   7.627   1.074 -0.8092 -0.9293 -0.6235
38622SOL    HW218822   8.028   7.640   1.033 -0.8510  0.2418 -0.1448
38623SOL     OW18823   6.133   9.114   4.908  0.2919  0.3044 -0.6446
38623SOL    HW118824   6.168   9.069   4.831 -1.9085 -1.4558 -0.7120
38623SOL    HW218825   6.208   9.122   4.967  1.4577 -0.6363 -1.9263
38624SOL     OW18826   7.877   5.917   9.242 -0.0109  0.2617  0.8646
38624SOL    HW118827   7.917   5.968   9.172 -0.4727  0.5963  0.8390
38624SOL    HW218828   7.784   5.912   9.219 -0.6037  2.1763  2.4871
38625SOL     OW18829   9.374   8.898   0.829  0.1419  0.0752 -0.0136
38625SOL    HW118830   9.419   8.827   0.784  0.2280  0.5087 -0.6180
38625SOL    HW218831   9.420   8.977   0.802  1.4032  0.2141  2.2661
38626SOL     OW18832   7.521   2.979   6.390  0.6911 -0.1037 -0.5124
38626SOL    HW118833   7.436   2.941   6.369  1.0175 -0.4002 -1.3149
38626SOL    HW218834   7.572   2.971   6.310  2.1663 -1.7701  0.5241
38627SOL     OW18835   7.336   7.031   3.721 -0.0453 -0.7929 -0.1493
38627SOL    HW118836   7.417   7.070   3.688 -1.1608  1.9047  0.0612
38627SOL    HW218837   7.305   6.976   3.649  2.3953 -2.7175  0.1228
38628SOL     OW18838   2.042   1.647   3.890  0.2047 -0.1110 -0.3335
38628SOL    HW118839   2.041   1.743   3.897  0.0712 -0.0845 -0.7045
38628SOL    HW218840   2.095   1.629   3.812 -0.2163 -0.3212 -0.5719
38629SOL     OW18841   5.738   9.577   2.264 -0.2088 -0.1957  0.4323
38629SOL    HW118842   5.809   9.550   2.323 -0.2555  1.5593  1.3517
38629SOL    HW218843   5.708   9.660   2.299 -3.0391 -1.0648  0.2926
38630SOL     OW18844   9.668   6.950   7.934 -0.5369  0.2075 -0.2178
38630SOL    HW118845   9.688   6.915   7.848 -0.9914 -1.7549  0.4113
38630SOL    HW218846   9.747   6.998   7.960  0.9019 -1.9025 -0.4180
38631SOL     OW18847   0.466   2.654   7.868  0.1170 -0.0536 -0.2854
38631SOL    HW118848   0.477   2.720   7.937  0.7910  0.2244 -0.6489
38631SOL    HW218849   0.413   2.586   7.909  0.1485  0.3039  0.3752
38632SOL     OW18850   8.194   7.243   0.686 -0.3927  0.4645 -0.3255
38632SOL    HW118851   8.186   7.198   0.602 -0.9270 -3.0935  1.4684
38632SOL    HW218852   8.288   7.244   0.704 -0.4866 -2.1682  0.6272
38633SOL     OW18853   6.945   6.330   7.293  0.4868 -0.0266  0.0998
38633SOL    HW118854   6.972   6.277   7.218  0.9779  0.6296 -0.1958
38633SOL    HW218855   6.860   6.367   7.267  0.2265 -0.5148  0.2376
38634SOL     OW18856  10.075   8.661   3.034  0.0999 -0.1462 -0.1083
38634SOL    HW118857  10.111   8.617   2.957  0.5021 -0.1398  0.0769
38634SOL    HW218858  10.141   8.726   3.059 -0.5524  0.6955 -0.4792
38635SOL     OW18859   3.377   7.006   9.629  0.5302  0.0906 -0.5410
38635SOL    HW118860   3.381   7.088   9.580  0.8735  1.0209  0.9808
38635SOL    HW218861   3.367   7.033   9.720 -1.7779 -1.5938 -0.2003
38636SOL     OW18862   0.332   9.732   0.852 -0.9444  0.2130  0.3251
38636SOL    HW118863   0.282   9.716   0.772 -0.4244 -0.1660  0.0669
38636SOL    HW218864   0.335   9.646   0.895 -0.9787  0.3534  0.6057
38637SOL     OW18865   6.144   6.760   4.321 -0.5216 -0.2452  0.3432
38637SOL    HW118866   6.174   6.794   4.237 -1.9605  0.7665  0.2040
38637SOL    HW218867   6.184   6.673   4.328 -0.7821 -0.5550 -1.6260
38638SOL     OW18868   4.333   9.776   1.538 -0.6426  0.2848  0.0072
38638SOL    HW118869   4.277   9.706   1.572 -0.7061  0.5704  0.4947
38638SOL    HW218870   4.358   9.827   1.615  0.5299 -0.0044 -0.1646
38639SOL     OW18871   7.105   9.141   6.868  0.1232 -0.1938 -0.2760
38639SOL    HW118872   7.073   9.214   6.815  0.8396 -0.2412 -0.7719
38639SOL    HW218873   7.026   9.089   6.887 -0.3213  0.4789 -0.2647
38640SOL     OW18874  10.065   1.236   0.669  0.0433  0.3877  0.4712
38640SOL    HW118875  10.038   1.323   0.697  1.1467  1.3872 -1.3787
38640SOL    HW218876  10.142   1.251   0.614 -0.5517 -1.6202 -1.0342
38641SOL     OW18877   3.698   0.021   5.458 -0.0360  0.0274 -0.5465
38641SOL    HW118878   3.636   0.093   5.455  0.5629  0.6210  0.4690
38641SOL    HW218879   3.758   0.037   5.385  0.3407  0.8147 -0.0812
38642SOL     OW18880   3.766   6.202   7.409  0.6321  0.3760  0.4355
38642SOL    HW118881   3.699   6.185   7.476  1.1674  0.6667  1.0586
38642SOL    HW218882   3.837   6.141   7.430  1.8625  2.1226  1.6751
38643SOL     OW18883   2.263   8.077   2.588  0.0729 -0.1393  0.0844
38643SOL    HW118884   2.260   8.172   2.585 -0.0970 -0.0625  1.9958
38643SOL    HW218885   2.289   8.055   2.677 -2.0676 -1.9144  0.3638
38644SOL     OW18886   3.059   5.179   5.920 -0.2970  0.1497  0.4304
38644SOL    HW118887   3.151   5.161   5.936 -0.1956 -0.9476 -1.1521
38644SOL    HW218888   3.039   5.256   5.974  1.5541  0.4666  0.7053
38645SOL     OW18889   7.396   2.698   6.331  0.2059  0.0027  0.2716
38645SOL    HW118890   7.320   2.757   6.326 -1.2534 -1.6848  1.2647
38645SOL    HW218891   7.383   2.635   6.261  1.3526  0.3761 -0.3031
38646SOL     OW18892   8.751   7.478   6.221  0.2755 -0.0523  0.1909
38646SOL    HW118893   8.756   7.514   6.310 -0.0174  0.7305 -0.1063
38646SOL    HW218894   8.755   7.554   6.164  1.0634 -0.5910 -0.4939
38647SOL     OW18895   3.287   6.714   5.638 -0.2263 -0.2375 -0.2585
38647SOL    HW118896   3.303   6.751   5.551 -2.1054 -0.2937 -0.6504
38647SOL    HW218897   3.355   6.755   5.693 -1.4747  3.0232 -0.8917
38648SOL     OW18898   8.347   2.992   3.833 -0.0660 -0.3466 -0.0934
38648SOL    HW118899   8.269   2.954   3.873  0.0060  1.6520  2.1453
38648SOL    HW218900   8.324   3.084   3.818  1.5708  0.0762 -0.2039
38649SOL     OW18901  10.423   0.973   6.013 -0.0131  0.2779  0.7188
38649SOL    HW118902  10.403   0.889   5.972  2.4857 -0.1284  0.1277
38649SOL    HW218903  10.479   1.017   5.949 -1.0560  2.3244  1.1277
38650SOL     OW18904   9.099  10.227   2.265 -0.8096  0.2357  0.4135
38650SOL    HW118905   9.027  10.253   2.208  0.5803 -0.0535 -1.5593
38650SOL    HW218906   9.161  10.300   2.261 -0.2620 -0.1982  0.7908
38651SOL     OW18907   4.994   2.154  10.465  0.1947 -0.7060  0.0683
38651SOL    HW118908   5.006   2.237  10.419  0.5269  0.4758  2.1563
38651SOL    HW218909   4.900   2.149  10.481  0.1903 -0.6722  0.0528
38652SOL     OW18910   4.640   3.967   8.271  0.0770 -0.2339  0.3002
38652SOL    HW118911   4.700   3.920   8.213 -0.6667 -0.4305 -0.3325
38652SOL    HW218912   4.694   3.995   8.344  0.8971 -0.5671 -0.1657
38653SOL     OW18913   5.283   2.630   3.991 -0.3505 -0.1135 -0.3170
38653SOL    HW118914   5.371   2.602   3.966 -0.0481  1.5316 -1.2826
38653SOL    HW218915   5.288   2.643   4.085  1.3016  2.4592 -0.6322
38654SOL     OW18916   7.100   0.199   1.337 -0.1993  0.0538  0.5619
38654SOL    HW118917   7.161   0.208   1.410 -0.1737 -1.7843  0.7887
38654SOL    HW218918   7.156   0.189   1.260 -0.2159 -0.9320  0.6773
38655SOL     OW18919   7.384   9.729   7.911 -0.0376  0.0633 -0.2325
38655SOL    HW118920   7.479   9.719   7.902 -0.1375 -0.6297 -0.5835
38655SOL    HW218921   7.352   9.741   7.822 -0.1870  1.3233 -0.0292
38656SOL     OW18922   1.750   2.558  10.685 -0.4038 -0.3451 -0.7527
38656SOL    HW118923   1.825   2.582  10.631 -0.9248 -0.4637 -1.5495
38656SOL    HW218924   1.747   2.625  10.753  1.0639 -0.9518 -0.0617
38657SOL     OW18925   7.978  10.459   0.011 -0.6510  0.0630 -0.1019
38657SOL    HW118926   7.979  10.554  -0.001 -1.0714  0.1121  0.2134
38657SOL    HW218927   7.889  10.439   0.040  0.1573 -0.0807  2.5657
38658SOL     OW18928   9.676   0.753   7.932 -0.4588 -0.4875 -0.2461
38658SOL    HW118929   9.657   0.791   7.847 -0.4834 -1.4135 -0.6727
38658SOL    HW218930   9.734   0.679   7.912 -0.4985 -0.7379  0.5368
38659SOL     OW18931   7.926   6.707   0.656  0.0610  0.3668 -0.4639
38659SOL    HW118932   7.974   6.634   0.616 -0.4747  0.0093 -0.4567
38659SOL    HW218933   7.933   6.778   0.592  0.4387  0.2580 -0.5470
38660SOL     OW18934   9.819   6.065   6.622 -0.1370 -0.0192  0.4304
38660SOL    HW118935   9.783   6.148   6.590 -0.8199 -0.2155  0.6659
38660SOL    HW218936   9.811   6.071   6.717 -1.6860 -0.9955  0.3958
38661SOL     OW18937   3.533   8.735   3.470 -0.2404  0.1334 -0.5152
38661SOL    HW118938   3.474   8.726   3.395 -0.2217 -1.9857 -0.3388
38661SOL    HW218939   3.616   8.765   3.432 -1.3358  3.1910 -0.7580
38662SOL     OW18940   3.278   6.423   4.263 -0.7835  0.4536 -0.1662
38662SOL    HW118941   3.307   6.450   4.176 -0.8596  1.0925 -0.0058
38662SOL    HW218942   3.336   6.469   4.323 -0.8197  0.1251  0.1220
38663SOL     OW18943   2.129   6.492   4.038 -0.2307 -0.3523  0.0824
38663SOL    HW118944   2.151   6.405   4.005 -0.6451  0.0440 -1.2908
38663SOL    HW218945   2.059   6.476   4.101 -1.5190 -0.8894 -1.4182
38664SOL     OW18946   6.688  10.206   6.952  0.6271 -0.3121  0.5187
38664SOL    HW118947   6.694  10.240   6.863  3.6825  0.5965  0.9741
38664SOL    HW218948   6.708  10.113   6.944  2.5236  0.0822  0.3958
38665SOL     OW18949   7.814   3.238   9.253 -0.8034 -0.5556  0.5499
38665SOL    HW118950   7.800   3.282   9.337  0.2880 -0.2358  0.5752
38665SOL    HW218951   7.800   3.145   9.272  0.1597 -0.5692  1.2618
38666SOL     OW18952   1.344   4.335   7.181  0.0747  0.7588 -0.4705
38666SOL    HW118953   1.288   4.257   7.177  0.0632  0.8212 -2.2837
38666SOL    HW218954   1.391   4.326   7.264 -0.3932 -0.8381 -0.3365
38667SOL     OW18955   0.617   3.340   5.445 -0.0794  0.5926  0.2534
38667SOL    HW118956   0.672   3.312   5.519 -2.7076 -1.6117  1.5520
38667SOL    HW218957   0.662   3.306   5.368  2.5978  2.7049  0.7391
38668SOL     OW18958   5.952   5.491   2.233 -0.1397  0.0450 -0.4408
38668SOL    HW118959   5.990   5.577   2.251  0.4629  0.3041 -2.6825
38668SOL    HW218960   6.026   5.431   2.237 -0.4007 -0.2452  0.1882
38669SOL     OW18961   5.642   9.547   0.882  0.0291  0.2589  0.1118
38669SOL    HW118962   5.648   9.508   0.795  1.0664 -1.3859  0.8758
38669SOL    HW218963   5.726   9.591   0.894  0.2330 -0.2560  0.6055
38670SOL     OW18964   6.201   4.788  10.296  0.5235 -0.3409 -0.4706
38670SOL    HW118965   6.262   4.720  10.266 -0.8744 -2.6637  1.6065
38670SOL    HW218966   6.133   4.790  10.230  0.8925 -0.4990 -0.8622
38671SOL     OW18967   4.438   7.351   5.307  0.0575 -0.1387  0.0401
38671SOL    HW118968   4.533   7.357   5.302  0.0720 -0.1196  0.3154
38671SOL    HW218969   4.421   7.278   5.367 -0.1052 -0.6781 -0.6542
38672SOL     OW18970   1.178   2.447   4.946 -0.1527 -0.0292 -0.0890
38672SOL    HW118971   1.126   2.504   5.001 -0.3713  1.4675 -1.7564
38672SOL    HW218972   1.255   2.499   4.923  0.4945 -1.0328 -0.2947
38673SOL     OW18973   1.285  10.039  10.495 -0.3633  0.6715 -0.0149
38673SOL    HW118974   1.353   9.974  10.479  0.1471  1.1032  0.3471
38673SOL    HW218975   1.333  10.121  10.505 -0.8962  0.8840  0.8335
38674SOL     OW18976   7.213   4.584   0.567  0.2320  0.6013  0.1463
38674SOL    HW118977   7.264   4.552   0.642  2.1347  2.8247 -0.0995
38674SOL    HW218978   7.221   4.514   0.502  3.5465  1.0074 -0.0747
38675SOL     OW18979   9.882   6.407   5.527  0.0979  0.0944 -0.2309
38675SOL    HW118980   9.820   6.335   5.536 -0.1886  0.3550 -0.1127
38675SOL    HW218981   9.950   6.389   5.592 -0.2572  0.2217  0.1741
38676SOL     OW18982   6.801   5.450   0.804 -0.4442 -0.6335 -0.3425
38676SOL    HW118983   6.721   5.444   0.752 -0.1780  0.3720 -0.9125
38676SOL    HW218984   6.794   5.535   0.849  0.5253 -0.2987 -0.7984
38677SOL     OW18985   4.687   7.945   2.122 -0.3748 -0.3807 -0.5477
38677SOL    HW118986   4.681   7.879   2.054  1.4381 -1.9158  0.6885
38677SOL    HW218987   4.741   8.014   2.084  0.9598 -1.4058 -0.5883
38678SOL     OW18988   5.362   8.074   5.184  0.1883 -0.4879  0.7098
38678SOL    HW118989   5.318   8.103   5.264 -0.2691 -1.8007  0.9603
38678SOL    HW218990   5.408   8.151   5.153 -0.7077  0.4055  1.5175
38679SOL     OW18991   6.759   3.693   3.098 -0.1109 -0.7819  0.3161
38679SOL    HW118992   6.839   3.737   3.127  0.3014 -1.1305 -0.2571
38679SOL    HW218993   6.765   3.694   3.002 -0.6710 -1.0294  0.2773
38680SOL     OW18994   6.738   4.531   8.749 -0.0745 -0.1018 -0.0332
38680SOL    HW118995   6.735   4.529   8.653 -2.0236 -1.3718 -0.0125
38680SOL    HW218996   6.759   4.442   8.774  0.8470  0.3199  0.7441
38681SOL     OW18997   8.926   7.639   9.669 -0.4069 -0.0960 -0.1148
38681SOL    HW118998   8.902   7.676   9.584 -0.7940 -0.9112 -0.3685
38681SOL    HW218999   9.014   7.603   9.656 -0.8945 -1.1967 -0.4987
38682SOL     OW19000   5.837   3.974   8.318  0.4644 -0.3271 -0.4881
38682SOL    HW119001   5.783   3.966   8.239 -0.3066  0.5395 -0.0663
38682SOL    HW219002   5.844   4.068   8.333  2.9886 -0.3480 -1.1048
38683SOL     OW19003   7.213   1.191   9.763 -0.5354 -0.1537 -0.2506
38683SOL    HW119004   7.175   1.240   9.689 -0.5482  0.9120  0.4356
38683SOL    HW219005   7.159   1.216   9.838 -2.7193 -3.8374 -0.3651
38684SOL     OW19006   4.468   5.422   3.463  0.4478  0.4291  0.2145
38684SOL    HW119007   4.418   5.409   3.544 -2.8669 -1.4103 -1.9347
38684SOL    HW219008   4.411   5.476   3.408  0.8477 -1.4881 -2.2571
38685SOL     OW19009   0.960   6.396   9.221 -0.1836  0.6606  0.2136
38685SOL    HW119010   1.025   6.466   9.227  0.5494  0.0787 -0.6434
38685SOL    HW219011   1.011   6.317   9.206 -1.0855  0.2024 -0.5958
38686SOL     OW19012   3.907   1.034  10.511 -0.2627  0.3432  0.1215
38686SOL    HW119013   3.865   0.994  10.586 -0.9385 -0.7349 -0.7982
38686SOL    HW219014   3.836   1.082  10.467 -0.7186 -1.7936 -1.6444
38687SOL     OW19015   4.614   3.281   1.199  0.0306 -0.5605  0.5361
38687SOL    HW119016   4.650   3.368   1.181 -0.7849 -0.0815  1.1418
38687SOL    HW219017   4.521   3.297   1.215 -0.1807 -1.5903  0.3594
38688SOL     OW19018   6.548   6.733   6.183  0.0997 -0.4524  0.1551
38688SOL    HW119019   6.545   6.826   6.158 -1.1271 -0.6043 -0.3000
38688SOL    HW219020   6.611   6.695   6.121 -2.5430 -0.7297 -2.5944
38689SOL     OW19021  10.077   5.729   5.221  0.0149 -0.3370  0.5047
38689SOL    HW119022  10.003   5.761   5.272 -0.8279 -1.1512 -0.1705
38689SOL    HW219023  10.088   5.638   5.249  1.2968  0.0027  1.1838
38690SOL     OW19024   0.068  10.654   3.957 -0.5620 -0.6490  0.2187
38690SOL    HW119025   0.084  10.569   3.998  0.6310 -0.4042  0.3017
38690SOL    HW219026   0.134  10.659   3.887  1.6451  1.5513  2.2601
38691SOL     OW19027   2.955   2.645   7.199 -1.2252 -0.0313 -0.2859
38691SOL    HW119028   3.001   2.706   7.141  0.1019 -0.2729  0.4589
38691SOL    HW219029   2.897   2.595   7.141 -0.4365  0.2027 -1.2967
38692SOL     OW19030  10.356  10.059   7.018 -0.1322 -0.4913  0.7298
38692SOL    HW119031  10.278  10.115   7.015 -0.4967 -0.9555  1.3737
38692SOL    HW219032  10.417  10.105   7.074  0.0376 -0.1583  0.2782
38693SOL     OW19033  10.160   6.271   9.114 -0.4574  0.3226 -0.1722
38693SOL    HW119034  10.125   6.315   9.191  1.1258  1.1605  0.1186
38693SOL    HW219035  10.091   6.280   9.048 -1.1065  1.2155  0.5992
38694SOL     OW19036   4.612   6.626   9.258  0.2755  0.1804 -0.4046
38694SOL    HW119037   4.641   6.630   9.166  1.9317  0.2849  0.0893
38694SOL    HW219038   4.572   6.540   9.266  1.0384 -0.2503 -0.9869
38695SOL     OW19039   2.288   0.210  10.688  0.0589  1.1245  0.1626
38695SOL    HW119040   2.219   0.270  10.718 -2.4668 -2.0849  1.5151
38695SOL    HW219041   2.344   0.199  10.765 -2.3001 -1.6886  1.6816
38696SOL     OW19042   0.605   6.173   4.962  0.5619  0.2049 -0.2164
38696SOL    HW119043   0.683   6.190   4.909  0.2016 -0.4256 -0.9652
38696SOL    HW219044   0.552   6.114   4.909  0.6333 -1.2595  1.2629
38697SOL     OW19045   9.099   7.078   1.919 -0.6159 -0.3339 -0.2325
38697SOL    HW119046   9.034   7.034   1.972  0.0074 -0.3209  0.5611
38697SOL    HW219047   9.076   7.171   1.923 -0.6432 -0.3475 -0.0925
38698SOL     OW19048   5.484   3.092   0.656  0.0293 -0.3221  0.1146
38698SOL    HW119049   5.435   3.071   0.735  0.0705  0.0516  0.2390
38698SOL    HW219050   5.576   3.092   0.684 -0.0146  0.7881  0.2940
38699SOL     OW19051   3.037   4.729   2.456 -0.0121 -0.0681 -0.4827
38699SOL    HW119052   3.004   4.697   2.540  0.5166  1.1654  0.2145
38699SOL    HW219053   3.018   4.658   2.395  1.0964 -1.7113  0.9963
38700SOL     OW19054   5.009   5.105   6.306 -0.4540 -0.4156 -0.0785
38700SOL    HW119055   4.921   5.086   6.272 -0.9527  0.7542  0.5018
38700SOL    HW219056   5.013   5.056   6.388 -0.6487 -0.2881  0.0075
38701SOL     OW19057   6.334   8.397   0.615  0.1995 -0.0723 -0.0282
38701SOL    HW119058   6.239   8.412   0.625  0.3293 -0.3659  2.5332
38701SOL    HW219059   6.343   8.357   0.529 -1.6894  2.2233 -1.4076
38702SOL     OW19060  10.567   4.348   8.374  0.0975 -0.1335  0.7370
38702SOL    HW119061  10.504   4.279   8.351  0.5588 -0.0813 -0.7815
38702SOL    HW219062  10.527   4.392   8.449 -2.3828  0.7506 -0.9886
38703SOL     OW19063   2.065   5.929   4.363  0.2772  0.1644 -0.2047
38703SOL    HW119064   1.995   5.872   4.394  0.4275  0.9221  1.6923
38703SOL    HW219065   2.146   5.887   4.393  0.6115 -0.2095 -1.5431
38704SOL     OW19066   2.669   1.646   3.373 -0.1273 -0.0479 -0.3548
38704SOL    HW119067   2.756   1.628   3.408 -0.0484 -0.0039 -0.5287
38704SOL    HW219068   2.677   1.730   3.328 -0.1542 -0.2353 -0.7203
38705SOL     OW19069   7.843   6.775   6.264  0.7930 -0.4827 -1.2855
38705SOL    HW119070   7.808   6.701   6.314 -0.4842  0.1358 -1.2091
38705SOL    HW219071   7.858   6.739   6.176 -0.2574 -0.7401 -1.3785
38706SOL     OW19072   7.263   4.528   8.073  0.4606  0.1807 -0.2532
38706SOL    HW119073   7.221   4.500   8.155  1.3621 -0.3144  0.0537
38706SOL    HW219074   7.203   4.500   8.004  0.7075 -1.3567  0.1301
38707SOL     OW19075   1.153   4.891   0.845 -0.3875 -0.0767  0.0616
38707SOL    HW119076   1.176   4.919   0.756  1.4425 -1.1408  0.1429
38707SOL    HW219077   1.093   4.958   0.876 -0.5910  0.6508 -1.7565
38708SOL     OW19078   4.347   2.212   3.995 -0.5692  0.1237  0.1312
38708SOL    HW119079   4.336   2.242   3.905 -0.5760 -1.4630 -0.4249
38708SOL    HW219080   4.429   2.253   4.024  1.0436 -1.6470 -1.6356
38709SOL     OW19081   7.557   2.337   1.775  0.1891 -0.1363  0.1813
38709SOL    HW119082   7.597   2.265   1.824  2.6013  1.6599  1.0899
38709SOL    HW219083   7.501   2.295   1.710  1.5525 -2.8057  0.6175
38710SOL     OW19084   1.744   1.442   3.282  0.2617 -0.0298 -0.1569
38710SOL    HW119085   1.663   1.489   3.260 -0.0797  0.2125  1.4610
38710SOL    HW219086   1.723   1.350   3.264 -1.9809 -0.6034  4.0540
38711SOL     OW19087   8.153   6.689   1.665  0.1545  0.2725 -0.5144
38711SOL    HW119088   8.202   6.699   1.584  2.3782  0.8712  0.8177
38711SOL    HW219089   8.142   6.778   1.698 -0.6693  0.0321 -0.1043
38712SOL     OW19090   1.183   1.870   8.166  0.0915 -0.4590  0.2198
38712SOL    HW119091   1.102   1.829   8.135 -1.8715  2.0683  1.5889
38712SOL    HW219092   1.223   1.907   8.087 -1.8671  1.0515 -0.1410
38713SOL     OW19093   6.219   7.144   5.933 -0.1257  0.4865  0.1246
38713SOL    HW119094   6.137   7.099   5.917  0.1833 -0.8071  1.9438
38713SOL    HW219095   6.201   7.203   6.006  0.6555 -0.1758  0.8752
38714SOL     OW19096   8.203   4.836   4.819 -0.1834 -0.1229 -0.0625
38714SOL    HW119097   8.253   4.917   4.819 -0.4999  0.1027 -1.8700
38714SOL    HW219098   8.262   4.770   4.784  0.3268 -0.9109  2.0849
38715SOL     OW19099   1.889   8.447   4.475 -0.3054  0.2436  0.5258
38715SOL    HW119100   1.943   8.493   4.412 -0.5312  1.9216  1.5021
38715SOL    HW219101   1.948   8.382   4.515  0.8416  1.6223  1.1365
38716SOL     OW19102   6.969   5.183   2.893 -1.1606 -0.4887  0.0575
38716SOL    HW119103   7.005   5.136   2.818  1.8954 -0.2491  1.2180
38716SOL    HW219104   6.984   5.124   2.968 -1.8824  0.2709  0.8280
38717SOL     OW19105  10.130   7.387   9.870 -0.1376  0.1467 -0.0193
38717SOL    HW119106  10.096   7.409   9.956  1.4476 -1.0908  0.9770
38717SOL    HW219107  10.067   7.323   9.835  0.4832 -1.2143  1.2860
38718SOL     OW19108   7.855   1.002   6.774  0.3060  0.1118  0.2198
38718SOL    HW119109   7.784   1.066   6.781 -0.9275 -0.8997 -2.0243
38718SOL    HW219110   7.913   1.039   6.707  0.1331 -0.6020 -0.3352
38719SOL     OW19111   1.698   7.711   7.356 -0.1606 -0.3536  0.4540
38719SOL    HW119112   1.613   7.751   7.336  0.0288  0.1880  0.6909
38719SOL    HW219113   1.684   7.617   7.346 -0.8267 -0.2769  0.6342
38720SOL     OW19114   4.599   6.637   0.655  0.4832  0.3719 -0.1369
38720SOL    HW119115   4.525   6.688   0.687  0.9097  1.2762 -0.5487
38720SOL    HW219116   4.627   6.683   0.575  1.1841 -0.2303 -0.2510
38721SOL     OW19117   4.635   1.576   0.887 -0.2151  0.5160 -0.3091
38721SOL    HW119118   4.722   1.609   0.867 -0.3201  0.4630 -0.8737
38721SOL    HW219119   4.642   1.539   0.974  0.3265  0.5201 -0.3516
38722SOL     OW19120   8.148   7.403   6.161  0.5531 -0.1237  0.1737
38722SOL    HW119121   8.185   7.431   6.245  0.7090  0.4896 -0.0954
38722SOL    HW219122   8.140   7.484   6.110 -0.8750 -0.2744  0.1065
38723SOL     OW19123   3.216   9.269   2.659 -0.5148 -0.2728 -0.0318
38723SOL    HW119124   3.261   9.340   2.611 -0.3899 -1.5330 -1.8951
38723SOL    HW219125   3.285   9.225   2.708  0.1721 -1.4989 -1.9960
38724SOL     OW19126   6.447   5.651   3.722  0.2701 -0.2182 -0.0057
38724SOL    HW119127   6.435   5.578   3.661  0.6261 -0.6933  0.4943
38724SOL    HW219128   6.517   5.703   3.683  0.8144 -0.7709  0.2284
38725SOL     OW19129   6.804   3.701   4.189 -0.4362 -1.0881 -1.4744
38725SOL    HW119130   6.852   3.623   4.160 -1.5947 -3.0806  1.4190
38725SOL    HW219131   6.712   3.680   4.173 -0.9514 -1.4483  1.4354
38726SOL     OW19132   0.193   7.857   6.584  0.2283  0.0853 -0.1616
38726SOL    HW119133   0.285   7.829   6.588  0.1888 -0.0182  0.0582
38726SOL    HW219134   0.151   7.810   6.656  0.0556  0.3277 -0.1031
38727SOL     OW19135   9.614   2.790   7.873 -0.3124 -0.6100 -0.6577
38727SOL    HW119136   9.574   2.728   7.811 -0.6843  0.4669 -1.5390
38727SOL    HW219137   9.548   2.859   7.883 -0.2036 -0.7103  0.8781
38728SOL     OW19138   5.402   7.986   4.201  0.7365  0.0391 -0.8087
38728SOL    HW119139   5.391   7.943   4.116 -0.1380 -0.1854 -0.5973
38728SOL    HW219140   5.473   8.048   4.188 -0.3157  1.0274 -2.0989
38729SOL     OW19141   1.810   4.244  10.066  0.4966 -0.0658 -0.0154
38729SOL    HW119142   1.768   4.187  10.130 -0.3019  0.5315  0.0053
38729SOL    HW219143   1.739   4.294  10.028  1.3206  2.3412  1.3500
38730SOL     OW19144   9.252   1.128   6.511 -0.6118  0.2811 -0.0298
38730SOL    HW119145   9.216   1.124   6.600 -0.7748  0.7013 -0.0712
38730SOL    HW219146   9.286   1.041   6.495 -1.6446 -0.1436 -0.0007
38731SOL     OW19147   9.964   4.422   4.262 -0.8775 -1.0973  0.0711
38731SOL    HW119148  10.012   4.491   4.308 -0.5023 -2.5090  1.9241
38731SOL    HW219149   9.883   4.464   4.234  0.0404  0.5039 -0.3068
38732SOL     OW19150   9.785  10.612   5.172  0.2103 -0.0185 -0.0578
38732SOL    HW119151   9.749  10.616   5.261 -2.0308 -1.3649 -0.7948
38732SOL    HW219152   9.831  10.695   5.160  0.9027  0.0423  2.4549
38733SOL     OW19153   1.981   3.808   0.941 -0.0925  0.1222 -0.5578
38733SOL    HW119154   1.940   3.884   0.983  0.6544  0.3796 -0.2863
38733SOL    HW219155   1.947   3.810   0.852 -1.3910 -0.2034 -0.0926
38734SOL     OW19156   6.234   2.000   0.384 -0.3352 -0.5488 -0.9602
38734SOL    HW119157   6.182   2.047   0.319  2.8725 -0.0693 -3.4463
38734SOL    HW219158   6.276   2.069   0.436  0.4369 -0.7706 -1.2674
38735SOL     OW19159   8.433   6.783   2.212  0.1447  0.3948  0.3185
38735SOL    HW119160   8.346   6.786   2.173 -1.3276 -1.6264  3.0571
38735SOL    HW219161   8.449   6.871   2.244 -0.1271  1.1904 -1.6303
38736SOL     OW19162   7.258   2.143   4.325 -0.0361 -0.5312 -0.3946
38736SOL    HW119163   7.323   2.091   4.278 -0.6084 -1.1417 -0.5141
38736SOL    HW219164   7.284   2.234   4.308 -0.8052 -0.6929 -2.7274
38737SOL     OW19165   0.690   8.147   1.126 -0.1976 -0.3924  0.1838
38737SOL    HW119166   0.694   8.078   1.191  2.5442  0.3864  0.9682
38737SOL    HW219167   0.662   8.225   1.174 -1.4368 -0.4876 -0.3216
38738SOL     OW19168   5.769   0.548   9.794  0.2529  0.2579  0.3112
38738SOL    HW119169   5.792   0.516   9.708 -0.3419 -1.1996  0.6632
38738SOL    HW219170   5.834   0.510   9.853 -0.1237  0.1465  0.6652
38739SOL     OW19171   3.708   9.593   1.098 -0.1334 -0.2355 -0.4724
38739SOL    HW119172   3.616   9.581   1.074 -0.2048  0.6781 -0.6871
38739SOL    HW219173   3.752   9.517   1.060 -0.6438 -0.1391 -1.2986
38740SOL     OW19174   9.417   3.030   1.916 -0.3996  0.0890 -0.6449
38740SOL    HW119175   9.510   3.047   1.930 -1.0745  2.8269  1.2822
38740SOL    HW219176   9.411   3.005   1.823  2.4154 -2.2828 -0.3296
38741SOL     OW19177   7.859   7.233   9.414 -0.0394 -0.3092 -0.0451
38741SOL    HW119178   7.858   7.138   9.421 -0.3273 -0.3827 -0.9475
38741SOL    HW219179   7.882   7.264   9.502 -3.2712 -1.1073  1.2060
38742SOL     OW19180   2.795   2.601   2.807 -0.2295 -0.1497  0.4640
38742SOL    HW119181   2.826   2.541   2.740 -0.5882 -1.3274  1.3267
38742SOL    HW219182   2.874   2.642   2.842 -0.0671  0.8479 -0.9802
38743SOL     OW19183   5.134   1.602  10.521 -0.7686 -0.3484  0.5630
38743SOL    HW119184   5.135   1.674  10.457 -0.7483  0.2527  1.2262
38743SOL    HW219185   5.041   1.584  10.534 -0.7732 -0.4721  0.3728
38744SOL     OW19186  10.470   2.668   0.410 -0.2243  0.1739 -0.3165
38744SOL    HW119187  10.384   2.643   0.444  0.0270  1.2631  1.1982
38744SOL    HW219188  10.452   2.700   0.321 -1.5261  1.1769  0.2751
38745SOL     OW19189   2.910   1.507   0.101  0.6203 -0.1475  0.5050
38745SOL    HW119190   2.908   1.463   0.015 -0.2221 -0.2254  0.5553
38745SOL    HW219191   3.003   1.523   0.117  0.8731 -1.0392  0.0343
38746SOL     OW19192   5.037  10.045   4.706 -0.1415  0.4193  0.6741
38746SOL    HW119193   4.975  10.049   4.779  0.3669  1.7875  1.0707
38746SOL    HW219194   5.123  10.032   4.748 -0.0879 -1.1964  0.1489
38747SOL     OW19195   1.237  10.164  10.175  0.1372  0.2638 -0.2414
38747SOL    HW119196   1.218  10.073  10.198 -1.5711  0.9888  1.5539
38747SOL    HW219197   1.157  10.195  10.132  0.6399  0.9801 -0.6906
38748SOL     OW19198   0.971   1.536   5.837 -0.8458 -0.3949  0.0180
38748SOL    HW119199   0.879   1.528   5.863 -0.9936 -0.5949 -0.5517
38748SOL    HW219200   1.011   1.587   5.907 -1.5640  0.3825 -0.1253
38749SOL     OW19201   6.176   6.948   4.124 -0.4127  0.2834 -0.2988
38749SOL    HW119202   6.205   7.038   4.140 -0.0220  0.0085  0.5453
38749SOL    HW219203   6.080   6.954   4.119 -0.3657  0.8055 -0.6858
38750SOL     OW19204   1.651   0.398   1.536 -0.4208  0.4023  0.1105
38750SOL    HW119205   1.656   0.366   1.626 -1.4808  1.1303  0.4377
38750SOL    HW219206   1.608   0.483   1.543  0.9550  1.2345 -0.9086
38751SOL     OW19207   9.432   9.602   9.329 -0.1260  0.3339 -0.3385
38751SOL    HW119208   9.382   9.537   9.281 -1.2538  0.1895  0.9664
38751SOL    HW219209   9.509   9.619   9.274  1.3318 -3.6012  0.1984
38752SOL     OW19210   2.233   7.870   1.681 -0.1569 -0.3102 -0.2438
38752SOL    HW119211   2.252   7.813   1.754 -0.4810  1.0448  0.9457
38752SOL    HW219212   2.167   7.931   1.714  2.7107  3.1061 -0.1382
38753SOL     OW19213   0.071   5.828   6.430 -0.5226  0.0045  0.3564
38753SOL    HW119214   0.015   5.751   6.423 -0.5990  0.0285  0.6928
38753SOL    HW219215   0.131   5.807   6.502  1.6916 -1.1617 -1.6609
38754SOL     OW19216  10.121   0.341   5.742  0.3243 -0.0560  0.2458
38754SOL    HW119217  10.157   0.319   5.829 -0.5754  2.6133  1.4225
38754SOL    HW219218  10.166   0.422   5.719 -0.4805  0.0062 -1.1635
38755SOL     OW19219   4.517   1.841   8.419  0.3926 -1.1769 -0.6909
38755SOL    HW119220   4.610   1.844   8.398  0.5217 -0.9339 -0.1151
38755SOL    HW219221   4.514   1.808   8.509 -0.0585 -0.9192 -0.6069
38756SOL     OW19222   6.797   7.294   3.735 -0.0514 -0.3815 -0.0997
38756SOL    HW119223   6.776   7.206   3.705  0.6873 -0.7106  0.3099
38756SOL    HW219224   6.891   7.292   3.751 -0.0125  0.5141 -0.1791
38757SOL     OW19225   3.632   2.010   2.222 -0.3130 -0.0555  0.3863
38757SOL    HW119226   3.625   1.957   2.143 -0.2537 -0.3734  0.5968
38757SOL    HW219227   3.569   1.971   2.283 -1.4280  1.0512  0.0120
38758SOL     OW19228   3.527   7.382   4.933  0.2916  0.4097  0.0692
38758SOL    HW119229   3.512   7.473   4.907 -0.4660  0.2163 -0.1907
38758SOL    HW219230   3.507   7.380   5.026 -1.8381  0.0738 -0.3394
38759SOL     OW19231   9.330   0.486   3.822  0.0858  0.2669 -0.2515
38759SOL    HW119232   9.414   0.509   3.784 -0.1495 -0.0374 -0.9789
38759SOL    HW219233   9.328   0.390   3.820 -0.3153  0.2750 -0.3250
38760SOL     OW19234   5.573   3.229   3.328 -0.1276 -0.4157 -0.0004
38760SOL    HW119235   5.618   3.146   3.344  1.4364  0.6054  1.2451
38760SOL    HW219236   5.506   3.208   3.263  1.5406 -2.2341 -1.2607
38761SOL     OW19237   4.989   4.150   2.687 -0.2081  0.6463  0.6896
38761SOL    HW119238   4.993   4.244   2.669  0.1404  1.0272  2.5077
38761SOL    HW219239   4.896   4.128   2.680 -0.3169  1.1716  0.4672
38762SOL     OW19240   3.820   8.211   3.371 -0.1116 -0.2648  0.1807
38762SOL    HW119241   3.762   8.187   3.443 -0.3548 -1.6373 -0.4323
38762SOL    HW219242   3.869   8.287   3.403 -1.1454 -0.0456  1.2819
38763SOL     OW19243   0.489   5.146   5.343  0.3011  0.6948  0.1574
38763SOL    HW119244   0.471   5.212   5.410  0.8963 -0.3417  1.3711
38763SOL    HW219245   0.405   5.100   5.332  0.5383 -0.0384  1.2388
38764SOL     OW19246   0.253   4.058   0.452 -0.4858  0.5144  0.0824
38764SOL    HW119247   0.287   4.121   0.516  0.7701 -1.9633  2.0404
38764SOL    HW219248   0.325   3.996   0.440 -2.4642 -1.9184  0.1385
38765SOL     OW19249   0.014   4.192   5.514 -0.0415 -0.6044 -0.0280
38765SOL    HW119250   0.006   4.286   5.496 -2.0508 -0.2795  2.0756
38765SOL    HW219251   0.100   4.183   5.554 -0.3289  0.6036  0.9340
38766SOL     OW19252   2.013   9.609   9.119  0.2138 -0.0574 -0.1238
38766SOL    HW119253   2.041   9.520   9.138  1.3275  0.2999 -0.0532
38766SOL    HW219254   2.064   9.635   9.043  1.7112  1.3556  1.2914
38767SOL     OW19255   5.355   8.297   4.545 -0.1273 -0.0132 -0.3292
38767SOL    HW119256   5.430   8.350   4.571 -1.3902  2.1997 -0.9098
38767SOL    HW219257   5.384   8.206   4.555  2.7700  0.7417 -1.0442
38768SOL     OW19258   0.114   1.002   4.026 -0.2237 -0.1264  0.6158
38768SOL    HW119259   0.169   1.014   3.948 -0.4332  1.4691  0.6707
38768SOL    HW219260   0.083   0.912   4.020 -1.9900  0.5247 -2.3744
38769SOL     OW19261   2.259   5.976   3.498 -0.0212 -0.0245  0.4309
38769SOL    HW119262   2.207   5.967   3.578 -0.4529  0.4930  0.2041
38769SOL    HW219263   2.225   6.054   3.455 -1.2223 -1.4388 -1.3231
38770SOL     OW19264   8.373   6.214   1.624 -0.0586 -0.0176  0.2422
38770SOL    HW119265   8.396   6.238   1.714 -0.1369 -1.4115  0.6628
38770SOL    HW219266   8.441   6.152   1.597  0.9644  1.6818 -1.3346
38771SOL     OW19267   5.797   0.056   9.457  0.0873 -0.4224  0.1698
38771SOL    HW119268   5.863  -0.000   9.417  0.4890  0.1620 -0.0023
38771SOL    HW219269   5.721   0.048   9.401  0.6625  0.4318 -0.7693
38772SOL     OW19270   0.019   9.094   2.530 -0.7723  0.0512  0.4394
38772SOL    HW119271   0.008   9.157   2.601 -1.8268 -0.1126  0.4389
38772SOL    HW219272  -0.050   9.115   2.468 -1.2586 -1.2126  0.5180
38773SOL     OW19273   7.039   8.232   5.838 -0.1638  0.1296  0.4242
38773SOL    HW119274   6.948   8.228   5.808 -0.1055  1.3141  0.0659
38773SOL    HW219275   7.062   8.140   5.854 -1.3422 -0.2117  0.3003
38774SOL     OW19276   5.245   8.814   5.880  0.3497  0.0857 -0.1504
38774SOL    HW119277   5.242   8.726   5.916  0.0818  0.2871  0.3443
38774SOL    HW219278   5.311   8.859   5.932 -0.9413  0.7472  0.9827
38775SOL     OW19279   0.737   3.784   6.933  0.1391  0.2773 -0.6691
38775SOL    HW119280   0.766   3.868   6.968 -0.1331  0.2393 -0.3393
38775SOL    HW219281   0.672   3.807   6.866  0.6174  0.3491 -1.1093
38776SOL     OW19282   8.335   8.116   2.393  1.0227  0.0526 -0.4701
38776SOL    HW119283   8.408   8.145   2.448  1.3075 -0.0730 -0.7763
38776SOL    HW219284   8.340   8.020   2.396 -0.1328 -0.0055  0.8354
38777SOL     OW19285  10.447   3.876   1.666  0.7187 -0.3127  0.2295
38777SOL    HW119286  10.484   3.963   1.680 -0.2439 -0.0706  1.3594
38777SOL    HW219287  10.524   3.820   1.654  1.3426  0.8118 -1.5008
38778SOL     OW19288   6.468   0.267   7.409  0.2384 -0.0481  0.0059
38778SOL    HW119289   6.562   0.265   7.389  1.4063  2.2248  4.1900
38778SOL    HW219290   6.439   0.352   7.377 -0.1284 -0.2530 -0.2096
38779SOL     OW19291  10.138   6.390  10.222  0.6364  0.1175 -0.2320
38779SOL    HW119292  10.108   6.413  10.134  0.0155 -2.2445 -0.7037
38779SOL    HW219293  10.066   6.338  10.259  1.4863 -0.1339  1.1367
38780SOL     OW19294  10.036   5.044   8.275  0.1460 -0.6847 -0.2462
38780SOL    HW119295  10.103   5.103   8.308 -0.6535 -0.2302  0.6200
38780SOL    HW219296  10.060   5.029   8.183  0.5488  0.7103 -0.3949
38781SOL     OW19297  10.537   5.821   6.029 -0.4148 -0.1884  0.1280
38781SOL    HW119298  10.564   5.731   6.050 -2.8702 -1.3485 -1.2309
38781SOL    HW219299  10.587   5.844   5.951  0.7994 -0.0187  0.9227
38782SOL     OW19300   5.632   0.927   6.766 -0.4436 -0.2089 -0.4616
38782SOL    HW119301   5.683   0.994   6.720 -1.0563 -0.0879 -0.9724
38782SOL    HW219302   5.559   0.907   6.707 -1.7825  0.6244  0.8396
38783SOL     OW19303   9.933   0.209   8.802 -0.0814 -0.5550 -0.1346
38783SOL    HW119304  10.025   0.233   8.796 -0.4595  1.5610  1.3554
38783SOL    HW219305   9.903   0.207   8.711  0.4554  3.3000 -0.5533
38784SOL     OW19306   0.428   0.766   2.557 -0.1937  0.4526  0.6931
38784SOL    HW119307   0.414   0.860   2.545 -0.4956  0.1614 -1.8360
38784SOL    HW219308   0.520   0.759   2.583 -0.4023  1.4735  1.7853
38785SOL     OW19309   8.187  10.321   4.762 -0.4724  0.4491  0.0364
38785SOL    HW119310   8.144  10.405   4.746 -2.4651 -0.3816  0.7296
38785SOL    HW219311   8.121  10.256   4.739  0.0524 -0.8879  2.0709
38786SOL     OW19312   1.983  10.599   2.539 -0.2919 -0.0298  0.0806
38786SOL    HW119313   1.974  10.518   2.590 -1.4339 -1.1786 -1.8231
38786SOL    HW219314   1.908  10.598   2.479  0.2883  1.8932 -0.7525
38787SOL     OW19315   7.509   2.951   2.585  0.0997  0.2125 -0.1168
38787SOL    HW119316   7.477   2.914   2.502 -0.1528  0.9921 -0.3721
38787SOL    HW219317   7.471   2.895   2.652 -1.1413  0.6249 -0.4514
38788SOL     OW19318   1.925   7.903   9.364  0.2550 -0.1112  0.0135
38788SOL    HW119319   1.846   7.927   9.316 -0.9669 -1.6269  1.1405
38788SOL    HW219320   1.980   7.858   9.300 -1.6118 -2.6763  0.0344
38789SOL     OW19321   8.339   8.676   9.767  0.3378 -0.0343  0.9341
38789SOL    HW119322   8.342   8.752   9.825  0.3224  0.0801  0.7820
38789SOL    HW219323   8.394   8.611   9.811  0.8445  0.2755  0.7574
38790SOL     OW19324  10.351   1.838   5.830 -0.0599  0.0911 -0.4174
38790SOL    HW119325  10.432   1.888   5.821 -1.3967  2.2019 -1.5201
38790SOL    HW219326  10.361   1.765   5.769  1.6136 -0.6339  0.6478
38791SOL     OW19327   9.156   6.730   1.225  0.7137  0.1468 -0.4749
38791SOL    HW119328   9.097   6.726   1.150 -0.3883 -0.2784  0.3966
38791SOL    HW219329   9.101   6.711   1.300  1.6246  1.3739  0.5436
38792SOL     OW19330   9.782   6.216   7.558  0.1116  0.4347  0.0006
38792SOL    HW119331   9.755   6.305   7.582 -1.1716 -0.0910  0.5892
38792SOL    HW219332   9.783   6.169   7.641  1.1378 -0.0253 -0.2612
38793SOL     OW19333   6.563   5.927   8.214  0.0217 -0.0769  0.5908
38793SOL    HW119334   6.559   5.927   8.309  0.0052  0.8016  0.6000
38793SOL    HW219335   6.559   6.019   8.190 -2.1390 -0.3529 -0.3525
38794SOL     OW19336   4.092   9.455  10.695  0.0872  0.4044  0.2367
38794SOL    HW119337   4.088   9.363  10.719  1.1621  0.2437 -0.1620
38794SOL    HW219338   4.169   9.463  10.639 -1.7158  0.9344 -2.3842
38795SOL     OW19339   4.077   5.960   5.566  0.1178 -0.1645  0.0021
38795SOL    HW119340   4.163   6.003   5.561 -0.2036  0.4079 -1.0878
38795SOL    HW219341   4.078   5.913   5.649  0.5902  1.7619  1.1384
38796SOL     OW19342   3.357   3.530   4.185  0.3835 -0.0142 -0.4510
38796SOL    HW119343   3.448   3.558   4.194  0.8115 -0.8292 -1.9519
38796SOL    HW219344   3.361   3.451   4.131 -0.9900 -1.6198  1.6486
38797SOL     OW19345   1.843   7.662   9.076  0.1381 -0.2744 -0.3559
38797SOL    HW119346   1.895   7.599   9.026  2.1888  1.6970 -0.8976
38797SOL    HW219347   1.773   7.610   9.114  2.0749 -3.0066 -0.1953
38798SOL     OW19348   7.032   8.775   4.622 -0.3230  0.0914 -0.4856
38798SOL    HW119349   7.087   8.838   4.668  2.0919 -1.1468 -1.5207
38798SOL    HW219350   7.002   8.821   4.544  0.9181  0.1755 -0.9225
38799SOL     OW19351   9.546   4.024   3.098 -1.2422 -0.1282  0.8484
38799SOL    HW119352   9.543   4.013   3.193  2.8778 -0.6215  1.1035
38799SOL    HW219353   9.558   4.118   3.086  0.8429 -0.3171  1.0782
38800SOL     OW19354   2.797   6.618   2.273  0.1637  0.1042  0.3071
38800SOL    HW119355   2.819   6.645   2.184  3.2018 -0.3246  0.8216
38800SOL    HW219356   2.809   6.697   2.326 -3.1711  0.7911  0.2644
38801SOL     OW19357  10.368   8.480   3.517  0.1141 -0.0603  0.5270
38801SOL    HW119358  10.325   8.478   3.603 -0.4631  1.2957  0.2979
38801SOL    HW219359  10.322   8.414   3.466  0.0813 -0.4808  1.0897
38802SOL     OW19360   8.804   5.647   7.922  0.3887  0.0600  0.2250
38802SOL    HW119361   8.823   5.559   7.891 -0.6097 -0.2402  0.4222
38802SOL    HW219362   8.716   5.665   7.889  0.1397  0.5410  1.1257
38803SOL     OW19363   9.606   7.874   2.953  0.1342 -0.2731  0.0150
38803SOL    HW119364   9.660   7.833   2.886  0.1370  0.7877 -0.6446
38803SOL    HW219365   9.663   7.939   2.994 -0.7445  1.1952 -1.0127
38804SOL     OW19366   8.228   0.636   4.614 -0.4921  0.3579 -0.2445
38804SOL    HW119367   8.274   0.603   4.536  0.2153 -0.1435  0.3704
38804SOL    HW219368   8.236   0.731   4.607 -0.1921  0.3111 -0.6437
38805SOL     OW19369   4.220   4.570   7.010  0.1719 -0.4114  0.4723
38805SOL    HW119370   4.200   4.563   7.103 -1.0712 -0.5764  0.2171
38805SOL    HW219371   4.170   4.498   6.970  0.6275 -0.2924 -0.3263
38806SOL     OW19372   2.614   8.458   5.697 -0.4304 -0.3998 -0.4424
38806SOL    HW119373   2.667   8.520   5.647 -0.3610  0.4107  0.5963
38806SOL    HW219374   2.671   8.383   5.711 -0.5302 -0.7437 -1.7576
38807SOL     OW19375   1.810   0.821   8.244  0.2657 -0.0534 -0.0579
38807SOL    HW119376   1.837   0.912   8.230  0.2977  0.2559  1.7553
38807SOL    HW219377   1.892   0.772   8.244  0.2807 -0.0282 -0.6901
38808SOL     OW19378   0.921  10.354   2.976 -0.2218  0.3735  0.1272
38808SOL    HW119379   0.897  10.261   2.968  1.1611  0.0686 -1.3527
38808SOL    HW219380   0.965  10.360   3.061 -2.1397  0.1607  1.1767
38809SOL     OW19381   7.917   2.258   7.680 -0.6759 -0.1948  0.5568
38809SOL    HW119382   7.896   2.226   7.768 -0.8784  0.4156  0.7331
38809SOL    HW219383   7.891   2.350   7.681  0.6755  0.2136  0.3274
38810SOL     OW19384   1.355  10.381   2.011  0.7918  0.0609 -0.8734
38810SOL    HW119385   1.300  10.420   2.078 -0.0272 -2.1974 -0.1151
38810SOL    HW219386   1.293  10.341   1.949  1.4361 -2.7434  0.1134
38811SOL     OW19387   5.368   5.068   3.721 -0.0701 -0.0647  0.2937
38811SOL    HW119388   5.326   4.987   3.692 -0.9085  0.3289  0.3656
38811SOL    HW219389   5.323   5.138   3.673 -0.7536  0.5099  1.6952
38812SOL     OW19390   1.536  10.194   2.031  0.5419 -0.7407  0.3132
38812SOL    HW119391   1.484  10.275   2.029 -1.7685 -2.1683 -0.7581
38812SOL    HW219392   1.484  10.134   2.085  1.9243 -1.7365  0.5664
38813SOL     OW19393   9.694   3.429   3.441  0.0272 -0.2456 -0.0114
38813SOL    HW119394   9.709   3.521   3.460 -2.9915  0.1302  1.0894
38813SOL    HW219395   9.705   3.385   3.525 -1.6569 -0.3513  0.1955
38814SOL     OW19396   6.179   7.684   5.661  0.2337  0.4689  0.0453
38814SOL    HW119397   6.177   7.732   5.578 -0.3312  0.9519  0.3354
38814SOL    HW219398   6.259   7.713   5.703 -0.4642  1.7356  0.5479
38815SOL     OW19399   0.325   0.028   2.887 -0.1179  0.6075  0.4828
38815SOL    HW119400   0.310  -0.065   2.869  2.2655  0.2340  0.0162
38815SOL    HW219401   0.320   0.070   2.801  4.1857 -0.0583 -0.3228
38816SOL     OW19402   8.604   3.526   6.791  0.5303  0.2532 -0.0840
38816SOL    HW119403   8.595   3.449   6.846 -0.2974  1.0954  1.0015
38816SOL    HW219404   8.551   3.506   6.713 -2.3953  0.8975  1.5690
38817SOL     OW19405   9.420   6.938   8.163 -0.6413 -0.2094 -0.2870
38817SOL    HW119406   9.343   6.936   8.220 -0.3536  0.0296  0.1206
38817SOL    HW219407   9.492   6.911   8.220 -0.4477 -0.6076 -0.7092
38818SOL     OW19408   0.301   4.045   9.110 -0.9446  0.2429 -0.0940
38818SOL    HW119409   0.211   4.076   9.099 -0.6512  0.2789 -3.0882
38818SOL    HW219410   0.305   3.964   9.059  1.1275  1.0913 -1.3794
38819SOL     OW19411   9.592   8.090   7.458  0.0547  0.1615 -0.9287
38819SOL    HW119412   9.609   8.136   7.375 -2.7274  3.4813  0.0596
38819SOL    HW219413   9.673   8.100   7.508  0.3541  2.0000 -1.6918
38820SOL     OW19414   9.793   7.036  10.378  0.7326 -0.0673 -0.2297
38820SOL    HW119415   9.810   7.093  10.303 -2.6419  0.1999 -0.9578
38820SOL    HW219416   9.735   6.968  10.344 -2.6571  1.2195  2.4562
38821SOL     OW19417   3.875  10.308   9.290 -0.1854 -0.5642  0.2327
38821SOL    HW119418   3.780  10.295   9.289 -0.8800  3.3922  0.0503
38821SOL    HW219419   3.895  10.323   9.382 -0.4096  1.8485 -0.0464
38822SOL     OW19420   0.993   2.794   0.840  0.1827  0.1122  0.4404
38822SOL    HW119421   0.911   2.751   0.864 -1.0229  3.7248  3.8497
38822SOL    HW219422   1.041   2.801   0.922  1.4054  2.7852 -0.3834
38823SOL     OW19423   8.176   4.601   6.848 -0.1507  0.4215 -0.3622
38823SOL    HW119424   8.211   4.660   6.915 -1.4378  0.0463  0.6867
38823SOL    HW219425   8.155   4.658   6.774 -1.1559  1.2697  0.5438
38824SOL     OW19426   2.316   4.379   7.182 -0.1834  0.5423  0.2745
38824SOL    HW119427   2.242   4.439   7.185 -1.5917 -0.8376 -2.5558
38824SOL    HW219428   2.355   4.384   7.269 -2.5053  2.6733  1.3093
38825SOL     OW19429   6.585   7.722   9.342 -0.3485 -0.0521 -0.2851
38825SOL    HW119430   6.628   7.787   9.399 -1.3767  1.1498 -0.8487
38825SOL    HW219431   6.632   7.640   9.360  1.2988  0.9282  0.0986
38826SOL     OW19432   1.806   8.777  10.095  0.2655 -0.9796  0.0852
38826SOL    HW119433   1.805   8.845  10.027  0.2049 -0.5250  0.5327
38826SOL    HW219434   1.851   8.703  10.054  0.5546 -0.5830 -0.3306
38827SOL     OW19435   2.632   6.419   1.232  0.2782  0.5366 -0.7018
38827SOL    HW119436   2.593   6.496   1.273 -0.0543  0.9745 -1.8166
38827SOL    HW219437   2.705   6.396   1.290 -0.3819  0.9208  0.3177
38828SOL     OW19438   9.806  10.064   6.157 -0.0641  0.3644  0.4523
38828SOL    HW119439   9.844  10.014   6.229  0.9298  0.5182  0.0528
38828SOL    HW219440   9.842  10.153   6.168  0.8020  0.1965 -0.6944
38829SOL     OW19441   2.981  10.258   6.853  0.1325  0.7866 -0.2182
38829SOL    HW119442   2.899  10.266   6.902 -0.1249  0.6628 -0.6241
38829SOL    HW219443   3.014  10.347   6.848  0.2641  0.7758  0.3530
38830SOL     OW19444   9.643   7.566  10.556 -0.6754 -0.3588 -0.4947
38830SOL    HW119445   9.696   7.630  10.604  0.0940 -1.1835 -0.1957
38830SOL    HW219446   9.636   7.601  10.468  0.9107 -0.4947 -0.7130
38831SOL     OW19447   4.142   5.417   0.031 -0.7991  0.3853 -0.1466
38831SOL    HW119448   4.139   5.419  -0.064  0.0670  2.2085 -0.1857
38831SOL    HW219449   4.082   5.487   0.058  1.2513  2.0420  0.4779
38832SOL     OW19450   0.969   9.704   3.804  0.1827 -0.1814  0.3628
38832SOL    HW119451   0.963   9.613   3.774  0.0820 -0.3380  0.8506
38832SOL    HW219452   0.880   9.726   3.830  0.2675 -0.0428  0.5317
38833SOL     OW19453   5.159   7.311   9.170 -0.8324  0.3795  0.6760
38833SOL    HW119454   5.198   7.342   9.089 -1.6494  0.3445  0.2546
38833SOL    HW219455   5.209   7.233   9.194 -1.3950 -0.3655 -0.5015
38834SOL     OW19456   2.951   7.821   4.696 -0.6102 -0.1809 -0.2559
38834SOL    HW119457   2.964   7.908   4.734 -1.0644 -0.4180  0.4634
38834SOL    HW219458   2.899   7.836   4.618 -1.1197  0.1435  0.1429
38835SOL     OW19459   9.708   7.289   0.164  0.3439 -0.1010  0.1208
38835SOL    HW119460   9.793   7.308   0.125 -0.7335  0.2969 -2.1951
38835SOL    HW219461   9.682   7.372   0.206  0.8151 -0.0368  0.2850
38836SOL     OW19462   5.478   3.292   0.214  0.8069 -0.1138 -0.2444
38836SOL    HW119463   5.411   3.355   0.240  1.3373  0.5071 -0.3614
38836SOL    HW219464   5.429   3.223   0.169  0.1507 -0.0861  0.3995
38837SOL     OW19465   5.104   3.699   1.131 -0.0140  0.3241 -0.7257
38837SOL    HW119466   5.134   3.702   1.040  1.0414  0.1531 -0.3979
38837SOL    HW219467   5.078   3.608   1.145 -2.2845  0.7860 -1.4751
38838SOL     OW19468   5.917   8.771   1.044  0.2721 -0.0775  0.2594
38838SOL    HW119469   5.856   8.697   1.045  1.1046 -0.7803  1.6802
38838SOL    HW219470   5.972   8.755   0.968 -0.3905 -0.1985 -0.2085
38839SOL     OW19471   2.100   1.890   4.907 -0.0464 -0.3599 -0.3160
38839SOL    HW119472   2.141   1.976   4.916  1.1314 -0.8917 -0.3384
38839SOL    HW219473   2.170   1.834   4.872 -0.7392 -1.3619 -0.1407
38840SOL     OW19474   5.968   2.163   7.183 -0.4251  0.0835  0.0063
38840SOL    HW119475   5.953   2.218   7.107 -1.4106  1.0809  0.8904
38840SOL    HW219476   5.987   2.077   7.147 -0.2205  0.6869 -1.3719
38841SOL     OW19477   1.424   3.219   3.692  0.7218 -0.0745  0.2545
38841SOL    HW119478   1.511   3.194   3.664  0.6476 -1.1452  0.9142
38841SOL    HW219479   1.409   3.168   3.772  0.3731  1.7618  1.4393
38842SOL     OW19480   1.436   1.731   2.574  0.1613  0.9091  0.0360
38842SOL    HW119481   1.429   1.803   2.636  0.0845  0.6864  0.2901
38842SOL    HW219482   1.373   1.666   2.605  0.2039  0.7479 -0.2100
38843SOL     OW19483   8.810   8.535   5.928  0.0354 -0.5780  0.5177
38843SOL    HW119484   8.717   8.556   5.915  0.1597 -0.6011 -0.4647
38843SOL    HW219485   8.835   8.484   5.851  0.9824 -0.1655  0.5285
38844SOL     OW19486   9.200   2.409   7.139  0.1180 -0.3208 -0.0266
38844SOL    HW119487   9.257   2.437   7.211 -0.1599  1.5486 -0.4977
38844SOL    HW219488   9.259   2.394   7.065  0.2746 -1.1181  0.2478
38845SOL     OW19489   6.286   0.329   1.679 -0.1712  0.1908  0.6467
38845SOL    HW119490   6.339   0.276   1.619 -1.4916  0.7530 -1.0842
38845SOL    HW219491   6.203   0.283   1.685 -1.4666  2.1213 -1.1415
38846SOL     OW19492   4.721   7.463  10.159 -0.4919  0.1346 -0.3340
38846SOL    HW119493   4.645   7.435  10.210 -1.3076  0.0499 -1.5402
38846SOL    HW219494   4.791   7.404  10.185 -1.2378 -0.7226 -0.2405
38847SOL     OW19495   7.866   0.331   4.267 -0.3326  0.3443  0.2438
38847SOL    HW119496   7.933   0.290   4.321 -0.2474 -0.4354 -0.4322
38847SOL    HW219497   7.871   0.424   4.288 -0.9002 -0.0287  2.2262
38848SOL     OW19498   2.952   8.877   7.286  0.1564  0.0339  0.6271
38848SOL    HW119499   3.014   8.827   7.233  0.0273 -1.5186  1.8955
38848SOL    HW219500   2.943   8.960   7.239  4.6445  1.1706  1.3216
38849SOL     OW19501   1.355  10.048   5.943 -0.1398  0.5787 -0.0262
38849SOL    HW119502   1.303  10.124   5.966 -0.1592  1.3054 -2.2584
38849SOL    HW219503   1.432  10.053   6.000 -0.9206  1.3255  0.9895
38850SOL     OW19504   0.807   5.431   4.199  0.3830  0.2284  0.0141
38850SOL    HW119505   0.751   5.353   4.206  0.7538 -0.0925 -0.5196
38850SOL    HW219506   0.788   5.467   4.113  0.1258  0.8085  0.3028
38851SOL     OW19507   9.748   0.886   9.458 -0.1560  0.3062  0.1998
38851SOL    HW119508   9.778   0.837   9.382 -0.1486  1.1780 -0.3642
38851SOL    HW219509   9.743   0.820   9.528 -1.1072 -0.7124 -0.7837
38852SOL     OW19510   0.467  10.033   1.741 -0.0215 -0.2154 -0.0333
38852SOL    HW119511   0.429  10.086   1.670  2.0719 -0.5749 -1.5134
38852SOL    HW219512   0.469   9.944   1.706 -0.7603 -0.7623  1.2788
38853SOL     OW19513   4.773   5.666   6.282 -0.2066 -0.6570 -0.2702
38853SOL    HW119514   4.818   5.750   6.273  0.4755 -1.1519 -1.7297
38853SOL    HW219515   4.712   5.679   6.355  0.4079  0.8641  0.0028
38854SOL     OW19516   7.651   7.128   6.951  0.7213 -0.3705 -0.0658
38854SOL    HW119517   7.700   7.148   6.871  2.0343  1.0931  1.0574
38854SOL    HW219518   7.643   7.032   6.950  0.4078 -0.3628 -2.0934
38855SOL     OW19519   1.716   2.071   8.084  0.2005 -0.2364  0.6540
38855SOL    HW119520   1.710   1.979   8.057 -2.7410  0.3263 -1.0255
38855SOL    HW219521   1.631   2.090   8.124  1.6506  1.1697  3.3217
38856SOL     OW19522   8.848   6.991   7.005 -0.5420  0.2795  0.4636
38856SOL    HW119523   8.769   6.940   6.986 -0.2068 -0.1828  0.2683
38856SOL    HW219524   8.916   6.924   7.018 -0.5842  0.5976  2.5270
38857SOL     OW19525   2.343   3.674   6.912 -0.1493 -0.0421 -0.0230
38857SOL    HW119526   2.284   3.665   6.837 -0.2281 -2.0993  0.2214
38857SOL    HW219527   2.288   3.658   6.988  0.4442 -0.6756  0.2858
38858SOL     OW19528   6.627   4.233   5.890  0.0082  0.1602 -0.1825
38858SOL    HW119529   6.557   4.184   5.848 -0.0163 -1.0101  1.1412
38858SOL    HW219530   6.705   4.213   5.839 -0.3358  0.1785 -0.7143
38859SOL     OW19531   6.150   3.388   0.702  0.3189  0.9167 -0.2979
38859SOL    HW119532   6.163   3.426   0.615 -0.3414  0.5921 -0.5503
38859SOL    HW219533   6.057   3.402   0.720  0.0898 -0.3990 -0.3280
38860SOL     OW19534   4.972  10.512   0.388  0.4495 -0.0734 -0.3441
38860SOL    HW119535   5.003  10.440   0.333 -1.7131 -1.6196  0.3505
38860SOL    HW219536   4.921  10.567   0.329  1.7216  0.6896 -0.7735
38861SOL     OW19537   5.697   3.599   1.358 -0.2132 -0.6263 -0.1342
38861SOL    HW119538   5.710   3.532   1.425  1.0801 -0.0769  0.2029
38861SOL    HW219539   5.775   3.654   1.364 -1.4059  1.1242 -0.1635
38862SOL     OW19540   4.541   0.317   8.843 -0.0621 -0.0434  0.0560
38862SOL    HW119541   4.616   0.364   8.808  0.3262 -0.6181  0.1076
38862SOL    HW219542   4.467   0.377   8.831  0.4578  0.6587  0.3022
38863SOL     OW19543   9.199   7.755   5.126  0.1327 -0.3796 -0.1667
38863SOL    HW119544   9.290   7.782   5.145 -0.1028 -0.2697  0.8866
38863SOL    HW219545   9.178   7.693   5.196  0.1315 -2.1474 -1.6757
38864SOL     OW19546   0.983   3.101   9.766  0.0780 -0.4203  0.1293
38864SOL    HW119547   0.947   3.058   9.844 -0.8776 -0.2280 -0.1930
38864SOL    HW219548   1.065   3.055   9.749 -0.8759 -2.1005 -0.1660
38865SOL     OW19549   7.189   6.120   4.406 -0.4480  0.5378  0.3704
38865SOL    HW119550   7.281   6.096   4.403 -1.0685 -2.0582 -1.7525
38865SOL    HW219551   7.178   6.165   4.490  2.3267 -0.7758  1.5483
38866SOL     OW19552  10.013  10.646   8.847  0.0710  0.3700 -0.6273
38866SOL    HW119553   9.994  10.737   8.824 -0.4563  0.6644  0.8800
38866SOL    HW219554  10.082  10.653   8.914 -0.2201 -0.3148 -0.2502
38867SOL     OW19555   2.424   5.053   1.193  0.0935 -0.9180  0.1397
38867SOL    HW119556   2.462   4.984   1.138 -1.7809 -1.7514 -0.1932
38867SOL    HW219557   2.333   5.026   1.205 -0.7756  1.6065 -0.1822
38868SOL     OW19558   9.310   0.626   2.916 -0.0761  0.0380  0.1239
38868SOL    HW119559   9.225   0.658   2.945  0.3667  2.4420 -0.9375
38868SOL    HW219560   9.372   0.659   2.981  0.1263 -1.5458  0.7938
38869SOL     OW19561   2.393   4.959   4.969  0.0441  0.0713 -0.6858
38869SOL    HW119562   2.452   5.023   5.009 -0.5456 -0.1278  0.5322
38869SOL    HW219563   2.325   5.012   4.926  0.4674  0.2778 -1.1115
38870SOL     OW19564   8.838   7.057  10.286 -0.0905  0.2555  0.2564
38870SOL    HW119565   8.816   6.972  10.322 -1.6215 -0.2648 -1.7095
38870SOL    HW219566   8.754   7.092  10.255  0.9063  1.1205 -1.6786
38871SOL     OW19567   0.368   0.464   0.962 -0.0274  0.2326 -0.1115
38871SOL    HW119568   0.461   0.486   0.971  0.1140  0.2780 -1.4325
38871SOL    HW219569   0.340   0.441   1.051  1.4947 -0.7159  0.1746
38872SOL     OW19570   0.641   0.209   5.496  0.0858  0.2479 -0.5221
38872SOL    HW119571   0.559   0.160   5.505 -0.1876  0.6397 -0.8241
38872SOL    HW219572   0.710   0.144   5.512 -0.2907  0.3114  1.6379
38873SOL     OW19573   3.715   2.236   1.244 -0.1999  0.1339  0.3083
38873SOL    HW119574   3.648   2.198   1.301 -1.2356  0.1714 -0.8528
38873SOL    HW219575   3.682   2.323   1.221  0.6795  0.5193  0.4269
38874SOL     OW19576   2.721   8.296   9.342  0.2381  0.8386 -0.4933
38874SOL    HW119577   2.721   8.234   9.415 -1.8123  2.0111  0.5768
38874SOL    HW219578   2.789   8.263   9.283  1.4172 -0.5919  1.5454
38875SOL     OW19579   5.661   6.085   0.045 -0.0618  0.1900  0.1127
38875SOL    HW119580   5.594   6.114   0.108 -0.9121  0.9557 -1.1028
38875SOL    HW219581   5.744   6.108   0.087 -0.4864 -1.0695  1.8005
38876SOL     OW19582  10.158   6.438   7.335 -0.0195 -0.3038 -0.2085
38876SOL    HW119583  10.134   6.346   7.326 -0.5536 -0.0905 -1.1422
38876SOL    HW219584  10.234   6.437   7.394 -0.0893 -1.3257 -0.1093
38877SOL     OW19585   4.302   3.634   2.975  0.1411  0.1258 -0.1321
38877SOL    HW119586   4.326   3.704   3.035 -1.6419 -0.0621  0.8936
38877SOL    HW219587   4.236   3.673   2.917 -0.5037 -0.5331  0.1333
38878SOL     OW19588   2.683   4.895   2.127 -0.6141  0.7007 -0.0976
38878SOL    HW119589   2.706   4.957   2.197  1.3606 -1.0708  0.9379
38878SOL    HW219590   2.588   4.884   2.136 -0.8421  2.6569  0.4249
38879SOL     OW19591   5.105   3.075   5.183  0.2980  0.0722 -0.4349
38879SOL    HW119592   5.162   3.136   5.137 -0.4330  1.5258  0.5210
38879SOL    HW219593   5.136   3.077   5.274  0.5890 -1.3973 -0.4770
38880SOL     OW19594   8.389   1.881   4.069 -0.1253  0.2786  0.2605
38880SOL    HW119595   8.467   1.936   4.060 -1.0668  1.6631  0.1669
38880SOL    HW219596   8.409   1.802   4.018  0.2114  1.7401 -2.0193
38881SOL     OW19597   8.758   7.253   7.909  0.4812  0.6994 -0.2571
38881SOL    HW119598   8.712   7.211   7.981  0.3471 -3.0662 -2.2564
38881SOL    HW219599   8.708   7.332   7.890 -0.2941  1.0330  2.7535
38882SOL     OW19600   4.128   1.844   7.102  0.1363 -0.7364  0.3750
38882SOL    HW119601   4.050   1.892   7.073 -0.6609 -0.2775  3.0356
38882SOL    HW219602   4.100   1.752   7.104  0.3037 -0.8198 -0.5156
38883SOL     OW19603   2.510   8.134   0.819 -0.5088  0.1493 -0.0673
38883SOL    HW119604   2.586   8.172   0.863 -1.6243  0.4297  1.7234
38883SOL    HW219605   2.548   8.081   0.748  1.2953  0.9023  0.2682
38884SOL     OW19606   9.311   6.955   0.896 -0.2629 -0.9172  0.1021
38884SOL    HW119607   9.313   6.922   0.985 -1.6309 -2.4398 -0.3828
38884SOL    HW219608   9.381   6.907   0.851 -3.1316 -4.6151 -0.9632
38885SOL     OW19609   7.088   5.233   6.216  0.4108  0.2189  0.1693
38885SOL    HW119610   6.993   5.241   6.226  0.3491 -1.5936  1.7898
38885SOL    HW219611   7.124   5.307   6.264 -0.1895 -1.0540  2.7519
38886SOL     OW19612   7.946   1.929   0.837  0.6163  0.0360  0.4220
38886SOL    HW119613   7.998   1.997   0.795 -0.1497 -0.1284 -0.8177
38886SOL    HW219614   7.884   1.976   0.893  0.2864  0.3546 -0.2062
38887SOL     OW19615   5.332   6.155   5.069  0.4470  0.1467 -0.1735
38887SOL    HW119616   5.324   6.242   5.030 -0.2529  0.0537 -0.2406
38887SOL    HW219617   5.278   6.158   5.148  0.7076 -0.1149  0.0188
38888SOL     OW19618   6.091   0.999   5.145 -0.2798 -0.1834 -0.2771
38888SOL    HW119619   6.144   1.072   5.113 -1.0669 -0.1594 -1.5701
38888SOL    HW219620   6.005   1.037   5.161 -0.6542 -0.7831 -0.8163
38889SOL     OW19621  10.046   8.459   0.098  0.2188 -0.6520 -0.2433
38889SOL    HW119622  10.001   8.541   0.078  0.1991 -0.8296 -0.9518
38889SOL    HW219623  10.121   8.457   0.039  1.1527 -0.3884  0.8917
38890SOL     OW19624   1.827   6.514   5.802 -0.5505 -0.7567 -0.3513
38890SOL    HW119625   1.855   6.430   5.766 -1.4039 -0.5305 -1.6400
38890SOL    HW219626   1.732   6.507   5.808 -0.7226  0.3703 -1.2329
38891SOL     OW19627   8.672   7.259   2.735 -0.2413 -0.2417  0.0258
38891SOL    HW119628   8.634   7.260   2.647  0.0749  0.0782 -0.1098
38891SOL    HW219629   8.598   7.240   2.792 -1.0801  2.3224 -0.0352
38892SOL     OW19630   6.825   9.016   2.924  0.3842  0.0080 -0.9458
38892SOL    HW119631   6.841   9.005   3.017 -0.1949  1.0631 -0.7130
38892SOL    HW219632   6.912   9.027   2.886  0.7400 -1.7276 -0.7432
38893SOL     OW19633   9.350   4.250   1.289 -0.1912 -0.1591  0.3951
38893SOL    HW119634   9.344   4.312   1.362 -0.1587  0.1043  0.1731
38893SOL    HW219635   9.272   4.265   1.237  0.5849  0.8137 -0.5386
38894SOL     OW19636   6.901   3.175   2.484  0.5318  0.2339 -0.5709
38894SOL    HW119637   6.967   3.145   2.422  0.6047 -0.7030 -0.0556
38894SOL    HW219638   6.946   3.176   2.569 -0.3496 -1.3409 -0.0455
38895SOL     OW19639   8.152   8.495   5.137 -0.4030  0.2466  0.0795
38895SOL    HW119640   8.087   8.425   5.142  1.0936 -1.1823  0.4314
38895SOL    HW219641   8.118   8.563   5.195 -1.7297 -0.3081 -0.0045
38896SOL     OW19642   2.843   1.973   7.889  0.1158 -0.2237 -0.4748
38896SOL    HW119643   2.883   1.910   7.829  0.0694  0.9028 -1.7439
38896SOL    HW219644   2.786   2.027   7.834  0.0319  0.8314  0.5861
38897SOL     OW19645   2.471   0.137   4.592  0.2116  0.3439 -0.0869
38897SOL    HW119646   2.560   0.169   4.579 -0.6450  2.2105 -1.7851
38897SOL    HW219647   2.417   0.216   4.598 -1.5261 -0.7461 -0.6716
38898SOL     OW19648   3.483   3.210   9.625 -0.0274  0.8533 -0.6897
38898SOL    HW119649   3.438   3.294   9.636 -0.2201  0.5449  1.3188
38898SOL    HW219650   3.416   3.151   9.592 -0.5511  0.9286  0.2046
38899SOL     OW19651   9.931   9.627   4.202  0.2064 -0.3831 -0.6067
38899SOL    HW119652   9.836   9.624   4.215  0.5143 -3.6148  2.3892
38899SOL    HW219653   9.949   9.555   4.142  0.7819  0.1589 -1.0914
38900SOL     OW19654  10.200   2.892   0.816 -0.5112  0.4088 -0.2074
38900SOL    HW119655  10.262   2.865   0.748 -0.1047  2.3217 -0.6639
38900SOL    HW219656  10.254   2.931   0.884 -0.9640 -1.0557  1.0342
38901SOL     OW19657   6.062   8.924   0.814  0.2592  0.1113 -0.0050
38901SOL    HW119658   5.984   8.890   0.769  0.3184  0.8610 -0.6964
38901SOL    HW219659   6.135   8.887   0.764  0.3662 -0.6204  0.6639
38902SOL     OW19660   6.879   1.011   5.649 -0.5218 -0.6273 -0.6466
38902SOL    HW119661   6.924   0.991   5.731 -0.5790  1.8366  0.0549
38902SOL    HW219662   6.827   1.089   5.668 -1.7296 -0.8651 -2.6395
38903SOL     OW19663   5.397   3.640   4.644 -0.2654  0.1674 -0.5067
38903SOL    HW119664   5.330   3.601   4.588 -1.4435  0.0668  0.8824
38903SOL    HW219665   5.479   3.599   4.617 -1.1568 -1.7336 -0.4870
38904SOL     OW19666   4.892   8.574   5.931  0.0120  0.9321  0.6166
38904SOL    HW119667   4.900   8.630   5.853 -0.5430  1.6552  1.0661
38904SOL    HW219668   4.937   8.493   5.907 -0.6195  0.9324 -0.6511
38905SOL     OW19669   7.518   3.340   1.048  0.5201  0.1163  0.4115
38905SOL    HW119670   7.525   3.378   0.961  1.0713 -0.7538  0.0636
38905SOL    HW219671   7.459   3.398   1.095  0.4274  0.7408 -0.4603
38906SOL     OW19672   9.629   0.364   2.524 -0.5446 -0.6280 -0.0403
38906SOL    HW119673   9.687   0.336   2.454  0.4907 -1.3829  1.0775
38906SOL    HW219674   9.619   0.458   2.510  0.0731 -0.6712 -0.8836
38907SOL     OW19675   8.800   2.625   0.389  0.2381 -0.3501 -0.0112
38907SOL    HW119676   8.774   2.648   0.479 -1.4621 -1.6366 -0.1223
38907SOL    HW219677   8.798   2.709   0.342  1.4905  0.4055  1.1801
38908SOL     OW19678   5.110  10.178   3.921  0.4058 -0.6353 -0.5296
38908SOL    HW119679   5.110  10.272   3.937 -1.8294 -0.1372 -2.7637
38908SOL    HW219680   5.046  10.144   3.984  1.2682 -0.7149  0.3293
38909SOL     OW19681   7.982   9.651   1.976  1.0041  0.0353 -0.0062
38909SOL    HW119682   8.032   9.615   2.050 -0.1052  1.6784  1.6461
38909SOL    HW219683   7.956   9.575   1.925  0.1320 -1.4172  2.4214
38910SOL     OW19684   5.677   5.845   0.850 -0.3001 -0.8626  0.1424
38910SOL    HW119685   5.746   5.909   0.866 -1.9457  1.1632 -0.3563
38910SOL    HW219686   5.663   5.848   0.755 -0.0472 -2.4267  0.0249
38911SOL     OW19687  10.172   3.633  10.203  0.3597 -0.2758  0.0379
38911SOL    HW119688  10.195   3.552  10.248 -0.3177 -0.0273  0.8550
38911SOL    HW219689  10.165   3.608  10.111 -0.1641 -1.2240  0.3195
38912SOL     OW19690  10.425   6.981   4.019  0.6023 -0.0615 -0.1883
38912SOL    HW119691  10.413   6.934   3.937  1.0990  0.9229 -0.8440
38912SOL    HW219692  10.415   6.914   4.087 -0.7633 -0.7106 -0.9984
38913SOL     OW19693   0.346   9.170   0.219  0.0981 -0.2978 -0.4274
38913SOL    HW119694   0.287   9.172   0.143 -0.3039  1.2329 -0.1134
38913SOL    HW219695   0.387   9.257   0.219 -0.7344  0.1470  1.7163
38914SOL     OW19696   0.415   0.542   6.749 -0.9783 -0.3790  0.6704
38914SOL    HW119697   0.408   0.446   6.755  0.3562 -0.4337  1.9181
38914SOL    HW219698   0.498   0.557   6.704 -0.7562  0.1817  1.2574
38915SOL     OW19699   3.978   9.820   1.339 -0.3819 -0.3367 -0.3386
38915SOL    HW119700   3.991   9.886   1.407  0.1369 -0.7150 -0.0614
38915SOL    HW219701   3.924   9.752   1.381  0.4154 -0.8437 -0.1099
38916SOL     OW19702   1.346  10.375   7.126  0.1889  0.2292  0.5638
38916SOL    HW119703   1.435  10.359   7.093  1.3354  2.1415  2.5030
38916SOL    HW219704   1.356  10.446   7.189 -2.7761  0.5934  0.7566
38917SOL     OW19705   4.220   5.615   8.885  0.3608  0.0565  0.1111
38917SOL    HW119706   4.130   5.628   8.917  0.0592 -0.6729 -0.4107
38917SOL    HW219707   4.209   5.589   8.793  1.1497  0.7587 -0.1921
38918SOL     OW19708   8.988   7.143  10.505  0.0919  0.1251 -0.2039
38918SOL    HW119709   8.986   7.102  10.418 -1.4486  0.9647 -0.5975
38918SOL    HW219710   8.947   7.078  10.562 -0.7189  0.3766 -0.4913
38919SOL     OW19711   5.484   1.461   3.642 -0.5384  0.3437  0.0846
38919SOL    HW119712   5.475   1.469   3.548 -0.2904  0.3581  0.0612
38919SOL    HW219713   5.399   1.485   3.677 -0.5881  0.4727 -0.1280
38920SOL     OW19714  10.513   0.620   0.647  0.3494  0.6465 -0.0411
38920SOL    HW119715  10.485   0.529   0.650 -0.0177  0.7198 -1.0403
38920SOL    HW219716  10.587   0.620   0.587 -0.4677  1.2098 -1.0643
38921SOL     OW19717   2.788  10.476   1.611 -0.7455  0.3591 -0.4435
38921SOL    HW119718   2.825  10.391   1.588 -0.8493  0.5717 -1.4321
38921SOL    HW219719   2.740  10.503   1.533 -1.6831  0.8017  0.2630
38922SOL     OW19720   9.783   9.577   1.458  0.2545 -0.2295  0.2040
38922SOL    HW119721   9.718   9.646   1.447 -2.5826 -2.9215 -1.2968
38922SOL    HW219722   9.733   9.501   1.487  3.0251 -2.0453  0.6052
38923SOL     OW19723   4.561   0.210   9.495  0.2586 -0.7827 -0.2620
38923SOL    HW119724   4.634   0.232   9.553  0.0758 -0.4329 -0.1583
38923SOL    HW219725   4.503   0.287   9.500  1.1757  0.1196 -2.4285
38924SOL     OW19726   8.510   3.264   1.781  0.0201  0.5065  0.2739
38924SOL    HW119727   8.551   3.262   1.694  0.2709 -1.2799  0.4045
38924SOL    HW219728   8.548   3.342   1.823  2.4722 -0.4224 -0.0271
38925SOL     OW19729   2.174   5.339   8.955 -0.1095 -0.2661  0.7971
38925SOL    HW119730   2.144   5.252   8.984 -1.1776 -0.7952 -1.6337
38925SOL    HW219731   2.257   5.321   8.911 -0.6250 -0.1598 -0.2278
38926SOL     OW19732   8.773   9.664   2.459 -0.5676  0.5110 -0.3349
38926SOL    HW119733   8.827   9.673   2.538 -0.1281 -2.2076 -0.2283
38926SOL    HW219734   8.800   9.737   2.403  0.9946  1.0098  0.9875
38927SOL     OW19735   3.211   2.198   3.238 -0.2586  0.3913 -0.5101
38927SOL    HW119736   3.141   2.134   3.228  1.1077 -1.1196 -0.9244
38927SOL    HW219737   3.252   2.203   3.152  1.5598 -0.5290  0.2364
38928SOL     OW19738   9.878   2.671   7.247  0.1735  0.0713  0.2305
38928SOL    HW119739   9.966   2.708   7.242  0.5817 -0.9077 -0.0920
38928SOL    HW219740   9.847   2.695   7.334  0.9074  0.1060  0.4880
38929SOL     OW19741   4.496   2.282   4.427  0.2842  0.1320  0.0666
38929SOL    HW119742   4.402   2.300   4.428  0.2736  0.1085 -0.2394
38929SOL    HW219743   4.503   2.194   4.389  0.4702  0.4195 -0.5801
38930SOL     OW19744  10.038   8.825   9.610 -0.1408 -0.6903  0.7069
38930SOL    HW119745  10.066   8.914   9.632 -1.2239 -0.3506  0.7422
38930SOL    HW219746  10.075   8.809   9.523  0.7050 -0.5085  1.0214
38931SOL     OW19747   8.748   9.019   7.318  0.4142 -0.1439  0.3741
38931SOL    HW119748   8.837   8.984   7.321  0.2062 -0.8430 -0.9961
38931SOL    HW219749   8.739   9.055   7.230  0.0849  2.0159  1.2317
38932SOL     OW19750   8.032   8.669   9.189 -0.1415  0.0701 -0.0742
38932SOL    HW119751   7.946   8.703   9.167 -0.5063  1.1303  2.6260
38932SOL    HW219752   8.015   8.586   9.232  0.1905  0.2455  0.3985
38933SOL     OW19753   0.704   5.627   1.335 -0.3732  0.2894  0.1964
38933SOL    HW119754   0.643   5.645   1.264  0.0444  2.2037  0.2651
38933SOL    HW219755   0.657   5.568   1.394 -0.8338 -1.0962 -1.4794
38934SOL     OW19756   3.032   1.987   3.272  0.2979  0.4077  0.5449
38934SOL    HW119757   2.975   2.007   3.347 -0.9668  0.0939 -0.3114
38934SOL    HW219758   2.983   1.923   3.221  1.1114  0.6818 -0.6062
38935SOL     OW19759   3.455   5.856  10.612  0.2832  0.2345 -0.0891
38935SOL    HW119760   3.450   5.951  10.614 -0.3637  0.1953  0.6780
38935SOL    HW219761   3.394   5.827  10.679  0.7727 -0.7164 -0.0323
38936SOL     OW19762   0.737   0.239   1.198  0.2877  0.9083 -0.0931
38936SOL    HW119763   0.814   0.276   1.153 -0.0543  0.2555 -1.2585
38936SOL    HW219764   0.688   0.196   1.128  0.0353 -0.6832  1.0257
38937SOL     OW19765   9.785   4.146   8.622  0.0874 -0.4575  0.1679
38937SOL    HW119766   9.742   4.138   8.537  0.6317  1.0740 -0.2898
38937SOL    HW219767   9.716   4.125   8.686 -0.5695 -0.7278 -0.6117
38938SOL     OW19768   8.487   4.591   0.128  0.4573 -0.5610 -0.1520
38938SOL    HW119769   8.505   4.572   0.220 -0.2896  1.4407  0.4691
38938SOL    HW219770   8.564   4.641   0.099 -0.8552  2.0503  0.5347
38939SOL     OW19771   4.957   2.384  10.289  0.0937  0.1801  0.6042
38939SOL    HW119772   5.037   2.418  10.329  0.0623  0.4197  0.4721
38939SOL    HW219773   4.928   2.455  10.232 -0.8543  0.5666  1.5316
38940SOL     OW19774   2.097   8.736   9.994  0.4340  0.7717  0.2397
38940SOL    HW119775   2.114   8.830   9.990  1.3696  0.6380  0.8233
38940SOL    HW219776   2.137   8.701   9.915 -0.6929  0.9647 -0.4340
38941SOL     OW19777   4.976   4.825   7.243 -0.2059  0.0802 -0.2726
38941SOL    HW119778   4.899   4.770   7.229 -0.7832  0.7806  0.1013
38941SOL    HW219779   4.990   4.822   7.338  0.5472 -0.4688 -0.3965
38942SOL     OW19780   3.109   5.844   6.620  0.4359  0.3274  0.0570
38942SOL    HW119781   3.183   5.787   6.639  0.1484 -0.5539 -1.3400
38942SOL    HW219782   3.043   5.820   6.684  0.3019 -0.9660 -0.5443
38943SOL     OW19783   3.741   5.927   6.729  0.2327  0.3817 -0.5238
38943SOL    HW119784   3.782   6.006   6.692 -0.5933  1.1226  0.1100
38943SOL    HW219785   3.792   5.909   6.807  0.0045  0.6942 -0.2995
38944SOL     OW19786   7.748   6.258   4.099 -0.5676  0.3919 -0.3900
38944SOL    HW119787   7.762   6.326   4.165 -2.4087  1.1835 -0.7672
38944SOL    HW219788   7.735   6.306   4.017 -1.7869 -0.3951 -0.6805
38945SOL     OW19789   3.004   0.891   1.467  0.1645  0.2914  0.1702
38945SOL    HW119790   3.042   0.804   1.477 -1.6940 -0.6067 -0.0104
38945SOL    HW219791   3.075   0.946   1.435  2.7542  0.0630  4.7076
38946SOL     OW19792   3.132   0.758   6.499 -0.0609 -0.3008 -0.4115
38946SOL    HW119793   3.079   0.837   6.488  0.7322  0.5475  1.3622
38946SOL    HW219794   3.069   0.689   6.519 -0.6411  0.3153 -0.0733
38947SOL     OW19795   2.807   5.711   9.182  0.0443 -0.4382 -0.0331
38947SOL    HW119796   2.755   5.694   9.260 -0.9998  1.7803 -0.1556
38947SOL    HW219797   2.868   5.780   9.210 -1.7265  1.9164 -1.6033
38948SOL     OW19798  10.212   0.991   6.724  0.1609  0.7499  0.2359
38948SOL    HW119799  10.234   0.955   6.638  0.0660 -0.2815  0.6311
38948SOL    HW219800  10.296   1.019   6.760  0.1572  1.5201 -0.3284
38949SOL     OW19801   0.618   6.174   1.075  0.4652  0.5579  0.0882
38949SOL    HW119802   0.574   6.116   1.137 -0.7785 -1.2304 -2.3208
38949SOL    HW219803   0.606   6.261   1.111 -1.1226 -0.3071  1.8090
38950SOL     OW19804   6.300   8.200   5.952  0.5267  0.1929 -0.2232
38950SOL    HW119805   6.369   8.210   5.886  1.1772  0.2144  0.4469
38950SOL    HW219806   6.339   8.145   6.020 -0.3080 -0.2494 -0.0866
38951SOL     OW19807   2.149   5.642   2.546  1.0916  0.4742 -0.1742
38951SOL    HW119808   2.087   5.715   2.540  0.5677  0.1054  0.7001
38951SOL    HW219809   2.192   5.654   2.630  1.2090 -0.0678 -0.1549
38952SOL     OW19810   8.396   2.517   0.235  0.3696  0.1919  0.2584
38952SOL    HW119811   8.371   2.552   0.320 -1.4414 -0.2771 -0.0344
38952SOL    HW219812   8.488   2.494   0.245  0.7794  2.1222  1.3982
38953SOL     OW19813  10.585   2.225   5.302 -0.4687 -0.1396  0.1632
38953SOL    HW119814  10.568   2.146   5.252 -0.9612  0.9410 -1.4726
38953SOL    HW219815  10.632   2.283   5.241  1.3665  0.2419  1.8304
38954SOL     OW19816   3.644   6.952   4.401 -0.0811 -0.2384  0.2096
38954SOL    HW119817   3.551   6.965   4.419  0.1095  1.9486 -0.0470
38954SOL    HW219818   3.689   7.004   4.468  0.9181 -0.4091 -0.3067
38955SOL     OW19819   5.943   1.016   8.465  0.0873 -0.1685  0.2404
38955SOL    HW119820   6.019   1.069   8.440 -0.4386  1.2523  1.5771
38955SOL    HW219821   5.871   1.051   8.414  0.1398 -1.0322 -0.4645
38956SOL     OW19822   5.704   9.403   6.764 -0.1721 -0.0697 -0.8858
38956SOL    HW119823   5.698   9.334   6.698 -0.2353  0.8472 -1.8654
38956SOL    HW219824   5.764   9.467   6.727  0.7506 -0.0921  0.4853
38957SOL     OW19825   0.076   0.856   5.008 -0.1671 -0.0128 -0.5531
38957SOL    HW119826   0.049   0.906   5.085 -0.5925  1.3838 -1.5761
38957SOL    HW219827   0.167   0.830   5.027  0.2986  1.7334 -0.2464
38958SOL     OW19828   5.433   1.284   7.236 -0.2488  0.4955  0.6331
38958SOL    HW119829   5.455   1.365   7.283  0.2205  0.2588  0.8387
38958SOL    HW219830   5.426   1.310   7.145  2.2818  0.3827  0.3340
38959SOL     OW19831   0.627   3.836  10.229 -0.1713 -0.2124  0.3522
38959SOL    HW119832   0.604   3.775  10.299  0.0171 -0.4916  0.1697
38959SOL    HW219833   0.719   3.818  10.211 -0.3546 -0.5020 -0.3295
38960SOL     OW19834   0.190   1.812   2.552 -0.2415 -0.3863 -0.2379
38960SOL    HW119835   0.130   1.791   2.480 -1.0969 -0.3025  0.4372
38960SOL    HW219836   0.232   1.729   2.572 -0.3506 -0.5118 -0.5187
38961SOL     OW19837   0.851   8.218   8.919  0.0736  0.2439 -0.4352
38961SOL    HW119838   0.783   8.195   8.983  0.0349 -0.2428 -0.6448
38961SOL    HW219839   0.819   8.182   8.837  0.6898 -0.1807 -0.4911
38962SOL     OW19840   3.740   5.191   6.184  0.4669  0.4094 -0.4119
38962SOL    HW119841   3.816   5.241   6.154  1.2696  0.6772  1.8326
38962SOL    HW219842   3.772   5.146   6.262 -1.2583 -0.7705 -0.3574
38963SOL     OW19843   6.466   1.321   6.676 -0.1626  0.1112  0.0352
38963SOL    HW119844   6.386   1.282   6.712 -0.0415  0.9480  1.2783
38963SOL    HW219845   6.492   1.262   6.605 -1.2889 -0.7518  0.3140
38964SOL     OW19846   3.935   9.176  10.035  0.4462  0.3627 -0.1587
38964SOL    HW119847   3.991   9.251  10.054  1.2945  0.0421 -1.2820
38964SOL    HW219848   3.867   9.179  10.102  1.5507  1.0145  0.9791
38965SOL     OW19849   2.768   6.825   2.692  0.3735 -0.1745 -0.1311
38965SOL    HW119850   2.832   6.788   2.753  0.6785  1.6000  0.6668
38965SOL    HW219851   2.683   6.808   2.732  0.5132  0.0178  0.2476
38966SOL     OW19852   7.097   9.534   9.425 -0.7748  0.4474 -0.1778
38966SOL    HW119853   7.023   9.473   9.419  0.5491 -1.1683 -1.0280
38966SOL    HW219854   7.137   9.532   9.338 -0.2535  1.9967  0.0024
38967SOL     OW19855   0.212   8.468   5.560 -0.0264 -0.1013  0.1233
38967SOL    HW119856   0.191   8.516   5.640  0.3485  0.8640 -0.3341
38967SOL    HW219857   0.128   8.440   5.526 -0.2796  0.4596  0.2758
38968SOL     OW19858   2.133   7.546   0.204  0.0921 -0.1449  0.1503
38968SOL    HW119859   2.142   7.618   0.143 -1.6027 -1.5829 -1.9558
38968SOL    HW219860   2.222   7.525   0.231  0.8878  0.7155 -1.6574
38969SOL     OW19861   4.200   7.534   0.297 -0.0160 -0.9713  0.1106
38969SOL    HW119862   4.202   7.512   0.390  0.7383 -3.3297 -0.4104
38969SOL    HW219863   4.107   7.533   0.274 -0.3383  0.9971  1.0650
38970SOL     OW19864   7.927   9.837   8.299 -0.1245 -0.3127  0.2254
38970SOL    HW119865   7.863   9.800   8.359  1.3435 -0.8391  1.5311
38970SOL    HW219866   7.998   9.773   8.297  0.9004  0.8028 -0.2328
38971SOL     OW19867   9.244   9.262   7.879  0.0778 -0.4894 -0.0943
38971SOL    HW119868   9.280   9.183   7.920  0.3362  0.5502  1.8179
38971SOL    HW219869   9.311   9.290   7.818  0.4253 -1.1720 -0.0402
38972SOL     OW19870   8.889   3.364   8.048 -0.1654  0.1967  0.1281
38972SOL    HW119871   8.953   3.293   8.056 -1.2172 -0.7061  0.9286
38972SOL    HW219872   8.892   3.409   8.133  1.1605  1.7577 -0.6788
38973SOL     OW19873   3.017   4.540   1.233 -0.2576  0.3577 -0.0439
38973SOL    HW119874   3.034   4.491   1.153 -1.4221 -2.1928  1.1399
38973SOL    HW219875   2.929   4.512   1.260 -0.1456  1.5922  1.8079
38974SOL     OW19876   5.414   6.189   0.522 -0.3791  0.1302  0.0272
38974SOL    HW119877   5.439   6.279   0.545 -1.5614  0.1996  1.2317
38974SOL    HW219878   5.325   6.180   0.557 -0.4809 -1.3483 -0.5410
38975SOL     OW19879   0.155   6.511   9.406 -0.4965 -0.3911 -0.2336
38975SOL    HW119880   0.242   6.552   9.406 -1.1436  1.0037 -0.0523
38975SOL    HW219881   0.118   6.532   9.321 -0.6990 -0.9274 -0.2839
38976SOL     OW19882   9.539   4.531   9.105  0.0772 -0.1455 -0.3829
38976SOL    HW119883   9.572   4.569   9.023  0.3791  1.8979  0.6400
38976SOL    HW219884   9.453   4.571   9.118 -0.6399 -1.5949 -0.4154
38977SOL     OW19885   3.370   6.106   3.578  0.0162 -0.5592  0.2417
38977SOL    HW119886   3.439   6.170   3.562 -0.2061 -0.2829  0.3905
38977SOL    HW219887   3.316   6.108   3.499 -0.7580  0.4006  0.7817
38978SOL     OW19888   6.706  10.239   4.479 -0.2889 -0.1051 -0.3192
38978SOL    HW119889   6.775  10.305   4.473  1.3243 -1.5896  0.9151
38978SOL    HW219890   6.632  10.285   4.518  0.2754  1.3233 -0.8919
38979SOL     OW19891   2.878   8.046   8.734 -0.2138  0.1467 -0.1277
38979SOL    HW119892   2.897   8.116   8.797  1.0281 -0.0231 -0.3023
38979SOL    HW219893   2.839   8.092   8.659  0.2934  0.6076 -0.1108
38980SOL     OW19894   0.645   7.775  10.694  0.1611  0.3869 -0.0690
38980SOL    HW119895   0.555   7.743  10.703  0.6574 -1.1717 -0.4332
38980SOL    HW219896   0.698   7.712  10.742  0.9362  2.1448  1.4790
38981SOL     OW19897   7.611   8.205   9.168  0.1686 -0.1975 -0.3009
38981SOL    HW119898   7.699   8.242   9.172  0.0325  0.1803 -0.6846
38981SOL    HW219899   7.586   8.190   9.259 -0.3478  2.0473 -0.0202
38982SOL     OW19900   2.018   9.634   2.186 -0.4796  0.5977  0.0435
38982SOL    HW119901   2.084   9.657   2.251 -0.4695  3.6350 -0.8876
38982SOL    HW219902   1.936   9.628   2.236 -0.3101  1.9163  0.5264
38983SOL     OW19903  10.423   3.128   6.648  0.5097  0.0526 -0.5954
38983SOL    HW119904  10.423   3.155   6.556  1.8214  2.4040  0.0356
38983SOL    HW219905  10.469   3.197   6.694 -0.9672 -0.5622  2.0209
38984SOL     OW19906   9.375   8.578   0.161  0.3504 -0.4135 -0.2843
38984SOL    HW119907   9.286   8.547   0.176 -1.0408  3.3307  0.2832
38984SOL    HW219908   9.419   8.568   0.246  0.1885 -1.3717 -0.3053
38985SOL     OW19909   6.858  10.325   8.104 -0.4797  0.0810 -0.3037
38985SOL    HW119910   6.850  10.263   8.176  0.8592 -1.0138 -1.0576
38985SOL    HW219911   6.920  10.391   8.135 -3.0855  2.0648  1.1151
38986SOL     OW19912   9.044   2.077   2.945 -0.4506 -0.6422 -0.2059
38986SOL    HW119913   8.983   2.010   2.913 -0.1319 -1.1509  0.2235
38986SOL    HW219914   8.988   2.139   2.992 -0.6824 -0.9511 -0.0631
38987SOL     OW19915   7.348   8.868   0.218 -0.0294  0.6706  0.0766
38987SOL    HW119916   7.295   8.942   0.188  1.9389  1.7948 -0.8392
38987SOL    HW219917   7.377   8.893   0.306  0.8897  1.1857 -0.3520
38988SOL     OW19918   4.498   4.308   9.058  0.2135 -0.2362 -0.0054
38988SOL    HW119919   4.460   4.287   8.973  0.7617 -0.1980 -0.2587
38988SOL    HW219920   4.433   4.364   9.100  0.0909  0.0143 -0.5266
38989SOL     OW19921   2.396   0.465   4.027  0.0733  0.0868  0.1750
38989SOL    HW119922   2.379   0.393   3.967  1.5859  1.2870 -1.8371
38989SOL    HW219923   2.489   0.457   4.049  0.1739  1.1789  0.2278
38990SOL     OW19924   0.058   1.414   8.408 -0.2911 -0.1791  0.4901
38990SOL    HW119925   0.060   1.322   8.383  1.7268  0.3010 -1.4265
38990SOL    HW219926  -0.002   1.418   8.483 -1.7824 -2.7491 -0.4648
38991SOL     OW19927   4.300   0.422   8.812 -0.3725 -0.2146 -0.0922
38991SOL    HW119928   4.260   0.393   8.730 -0.2293 -3.9680  1.0039
38991SOL    HW219929   4.226   0.454   8.865 -1.0106 -1.1893 -0.3770
38992SOL     OW19930   4.276   0.616   5.503  0.3562  0.0365  0.0788
38992SOL    HW119931   4.324   0.564   5.438 -0.1702 -0.5146  0.1230
38992SOL    HW219932   4.283   0.706   5.471  1.0369 -0.0862 -0.1501
38993SOL     OW19933   1.460   7.326   4.329 -0.1972  0.2448 -0.0455
38993SOL    HW119934   1.366   7.315   4.340 -0.1097 -0.2145  0.2929
38993SOL    HW219935   1.470   7.368   4.244 -0.6800 -0.1824 -0.3187
38994SOL     OW19936   8.684   3.557   1.547  0.2329 -0.7722  0.2724
38994SOL    HW119937   8.706   3.583   1.458  2.6623 -1.0088  0.7273
38994SOL    HW219938   8.663   3.639   1.592 -2.1647 -0.7635 -0.7406
38995SOL     OW19939   0.820   4.742   5.984  0.1501 -0.3966  0.2923
38995SOL    HW119940   0.809   4.666   5.926  0.0908 -2.1929  2.5001
38995SOL    HW219941   0.906   4.777   5.962  0.5737 -1.6798 -0.1925
38996SOL     OW19942   2.899   6.943   6.351 -0.2231 -0.3904  0.6662
38996SOL    HW119943   2.925   6.977   6.437  1.1339  0.1543  0.0562
38996SOL    HW219944   2.910   7.017   6.291  0.4085 -1.2120 -0.2572
38997SOL     OW19945  10.549   8.654   4.114 -0.1745  0.5212  0.4214
38997SOL    HW119946  10.535   8.721   4.047 -0.9110  1.3463  1.3686
38997SOL    HW219947  10.635   8.676   4.151 -0.0131  0.3980  0.1169
38998SOL     OW19948   3.518   0.093   0.666 -0.1203  0.1166  0.4804
38998SOL    HW119949   3.574   0.061   0.736  1.7181  1.3878 -0.3217
38998SOL    HW219950   3.432   0.103   0.706  0.4608 -0.8835  2.0513
38999SOL     OW19951   7.256   2.155   6.136  0.4163  0.0377 -0.0201
38999SOL    HW119952   7.295   2.237   6.164  0.2903  0.3616 -0.7721
38999SOL    HW219953   7.284   2.145   6.044 -2.4078  1.0005 -1.0754
39000SOL     OW19954   2.129   2.169   4.208 -0.2089 -0.0478 -0.6923
39000SOL    HW119955   2.183   2.235   4.164 -1.2193  0.1769 -1.6215
39000SOL    HW219956   2.192   2.102   4.235  0.8373  1.2521  0.2330
39001SOL     OW19957   8.772  10.141   9.320 -0.3540  0.1537 -0.1105
39001SOL    HW119958   8.768  10.049   9.346 -1.0646 -0.6624 -2.7816
39001SOL    HW219959   8.684  10.175   9.337 -0.0233  0.4437  1.1042
39002SOL     OW19960  10.236   3.430   6.707 -0.2436  0.0260 -0.0843
39002SOL    HW119961  10.283   3.507   6.737 -0.2734 -0.1616  0.4593
39002SOL    HW219962  10.244   3.432   6.612 -0.5553  0.8938 -0.1005
39003SOL     OW19963   9.719   6.659   4.866  0.3357  0.0322 -0.0421
39003SOL    HW119964   9.632   6.628   4.839  0.0506 -0.8429  1.7543
39003SOL    HW219965   9.777   6.585   4.848  0.0182 -0.8426  2.2889
39004SOL     OW19966   3.562   0.923   2.743 -0.2776 -0.1481 -0.1107
39004SOL    HW119967   3.572   0.996   2.804 -2.3042  0.9027 -0.9330
39004SOL    HW219968   3.549   0.965   2.658  2.4774 -1.5663 -1.3695
39005SOL     OW19969   5.610  10.134   8.793 -0.1132 -0.1662 -0.0115
39005SOL    HW119970   5.658  10.062   8.751  0.0340 -1.5460  2.3015
39005SOL    HW219971   5.602  10.201   8.726  1.4325 -1.5863 -1.7099
39006SOL     OW19972   4.944   8.142   4.090  0.0087  0.3047  0.2858
39006SOL    HW119973   4.959   8.061   4.041 -1.0446  0.5840 -0.5189
39006SOL    HW219974   5.016   8.200   4.063 -0.3776  0.3420 -0.6928
39007SOL     OW19975   5.276   0.346   6.801  0.9944  0.1700  0.1727
39007SOL    HW119976   5.283   0.251   6.813 -0.6329 -0.0375 -0.2722
39007SOL    HW219977   5.226   0.375   6.878 -1.6757  0.1009 -1.4187
39008SOL     OW19978   9.590   2.541   5.713  0.3938  0.1138  0.1820
39008SOL    HW119979   9.572   2.595   5.636  0.5067  0.1115  0.1531
39008SOL    HW219980   9.682   2.558   5.732  1.0585 -1.7051 -1.1241
39009SOL     OW19981   2.634   0.525   6.138 -0.2941 -0.0607 -0.1375
39009SOL    HW119982   2.725   0.497   6.139 -0.0979  0.5468 -0.9194
39009SOL    HW219983   2.637   0.620   6.144 -0.8824 -0.0385 -0.1283
39010SOL     OW19984   8.059   1.253   0.696  0.3176 -0.5576 -0.4055
39010SOL    HW119985   8.080   1.174   0.646  0.8125 -1.2159  0.7799
39010SOL    HW219986   8.034   1.220   0.783  0.3044  0.5778  0.0374
39011SOL     OW19987   9.008   1.752   4.200  0.0137  0.0553 -0.5300
39011SOL    HW119988   9.026   1.843   4.224 -1.3267 -0.0051  0.8642
39011SOL    HW219989   9.093   1.709   4.204  0.7471  1.3198 -1.6963
39012SOL     OW19990   6.439   7.262   2.947  0.4079 -0.0348  0.1569
39012SOL    HW119991   6.462   7.202   3.017  1.3059  1.1039  0.8725
39012SOL    HW219992   6.523   7.291   2.911 -0.0403 -0.7089 -1.5001
39013SOL     OW19993   1.094   8.408  10.338 -0.3039  0.0162  0.0215
39013SOL    HW119994   1.175   8.441  10.377 -0.5428  1.2320 -0.4759
39013SOL    HW219995   1.094   8.315  10.360  0.8574  0.1405  0.6661
39014SOL     OW19996   1.439   5.541   3.218 -0.2466 -0.5347 -0.0031
39014SOL    HW119997   1.449   5.481   3.144  1.9388 -0.7635  0.4042
39014SOL    HW219998   1.482   5.496   3.291  0.8736  1.2086  0.4812
39015SOL     OW19999   3.411   9.149  10.497 -0.1211  0.6346  0.1889
39015SOL    HW120000   3.371   9.203  10.565 -0.5205  1.5916 -0.7704
39015SOL    HW220001   3.437   9.212  10.429  1.7930 -0.1081  0.1710
39016SOL     OW20002   1.379   1.521  10.130 -0.0247  0.3003  0.3831
39016SOL    HW120003   1.313   1.544  10.195 -1.2868  1.7543 -1.2834
39016SOL    HW220004   1.461   1.557  10.163 -0.4209  0.0955  1.6234
39017SOL     OW20005   0.986   5.751   1.981 -0.1627 -0.2411 -0.4091
39017SOL    HW120006   0.901   5.742   2.023 -0.1270  2.2092  0.3457
39017SOL    HW220007   1.049   5.756   2.054  0.4128 -0.2588 -0.8959
39018SOL     OW20008   8.868   9.994   9.071  0.1057 -0.2297 -0.5383
39018SOL    HW120009   8.957   9.960   9.077  0.2706  0.1949 -0.5267
39018SOL    HW220010   8.858  10.047   9.151  0.4301  1.0868 -1.3474
39019SOL     OW20011   1.471   1.969   6.993  0.2275 -0.2727 -0.7132
39019SOL    HW120012   1.558   1.940   7.021  0.6625  0.1863 -1.5278
39019SOL    HW220013   1.433   1.893   6.950  0.3987 -0.3473 -0.7332
39020SOL     OW20014   8.842   5.923   4.034 -0.2896 -0.6372  0.0416
39020SOL    HW120015   8.869   5.942   4.124  0.2086 -1.4308  0.0678
39020SOL    HW220016   8.921   5.893   3.991 -0.7009 -1.0395 -0.4470
39021SOL     OW20017   5.743   6.431   1.907 -0.1710  0.5694 -0.2367
39021SOL    HW120018   5.783   6.468   1.986 -0.5928 -0.5937  0.5419
39021SOL    HW220019   5.708   6.507   1.861  2.0257  1.5302 -0.4603
39022SOL     OW20020   7.216   5.042   7.242 -0.0428 -0.2683 -1.2235
39022SOL    HW120021   7.237   5.133   7.220  2.4598 -0.2953  0.6630
39022SOL    HW220022   7.231   5.036   7.336 -3.0181 -1.9740 -0.7154
39023SOL     OW20023   9.396   5.328   8.312 -0.0173  0.6234  0.0483
39023SOL    HW120024   9.334   5.262   8.342 -1.2484  0.5553 -2.3505
39023SOL    HW220025   9.478   5.281   8.299 -0.7737 -0.4031 -1.2430
39024SOL     OW20026   3.401   6.532   0.013 -0.0225  0.4627 -0.1239
39024SOL    HW120027   3.398   6.619   0.053  0.7957  0.2460  0.4425
39024SOL    HW220028   3.494   6.515  -0.001 -0.2273  0.0390 -1.0493
39025SOL     OW20029   4.846   5.036  10.557  0.1915 -0.1960  0.2410
39025SOL    HW120030   4.917   5.094  10.585  1.6524 -0.9878 -1.6078
39025SOL    HW220031   4.796   5.088  10.493  2.4703 -1.3284 -2.6808
39026SOL     OW20032   6.966   2.294   6.848  0.9236 -0.4881 -0.3774
39026SOL    HW120033   6.876   2.296   6.880  1.2773  0.3213  0.6296
39026SOL    HW220034   6.959   2.266   6.757 -0.5804  1.8675 -1.0720
39027SOL     OW20035   5.742   3.566   3.561 -0.3480 -0.1076 -0.6907
39027SOL    HW120036   5.677   3.520   3.508  0.5039 -1.8944 -0.2839
39027SOL    HW220037   5.690   3.611   3.628 -1.1873 -2.1860  0.1530
39028SOL     OW20038   5.047   9.555  10.073 -0.2559  0.0685 -0.3836
39028SOL    HW120039   5.094   9.565   9.990  1.6460 -1.2745  0.4693
39028SOL    HW220040   5.028   9.645  10.100  2.4691  0.7434 -0.4626
39029SOL     OW20041   9.937   0.740   2.098  0.0051  0.3658  0.1489
39029SOL    HW120042  10.003   0.809   2.099  0.3185  0.0706  0.7977
39029SOL    HW220043   9.863   0.777   2.146 -0.0392  0.4460  0.0199
39030SOL     OW20044   8.503   8.673   4.207 -0.0095  0.0801  0.5671
39030SOL    HW120045   8.540   8.734   4.143 -0.6062  1.1630  1.2216
39030SOL    HW220046   8.517   8.586   4.169  2.1257  0.5112  0.2577
39031SOL     OW20047   8.804   1.599   3.525 -0.2736 -0.2626  0.1192
39031SOL    HW120048   8.776   1.632   3.611  0.9183 -0.4600  0.6055
39031SOL    HW220049   8.887   1.554   3.542 -0.1894 -0.6073 -1.0857
39032SOL     OW20050   3.455   2.968   9.035 -0.1173 -0.1127 -0.2102
39032SOL    HW120051   3.402   3.005   8.965 -1.9372  1.2279  1.7846
39032SOL    HW220052   3.463   3.038   9.099 -0.1688 -1.8811  1.8236
39033SOL     OW20053   2.764   8.409   0.551 -0.3503 -0.1250 -0.0524
39033SOL    HW120054   2.686   8.362   0.578 -1.5191  1.1192 -1.0793
39033SOL    HW220055   2.772   8.392   0.457 -1.8275  2.9151 -0.8817
39034SOL     OW20056   8.977   7.199  10.085 -0.0172 -0.2508  0.4918
39034SOL    HW120057   8.974   7.143  10.163  3.4131 -0.0295  0.9309
39034SOL    HW220058   9.061   7.178  10.044 -0.6669  1.3709 -1.8575
39035SOL     OW20059   1.801   7.373   5.733 -0.4266  0.5393 -0.2061
39035SOL    HW120060   1.746   7.301   5.705 -2.6398  1.8012  0.6387
39035SOL    HW220061   1.791   7.440   5.665  3.0418 -0.4445 -1.9603
39036SOL     OW20062   2.996   4.825   8.338 -0.2758  0.0555 -0.1611
39036SOL    HW120063   2.931   4.812   8.407 -0.3862  0.1298 -0.2504
39036SOL    HW220064   2.993   4.919   8.320 -0.1081  0.0668 -0.1310
39037SOL     OW20065   8.234   4.431   3.225 -0.2860  0.4817  0.7736
39037SOL    HW120066   8.212   4.424   3.318 -0.0416 -4.2435  0.7275
39037SOL    HW220067   8.314   4.379   3.216  0.2084  1.5744 -1.9904
39038SOL     OW20068   4.258   8.098   3.313 -0.2196 -0.2845 -0.4077
39038SOL    HW120069   4.268   8.183   3.268 -2.5260 -0.7499 -2.0310
39038SOL    HW220070   4.347   8.069   3.330  0.7058  1.3403 -2.0659
39039SOL     OW20071   4.549   8.776   5.175 -0.2711  0.2588  0.6122
39039SOL    HW120072   4.514   8.850   5.225 -0.7855 -0.2258  0.9715
39039SOL    HW220073   4.634   8.759   5.214 -0.3155  0.4131  0.7793
39040SOL     OW20074   6.660   6.216   9.858  0.3380  0.4516 -0.1092
39040SOL    HW120075   6.603   6.180   9.790 -1.1356  0.8826  0.8336
39040SOL    HW220076   6.713   6.281   9.813  1.4533 -1.2428 -1.3859
39041SOL     OW20077   7.590   5.751   6.720 -0.5891 -0.0754 -0.6520
39041SOL    HW120078   7.553   5.712   6.799 -2.4899  0.7837 -1.0607
39041SOL    HW220079   7.558   5.841   6.721  1.4090  0.6761 -1.1551
39042SOL     OW20080   7.103   4.841   2.291  0.4267  0.1449 -0.8584
39042SOL    HW120081   7.061   4.866   2.208 -1.2689  1.6256  0.3838
39042SOL    HW220082   7.166   4.911   2.307 -0.2388  0.6033 -0.2183
39043SOL     OW20083   5.220   7.658   4.187  0.1689 -0.3556  0.2344
39043SOL    HW120084   5.162   7.582   4.186 -0.9948  0.4815  1.2398
39043SOL    HW220085   5.163   7.731   4.162  1.2511  0.2124 -0.6409
39044SOL     OW20086   0.243   2.629  10.086 -0.0493 -0.2005 -0.3182
39044SOL    HW120087   0.232   2.672  10.171  2.0782  1.0148 -0.5862
39044SOL    HW220088   0.231   2.536  10.104 -0.6149  0.1301  1.1113
39045SOL     OW20089   0.349   1.000   3.812 -0.1150 -0.1828  0.6049
39045SOL    HW120090   0.427   1.046   3.843  0.0651  0.0211 -0.1300
39045SOL    HW220091   0.383   0.927   3.760 -0.4077 -0.6298  1.0360
39046SOL     OW20092   7.519   8.209   9.442  0.3209  0.2079 -0.1181
39046SOL    HW120093   7.485   8.290   9.480  0.3660  1.3915 -2.4606
39046SOL    HW220094   7.451   8.181   9.381  1.0493 -0.6136 -0.5713
39047SOL     OW20095   2.093   4.798   1.633 -0.0519  0.2737 -0.1719
39047SOL    HW120096   2.106   4.755   1.717 -0.4996 -1.1692 -0.8140
39047SOL    HW220097   2.140   4.881   1.641 -1.2883  0.8391  1.9943
39048SOL     OW20098  10.111   9.744  10.456  0.3917  0.5023 -0.4559
39048SOL    HW120099  10.081   9.654  10.446 -0.8072  0.5318  2.0053
39048SOL    HW220100  10.206   9.739  10.452  0.6036 -1.5534  3.0901
39049SOL     OW20101   3.826   4.546   3.473 -0.0635  0.5718  0.0413
39049SOL    HW120102   3.908   4.578   3.435 -1.0221  1.7923 -1.0893
39049SOL    HW220103   3.836   4.451   3.473  0.6550  0.5996 -1.7925
39050SOL     OW20104   0.311   7.557   3.996  0.6572  0.4520 -0.2343
39050SOL    HW120105   0.260   7.620   3.945 -2.1415 -1.9184 -0.5706
39050SOL    HW220106   0.329   7.602   4.079 -0.9464  1.7993 -0.5746
39051SOL     OW20107   5.144   5.289  10.513 -0.0164  0.2337 -0.4186
39051SOL    HW120108   5.180   5.327  10.432  0.9590 -1.0219 -0.6077
39051SOL    HW220109   5.054   5.268  10.491  0.5511 -1.1405 -1.5806
39052SOL     OW20110   3.691   8.509   2.210  0.1598  0.1347 -0.6198
39052SOL    HW120111   3.697   8.475   2.121 -1.0267 -2.3083  0.1405
39052SOL    HW220112   3.781   8.524   2.237  0.7504 -1.9164 -1.2706
39053SOL     OW20113   9.418   7.739   8.030  0.2244 -0.4518 -0.0052
39053SOL    HW120114   9.425   7.696   7.945 -0.6565  0.0749 -0.3629
39053SOL    HW220115   9.324   7.757   8.040  0.6402  2.5410 -0.4823
39054SOL     OW20116   9.362  10.159   2.934  0.2476  0.0831  0.3652
39054SOL    HW120117   9.362  10.097   2.861  2.6719  0.1547  0.2343
39054SOL    HW220118   9.432  10.129   2.991 -0.2358  1.2542  1.6202
39055SOL     OW20119   6.371   9.748   3.949  0.0743 -0.3552 -0.3665
39055SOL    HW120120   6.466   9.756   3.958  0.1173 -0.3048 -0.8864
39055SOL    HW220121   6.336   9.802   4.020  0.4308 -0.2049 -0.3047
39056SOL     OW20122   7.291  10.653   8.302 -0.5877 -0.0246  0.0085
39056SOL    HW120123   7.229  10.623   8.235  0.3873  0.4489 -1.1419
39056SOL    HW220124   7.243  10.644   8.384 -0.9812 -3.0372 -0.4202
39057SOL     OW20125   3.075   9.207   2.169 -0.0796 -0.2471  0.7633
39057SOL    HW120126   3.154   9.234   2.217  0.3549 -1.5425  0.8204
39057SOL    HW220127   3.067   9.114   2.188 -1.0422 -0.3525 -0.1032
39058SOL     OW20128   4.302   0.884   9.730  0.1297  0.1624 -0.2113
39058SOL    HW120129   4.299   0.950   9.799 -0.6233  0.3344 -0.4046
39058SOL    HW220130   4.395   0.878   9.706  0.2379  0.9462 -0.0005
39059SOL     OW20131   8.898   7.442   3.656  0.0486 -0.6090  0.1006
39059SOL    HW120132   8.829   7.501   3.627  1.0149  0.4194 -0.1950
39059SOL    HW220133   8.909   7.460   3.749  0.9669  0.3756 -0.1776
39060SOL     OW20134   4.063   1.260   0.073  1.0078 -0.0520  0.1426
39060SOL    HW120135   4.000   1.293   0.009 -0.3631 -0.3888  1.2595
39060SOL    HW220136   4.038   1.168   0.085  1.5659 -0.1268  0.7858
39061SOL     OW20137   9.481   5.882   2.738 -0.3523  0.3802  0.0349
39061SOL    HW120138   9.394   5.921   2.730 -0.4973  0.2197  0.7946
39061SOL    HW220139   9.498   5.843   2.652 -0.6375  1.2099 -0.4125
39062SOL     OW20140   0.219  10.672   2.133  0.2211  0.1213 -0.2327
39062SOL    HW120141   0.259  10.601   2.083 -0.0144 -1.0770  1.1924
39062SOL    HW220142   0.286  10.700   2.194  0.2624  1.0623 -0.6863
39063SOL     OW20143   3.749   2.116   2.654 -0.3684 -0.8525  0.1085
39063SOL    HW120144   3.688   2.118   2.580  1.8829 -1.0709 -1.8359
39063SOL    HW220145   3.757   2.208   2.680  0.9939 -0.3545 -1.8549
39064SOL     OW20146   8.823   9.185   0.597  0.0481 -0.0843 -0.1590
39064SOL    HW120147   8.770   9.111   0.627 -0.3242 -0.3955 -1.4744
39064SOL    HW220148   8.837   9.239   0.674 -0.9216 -0.7814  0.5183
39065SOL     OW20149   9.813   8.765   5.804  0.0359 -0.0527  0.1226
39065SOL    HW120150   9.725   8.768   5.768 -0.0573 -1.1487  0.2209
39065SOL    HW220151   9.868   8.736   5.730  0.1045 -0.6417  0.3971
39066SOL     OW20152   7.986   8.462   9.352  0.2872 -0.0206  0.1194
39066SOL    HW120153   7.986   8.521   9.427  1.0926 -0.5918  0.5882
39066SOL    HW220154   7.980   8.374   9.391 -2.2330 -0.2500 -0.5963
39067SOL     OW20155   1.978   8.788  10.314 -0.0877  0.3150  0.3037
39067SOL    HW120156   1.914   8.810  10.247 -0.1480 -0.3400  0.1396
39067SOL    HW220157   2.032   8.719  10.275  2.6010  2.7475 -0.6811
39068SOL     OW20158  10.179   3.899   2.363 -0.4105  0.3196 -0.5089
39068SOL    HW120159  10.226   3.821   2.332  0.9243  1.5752 -1.8533
39068SOL    HW220160  10.247   3.952   2.404 -1.6844 -0.1094  2.4074
39069SOL     OW20161   2.759   3.353   8.568 -0.5177 -0.3676 -0.2802
39069SOL    HW120162   2.724   3.269   8.536 -0.6780 -0.9249  1.2610
39069SOL    HW220163   2.839   3.329   8.615 -1.2102  0.1674  1.2162
39070SOL     OW20164   2.464   5.969   2.015 -0.2682 -0.0368 -0.0768
39070SOL    HW120165   2.504   5.883   2.002  1.2635  0.6539 -0.0984
39070SOL    HW220166   2.404   5.956   2.089  0.6740 -0.9102  0.5668
39071SOL     OW20167   9.559   1.707   2.641 -0.2273 -0.6890 -0.1413
39071SOL    HW120168   9.545   1.788   2.690  1.2755 -0.5359  0.0880
39071SOL    HW220169   9.558   1.638   2.707  1.9525 -0.4668  0.1897
39072SOL     OW20170   5.600  10.543  10.334  0.1282  0.2997  0.1488
39072SOL    HW120171   5.668  10.504  10.279 -0.1909 -1.0669  0.6755
39072SOL    HW220172   5.603  10.491  10.415 -0.3270  1.3919  0.8824
39073SOL     OW20173   4.135   4.834   0.596 -0.5319  0.0403  0.7172
39073SOL    HW120174   4.211   4.791   0.557 -2.6195 -1.1285 -2.5360
39073SOL    HW220175   4.151   4.927   0.585  1.2503 -0.0853  1.9301
39074SOL     OW20176   6.260   7.213   1.961 -0.1403  0.3971 -0.3212
39074SOL    HW120177   6.166   7.223   1.945 -0.2946 -0.5141 -0.0623
39074SOL    HW220178   6.287   7.297   1.997 -0.6280  1.0378 -1.4095
39075SOL     OW20179   7.246   5.743   9.272  0.1873 -0.4367 -0.3633
39075SOL    HW120180   7.307   5.792   9.327  0.9482  0.3049 -1.7969
39075SOL    HW220181   7.301   5.676   9.230  0.1776  0.6122 -2.1207
39076SOL     OW20182   6.304   8.816   7.531  0.3472  0.0424 -0.1065
39076SOL    HW120183   6.340   8.822   7.619 -3.0400  0.9325  1.3933
39076SOL    HW220184   6.381   8.817   7.473  2.8042 -2.3901  2.7930
39077SOL     OW20185   5.352   0.367   2.111  0.4136  0.0050  0.1969
39077SOL    HW120186   5.322   0.435   2.051  1.4156  0.1035 -0.2066
39077SOL    HW220187   5.283   0.301   2.107  1.5140 -1.1728 -3.0135
39078SOL     OW20188   0.506   6.929   5.999  0.1936  0.2178 -0.8547
39078SOL    HW120189   0.596   6.903   6.020  0.5344  0.6844 -1.6494
39078SOL    HW220190   0.455   6.849   6.007  0.6922 -0.0645 -0.4428
39079SOL     OW20191   2.267   2.828   8.743  0.0132 -0.0420  0.7348
39079SOL    HW120192   2.273   2.864   8.654 -1.0690  0.3388  0.8064
39079SOL    HW220193   2.279   2.734   8.731 -0.0722  0.0135  0.1918
39080SOL     OW20194   0.004   6.925   6.897 -0.2199 -0.3393 -0.0026
39080SOL    HW120195  -0.042   6.999   6.937 -1.5375 -0.4829 -1.1817
39080SOL    HW220196   0.041   6.961   6.816  2.2827 -0.0920  1.1384
39081SOL     OW20197   8.434  10.019   3.019 -0.3662  0.4130  0.2592
39081SOL    HW120198   8.383  10.092   2.984  1.1061  1.4163  0.1185
39081SOL    HW220199   8.511  10.061   3.059  0.3324 -1.0393  0.4871
39082SOL     OW20200   8.876   3.197   7.694 -0.6218 -0.2276 -0.7851
39082SOL    HW120201   8.902   3.152   7.774 -1.2073  0.4102 -0.2201
39082SOL    HW220202   8.833   3.129   7.641  0.2501 -0.7724 -0.8005
39083SOL     OW20203   8.016   9.395   9.242  0.3527 -0.1315 -0.4585
39083SOL    HW120204   7.981   9.400   9.154  0.1603 -0.9345 -0.4370
39083SOL    HW220205   8.111   9.395   9.231  0.3574  1.1706 -0.5684
39084SOL     OW20206   5.190   5.228   5.483  0.6165  0.1854 -0.8637
39084SOL    HW120207   5.189   5.222   5.387 -0.5593 -0.1955 -0.8371
39084SOL    HW220208   5.121   5.290   5.505  1.4827  0.9894 -0.2766
39085SOL     OW20209   7.052   8.057   9.902 -0.0540  0.0570 -0.6202
39085SOL    HW120210   7.099   8.135   9.930 -1.2733  1.4363 -2.2063
39085SOL    HW220211   6.961   8.073   9.926 -0.0829 -1.6752  0.5875
39086SOL     OW20212   5.271  10.430   8.196  0.2045 -0.1545 -0.0653
39086SOL    HW120213   5.313  10.500   8.246  0.8708 -0.2871 -0.4199
39086SOL    HW220214   5.237  10.473   8.118  0.1034 -0.1269 -0.0050
39087SOL     OW20215   3.224   2.308   4.299 -0.0354  0.5715  0.7115
39087SOL    HW120216   3.156   2.374   4.307  0.9815  1.4724  2.3839
39087SOL    HW220217   3.181   2.235   4.255 -2.0003  1.2121  1.4549
39088SOL     OW20218   9.313   8.182   3.858  0.3808  0.3504  0.2701
39088SOL    HW120219   9.355   8.252   3.909  1.3108 -0.1547  0.2129
39088SOL    HW220220   9.310   8.217   3.768 -1.3400  1.2777  0.6531
39089SOL     OW20221   3.648   9.696   3.508  0.4812 -0.5588 -0.2138
39089SOL    HW120222   3.605   9.781   3.498  0.7345 -0.4869 -0.6826
39089SOL    HW220223   3.591   9.634   3.463  0.2650 -0.6547  0.1798
39090SOL     OW20224   9.785   1.512   7.384 -0.3973  0.0868  0.3530
39090SOL    HW120225   9.762   1.432   7.431 -1.5779 -0.1082 -0.5012
39090SOL    HW220226   9.880   1.520   7.394 -0.3966 -0.8780  1.2731
39091SOL     OW20227   9.001   4.559   6.329 -0.5335  0.1608 -0.0605
39091SOL    HW120228   8.906   4.552   6.320 -0.3647 -0.9132 -1.3974
39091SOL    HW220229   9.027   4.611   6.252  0.1108 -1.1375 -0.7527
39092SOL     OW20230   7.233  10.613   5.656 -0.3632 -0.1620 -0.3550
39092SOL    HW120231   7.148  10.636   5.694  0.2187  0.1688  0.7917
39092SOL    HW220232   7.294  10.676   5.695  0.3298 -0.0273 -1.5964
39093SOL     OW20233   8.480   7.695   5.931  0.3132 -0.0986 -0.2485
39093SOL    HW120234   8.420   7.673   5.859 -0.6635  0.1602  0.4526
39093SOL    HW220235   8.537   7.762   5.896 -0.0385 -0.1050 -0.8407
39094SOL     OW20236   3.211   2.405   4.663  0.1964 -0.5049  0.7376
39094SOL    HW120237   3.257   2.358   4.733  1.0637 -2.9607 -1.3299
39094SOL    HW220238   3.271   2.400   4.588 -1.8528 -0.4945 -0.9883
39095SOL     OW20239  10.418   4.968   1.046 -0.5879  0.2809 -0.2084
39095SOL    HW120240  10.452   5.024   0.977 -0.6002 -0.5204 -0.8872
39095SOL    HW220241  10.488   4.963   1.111  0.3455 -0.7805 -1.2488
39096SOL     OW20242   0.021   6.066  10.349 -0.1821  0.2370  0.7162
39096SOL    HW120243   0.003   6.026  10.264  0.7794  1.0396  0.1156
39096SOL    HW220244   0.115   6.087  10.346 -0.5618  2.1760  1.1265
39097SOL     OW20245   3.144   1.855   2.539 -0.6575  0.2736  0.0714
39097SOL    HW120246   3.115   1.787   2.478  0.4960 -0.5171  0.3710
39097SOL    HW220247   3.138   1.813   2.625 -1.4250  1.0906  0.4347
39098SOL     OW20248   0.724   8.832   4.796  0.1183  0.2510 -0.2548
39098SOL    HW120249   0.788   8.768   4.767 -0.3731 -0.1403 -0.4890
39098SOL    HW220250   0.773   8.891   4.853  0.9793  0.7061 -1.4353
39099SOL     OW20251   6.779   4.518   9.515 -0.6716  0.1274 -0.0805
39099SOL    HW120252   6.818   4.453   9.574 -0.4978 -0.4749 -0.8405
39099SOL    HW220253   6.841   4.592   9.517 -0.9181  0.3149  0.8581
39100SOL     OW20254   8.720   0.749   1.822  0.3956 -0.2247 -0.0251
39100SOL    HW120255   8.668   0.698   1.760  0.8675 -0.5436 -0.1676
39100SOL    HW220256   8.794   0.782   1.770  0.4354  0.0702  0.2146
39101SOL     OW20257   8.743   0.244   1.924 -0.6682 -0.2453 -0.1528
39101SOL    HW120258   8.693   0.163   1.934 -0.5809 -0.0900  2.3333
39101SOL    HW220259   8.834   0.216   1.916 -0.7271 -0.4079 -0.2605
39102SOL     OW20260  10.217   1.743   7.668 -0.2634 -0.1249  0.3908
39102SOL    HW120261  10.305   1.710   7.654 -0.3263 -0.6208  1.1153
39102SOL    HW220262  10.181   1.755   7.580  1.0948  1.6841  0.0260
39103SOL     OW20263   5.628   7.880   4.916  0.4464  0.3137 -0.2367
39103SOL    HW120264   5.544   7.874   4.962  0.4470  1.0973 -0.1214
39103SOL    HW220265   5.690   7.906   4.984  0.6008  0.6845 -0.5226
39104SOL     OW20266   3.533   3.530   1.493 -0.3097  0.0723  0.0947
39104SOL    HW120267   3.625   3.522   1.467 -0.6056 -0.6951 -0.7297
39104SOL    HW220268   3.528   3.486   1.578  0.2975  1.0909  0.6930
39105SOL     OW20269   6.445   0.872   1.489 -0.7577  0.5143  0.2341
39105SOL    HW120270   6.409   0.856   1.402 -0.5637 -1.1940  0.4319
39105SOL    HW220271   6.482   0.960   1.484  0.2769  0.0211 -1.7766
39106SOL     OW20272  10.163   9.096   7.844 -0.1662 -0.2523 -0.0832
39106SOL    HW120273  10.073   9.090   7.813 -0.0151 -0.2584 -0.5260
39106SOL    HW220274  10.210   9.028   7.796  0.0284 -0.3992  0.3132
39107SOL     OW20275   4.065   4.135   4.440  0.2022 -0.0717 -0.4392
39107SOL    HW120276   3.992   4.195   4.455  0.6917  0.1692  1.1986
39107SOL    HW220277   4.029   4.048   4.457  0.6655  0.1642  2.3013
39108SOL     OW20278   9.512   8.179   4.957  0.1862  0.1366 -0.1438
39108SOL    HW120279   9.581   8.232   4.996 -0.2629  1.8628 -1.6104
39108SOL    HW220280   9.556   8.098   4.932  0.6363 -0.8454  3.2294
39109SOL     OW20281   6.119   5.122   3.120 -0.5775  0.8067  0.1421
39109SOL    HW120282   6.082   5.076   3.196  2.7912 -2.7534 -0.0848
39109SOL    HW220283   6.064   5.095   3.046 -0.7659  0.0515  0.5494
39110SOL     OW20284   5.963   3.420   1.114 -0.4073  0.1595 -0.0784
39110SOL    HW120285   6.015   3.399   1.191  1.1188  1.5416 -0.6784
39110SOL    HW220286   5.918   3.338   1.092 -0.2935 -0.4616  1.7940
39111SOL     OW20287   9.118   1.233   8.190 -1.0796 -0.3596  0.7003
39111SOL    HW120288   9.189   1.172   8.205 -1.6937 -0.8275  1.8047
39111SOL    HW220289   9.067   1.193   8.119 -0.2899 -0.0354 -0.0766
39112SOL     OW20290   6.075   1.267   9.449  0.2857 -0.6323  0.3582
39112SOL    HW120291   6.039   1.263   9.538  1.2669  1.7242  0.9342
39112SOL    HW220292   6.150   1.326   9.456  1.0109 -1.1901 -1.8587
39113SOL     OW20293   4.960   3.913   9.025  0.4253 -0.3317 -0.0144
39113SOL    HW120294   4.879   3.897   8.977  0.5553 -1.2909  0.0701
39113SOL    HW220295   5.025   3.930   8.957  0.3478 -0.4675 -0.1215
39114SOL     OW20296   3.992   6.506   7.920  0.5297  0.1328 -0.2803
39114SOL    HW120297   3.945   6.454   7.986 -0.6808 -0.5306 -1.5995
39114SOL    HW220298   4.078   6.465   7.915  0.5246 -0.0205  0.6467
39115SOL     OW20299   0.406   1.690   2.707  0.0645 -0.1957 -0.5596
39115SOL    HW120300   0.401   1.632   2.782  0.6391  0.3162 -0.1156
39115SOL    HW220301   0.460   1.643   2.643  3.2238  1.0604  0.9830
39116SOL     OW20302   1.829   2.431   7.813  0.2283  0.6470  0.1026
39116SOL    HW120303   1.793   2.519   7.808  0.7422  0.8531 -0.0238
39116SOL    HW220304   1.918   2.443   7.845  0.3983  0.2007 -0.1839
39117SOL     OW20305   7.123   7.310   1.609  0.2986 -0.0694  0.4803
39117SOL    HW120306   7.211   7.344   1.597 -0.0725  0.7297 -0.0615
39117SOL    HW220307   7.106   7.320   1.703  1.1950 -1.3041  0.8013
39118SOL     OW20308   6.112   9.738   1.779 -0.5117  0.2209 -0.0229
39118SOL    HW120309   6.148   9.733   1.691  0.5508 -0.1688  0.4231
39118SOL    HW220310   6.024   9.700   1.771 -1.4631  2.4430 -1.4082
39119SOL     OW20311   9.413   5.622   0.302 -0.2686  0.8672 -0.9492
39119SOL    HW120312   9.504   5.590   0.302 -0.3653  0.5196 -2.1313
39119SOL    HW220313   9.391   5.633   0.394  0.5159 -0.3896 -0.5902
39120SOL     OW20314   8.421   7.308   1.232 -0.2787  0.2953  0.3792
39120SOL    HW120315   8.469   7.227   1.247 -1.5054 -0.8498 -1.4650
39120SOL    HW220316   8.339   7.297   1.280 -0.6519  0.2258 -0.2694
39121SOL     OW20317   2.219   9.779   3.745 -0.2191  0.1785 -0.4281
39121SOL    HW120318   2.212   9.689   3.713 -1.4911  0.5728 -1.3544
39121SOL    HW220319   2.240   9.770   3.838 -0.1771 -1.0691 -0.5378
39122SOL     OW20320   9.229   7.632   4.166 -0.1800  0.1819  0.6111
39122SOL    HW120321   9.281   7.575   4.109 -0.6934  0.1048  0.2156
39122SOL    HW220322   9.140   7.625   4.132 -0.1802  1.5739  0.2706
39123SOL     OW20323   0.661   9.612   6.541 -0.0199 -0.2619  0.0562
39123SOL    HW120324   0.728   9.673   6.570  2.9220 -2.2320 -1.9270
39123SOL    HW220325   0.629   9.571   6.621  1.4936  0.4741  1.0963
39124SOL     OW20326   4.674   2.175   9.536  0.6262  0.0035  0.4130
39124SOL    HW120327   4.610   2.198   9.603  1.8219  0.0277  1.5897
39124SOL    HW220328   4.756   2.165   9.584  1.4683 -0.2310 -1.0238
39125SOL     OW20329   3.591   2.761   1.106  0.3874 -0.1469 -0.1499
39125SOL    HW120330   3.552   2.675   1.123 -0.0331  0.3451  1.5882
39125SOL    HW220331   3.532   2.823   1.148  1.6101  0.8492  0.1582
39126SOL     OW20332   3.837   0.590   3.271 -0.5752 -0.3426  0.0264
39126SOL    HW120333   3.918   0.547   3.300 -1.3000 -0.4527  2.0982
39126SOL    HW220334   3.768   0.545   3.320 -1.6929  1.0343 -0.2248
39127SOL     OW20335   6.189   4.025   6.863  0.1961 -0.0849  0.2097
39127SOL    HW120336   6.165   4.116   6.844  0.9233  0.3362  1.2169
39127SOL    HW220337   6.133   4.000   6.936  0.1075 -0.3877  0.0374
39128SOL     OW20338   8.396   6.156   9.727 -0.5911 -0.1567 -0.1549
39128SOL    HW120339   8.445   6.238   9.724 -0.5862 -0.1639 -0.3189
39128SOL    HW220340   8.304   6.183   9.719 -0.8307  0.0443  2.5524
39129SOL     OW20341   3.510   7.083   4.059  0.7634  0.2170 -0.0650
39129SOL    HW120342   3.556   6.999   4.059  0.4641  0.0176 -1.8437
39129SOL    HW220343   3.565   7.140   4.113 -0.3934 -1.7455  3.5240
39130SOL     OW20344   4.683   0.606   0.519  0.4355  0.0257  0.1683
39130SOL    HW120345   4.731   0.536   0.565  0.2080  0.3108  0.8493
39130SOL    HW220346   4.682   0.679   0.581 -1.6756 -0.2834  0.5566
39131SOL     OW20347   7.255   7.468   1.078  0.0485  0.0678 -0.1311
39131SOL    HW120348   7.343   7.502   1.061 -0.5119  1.7788  0.2111
39131SOL    HW220349   7.238   7.409   1.005  1.4941 -0.3646 -0.1604
39132SOL     OW20350   8.884   3.611   2.917 -0.0736  0.2264 -0.8222
39132SOL    HW120351   8.814   3.568   2.867 -0.2969 -0.2494 -0.1130
39132SOL    HW220352   8.841   3.645   2.995  0.2174  1.2459 -1.0919
39133SOL     OW20353   4.650   1.020   4.566 -0.8384  0.1047 -0.1045
39133SOL    HW120354   4.707   0.981   4.633  1.4740  1.1354 -1.3353
39133SOL    HW220355   4.568   1.037   4.611 -0.8978 -3.1266  1.3423
39134SOL     OW20356   7.711   4.071   9.284 -0.4685 -0.0613 -0.2212
39134SOL    HW120357   7.760   3.999   9.323  1.1856  1.6869  1.0975
39134SOL    HW220358   7.740   4.072   9.192 -0.8012 -1.2679 -0.3577
39135SOL     OW20359   5.360   7.133   2.375 -1.0812  0.4308  0.3048
39135SOL    HW120360   5.286   7.128   2.314 -0.5572 -0.6181 -0.2607
39135SOL    HW220361   5.334   7.077   2.448 -0.1915 -1.2501 -0.6282
39136SOL     OW20362  10.156   2.353   3.800  1.2977 -0.8515  0.2230
39136SOL    HW120363  10.237   2.404   3.811  0.8560 -0.2450  0.8147
39136SOL    HW220364  10.144   2.310   3.885 -0.6340  1.5744  1.3369
39137SOL     OW20365   8.090   7.753   2.554 -0.3199 -0.3183 -0.7115
39137SOL    HW120366   8.061   7.813   2.486 -0.7797  1.0685  0.6358
39137SOL    HW220367   8.019   7.689   2.563 -0.2499 -0.5132 -1.5180
39138SOL     OW20368   0.500   9.799   4.778 -0.1444  0.0813 -0.2851
39138SOL    HW120369   0.459   9.785   4.693 -1.7378  0.2106  0.4205
39138SOL    HW220370   0.517   9.893   4.782  0.7207 -0.0397 -0.7720
39139SOL     OW20371   5.890   4.850   7.231  0.1083  0.1897  0.0306
39139SOL    HW120372   5.942   4.910   7.284  0.8422  1.3721 -1.9112
39139SOL    HW220373   5.952   4.781   7.205 -0.8800 -1.9200  2.7937
39140SOL     OW20374   4.864   3.214   7.841 -0.0996 -0.0331  0.1873
39140SOL    HW120375   4.928   3.256   7.900  0.9549  0.6409 -1.3722
39140SOL    HW220376   4.791   3.190   7.898  1.1904 -0.0822  1.9008
39141SOL     OW20377   5.337   8.029   8.737  0.3358  0.1028  0.0307
39141SOL    HW120378   5.271   7.962   8.720  0.7791 -0.1610 -0.6514
39141SOL    HW220379   5.308   8.105   8.687 -0.2641  0.5056  0.9444
39142SOL     OW20380   9.354   2.885   4.228 -0.0166  0.1487  0.0260
39142SOL    HW120381   9.352   2.971   4.270  0.2687 -0.0081  0.3633
39142SOL    HW220382   9.377   2.904   4.137 -1.4207  0.5679 -0.2711
39143SOL     OW20383   4.006   7.996   7.060 -0.6272 -0.3164  0.1727
39143SOL    HW120384   3.941   7.955   7.003 -1.1490  1.0539 -0.2737
39143SOL    HW220385   4.077   8.022   7.001 -0.8775  0.5258  0.2193
39144SOL     OW20386   0.174   7.761   7.950 -0.0115  0.6864  0.4159
39144SOL    HW120387   0.260   7.782   7.914  0.2849  0.5599  1.0339
39144SOL    HW220388   0.119   7.835   7.924  0.1763  0.5820 -0.3207
39145SOL     OW20389   9.127   0.345   6.255  0.0604  0.1974 -0.0092
39145SOL    HW120390   9.206   0.364   6.205 -1.0384  2.7208 -0.9881
39145SOL    HW220391   9.085   0.272   6.209 -0.7845  2.2557 -2.8149
39146SOL     OW20392   6.156  10.106   5.045 -0.6723 -0.3886 -0.9388
39146SOL    HW120393   6.161  10.105   4.950 -2.3570  0.9115 -1.0779
39146SOL    HW220394   6.247  10.117   5.073 -0.1754 -0.5770 -2.3811
39147SOL     OW20395   2.595   7.030   8.955 -0.2426  0.5434  0.6341
39147SOL    HW120396   2.554   7.034   8.869  0.4752 -1.5636  0.1521
39147SOL    HW220397   2.683   6.997   8.939  0.2578  1.0734  2.0848
39148SOL     OW20398   8.729   0.156   6.241  0.6722 -0.2283  0.0106
39148SOL    HW120399   8.769   0.105   6.311  2.3591 -0.4247 -1.0409
39148SOL    HW220400   8.674   0.093   6.193  0.5712 -0.4015  0.3509
39149SOL     OW20401   2.845   1.469   4.357  0.8311 -0.1072 -0.0825
39149SOL    HW120402   2.895   1.418   4.421 -0.7360 -2.2027 -0.4155
39149SOL    HW220403   2.907   1.534   4.324  2.6550 -1.1653  1.0711
39150SOL     OW20404   4.654   9.993   1.038  0.2276  0.6206  0.0439
39150SOL    HW120405   4.576  10.002   0.984 -0.0742  1.5238  0.6030
39150SOL    HW220406   4.723  10.035   0.987  0.4375 -0.4869 -0.6050
39151SOL     OW20407   0.594   8.650   6.382  0.3550 -0.2289 -0.9943
39151SOL    HW120408   0.679   8.607   6.370  0.2824 -0.1733 -1.7385
39151SOL    HW220409   0.612   8.743   6.369 -0.1092 -0.3627 -2.8496
39152SOL     OW20410   0.431   7.394   0.653  0.2631  0.3937 -0.3163
39152SOL    HW120411   0.421   7.437   0.568  0.0808  2.0399  0.4829
39152SOL    HW220412   0.442   7.302   0.632 -0.7011  0.6232 -2.0731
39153SOL     OW20413   1.219  10.644   6.045  0.3103 -0.2424  0.1019
39153SOL    HW120414   1.144  10.587   6.063  0.3515 -0.3653 -0.1100
39153SOL    HW220415   1.290  10.609   6.098  0.8702 -1.5559 -1.4330
39154SOL     OW20416   2.082   6.243   7.904  0.3373  0.2728  0.4372
39154SOL    HW120417   2.164   6.193   7.906 -0.7701 -1.6060  1.3271
39154SOL    HW220418   2.024   6.192   7.848  0.4433  2.8236 -2.2087
39155SOL     OW20419   3.216   6.075   1.759 -0.1369  0.6979 -0.1410
39155SOL    HW120420   3.298   6.068   1.710 -0.8521 -0.9135 -1.1805
39155SOL    HW220421   3.210   6.168   1.783  1.4007  1.0596 -1.0601
39156SOL     OW20422   0.208   5.560   2.863 -0.2721  0.3922 -0.0988
39156SOL    HW120423   0.139   5.597   2.919 -0.9097  0.8679 -1.1586
39156SOL    HW220424   0.160   5.519   2.790  0.5124 -0.6378 -0.0581
39157SOL     OW20425   7.754   9.315   1.569 -0.0853  0.3482  0.1650
39157SOL    HW120426   7.763   9.399   1.524 -1.0627  0.7934  0.7694
39157SOL    HW220427   7.775   9.250   1.503  2.5150  1.0904  0.1387
39158SOL     OW20428   9.232   7.297   5.579 -0.5289  0.0858 -0.4941
39158SOL    HW120429   9.280   7.318   5.659  1.8005  2.5163 -2.3404
39158SOL    HW220430   9.140   7.304   5.604  0.0946  0.1521  2.0833
39159SOL     OW20431   1.275   0.165   4.809  0.0332 -0.4762 -0.3449
39159SOL    HW120432   1.211   0.098   4.833  0.5508 -1.5695 -1.8647
39159SOL    HW220433   1.342   0.160   4.877 -0.8036 -0.2701  0.5067
39160SOL     OW20434   9.261   8.392   3.685  0.5088 -0.7419 -0.3565
39160SOL    HW120435   9.229   8.466   3.632 -3.3721 -1.0089  1.3053
39160SOL    HW220436   9.303   8.434   3.760  0.7778 -0.2616 -0.7679
39161SOL     OW20437   7.477  10.311   2.417  0.1952 -0.2717 -0.0077
39161SOL    HW120438   7.444  10.401   2.413  1.7640  0.4368  1.5730
39161SOL    HW220439   7.411  10.259   2.371  0.0090  1.8760 -2.3991
39162SOL     OW20440   6.933   3.132   5.017  0.1801  0.4335 -0.4186
39162SOL    HW120441   6.931   3.037   5.021 -0.6182  0.2542 -3.0106
39162SOL    HW220442   7.003   3.158   5.077 -0.4755 -1.6681  1.3297
39163SOL     OW20443   9.617   4.847   9.763 -0.1345  0.2094  0.1334
39163SOL    HW120444   9.649   4.757   9.763  1.2955  0.6924 -0.5925
39163SOL    HW220445   9.542   4.846   9.704 -0.2884 -0.5430  0.3248
39164SOL     OW20446   2.396   3.909   6.372  0.3802 -1.3622 -0.4458
39164SOL    HW120447   2.433   3.921   6.459 -0.4940 -0.1521 -0.2132
39164SOL    HW220448   2.310   3.870   6.388 -0.8660  1.1414 -0.5314
39165SOL     OW20449   3.714   9.053   7.147 -0.4062  0.1708 -0.2873
39165SOL    HW120450   3.676   9.085   7.229  0.6273 -1.7474  0.9944
39165SOL    HW220451   3.673   8.968   7.133  0.1601  0.0470 -1.2530
39166SOL     OW20452   1.721   9.384   0.589 -0.0259  0.2401 -0.3931
39166SOL    HW120453   1.628   9.365   0.573 -0.0486  1.0954 -1.3788
39166SOL    HW220454   1.756   9.303   0.627 -1.4170  0.2708  1.0581
39167SOL     OW20455   0.018   1.556   7.186 -0.7110  0.5541  0.0412
39167SOL    HW120456  -0.000   1.649   7.175  2.0759  1.1489 -0.3345
39167SOL    HW220457   0.113   1.549   7.178 -0.8727 -2.4184 -0.5414
39168SOL     OW20458   5.268   5.764   7.574 -0.1244  0.3921 -0.0505
39168SOL    HW120459   5.299   5.783   7.486 -0.0520 -1.1126 -0.3615
39168SOL    HW220460   5.343   5.784   7.630  1.0312 -1.8671 -0.6746
39169SOL     OW20461   3.105   2.196   5.004  0.9191  0.2665  0.1230
39169SOL    HW120462   3.103   2.213   5.098  1.3463 -0.1269  0.2066
39169SOL    HW220463   3.181   2.244   4.972  0.8988  0.2265  0.0125
39170SOL     OW20464   5.543   7.343   8.959 -0.4745  0.0588  0.6761
39170SOL    HW120465   5.559   7.436   8.971  2.9446 -0.0365 -1.8941
39170SOL    HW220466   5.630   7.303   8.959 -1.8252 -3.2476  2.0205
39171SOL     OW20467   0.811   1.056   8.223  0.3942 -0.5651 -0.7241
39171SOL    HW120468   0.750   1.079   8.293 -1.4213 -4.2674 -0.8652
39171SOL    HW220469   0.856   1.138   8.203 -0.7776  1.2096  2.9906
39172SOL     OW20470   1.634  10.291   7.066 -0.4876 -0.3051 -0.0559
39172SOL    HW120471   1.703  10.249   7.015  0.9097  1.4922  0.2514
39172SOL    HW220472   1.678  10.365   7.109 -2.5421  0.7392  0.3606
39173SOL     OW20473   0.539   2.768   8.108 -1.5293 -0.5846  0.1612
39173SOL    HW120474   0.550   2.842   8.168  0.1041 -0.2058 -0.5604
39173SOL    HW220475   0.546   2.690   8.164  2.0082 -0.3112  0.3349
39174SOL     OW20476   7.662   8.323   1.999  0.6129  0.2686 -0.4313
39174SOL    HW120477   7.624   8.334   2.086 -1.2009 -0.3855 -1.0925
39174SOL    HW220478   7.756   8.318   2.015  0.3562  0.5715  1.4443
39175SOL     OW20479   9.221   4.477   1.140 -0.8856 -0.1480 -0.5071
39175SOL    HW120480   9.289   4.524   1.092 -0.9596 -0.3837 -0.8442
39175SOL    HW220481   9.214   4.524   1.223 -2.4936  1.8534 -1.6470
39176SOL     OW20482   2.616   1.481   1.767 -0.4479 -0.2900  0.6177
39176SOL    HW120483   2.688   1.435   1.725 -0.7243 -0.1632 -0.0144
39176SOL    HW220484   2.603   1.435   1.850 -0.6140 -1.2593  0.0742
39177SOL     OW20485   5.956   1.055   0.671  0.4248  0.1170  0.0546
39177SOL    HW120486   5.961   0.971   0.624  0.9582  0.1108  0.1196
39177SOL    HW220487   5.885   1.042   0.734 -1.5043  0.6971 -1.8695
39178SOL     OW20488   0.746  10.559   8.632 -0.3377  0.3663  0.1342
39178SOL    HW120489   0.736  10.493   8.563 -1.4668  1.1027 -0.4532
39178SOL    HW220490   0.790  10.513   8.703  1.7419 -0.1805 -1.3909
39179SOL     OW20491   0.461   8.142   1.784  0.2509 -0.5366 -0.6060
39179SOL    HW120492   0.459   8.207   1.854 -0.0161 -0.2730 -0.8557
39179SOL    HW220493   0.434   8.061   1.827  0.9185 -0.5654 -0.2179
39180SOL     OW20494   7.547   7.832   0.141  0.2135  0.3022  0.1217
39180SOL    HW120495   7.594   7.750   0.131 -0.4452 -0.1991  0.9339
39180SOL    HW220496   7.513   7.852   0.054  1.2454  0.2569 -0.2931
39181SOL     OW20497   8.951   1.952   6.365  0.3651  0.0579  0.1513
39181SOL    HW120498   8.928   1.985   6.278 -2.0959  0.4819  0.8948
39181SOL    HW220499   8.898   1.873   6.376 -0.8309  1.0275  1.9417
39182SOL     OW20500   2.995   3.367   0.841 -0.1768  0.2717 -0.1722
39182SOL    HW120501   2.950   3.421   0.775 -1.2183 -2.0821 -1.4930
39182SOL    HW220502   3.065   3.323   0.792  0.5569  0.2549  0.8488
39183SOL     OW20503   7.534   0.012   8.658  0.2667 -0.0071 -0.3971
39183SOL    HW120504   7.488   0.027   8.740 -1.6217 -0.5613 -1.3012
39183SOL    HW220505   7.477   0.050   8.591  1.1447 -0.6963 -1.5744
39184SOL     OW20506   0.301   7.707   9.428 -0.1692 -0.3177 -0.0407
39184SOL    HW120507   0.242   7.690   9.354  0.7570 -0.7056 -0.7172
39184SOL    HW220508   0.388   7.705   9.389  0.2435  1.8086  0.6427
39185SOL     OW20509   8.422   7.368   1.992 -0.2163 -0.2361 -0.2223
39185SOL    HW120510   8.432   7.448   1.939 -1.5442 -1.0158 -1.7261
39185SOL    HW220511   8.505   7.322   1.980 -0.2899 -0.1389 -1.2202
39186SOL     OW20512   2.397   6.676   1.568 -0.1530 -0.4440  0.7428
39186SOL    HW120513   2.349   6.726   1.634 -1.5583 -1.2501  0.3845
39186SOL    HW220514   2.386   6.726   1.487  2.4241  1.0820  1.2320
39187SOL     OW20515   6.439   6.470   1.386 -0.0260  0.2474 -0.4389
39187SOL    HW120516   6.499   6.434   1.320 -0.3041 -0.3234 -0.3824
39187SOL    HW220517   6.405   6.394   1.432  1.9374  0.6774  1.9852
39188SOL     OW20518   6.327  10.257  10.546 -0.8028 -0.0207  0.6691
39188SOL    HW120519   6.275  10.337  10.560 -2.4134 -0.4607 -2.0541
39188SOL    HW220520   6.262  10.186  10.549  0.3073 -1.0448  1.1220
39189SOL     OW20521   4.093   2.528   4.703  0.5367  0.7658  0.1176
39189SOL    HW120522   4.182   2.558   4.723  1.6122 -0.7482 -1.9578
39189SOL    HW220523   4.059   2.596   4.645  1.9986 -0.5559 -2.4744
39190SOL     OW20524   9.377   1.679   0.781 -0.0091  0.3839  0.1811
39190SOL    HW120525   9.333   1.668   0.865 -0.0466  0.2891  0.1492
39190SOL    HW220526   9.452   1.620   0.785  0.6479  1.2437  0.6043
39191SOL     OW20527   6.633   4.045   5.582  0.2668  0.3167  0.6989
39191SOL    HW120528   6.691   4.021   5.510 -0.1270 -0.5440  0.6509
39191SOL    HW220529   6.599   4.131   5.557 -0.1996 -0.1532 -0.3688
39192SOL     OW20530   5.998   7.244   1.899 -0.3270  0.0767  0.3986
39192SOL    HW120531   5.971   7.241   1.991  0.7249  2.4227  0.8459
39192SOL    HW220532   5.921   7.274   1.852 -0.4544  0.2467  0.7142
39193SOL     OW20533   3.579   5.192   7.102 -0.5061  0.7888 -0.3376
39193SOL    HW120534   3.527   5.116   7.125  0.4744 -0.3105 -1.5799
39193SOL    HW220535   3.668   5.158   7.089  0.6606  2.6132  1.9511
39194SOL     OW20536   1.210  10.338   4.914  0.4795 -0.4788 -0.0528
39194SOL    HW120537   1.210  10.400   4.841  0.6061 -0.8026 -0.3288
39194SOL    HW220538   1.147  10.271   4.889  0.9212 -0.8796 -0.1127
39195SOL     OW20539   0.954   4.077   2.557  0.5570 -0.6023 -0.1156
39195SOL    HW120540   0.996   4.163   2.562  1.8167 -1.1380 -0.9243
39195SOL    HW220541   1.024   4.015   2.575 -0.4965 -1.4786  1.2664
39196SOL     OW20542   0.833   3.947   7.283 -0.3231 -0.1165  0.1352
39196SOL    HW120543   0.882   3.973   7.361 -0.5734 -0.7641  0.5143
39196SOL    HW220544   0.756   3.902   7.316 -1.6430  1.6264 -0.4258
39197SOL     OW20545   4.151   2.247   1.096  0.4767 -0.2554  1.3194
39197SOL    HW120546   4.187   2.245   1.007 -0.3548  0.4416  0.9469
39197SOL    HW220547   4.227   2.260   1.152  0.9759 -0.3629  0.6841
39198SOL     OW20548   0.876   9.602   3.427 -0.3946 -0.2725 -0.4227
39198SOL    HW120549   0.962   9.569   3.452 -0.2696  0.2314 -0.1767
39198SOL    HW220550   0.826   9.603   3.509 -0.5388 -0.2848 -0.5103
39199SOL     OW20551   2.256   2.367   6.232 -0.4293  0.0773  0.2954
39199SOL    HW120552   2.277   2.397   6.144 -1.3677 -0.2416 -0.0435
39199SOL    HW220553   2.337   2.324   6.262  0.4191  1.5300  0.2018
39200SOL     OW20554   9.970   6.901   0.334  0.5351  0.1072  0.4171
39200SOL    HW120555   9.972   6.860   0.247  2.3533  1.6199 -0.3427
39200SOL    HW220556   9.899   6.966   0.329 -2.8928 -3.1675  1.8814
39201SOL     OW20557   9.959   4.456   8.769 -0.4847  0.1859 -0.2626
39201SOL    HW120558   9.885   4.420   8.818 -0.4771 -1.5873 -1.4714
39201SOL    HW220559   9.923   4.532   8.724 -1.2101  0.1498  0.2311
39202SOL     OW20560   0.053   6.091   1.867 -0.4966  0.5701 -0.4932
39202SOL    HW120561   0.092   6.157   1.809 -1.7955  1.0464 -0.8446
39202SOL    HW220562   0.080   6.007   1.829 -0.5686  0.8861 -1.2592
39203SOL     OW20563   2.877   3.114  10.490  0.1144  0.0110  0.3608
39203SOL    HW120564   2.816   3.044  10.465 -0.2589  0.5455 -0.2749
39203SOL    HW220565   2.888   3.166  10.410  0.4726  0.6114  0.7873
39204SOL     OW20566  10.346   5.648   2.750  0.4807  0.3841 -0.0677
39204SOL    HW120567  10.310   5.573   2.798  0.2743  0.5446  0.0299
39204SOL    HW220568  10.272   5.708   2.740  0.8219  0.9277  0.5426
39205SOL     OW20569   6.337   5.618   5.126  0.3362  0.1772  0.0382
39205SOL    HW120570   6.252   5.661   5.116  0.4828  1.0744  2.1492
39205SOL    HW220571   6.324   5.553   5.194  0.6562 -1.8018 -1.6881
39206SOL     OW20572   6.794   1.868   4.103  0.0346  0.4642  0.4206
39206SOL    HW120573   6.883   1.859   4.136 -0.5963  1.8490  2.6900
39206SOL    HW220574   6.805   1.892   4.011  1.9838  0.0483  0.5095
39207SOL     OW20575   2.209   7.220   3.150 -0.0098  0.7345  0.2142
39207SOL    HW120576   2.128   7.211   3.101 -0.9581 -1.5222  1.9638
39207SOL    HW220577   2.184   7.266   3.230  0.1776 -0.7418  1.1659
39208SOL     OW20578   2.305   6.307   1.797  0.0413 -0.3913  0.0896
39208SOL    HW120579   2.305   6.328   1.890  1.1802 -1.1528  0.2817
39208SOL    HW220580   2.273   6.216   1.793  0.8885 -0.6818 -0.1706
39209SOL     OW20581   3.942   3.835  10.234 -0.6484 -0.7675  0.0207
39209SOL    HW120582   3.981   3.771  10.175  0.9087 -0.2417  0.4282
39209SOL    HW220583   3.868   3.790  10.274  1.4613 -3.0113  1.6882
39210SOL     OW20584   7.626   9.253   4.228  0.0374  0.4503  0.4114
39210SOL    HW120585   7.719   9.250   4.251 -0.1815  0.8842  1.4172
39210SOL    HW220586   7.594   9.164   4.246  0.7059 -0.3667 -2.0865
39211SOL     OW20587   5.588   9.774   9.895 -0.3659 -0.2207 -0.0481
39211SOL    HW120588   5.510   9.722   9.912 -1.0785  0.5105 -0.9846
39211SOL    HW220589   5.564   9.831   9.822  0.8993  0.3306 -0.0657
39212SOL     OW20590   7.368   1.556   4.861 -0.2597 -0.1017 -0.5741
39212SOL    HW120591   7.290   1.594   4.901 -0.0846 -0.2000 -0.1262
39212SOL    HW220592   7.441   1.596   4.910  0.0565  1.3338 -2.1288
39213SOL     OW20593   7.867   9.328   7.699 -0.4290  0.1381 -0.0880
39213SOL    HW120594   7.899   9.239   7.684  0.6108  0.7531 -1.7814
39213SOL    HW220595   7.797   9.339   7.636  0.1555  0.8672 -0.6179
39214SOL     OW20596   1.727   9.003   5.417 -0.1960 -0.5449  0.3635
39214SOL    HW120597   1.736   9.054   5.498 -1.1776  1.2782 -0.6145
39214SOL    HW220598   1.817   8.982   5.392  0.1080 -1.5774  2.1674
39215SOL     OW20599  10.631   8.540   2.082  0.2718 -0.1397 -0.0555
39215SOL    HW120600  10.627   8.447   2.058  1.3272  0.0725 -1.1358
39215SOL    HW220601  10.724   8.556   2.100 -0.2934 -0.0354  3.3469
39216SOL     OW20602   2.116   6.968   1.252  0.1106 -0.0252 -0.7298
39216SOL    HW120603   2.083   7.052   1.284  0.9715 -0.1417  0.5421
39216SOL    HW220604   2.103   6.972   1.157 -0.7931  1.1213 -0.5814
39217SOL     OW20605  10.285   4.640   1.421 -0.8956  0.0836 -0.1082
39217SOL    HW120606  10.379   4.625   1.420 -0.7748  0.7194  0.6827
39217SOL    HW220607  10.259   4.624   1.512 -1.0429  2.7882  0.4181
39218SOL     OW20608   1.176  10.672   8.068  0.0575 -0.3681 -0.0516
39218SOL    HW120609   1.250  10.710   8.115  0.3802 -0.5061 -0.4343
39218SOL    HW220610   1.138  10.608   8.128  0.1306 -0.1536  0.2200
39219SOL     OW20611   8.758   7.428   8.611  0.3503  0.4417  0.1212
39219SOL    HW120612   8.693   7.464   8.671 -1.3107 -0.7149 -0.8941
39219SOL    HW220613   8.779   7.342   8.647  0.0180  0.1139 -0.4438
39220SOL     OW20614   7.276   7.393   3.886  0.0420 -0.4918 -0.0077
39220SOL    HW120615   7.328   7.344   3.949  0.5671 -0.5702 -0.4873
39220SOL    HW220616   7.341   7.439   3.833 -0.4448  0.7963  0.4873
39221SOL     OW20617   4.423   3.588   9.129  0.2359  0.0938 -0.1098
39221SOL    HW120618   4.421   3.596   9.224 -0.2926  1.4330 -0.2231
39221SOL    HW220619   4.426   3.493   9.114  3.0200 -0.1576  1.2624
39222SOL     OW20620   9.497   5.304   1.542 -0.1434  0.9353  0.1130
39222SOL    HW120621   9.448   5.260   1.612  1.9114 -1.4051  0.2296
39222SOL    HW220622   9.452   5.278   1.462  0.1012 -0.1205  0.2999
39223SOL     OW20623   1.632   6.717   4.069  0.0315 -0.4638  0.0927
39223SOL    HW120624   1.636   6.691   4.161 -1.1784  1.1701  0.6490
39223SOL    HW220625   1.651   6.811   4.069 -2.8464  0.2200 -0.9090
39224SOL     OW20626   4.713   2.318   1.826  0.2012  0.0835 -0.4454
39224SOL    HW120627   4.657   2.361   1.891 -0.2389  0.0026 -0.7654
39224SOL    HW220628   4.802   2.336   1.856  0.0251  1.1811 -0.5343
39225SOL     OW20629   1.024   4.527  10.449  0.0355 -0.1472  0.1365
39225SOL    HW120630   1.055   4.448  10.405 -0.8117 -0.7325  0.5702
39225SOL    HW220631   1.095   4.590  10.438  1.8686 -1.7700  2.0565
39226SOL     OW20632   2.270   7.725   3.060  0.1569 -0.2857  0.1575
39226SOL    HW120633   2.239   7.635   3.050 -0.8464 -0.1528  1.7450
39226SOL    HW220634   2.303   7.730   3.150  2.2654  0.3739 -0.5894
39227SOL     OW20635  10.633   3.192   7.124  0.4418  0.3441 -0.3358
39227SOL    HW120636  10.660   3.249   7.052  1.3792  1.8809  1.1456
39227SOL    HW220637  10.664   3.105   7.099  0.9839  0.8916 -1.6569
39228SOL     OW20638   3.615   5.770   9.318  0.1735  0.6353  0.1360
39228SOL    HW120639   3.565   5.797   9.395 -1.2009 -2.9488  0.6977
39228SOL    HW220640   3.671   5.699   9.349 -0.5204 -1.0071 -2.1020
39229SOL     OW20641   2.450   7.485   0.560 -0.1993 -0.0261  0.6001
39229SOL    HW120642   2.439   7.579   0.577 -2.1784  0.2603 -1.6579
39229SOL    HW220643   2.384   7.442   0.614 -1.0073  0.1530 -0.2141
39230SOL     OW20644   7.370   8.588   9.811 -0.3841 -0.2872  0.5656
39230SOL    HW120645   7.328   8.590   9.724  1.5730 -0.7527 -0.4453
39230SOL    HW220646   7.352   8.501   9.845  1.4319 -1.2442 -0.7776
39231SOL     OW20647   3.248   7.407   6.969  0.4500  0.0159 -0.2613
39231SOL    HW120648   3.326   7.391   7.021  1.6654  0.7836 -1.7535
39231SOL    HW220649   3.238   7.502   6.969 -1.7489 -0.1369  1.6029
39232SOL     OW20650   3.834   9.372   3.418 -0.0146 -0.4213 -0.0866
39232SOL    HW120651   3.860   9.378   3.510  0.2020  0.2516 -0.1860
39232SOL    HW220652   3.774   9.297   3.415 -0.5799 -0.0181  0.7332
39233SOL     OW20653   1.377   7.416   1.704 -0.5434  0.1518  0.1442
39233SOL    HW120654   1.392   7.327   1.736  1.8915 -0.0956 -1.4180
39233SOL    HW220655   1.437   7.471   1.755 -1.6032  0.8346  0.6890
39234SOL     OW20656   6.304   3.814   0.947 -0.2125 -0.0606 -0.2620
39234SOL    HW120657   6.314   3.745   1.014 -1.2281 -0.0570 -0.0972
39234SOL    HW220658   6.263   3.770   0.873 -0.3381  0.2433 -0.3737
39235SOL     OW20659   6.774   6.146   1.886  0.3734 -0.1744 -0.0924
39235SOL    HW120660   6.870   6.148   1.886  0.3722  0.0725 -0.7967
39235SOL    HW220661   6.750   6.137   1.979  1.0592  0.8856  0.2045
39236SOL     OW20662   4.194   2.669   6.364 -0.1301 -0.0185 -0.1301
39236SOL    HW120663   4.262   2.608   6.336  0.1035  0.4773 -0.6808
39236SOL    HW220664   4.181   2.727   6.288 -1.3228 -0.2344 -0.1182
39237SOL     OW20665   8.103   5.343   0.440 -0.3832  0.7361 -0.5800
39237SOL    HW120666   8.019   5.378   0.468  0.4158  1.2871  1.3022
39237SOL    HW220667   8.113   5.262   0.491  0.1302  0.5800 -0.9226
39238SOL     OW20668   3.477   5.627  10.138 -0.4605  0.9967 -0.4461
39238SOL    HW120669   3.395   5.620  10.187 -0.8186  2.5158 -0.7674
39238SOL    HW220670   3.533   5.559  10.174 -1.7010  0.2324  0.1026
39239SOL     OW20671   6.857   7.981   3.756 -0.3377 -0.7381 -0.5987
39239SOL    HW120672   6.780   8.037   3.746 -1.3188 -1.8095  0.6156
39239SOL    HW220673   6.834   7.900   3.710  0.2255 -0.9271 -0.5608
39240SOL     OW20674   4.367   9.594   0.236 -0.3079  0.3190 -0.2969
39240SOL    HW120675   4.445   9.549   0.269 -1.7070 -3.2787 -1.4393
39240SOL    HW220676   4.389   9.618   0.146 -0.6529 -1.2435 -0.8243
39241SOL     OW20677   3.549   0.250   4.981 -0.0902  0.6818 -0.2556
39241SOL    HW120678   3.456   0.265   4.995 -0.1545  0.9272 -0.9117
39241SOL    HW220679   3.591   0.278   5.063 -0.6458 -0.0265  0.2787
39242SOL     OW20680   1.740   9.080   3.284  0.5708 -0.7047 -0.3624
39242SOL    HW120681   1.712   9.021   3.214  0.0209 -1.0026  0.1033
39242SOL    HW220682   1.659   9.117   3.318  0.5392 -2.7394  2.0311
39243SOL     OW20683  10.236   3.557   0.907 -0.2164  0.6011  0.4270
39243SOL    HW120684  10.267   3.521   0.824 -1.0034 -1.4553  0.9620
39243SOL    HW220685  10.142   3.542   0.906 -0.5393  2.3455  0.8937
39244SOL     OW20686   9.466   5.409   8.830  0.1129  0.3680 -0.1149
39244SOL    HW120687   9.520   5.488   8.835  0.2204  0.2179  1.8937
39244SOL    HW220688   9.529   5.338   8.822  0.0436  0.4289 -1.2802
39245SOL     OW20689   5.642  10.569   4.485 -0.1963 -0.3943 -0.1705
39245SOL    HW120690   5.653  10.601   4.396 -0.9071  3.5497  0.9515
39245SOL    HW220691   5.548  10.559   4.497 -0.0943 -1.1111  0.0908
39246SOL     OW20692   8.519   9.812   2.213  0.0644 -0.2431 -0.9750
39246SOL    HW120693   8.597   9.848   2.257  0.6838  0.1089 -2.3077
39246SOL    HW220694   8.519   9.854   2.127 -2.4196  0.8559 -0.5162
39247SOL     OW20695   9.859   2.241  10.115 -0.1498  0.0326 -0.0481
39247SOL    HW120696   9.834   2.292  10.191 -0.6663  0.9613 -0.8169
39247SOL    HW220697   9.808   2.160  10.121  0.6330 -0.3981  1.1460
39248SOL     OW20698   2.224   7.616  10.009 -0.1427  0.3555  0.1921
39248SOL    HW120699   2.284   7.681  10.045  0.5219  0.1255 -0.4666
39248SOL    HW220700   2.248   7.610   9.916 -3.5787  2.9299 -1.0342
39249SOL     OW20701   7.779  10.597   2.352 -0.3013 -0.5305  0.0728
39249SOL    HW120702   7.716  10.644   2.407  0.3942  0.4694  0.0250
39249SOL    HW220703   7.848  10.569   2.413  0.5911  0.7829 -0.2924
39250SOL     OW20704   8.212   4.347   2.919 -0.0368  0.0393 -0.1381
39250SOL    HW120705   8.240   4.435   2.943 -2.8026  1.1399 -0.5847
39250SOL    HW220706   8.228   4.342   2.825 -0.8706  0.4951 -0.3116
39251SOL     OW20707   3.178   7.424   5.964  0.0132 -0.1970 -0.6955
39251SOL    HW120708   3.133   7.467   6.037 -1.9945 -1.4851 -1.0698
39251SOL    HW220709   3.184   7.490   5.896  0.6873  0.6283  0.1389
39252SOL     OW20710   5.017   7.934   2.978  0.2816  0.0476 -0.7007
39252SOL    HW120711   4.946   7.978   3.025 -0.3257 -0.7419 -0.8579
39252SOL    HW220712   4.989   7.932   2.887  0.5921 -0.0980 -0.7961
39253SOL     OW20713   6.640   8.799   2.368  0.0587 -0.8615 -0.1367
39253SOL    HW120714   6.592   8.719   2.387  0.4808 -1.6011 -1.9887
39253SOL    HW220715   6.603   8.831   2.286  1.8461 -0.7798 -0.9650
39254SOL     OW20716   4.456   5.468   7.894  0.3620 -0.1863  0.3154
39254SOL    HW120717   4.420   5.473   7.805 -0.0210  0.9722  0.5286
39254SOL    HW220718   4.530   5.528   7.893 -0.3749  0.7553  1.1173
39255SOL     OW20719   9.851   5.138   0.259  0.1525 -0.3941  0.3456
39255SOL    HW120720   9.805   5.057   0.280  2.5048 -1.6154  1.2400
39255SOL    HW220721   9.818   5.202   0.321 -3.2858  0.0472 -1.7111
39256SOL     OW20722  10.358  10.320   9.542 -0.1774  0.2575  0.1568
39256SOL    HW120723  10.443  10.346   9.577  1.2367 -2.5004 -0.8738
39256SOL    HW220724  10.374  10.304   9.449 -1.4645 -1.4173  0.1694
39257SOL     OW20725   6.906   8.905   8.927 -0.2625  0.3605  0.2088
39257SOL    HW120726   6.994   8.888   8.894 -0.5027 -0.3735 -0.0876
39257SOL    HW220727   6.854   8.922   8.848 -0.2680  1.4037  0.4233
39258SOL     OW20728   0.960   3.418   0.305 -0.1344  0.2900  0.1613
39258SOL    HW120729   0.900   3.347   0.282 -2.3028  1.7272  1.0211
39258SOL    HW220730   0.905   3.481   0.353  1.6362  2.6202 -0.6787
39259SOL     OW20731   7.718  10.423   0.108  0.0388  0.3659 -0.1829
39259SOL    HW120732   7.683  10.492   0.166 -0.4682  0.3056 -0.4124
39259SOL    HW220733   7.652  10.353   0.112 -0.3331  0.6258 -1.3406
39260SOL     OW20734   2.496   3.862  10.393 -0.1328  0.0896  0.2767
39260SOL    HW120735   2.509   3.819  10.309  0.5853 -0.8261  0.8351
39260SOL    HW220736   2.440   3.937  10.373 -0.5258 -0.4891 -0.8960
39261SOL     OW20737   1.888   4.231   7.259  0.6474 -0.0812 -0.4095
39261SOL    HW120738   1.908   4.322   7.278  0.7657  0.4994 -2.8722
39261SOL    HW220739   1.892   4.186   7.343 -1.5485  2.5384  1.2524
39262SOL     OW20740   2.090   1.916   3.946  0.7661  0.1233  0.1982
39262SOL    HW120741   2.059   1.957   3.865 -0.9104  0.8803  1.1931
39262SOL    HW220742   2.184   1.933   3.947  0.8317  0.0502 -1.6015
39263SOL     OW20743   9.860   3.429   2.038 -0.5833 -0.1233 -0.4286
39263SOL    HW120744   9.941   3.432   1.987  0.9670  0.3101  1.9014
39263SOL    HW220745   9.838   3.336   2.041  0.7264 -0.4478  0.1519
39264SOL     OW20746   9.396   6.427   2.685  0.3848  0.2820  0.1690
39264SOL    HW120747   9.324   6.476   2.724  0.7019  0.1793  0.9040
39264SOL    HW220748   9.360   6.341   2.665  0.3126  0.2175  0.5725
39265SOL     OW20749   3.162   5.755   9.368  0.8452 -0.1850  0.2558
39265SOL    HW120750   3.234   5.732   9.309 -0.0849  0.2839 -1.1244
39265SOL    HW220751   3.187   5.840   9.404  2.1253 -1.1449  1.7746
39266SOL     OW20752   1.061   7.229   5.340  0.3307 -0.0369 -0.1526
39266SOL    HW120753   1.011   7.211   5.420  0.9831  0.0780  0.2867
39266SOL    HW220754   1.040   7.157   5.281  0.6283 -0.6637  0.4996
39267SOL     OW20755   3.787   5.273  10.661  0.0331 -0.0707  0.2331
39267SOL    HW120756   3.809   5.183  10.639  0.5496  0.2495 -0.5999
39267SOL    HW220757   3.765   5.271  10.754 -2.0420 -1.4453 -0.2126
39268SOL     OW20758   5.552   2.285   1.736 -0.1953  0.3183 -0.7078
39268SOL    HW120759   5.562   2.379   1.749  0.8376  0.0178  0.9973
39268SOL    HW220760   5.629   2.259   1.686 -2.4308  0.9126 -4.8564
39269SOL     OW20761   0.493  10.625   9.962  0.0913 -0.2666 -0.4807
39269SOL    HW120762   0.461  10.592  10.047  1.0691 -1.1026 -0.4178
39269SOL    HW220763   0.541  10.551   9.924  1.4598  0.7565 -0.8289
39270SOL     OW20764   9.731   8.634   8.648  0.5377  0.0667  0.5119
39270SOL    HW120765   9.760   8.589   8.569  2.2306  0.9370  0.6000
39270SOL    HW220766   9.679   8.569   8.695 -0.8831 -0.3271 -1.4882
39271SOL     OW20767   5.163   5.814   7.926 -0.5010  0.0188  0.1273
39271SOL    HW120768   5.252   5.839   7.903  0.1043 -1.9855  0.1200
39271SOL    HW220769   5.145   5.736   7.874 -1.4205 -0.9102  1.7357
39272SOL     OW20770   1.000   2.115   3.702  0.4536 -0.4962  0.3057
39272SOL    HW120771   1.005   2.146   3.793  0.3616 -0.3165  0.2508
39272SOL    HW220772   1.063   2.170   3.655  1.7207 -1.6877  0.5558
39273SOL     OW20773   9.941  10.175   9.845 -0.3432 -0.2820  0.1131
39273SOL    HW120774   9.963  10.254   9.796 -1.6111  0.3802  0.5573
39273SOL    HW220775   9.991  10.105   9.802  1.0703  0.7899 -0.0893
39274SOL     OW20776   4.836   2.964   5.866 -0.0476 -0.3033  0.1167
39274SOL    HW120777   4.763   2.957   5.927  0.2178  1.0988  0.6347
39274SOL    HW220778   4.823   3.047   5.821  1.2802  0.0507  0.3214
39275SOL     OW20779   4.558   9.396   3.526  0.6004  0.3391 -0.1385
39275SOL    HW120780   4.574   9.490   3.521  0.9316  0.2112 -2.4146
39275SOL    HW220781   4.620   9.365   3.592  2.1310  1.4159 -1.0046
39276SOL     OW20782  10.285   0.430  10.171  0.0659 -0.1532  0.2859
39276SOL    HW120783  10.271   0.446  10.264  1.9895  0.3572  0.5205
39276SOL    HW220784  10.210   0.377  10.145 -2.2883  2.3890  1.3491
39277SOL     OW20785   1.790   3.662   0.707 -0.2106 -0.2369  0.1763
39277SOL    HW120786   1.718   3.696   0.654  0.1532 -0.2043 -0.3080
39277SOL    HW220787   1.751   3.642   0.792 -0.4522  1.3039  0.4480
39278SOL     OW20788   8.355  10.135   4.870  0.2603 -0.3305  0.0516
39278SOL    HW120789   8.289  10.183   4.820  0.4674 -1.5297 -1.4606
39278SOL    HW220790   8.345  10.044   4.842  1.5753 -0.7654  0.8875
39279SOL     OW20791   1.752   6.972   5.754  0.1444  0.5136 -0.1113
39279SOL    HW120792   1.804   6.892   5.744  1.5111  1.1454  1.3368
39279SOL    HW220793   1.732   6.999   5.665 -0.0361 -1.2346 -0.6426
39280SOL     OW20794   8.125   0.415   6.267 -0.2736 -0.1886 -0.0347
39280SOL    HW120795   8.116   0.509   6.278 -0.8449 -0.4619  2.2666
39280SOL    HW220796   8.189   0.405   6.196 -1.5873  1.8884 -1.6003
39281SOL     OW20797   8.973   1.294   6.902  0.1401  0.8506 -0.1691
39281SOL    HW120798   8.990   1.221   6.844 -0.9077 -0.6624  1.3240
39281SOL    HW220799   9.059   1.320   6.935  0.4517 -0.5018  0.1542
39282SOL     OW20800   4.763   7.296   3.560 -0.3553 -0.2436  0.2543
39282SOL    HW120801   4.677   7.318   3.523  0.0779  0.2850 -0.4792
39282SOL    HW220802   4.764   7.201   3.565 -1.1642 -0.2352  0.7216
39283SOL     OW20803   3.266   2.907   4.270  0.5714  0.5304  0.4233
39283SOL    HW120804   3.187   2.959   4.285  0.2013 -0.0084  0.3733
39283SOL    HW220805   3.292   2.927   4.180 -1.8193 -2.2859 -1.0604
39284SOL     OW20806   0.620   2.599   9.788 -0.2778  0.3235  0.6067
39284SOL    HW120807   0.545   2.553   9.825 -0.6475  0.5044  0.0885
39284SOL    HW220808   0.678   2.615   9.863  0.0208 -1.2800  0.7466
39285SOL     OW20809   0.023   1.289   7.101 -0.4061 -0.4559 -0.4410
39285SOL    HW120810  -0.068   1.271   7.076 -0.4191 -0.7677 -0.1756
39285SOL    HW220811   0.023   1.381   7.126 -0.3024 -0.0130 -1.9659
39286SOL     OW20812   4.210   9.416   1.957 -0.2137  0.5442 -0.0730
39286SOL    HW120813   4.205   9.479   2.028  1.4011  2.2152 -1.3523
39286SOL    HW220814   4.226   9.332   2.000 -1.5942  1.1009  1.6163
39287SOL     OW20815   7.079   7.972   6.681 -0.1222 -0.0703 -0.6006
39287SOL    HW120816   7.093   7.999   6.591 -2.1787 -2.3577 -1.7338
39287SOL    HW220817   6.995   7.926   6.679 -0.0802 -0.4690  2.4361
39288SOL     OW20818   1.740   0.258   7.494 -0.0621  0.4374  0.2823
39288SOL    HW120819   1.723   0.345   7.458 -1.0479 -0.0731 -0.5443
39288SOL    HW220820   1.829   0.237   7.466  1.0317  2.0269  2.3139
39289SOL     OW20821   8.536   9.121   4.865 -0.5226  0.1895 -0.3356
39289SOL    HW120822   8.450   9.153   4.894 -1.9905 -1.0454 -2.9939
39289SOL    HW220823   8.562   9.181   4.795  0.1898 -0.1872 -0.4030
39290SOL     OW20824   9.721   0.563   1.961  0.7741 -0.5143  0.6158
39290SOL    HW120825   9.665   0.627   1.918 -0.9992 -2.5550 -0.2764
39290SOL    HW220826   9.777   0.615   2.019 -0.4436  1.8219 -0.1972
39291SOL     OW20827   3.130   6.169   6.215 -0.1437 -0.0389  0.2422
39291SOL    HW120828   3.085   6.253   6.214 -1.7128 -0.8301 -0.1063
39291SOL    HW220829   3.177   6.167   6.298 -0.4845  0.9779  0.4635
39292SOL     OW20830   7.084   8.999   0.335  0.5546 -0.6725  0.5918
39292SOL    HW120831   7.008   9.053   0.358 -0.4633 -1.5839 -0.5235
39292SOL    HW220832   7.049   8.911   0.323  2.3080 -1.8410  3.1390
39293SOL     OW20833   2.476   3.872   7.015  0.2281  1.0888  0.0472
39293SOL    HW120834   2.427   3.808   6.963  1.4185  2.2918 -2.7252
39293SOL    HW220835   2.566   3.862   6.986  0.5553  3.5337  0.0650
39294SOL     OW20836   1.484   9.677   3.465 -0.1720 -0.2279  0.5492
39294SOL    HW120837   1.463   9.730   3.389 -0.6180 -0.2766  0.6349
39294SOL    HW220838   1.579   9.685   3.475 -0.0683 -0.4440 -0.1753
39295SOL     OW20839   5.041   7.242   6.050 -0.1425  0.3920  0.5571
39295SOL    HW120840   4.985   7.203   6.117 -1.2401 -0.2217 -0.6812
39295SOL    HW220841   5.126   7.200   6.062 -0.4863 -0.1311  1.1974
39296SOL     OW20842   7.038   8.325   5.244  0.3385 -0.4032 -0.3765
39296SOL    HW120843   7.079   8.358   5.164  3.6834 -2.2312  0.3783
39296SOL    HW220844   7.044   8.399   5.305 -0.3197  0.3305 -1.1705
39297SOL     OW20845   8.458   3.626   8.028 -0.2747  0.0392 -0.1701
39297SOL    HW120846   8.403   3.555   7.996  0.4314 -1.1528  1.1265
39297SOL    HW220847   8.513   3.649   7.953 -0.1588 -1.1538 -0.4764
39298SOL     OW20848   0.753   2.249   1.925  0.4575  0.4580  0.2794
39298SOL    HW120849   0.731   2.168   1.970  1.2653 -0.4230 -0.8745
39298SOL    HW220850   0.840   2.271   1.957  0.8227  0.1009 -0.4432
39299SOL     OW20851   3.137   8.078   0.699 -0.1051 -0.1496  0.1907
39299SOL    HW120852   3.228   8.105   0.692 -0.5334  0.9814 -2.2323
39299SOL    HW220853   3.087   8.160   0.703 -1.0937 -0.6842 -0.5022
39300SOL     OW20854   7.809   5.162   7.887  0.4763  0.6079 -0.4550
39300SOL    HW120855   7.742   5.223   7.917 -0.4329 -1.0894  1.2070
39300SOL    HW220856   7.863   5.213   7.827 -0.2989  2.9681  0.7258
39301SOL     OW20857   3.710   3.304   1.061 -0.3733  0.5651 -0.3093
39301SOL    HW120858   3.682   3.213   1.072 -0.6121  0.4486 -1.6810
39301SOL    HW220859   3.631   3.351   1.035 -0.0519  0.9685 -0.5692
39302SOL     OW20860   3.700   4.930   5.613 -0.3704 -0.4993  0.1180
39302SOL    HW120861   3.641   4.879   5.558 -1.3952  0.1002  0.6159
39302SOL    HW220862   3.687   4.894   5.701  1.0423 -1.2648  0.0406
39303SOL     OW20863   9.554   8.173   6.071  0.0662 -0.0419  0.7283
39303SOL    HW120864   9.539   8.085   6.035  1.7100 -0.1659  0.2572
39303SOL    HW220865   9.634   8.164   6.122 -1.0600  0.6475  2.6918
39304SOL     OW20866   3.306   9.201   2.298  0.7134 -0.1430  0.1380
39304SOL    HW120867   3.379   9.153   2.259  0.2736 -0.3776 -0.4048
39304SOL    HW220868   3.348   9.273   2.346  1.2445  0.4656 -1.1781
39305SOL     OW20869   9.197   2.238   6.867  0.2622  0.2217  0.1623
39305SOL    HW120870   9.228   2.326   6.846 -1.3945  0.6273 -0.7486
39305SOL    HW220871   9.105   2.238   6.841  0.1612 -1.7178  0.3657
39306SOL     OW20872   5.590   1.575   6.700 -0.0279  0.1948  0.4840
39306SOL    HW120873   5.572   1.496   6.648 -1.6291  0.4288  0.6592
39306SOL    HW220874   5.649   1.626   6.645  0.8986 -1.0117  0.2866
39307SOL     OW20875   2.906   0.343   9.376 -0.5643 -0.7554 -0.0294
39307SOL    HW120876   2.838   0.358   9.310 -0.7588  1.8568  0.6377
39307SOL    HW220877   2.859   0.336   9.459 -0.0829  1.8411  0.5421
39308SOL     OW20878   3.097   9.319  10.440 -0.8995  0.8957 -0.2897
39308SOL    HW120879   3.170   9.341  10.498 -1.0344  0.1232  0.1764
39308SOL    HW220880   3.025   9.297  10.498 -0.4437 -1.9632 -0.6748
39309SOL     OW20881   5.795   0.095   4.598 -0.0834 -0.3311  0.8565
39309SOL    HW120882   5.724   0.159   4.609 -0.1574 -0.2211 -0.1419
39309SOL    HW220883   5.752   0.018   4.561  0.4965  0.2079 -1.0455
39310SOL     OW20884   0.393   1.018   9.772  0.3044 -0.0995  0.4892
39310SOL    HW120885   0.316   1.063   9.738 -0.9415 -2.8002 -0.5959
39310SOL    HW220886   0.444   0.996   9.694  0.3170 -1.3919  0.8262
39311SOL     OW20887  10.185   3.534   4.472  0.0208  0.0418  0.3324
39311SOL    HW120888  10.157   3.517   4.382  0.8819 -1.3381  0.2927
39311SOL    HW220889  10.272   3.496   4.478  0.0274  0.2129  1.7270
39312SOL     OW20890  10.569   2.658   2.477  0.7579  0.0393  0.5574
39312SOL    HW120891  10.495   2.625   2.427  0.2106  0.4808  1.0718
39312SOL    HW220892  10.621   2.580   2.497 -0.2812 -0.4686  1.3691
39313SOL     OW20893   5.199   0.277   8.974 -0.1150 -0.0226  0.0008
39313SOL    HW120894   5.127   0.243   9.027 -0.5148 -0.1478 -0.6157
39313SOL    HW220895   5.258   0.317   9.038 -0.7008  0.0348  0.5197
39314SOL     OW20896   6.768   8.076   5.845  0.0230  0.2274 -0.0976
39314SOL    HW120897   6.853   8.032   5.844 -0.2629 -0.3685  0.9474
39314SOL    HW220898   6.720   8.035   5.917 -0.3545  2.0660  0.7634
39315SOL     OW20899   2.765   3.198   1.578  0.0929  0.4798 -0.1856
39315SOL    HW120900   2.821   3.156   1.512  0.1365  0.6861 -0.2803
39315SOL    HW220901   2.785   3.291   1.571 -0.9551  0.6689 -0.8735
39316SOL     OW20902   0.719   9.218   8.686 -0.3439 -0.5670 -0.0373
39316SOL    HW120903   0.802   9.172   8.699  0.1996  0.4831  0.3951
39316SOL    HW220904   0.735   9.274   8.610 -1.0356 -1.1624 -0.6402
39317SOL     OW20905   4.986   8.237   8.300  0.4623  0.6387 -0.1450
39317SOL    HW120906   5.047   8.192   8.242  0.9193  1.2306 -0.1327
39317SOL    HW220907   5.041   8.298   8.350 -0.2307  1.7331 -0.6687
39318SOL     OW20908   9.751   8.216   6.245 -0.5730  0.2613 -0.0883
39318SOL    HW120909   9.709   8.216   6.331  0.9002 -1.2759  0.6893
39318SOL    HW220910   9.834   8.263   6.259  0.1222 -0.8404 -0.4003
39319SOL     OW20911   9.707   5.910   6.271  0.5615  0.2884  1.0328
39319SOL    HW120912   9.615   5.884   6.275  0.0665  1.9896  1.3835
39319SOL    HW220913   9.740   5.895   6.359  0.3799  0.4915  1.1368
39320SOL     OW20914   5.897   4.470   3.523  0.0572  0.7494  0.1389
39320SOL    HW120915   5.931   4.381   3.523 -2.1014 -0.1364 -0.6952
39320SOL    HW220916   5.860   4.482   3.611 -3.0216 -0.6467 -0.8389
39321SOL     OW20917   2.559   3.166   7.985 -0.0995  0.1469 -0.0405
39321SOL    HW120918   2.513   3.240   7.946  0.3105  1.3953  1.7696
39321SOL    HW220919   2.501   3.135   8.054  0.1818 -0.5898 -0.1220
39322SOL     OW20920   4.473   4.661   6.968 -0.3761 -0.2649  0.4076
39322SOL    HW120921   4.390   4.614   6.962 -0.2839 -0.4314  0.4245
39322SOL    HW220922   4.488   4.671   7.063 -0.2991 -0.3770  0.4085
39323SOL     OW20923   2.514   7.053   7.354 -0.4337 -0.1864 -0.1575
39323SOL    HW120924   2.501   7.010   7.270  0.8171 -0.7142 -0.1084
39323SOL    HW220925   2.534   7.144   7.331 -1.4245 -0.0105 -0.3508
39324SOL     OW20926   0.004   0.419   2.759 -0.4497  0.0069 -0.3750
39324SOL    HW120927  -0.084   0.457   2.761 -0.1192  0.7656 -0.0645
39324SOL    HW220928   0.060   0.486   2.797  0.4027 -0.0929 -1.4187
39325SOL     OW20929   3.693   9.902   8.184  0.0531  0.3054  0.3697
39325SOL    HW120930   3.760   9.942   8.239  0.5061 -0.0456  0.0886
39325SOL    HW220931   3.672   9.969   8.119 -2.8118  1.9909  2.7563
39326SOL     OW20932  10.311   9.408   7.218  0.0158  0.2093  0.6310
39326SOL    HW120933  10.226   9.404   7.174  1.0389 -1.4828 -1.3959
39326SOL    HW220934  10.355   9.484   7.180  0.5158 -0.6776 -0.6416
39327SOL     OW20935   1.259   8.586   5.083  0.4975 -0.2156 -0.1265
39327SOL    HW120936   1.344   8.541   5.085 -0.2874 -1.7893 -0.6289
39327SOL    HW220937   1.196   8.516   5.066 -0.6851  1.2045 -1.9039
39328SOL     OW20938   3.222  10.515   2.634  0.1603  0.2357  0.4649
39328SOL    HW120939   3.239  10.431   2.678  0.2672  1.2809  2.5648
39328SOL    HW220940   3.150  10.553   2.685  0.8571  1.8900  0.2649
39329SOL     OW20941   7.988   7.995   3.709 -0.0934 -0.3757  0.3981
39329SOL    HW120942   8.051   7.989   3.637 -0.1008  0.4572  0.3115
39329SOL    HW220943   8.032   7.952   3.783  0.1306 -0.7682  0.0356
39330SOL     OW20944   2.817   1.069   0.173  0.1313 -0.5426 -0.8797
39330SOL    HW120945   2.854   0.985   0.146 -0.3449 -1.0855  0.1063
39330SOL    HW220946   2.831   1.126   0.098  0.1117 -1.6043 -1.7156
39331SOL     OW20947   7.466   5.587   0.998 -0.1044  0.2877  0.2428
39331SOL    HW120948   7.499   5.514   1.051  0.1253  0.4263  0.2927
39331SOL    HW220949   7.539   5.612   0.943 -0.6261 -0.4554 -0.8091
39332SOL     OW20950   8.513   3.437   5.714 -0.6869 -0.2597  0.1338
39332SOL    HW120951   8.538   3.370   5.778 -0.0476  0.1232  0.2907
39332SOL    HW220952   8.501   3.516   5.766 -2.5996 -0.4839  0.1252
39333SOL     OW20953   6.188   7.744   1.198 -0.0613 -0.4263  0.3161
39333SOL    HW120954   6.284   7.740   1.198 -0.0433 -0.1921 -0.4812
39333SOL    HW220955   6.167   7.830   1.234  0.1243  0.6665 -1.9921
39334SOL     OW20956   8.902   1.107   7.122 -0.5140  0.4414 -0.2726
39334SOL    HW120957   8.851   1.178   7.083  0.5550  0.6205 -1.4083
39334SOL    HW220958   8.935   1.056   7.047  0.1369 -0.2532  0.4566
39335SOL     OW20959   8.997   7.635   4.019  0.2510  0.3397 -0.3894
39335SOL    HW120960   9.067   7.676   3.968  1.6466 -1.1013  0.2725
39335SOL    HW220961   8.977   7.554   3.972  1.0340 -0.6413  0.8902
39336SOL     OW20962   5.998   5.256   4.641 -0.1547  0.3411  0.6272
39336SOL    HW120963   6.084   5.238   4.602  0.7198  1.6727  1.8575
39336SOL    HW220964   6.013   5.250   4.735 -1.7597 -0.7715  0.8438
39337SOL     OW20965   8.818   0.711   0.581  0.0340 -0.1390 -0.7457
39337SOL    HW120966   8.911   0.732   0.590  0.2540 -0.8570 -1.2716
39337SOL    HW220967   8.807   0.689   0.488 -0.0207 -2.9464 -0.1687
39338SOL     OW20968   1.502   3.862   2.845 -0.8756  0.6227  0.4684
39338SOL    HW120969   1.533   3.781   2.886 -2.0098 -0.0366  0.0647
39338SOL    HW220970   1.573   3.925   2.860  0.0878 -0.4721  0.6651
39339SOL     OW20971   4.770   5.308   0.743  0.4265 -0.3663  0.4353
39339SOL    HW120972   4.721   5.266   0.813  1.0007  0.3149  1.2621
39339SOL    HW220973   4.848   5.344   0.786 -0.2319  1.9007 -0.1307
39340SOL     OW20974   1.500   8.966   8.670  0.4583 -0.5042  0.0767
39340SOL    HW120975   1.406   8.952   8.667  0.5735 -1.1064 -1.3371
39340SOL    HW220976   1.535   8.912   8.600  2.0025 -1.3148  1.4016
39341SOL     OW20977   1.416   6.567   4.374 -0.1037 -0.2310  0.4649
39341SOL    HW120978   1.386   6.481   4.344  0.2330 -0.0952 -0.2591
39341SOL    HW220979   1.347   6.595   4.435 -0.3027 -0.9330  0.5794
39342SOL     OW20980   5.715   8.466   7.473 -0.0660  0.1978  0.2909
39342SOL    HW120981   5.659   8.400   7.513  0.1132  0.0909  0.3631
39342SOL    HW220982   5.744   8.426   7.391  0.0590  0.1806  0.3441
39343SOL     OW20983   9.495   0.529   8.034 -0.2992 -0.5042 -0.4901
39343SOL    HW120984   9.538   0.603   7.991  2.0630 -0.7730  1.2493
39343SOL    HW220985   9.418   0.568   8.076 -0.3060  0.5214 -1.4130
39344SOL     OW20986   6.807  10.560   5.343  0.2597  0.8714 -0.4723
39344SOL    HW120987   6.825  10.619   5.416  0.7789 -0.1840  0.2778
39344SOL    HW220988   6.745  10.496   5.378  2.4800 -1.2292 -0.0634
39345SOL     OW20989   7.581   5.516   4.252 -0.2760  0.4426  0.0875
39345SOL    HW120990   7.645   5.587   4.243  2.3392 -1.8884 -1.5312
39345SOL    HW220991   7.511   5.539   4.192  0.0822  2.0313  0.2272
39346SOL     OW20992   4.098   7.955   8.847  0.1087 -0.4720 -0.2808
39346SOL    HW120993   4.103   7.863   8.871 -0.8864 -0.4988 -0.1393
39346SOL    HW220994   4.022   7.989   8.894  0.9965  0.6634  0.4083
39347SOL     OW20995   8.562   2.024   0.454  0.2256 -0.5286  0.3113
39347SOL    HW120996   8.520   1.981   0.528  0.9208 -1.0161  0.4371
39347SOL    HW220997   8.609   2.098   0.493  0.7378 -0.8889  0.3945
39348SOL     OW20998   4.591   6.991   5.562 -0.0496 -0.4224  0.4702
39348SOL    HW120999   4.519   7.043   5.527  0.0240 -0.5638  0.0997
39348SOL    HW221000   4.663   7.006   5.501  0.3671  0.0476  1.0662
39349SOL     OW21001   3.694   0.905   6.614 -0.6716 -0.3713 -0.7203
39349SOL    HW121002   3.682   0.886   6.521 -0.9292 -1.5806 -0.4608
39349SOL    HW221003   3.706   0.819   6.654 -5.2406 -0.4613  1.0529
39350SOL     OW21004   1.802   8.245   1.145 -0.3574 -0.0371 -0.5062
39350SOL    HW121005   1.853   8.325   1.151 -1.3070  0.5088  1.0539
39350SOL    HW221006   1.865   8.174   1.158 -0.0404  0.6495  2.3445
39351SOL     OW21007   1.093  10.096   2.145 -0.3915 -0.2392 -0.2229
39351SOL    HW121008   1.137  10.026   2.097  2.6474  1.1477  0.3138
39351SOL    HW221009   1.110  10.175   2.094 -2.1670  0.4293  0.1403
39352SOL     OW21010   3.095   8.124   4.314  0.9681  0.4055 -0.8951
39352SOL    HW121011   3.096   8.218   4.295 -1.9398  0.3112 -1.9261
39352SOL    HW221012   3.061   8.118   4.404 -0.4032  0.3207 -1.4019
39353SOL     OW21013   6.977   4.524   9.862 -0.0152  0.0335  0.5289
39353SOL    HW121014   6.962   4.471   9.785 -0.7839  4.0908 -2.4433
39353SOL    HW221015   7.073   4.533   9.867  0.0354 -0.2794  0.0881
39354SOL     OW21016   3.891   3.179   2.499 -0.6172 -0.1950  0.2269
39354SOL    HW121017   3.834   3.228   2.558 -0.0381  0.6745  0.0904
39354SOL    HW221018   3.971   3.231   2.495  0.1117 -1.2994  0.2640
39355SOL     OW21019   8.536   7.046   6.770  0.3168 -0.0116 -0.0702
39355SOL    HW121020   8.507   7.122   6.720  1.0395  0.0974 -0.3217
39355SOL    HW221021   8.513   7.066   6.861 -0.1722  0.1792 -0.2331
39356SOL     OW21022   8.594   3.733  10.049  0.0450 -0.5317 -0.0984
39356SOL    HW121023   8.606   3.650  10.095  1.0837 -0.3858 -0.0886
39356SOL    HW221024   8.660   3.732   9.980  0.0864  0.2953 -0.0786
39357SOL     OW21025   3.084   6.039  10.601 -0.7146 -0.0215 -0.0473
39357SOL    HW121026   3.100   6.131  10.623  2.0327 -1.0487  3.0749
39357SOL    HW221027   3.004   6.017  10.649 -0.5770  0.3866  0.3789
39358SOL     OW21028   7.337   1.046   7.764  0.1993 -0.4711 -0.2208
39358SOL    HW121029   7.401   1.102   7.720 -1.4780  0.7661 -1.1628
39358SOL    HW221030   7.319   1.091   7.847  0.3662 -0.7065 -0.0539
39359SOL     OW21031  10.114   4.491   5.604  0.0252  0.3786 -0.7171
39359SOL    HW121032  10.131   4.399   5.622 -0.3129  0.2438 -1.0771
39359SOL    HW221033  10.036   4.512   5.655  1.7019  1.2476  1.6918
39360SOL     OW21034   8.173   9.499   4.574  0.3931 -0.2177 -0.0702
39360SOL    HW121035   8.269   9.489   4.576  0.4470  0.3806  1.5730
39360SOL    HW221036   8.150   9.525   4.663 -1.0015  2.3297 -1.0816
39361SOL     OW21037   4.842   4.212  10.542 -0.2733  0.2879 -0.0037
39361SOL    HW121038   4.866   4.171  10.625  0.4747 -2.1760 -1.3341
39361SOL    HW221039   4.764   4.164  10.514  0.2249  0.1860 -1.3019
39362SOL     OW21040   5.975   2.794   7.414 -0.0251 -0.4212 -0.5076
39362SOL    HW121041   5.888   2.820   7.384  0.1538  0.8215 -0.0527
39362SOL    HW221042   5.962   2.769   7.505  0.3042  1.3027  0.0578
39363SOL     OW21043   3.745   9.148   9.830  0.1721  0.2572 -0.1768
39363SOL    HW121044   3.804   9.154   9.905 -1.2745  1.3519  0.9340
39363SOL    HW221045   3.752   9.233   9.786  0.4115 -0.0884 -0.8218
39364SOL     OW21046   6.492   8.260   5.773 -0.0177  0.0281  0.0589
39364SOL    HW121047   6.483   8.355   5.765 -0.1471  0.1120  1.0844
39364SOL    HW221048   6.586   8.244   5.772  0.0830 -0.2495 -4.1309
39365SOL     OW21049   4.962   6.576   1.109 -0.2662  0.2045  0.6916
39365SOL    HW121050   4.921   6.637   1.171 -0.5120  0.2091  0.5231
39365SOL    HW221051   4.893   6.553   1.048 -0.3413 -0.7531  1.1316
39366SOL     OW21052   4.217   9.012   1.991 -0.5183 -0.9030  0.0831
39366SOL    HW121053   4.223   8.921   2.018  0.6843 -1.3629 -1.5416
39366SOL    HW221054   4.306   9.046   2.004 -1.0411  0.1599  1.0237
39367SOL     OW21055   5.293   9.763   1.799  0.3895  0.0283  0.6410
39367SOL    HW121056   5.300   9.801   1.886 -0.0038  0.5082  0.4653
39367SOL    HW221057   5.233   9.820   1.752 -0.1756 -0.7781  0.3550
39368SOL     OW21058   2.423   0.421   5.919 -0.6408 -0.3811 -0.3158
39368SOL    HW121059   2.450   0.484   5.851  3.1601 -0.3876  0.9102
39368SOL    HW221060   2.437   0.468   6.001 -1.3715 -1.6202  0.5445
39369SOL     OW21061   9.732   3.491  10.264  0.0777  0.5150  0.8193
39369SOL    HW121062   9.767   3.515  10.350  1.4740  1.7053 -0.0335
39369SOL    HW221063   9.795   3.429  10.228  0.8806  1.9029 -0.3139
39370SOL     OW21064   3.562   0.575   6.095  0.2322 -0.7070  0.5113
39370SOL    HW121065   3.650   0.579   6.057  0.0107 -0.1049  0.0490
39370SOL    HW221066   3.565   0.637   6.168  0.0749 -0.3879  0.2477
39371SOL     OW21067   2.742   8.122   1.881  0.1320 -0.0982 -0.9470
39371SOL    HW121068   2.794   8.201   1.866 -1.4664  0.9178 -1.3158
39371SOL    HW221069   2.686   8.115   1.805  0.6635 -1.9780 -1.2197
39372SOL     OW21070   7.220   0.645   5.880  0.2318 -0.4444  0.1025
39372SOL    HW121071   7.233   0.722   5.825 -0.2208 -0.6265 -0.2733
39372SOL    HW221072   7.301   0.636   5.930  0.7050 -0.3533 -0.6344
39373SOL     OW21073   7.436   7.878   9.707 -0.4172  0.3303  0.1104
39373SOL    HW121074   7.386   7.926   9.641  0.5816  0.4834 -0.5402
39373SOL    HW221075   7.398   7.907   9.791 -0.1219  1.9330 -0.2870
39374SOL     OW21076   7.225   0.639   3.867 -0.3536 -0.4652  0.1664
39374SOL    HW121077   7.285   0.564   3.861 -1.1825 -1.0764 -0.8018
39374SOL    HW221078   7.144   0.601   3.903 -0.1947  0.3331  1.3938
39375SOL     OW21079   2.259  10.685   2.498 -0.6960 -0.5192  0.5018
39375SOL    HW121080   2.164  10.695   2.500 -0.6191  0.0169  1.8816
39375SOL    HW221081   2.272  10.598   2.460 -1.6904 -0.2734 -0.4860
39376SOL     OW21082   1.016   6.157   3.875  0.7067  0.2719 -0.0147
39376SOL    HW121083   0.948   6.089   3.878 -0.0962  0.8782 -2.3093
39376SOL    HW221084   1.038   6.173   3.967 -0.5326 -1.6491  0.6724
39377SOL     OW21085   5.224   1.564   8.678 -0.0149 -0.5151  0.2557
39377SOL    HW121086   5.201   1.476   8.649 -0.0450 -0.7559  0.9971
39377SOL    HW221087   5.279   1.550   8.754  0.3684  0.1051  0.0982
39378SOL     OW21088   0.315   7.691   5.503  0.0037  0.6337  0.5986
39378SOL    HW121089   0.265   7.741   5.438 -1.1685  0.4458  1.3100
39378SOL    HW221090   0.308   7.743   5.584 -1.9930 -1.0083  1.5876
39379SOL     OW21091   1.284   7.893  10.125 -0.0172 -0.7210  0.0497
39379SOL    HW121092   1.254   7.896  10.216 -0.7495 -0.2603 -0.1907
39379SOL    HW221093   1.375   7.863  10.130 -0.2181 -1.2175  0.8865
39380SOL     OW21094   7.244   2.122   9.844 -0.7068  0.7296  0.3214
39380SOL    HW121095   7.182   2.055   9.815 -1.0683  0.5831  1.3674
39380SOL    HW221096   7.328   2.076   9.848 -0.2114  1.2617 -2.3833
39381SOL     OW21097   5.516   9.497  10.518  0.5835 -0.5041 -0.0075
39381SOL    HW121098   5.608   9.478  10.535  0.7576  0.3345 -0.0112
39381SOL    HW221099   5.491   9.436  10.448  1.8889  1.1361 -1.9913
39382SOL     OW21100   5.665   8.395   2.074 -0.5826 -0.6657 -0.1215
39382SOL    HW121101   5.713   8.356   2.147 -1.6682 -0.9844  0.4496
39382SOL    HW221102   5.620   8.321   2.034 -2.7148 -0.0500  1.0049
39383SOL     OW21103   8.500   2.706  10.621 -0.0038  0.1711 -0.0634
39383SOL    HW121104   8.531   2.741  10.705 -0.7676 -0.8521  0.6726
39383SOL    HW221105   8.413   2.743  10.610  0.0449  0.2027 -0.3566
39384SOL     OW21106   0.492   9.474   6.723  0.0366  0.0207 -0.7494
39384SOL    HW121107   0.511   9.390   6.680 -0.4258 -0.8848  0.7349
39384SOL    HW221108   0.401   9.467   6.750  0.6315  0.0464  1.4051
39385SOL     OW21109   6.316   1.308   2.473  0.4600  0.1932  0.2286
39385SOL    HW121110   6.252   1.378   2.462  1.5115  1.1695  0.0851
39385SOL    HW221111   6.322   1.267   2.387 -1.5219 -1.3609  0.7406
39386SOL     OW21112   8.967   7.307   5.647  0.0665 -0.0697 -0.1879
39386SOL    HW121113   8.935   7.387   5.689 -1.4841  1.6192 -4.0638
39386SOL    HW221114   8.889   7.252   5.636 -0.1766  0.6403 -2.7994
39387SOL     OW21115   1.782   8.146  10.061  0.5537  0.4263  0.2711
39387SOL    HW121116   1.838   8.072  10.084  0.8718 -0.4628 -2.9418
39387SOL    HW221117   1.813   8.175   9.976 -0.2506  3.6592  0.9334
39388SOL     OW21118   9.997   8.175   2.419 -0.1431 -0.1499 -0.4288
39388SOL    HW121119  10.085   8.190   2.453 -0.1733 -1.0209  0.0469
39388SOL    HW221120   9.946   8.149   2.495 -0.7457  0.0351 -0.7587
39389SOL     OW21121   2.658   4.494   3.849 -0.0481 -0.3224  0.1211
39389SOL    HW121122   2.674   4.563   3.784  0.8337  0.2673  0.9261
39389SOL    HW221123   2.742   4.486   3.896 -0.2649 -1.6710  0.3017
39390SOL     OW21124   3.406   9.934   9.705 -0.3171  0.0483  0.2683
39390SOL    HW121125   3.497   9.964   9.706 -0.2654  0.0407 -1.1609
39390SOL    HW221126   3.411   9.841   9.728 -0.1368  0.3693  1.5976
39391SOL     OW21127   0.656   7.273   8.026 -0.4528  0.7825  0.0084
39391SOL    HW121128   0.623   7.196   7.979 -1.0252  1.0441 -0.0334
39391SOL    HW221129   0.577   7.312   8.065 -0.2427  1.6192 -0.3813
39392SOL     OW21130   0.800   0.461   4.946  0.2118  0.2495  0.4278
39392SOL    HW121131   0.828   0.541   4.901 -0.1345  0.7352  1.0653
39392SOL    HW221132   0.721   0.434   4.899 -0.4255  1.0225  1.0094
39393SOL     OW21133   3.839   7.354   4.499  0.6803 -0.3441  0.0497
39393SOL    HW121134   3.880   7.431   4.540 -1.5148  0.2548  1.3078
39393SOL    HW221135   3.874   7.353   4.410  0.2357  2.6099 -0.2835
39394SOL     OW21136   6.912   4.018   5.789  0.0526 -0.3622  0.2948
39394SOL    HW121137   6.901   3.968   5.708 -0.5712 -0.1644  0.2564
39394SOL    HW221138   6.886   4.107   5.766  0.1727 -0.2389  0.6333
39395SOL     OW21139   1.680   3.826   4.148 -0.2394  0.6092  0.4580
39395SOL    HW121140   1.724   3.757   4.097  0.8573  1.4362  0.2565
39395SOL    HW221141   1.712   3.908   4.110  0.9205  1.2714  2.6995
39396SOL     OW21142   7.856   5.964   7.416 -0.3368  0.2117  0.1479
39396SOL    HW121143   7.779   6.019   7.400 -0.7056 -0.4937 -0.5600
39396SOL    HW221144   7.927   6.008   7.369 -0.2549  0.9387  0.9161
39397SOL     OW21145   2.855   8.405  10.014  0.4894 -0.0413 -0.2493
39397SOL    HW121146   2.928   8.379  10.070  1.0160  2.0243  0.1236
39397SOL    HW221147   2.886   8.386   9.925  0.5228 -1.3088  0.0128
39398SOL     OW21148   1.469   6.060   3.605  0.4789 -0.3598 -0.3823
39398SOL    HW121149   1.427   6.049   3.520 -0.5477 -0.0271  0.0662
39398SOL    HW221150   1.423   6.133   3.646  1.0396 -0.4347  0.4087
39399SOL     OW21151   8.883  10.151   6.708 -0.0502  0.3441 -0.6034
39399SOL    HW121152   8.821  10.224   6.701 -1.3005 -0.7768 -1.6735
39399SOL    HW221153   8.893  10.119   6.618  0.5703 -0.7296 -0.1692
39400SOL     OW21154   9.121   3.440   2.809  0.1411 -0.1253  0.1429
39400SOL    HW121155   9.051   3.504   2.822  0.5637  0.0735  1.6320
39400SOL    HW221156   9.179   3.480   2.744  0.5047  1.1325  1.1911
39401SOL     OW21157   8.471   2.684   8.834  0.1441 -0.9906 -0.4580
39401SOL    HW121158   8.384   2.686   8.795  0.0074 -2.1750 -0.2626
39401SOL    HW221159   8.499   2.775   8.835  0.6008 -0.9107 -4.3215
39402SOL     OW21160   7.817   4.631   5.087  0.4536 -0.5110  0.0674
39402SOL    HW121161   7.856   4.718   5.075  0.3855 -0.6039 -0.9396
39402SOL    HW221162   7.729   4.639   5.050 -0.2326 -0.5107  1.6496
39403SOL     OW21163   8.636  10.405   0.531  0.1140  0.4028 -1.0838
39403SOL    HW121164   8.550  10.433   0.562 -0.4849  1.4528 -3.4194
39403SOL    HW221165   8.623  10.316   0.499  0.3628 -0.1036  0.1715
39404SOL     OW21166   7.616   3.299   5.587  0.7020  0.0021 -0.7660
39404SOL    HW121167   7.629   3.357   5.513 -1.1192  0.3126 -0.8943
39404SOL    HW221168   7.618   3.357   5.664 -1.8700  0.4836 -0.9415
39405SOL     OW21169  10.535   6.423   4.254  0.4170  0.2760  0.4047
39405SOL    HW121170  10.496   6.414   4.340  1.3738 -2.3769  0.6543
39405SOL    HW221171  10.606   6.359   4.253  1.4254  1.3042 -1.8331
39406SOL     OW21172   1.265   4.625   3.899  0.6587 -0.2164  0.1204
39406SOL    HW121173   1.338   4.590   3.949 -0.2686  1.0198  2.5163
39406SOL    HW221174   1.187   4.592   3.944 -0.2251  1.3545 -0.1712
39407SOL     OW21175   5.612   5.749   3.821  0.2821 -0.1019  0.5279
39407SOL    HW121176   5.702   5.770   3.795 -0.1408  2.6847  1.0553
39407SOL    HW221177   5.579   5.695   3.749  1.7129  0.6004 -0.7179
39408SOL     OW21178   4.671  10.070   1.298  0.1527 -0.2474 -0.6508
39408SOL    HW121179   4.676  10.056   1.204  0.2717  1.1710 -0.8738
39408SOL    HW221180   4.587  10.032   1.324 -0.3617  0.2917 -1.5054
39409SOL     OW21181   8.783   8.429  10.295  0.6981 -0.7751 -0.0846
39409SOL    HW121182   8.756   8.389  10.378  2.7065  1.8008  1.9972
39409SOL    HW221183   8.839   8.363  10.254 -1.5921 -2.7215 -0.2741
39410SOL     OW21184   1.026   6.968   0.449  0.1070 -0.1376 -0.6843
39410SOL    HW121185   0.942   6.987   0.491 -0.5854  0.1486 -2.1155
39410SOL    HW221186   1.085   7.036   0.482 -0.3188 -0.1138  0.0570
39411SOL     OW21187   4.869   5.201   4.824  0.1447 -0.2017  0.2400
39411SOL    HW121188   4.778   5.214   4.850  0.1179 -0.4600  0.2753
39411SOL    HW221189   4.883   5.107   4.830  0.7107 -0.0653  1.2078
39412SOL     OW21190   8.657   5.512   4.314 -0.3298 -0.0599 -0.4572
39412SOL    HW121191   8.716   5.510   4.390  1.6475  0.7926 -1.8855
39412SOL    HW221192   8.611   5.428   4.318  1.8745 -1.3248  0.0816
39413SOL     OW21193   2.971   9.136   6.808  0.0941  0.1200  0.1843
39413SOL    HW121194   3.033   9.208   6.810 -2.8004  2.8661 -0.6525
39413SOL    HW221195   2.920   9.151   6.728 -0.7886 -2.7855  0.0852
39414SOL     OW21196   6.544   2.021   1.577 -0.4545  0.3327  0.4202
39414SOL    HW121197   6.577   2.065   1.499  0.3265 -0.9192  0.0206
39414SOL    HW221198   6.609   1.954   1.596  0.4662  1.9082  3.4020
39415SOL     OW21199   2.611   0.106   6.569 -0.7074  0.0282  0.5783
39415SOL    HW121200   2.643   0.175   6.627  0.0170  0.8404 -0.7145
39415SOL    HW221201   2.556   0.152   6.505 -0.2799 -0.5916 -0.2578
39416SOL     OW21202   2.004   7.407   1.961 -0.8701 -0.0492 -0.1698
39416SOL    HW121203   2.068   7.464   1.919 -0.6438  0.0301  0.2757
39416SOL    HW221204   2.055   7.332   1.992 -1.2121 -0.6353 -1.0038
39417SOL     OW21205   8.716   9.929   5.218  0.1554  0.0099 -0.2556
39417SOL    HW121206   8.709   9.950   5.125  1.3193 -0.4610 -0.4748
39417SOL    HW221207   8.711   9.834   5.222  0.7462 -0.0125  0.0829
39418SOL     OW21208   1.294   3.815   2.111 -0.5828  0.0253  0.3007
39418SOL    HW121209   1.269   3.844   2.199 -0.1738  0.2656  0.3386
39418SOL    HW221210   1.385   3.844   2.101 -1.1963  1.6854 -0.9112
39419SOL     OW21211   7.671   6.288   0.160 -0.2440  0.1841  0.0264
39419SOL    HW121212   7.624   6.213   0.196  0.8205 -0.8662 -0.6969
39419SOL    HW221213   7.651   6.287   0.066  0.1304  0.5495 -0.0606
39420SOL     OW21214   6.345   9.130   1.186 -0.1827  0.1358  0.2584
39420SOL    HW121215   6.388   9.212   1.162 -1.3362  0.9708  0.9453
39420SOL    HW221216   6.324   9.088   1.103  3.8965 -1.4500 -0.1850
39421SOL     OW21217   5.306   9.552   5.178  0.0515  0.3665 -0.5353
39421SOL    HW121218   5.302   9.534   5.272 -1.3808  0.4129 -0.5633
39421SOL    HW221219   5.272   9.473   5.137  1.7941 -0.1221 -1.0961
39422SOL     OW21220   4.388   9.188   5.679 -0.8319 -0.7449 -0.3179
39422SOL    HW121221   4.299   9.199   5.646 -0.5306  1.3459 -0.5961
39422SOL    HW221222   4.379   9.136   5.759 -2.0640 -2.1517 -1.3256
39423SOL     OW21223   2.565   9.888   4.940 -0.3608 -0.0557 -0.4692
39423SOL    HW121224   2.620   9.923   4.870 -1.5936 -0.0084 -1.4580
39423SOL    HW221225   2.531   9.965   4.985  0.1737 -0.0797 -0.0168
39424SOL     OW21226   8.741   8.637   7.910 -0.1501 -0.0777  0.2053
39424SOL    HW121227   8.723   8.560   7.965  1.4041 -0.8323 -0.2810
39424SOL    HW221228   8.716   8.711   7.965 -2.5412 -0.9049  0.3671
39425SOL     OW21229  10.354   9.574   4.636 -0.1958  0.4289  0.2891
39425SOL    HW121230  10.264   9.600   4.614 -0.0980  0.1398 -0.4732
39425SOL    HW221231  10.345   9.486   4.675 -0.0264 -0.7460 -2.1733
39426SOL     OW21232   1.849   2.579   7.409  0.0076  0.0583  0.2945
39426SOL    HW121233   1.862   2.663   7.453  3.9398 -1.1545  1.9408
39426SOL    HW221234   1.928   2.529   7.430 -1.9328 -3.9318 -0.9334
39427SOL     OW21235   0.629   2.041   9.024 -0.3107 -0.1537  0.1400
39427SOL    HW121236   0.540   2.068   9.005 -0.9828 -0.7046  2.2884
39427SOL    HW221237   0.643   2.065   9.116  1.8685  0.1969 -0.2220
39428SOL     OW21238   1.948   8.838   6.081  0.2870 -0.5893 -0.4837
39428SOL    HW121239   1.991   8.895   6.145  1.5991 -0.4418 -1.4691
39428SOL    HW221240   1.914   8.898   6.015  0.5125 -0.8607 -0.8468
39429SOL     OW21241   3.219   7.893   9.148  0.0825 -0.3123  0.4500
39429SOL    HW121242   3.207   7.920   9.239 -0.5288  0.3892  0.1695
39429SOL    HW221243   3.311   7.911   9.130 -0.3315  1.8453  0.2175
39430SOL     OW21244   9.084   9.806   5.045  0.2451 -0.1898 -0.3680
39430SOL    HW121245   9.037   9.724   5.059 -0.7933  0.1861 -1.4636
39430SOL    HW221246   9.173   9.780   5.021  0.1303 -0.9655  0.0444
39431SOL     OW21247   7.078   2.850   6.617  1.2028 -0.0061  0.2148
39431SOL    HW121248   7.040   2.798   6.546  0.3189  0.3043  0.4430
39431SOL    HW221249   7.071   2.941   6.587 -1.3552  0.3584  1.6148
39432SOL     OW21250   3.684   7.006   2.917  0.1877 -0.4543  0.4125
39432SOL    HW121251   3.744   6.970   2.982  1.4871 -2.1640 -1.5857
39432SOL    HW221252   3.735   7.007   2.836 -2.5007 -2.3071 -1.4885
39433SOL     OW21253   4.460   7.194   2.396 -0.2963  0.1110 -0.3498
39433SOL    HW121254   4.445   7.207   2.302  1.0718 -0.2852 -0.6516
39433SOL    HW221255   4.408   7.116   2.418  0.0803 -0.3344 -0.9947
39434SOL     OW21256   0.488   3.404   2.885  0.7553  0.0361  0.6411
39434SOL    HW121257   0.566   3.458   2.873  0.2151  1.0149  1.3394
39434SOL    HW221258   0.498   3.332   2.822  2.2814  0.0507  0.8355
39435SOL     OW21259   8.534   7.084   7.256 -0.1859  0.0967  0.0754
39435SOL    HW121260   8.628   7.100   7.258 -0.4158  2.1807 -2.1318
39435SOL    HW221261   8.505   7.098   7.346  1.7912 -2.5430  1.2638
39436SOL     OW21262   3.182   6.977  10.642 -0.4962 -0.0049 -0.2759
39436SOL    HW121263   3.160   7.000  10.732 -1.3506 -1.6349 -0.0171
39436SOL    HW221264   3.232   6.896  10.649 -0.6568 -0.2130 -1.2572
39437SOL     OW21265   5.905   0.825  10.595 -0.0995  0.2514 -0.2394
39437SOL    HW121266   5.845   0.880  10.544  1.2562  0.6872 -1.4402
39437SOL    HW221267   5.871   0.736  10.584 -0.7512  0.5312 -0.5654
39438SOL     OW21268   4.670   1.856   9.274  0.5770 -0.7014  0.6788
39438SOL    HW121269   4.722   1.776   9.268 -0.8400 -1.6531  0.6143
39438SOL    HW221270   4.689   1.904   9.193  2.6508 -0.1637  1.4276
39439SOL     OW21271   0.707   1.484   4.807  0.0256  0.0539 -0.9995
39439SOL    HW121272   0.709   1.456   4.899  0.6536  0.2423 -0.9469
39439SOL    HW221273   0.795   1.463   4.774  0.4814  1.7965 -0.9918
39440SOL     OW21274   9.360   7.743   4.716 -0.0298 -0.3092 -0.4053
39440SOL    HW121275   9.362   7.697   4.632 -0.4490 -0.2012 -0.4714
39440SOL    HW221276   9.439   7.797   4.715  0.7803 -1.4284 -0.0992
39441SOL     OW21277   6.244   5.568   9.754 -0.0973 -0.6117 -0.4926
39441SOL    HW121278   6.291   5.485   9.761  0.2514 -0.2793  1.5573
39441SOL    HW221279   6.288   5.614   9.682  1.8402 -0.8856  0.4576
39442SOL     OW21280   9.229   4.001   1.323  0.1882  0.1296 -0.2260
39442SOL    HW121281   9.319   4.028   1.306  0.1113  0.4739 -0.0961
39442SOL    HW221282   9.180   4.083   1.330 -0.0521 -0.0414  0.1617
39443SOL     OW21283   7.297   2.699  10.605 -0.4194 -0.0218  0.6165
39443SOL    HW121284   7.391   2.715  10.598 -0.4470 -0.3163 -0.6748
39443SOL    HW221285   7.257   2.767  10.551 -1.0249  0.7242  1.9595
39444SOL     OW21286   8.462   2.651   4.826 -0.3836 -0.2618 -0.9757
39444SOL    HW121287   8.498   2.674   4.912 -0.8199  1.2057 -1.1628
39444SOL    HW221288   8.368   2.663   4.835 -0.4074  0.1724 -1.7329
39445SOL     OW21289   7.091   9.752   0.815 -0.0869  0.5492  0.7147
39445SOL    HW121290   7.018   9.780   0.870  0.5018  0.9562  1.3028
39445SOL    HW221291   7.093   9.817   0.744 -0.2728  0.5571  0.7165
39446SOL     OW21292   8.930   0.597   7.355  0.0049 -0.6068  0.2745
39446SOL    HW121293   8.930   0.693   7.350 -1.5934 -0.6091 -0.3888
39446SOL    HW221294   9.016   0.575   7.391  0.4179  1.0686  0.4042
39447SOL     OW21295   8.842   3.593   5.016 -0.0859  0.0901 -0.1530
39447SOL    HW121296   8.806   3.596   5.105  0.0984  0.4565 -0.0873
39447SOL    HW221297   8.777   3.641   4.963  0.4457  1.0247  0.0203
39448SOL     OW21298   7.040   0.068   2.319  0.1042 -0.1503 -0.0207
39448SOL    HW121299   7.092   0.065   2.399  0.1623 -0.1997 -0.0605
39448SOL    HW221300   7.087   0.128   2.261  0.0657 -0.1190 -0.0202
39449NA      NA21301   6.917   7.417   5.415 -0.4481  0.1588  0.0817
39450NA      NA21302   0.032   0.512  10.011  0.0939 -0.3995  0.1509
39451NA      NA21303   8.739   6.304   5.552  0.4980  0.1499  0.5895
39452NA      NA21304   4.250   2.875   0.053  0.1872  0.5933 -0.0248
39453NA      NA21305   7.933   9.983   0.094  0.3506  0.3940  0.4025
39454NA      NA21306   4.523   9.468   6.563 -0.3672 -0.1899 -0.1196
39455NA      NA21307   7.236   4.527   1.992  0.1622 -0.1098  0.1162
39456NA      NA21308   6.730   4.135   4.585 -0.2516 -0.3548  0.3172
39457NA      NA21309   3.448   7.647   6.395  0.1682 -0.4887 -0.3755
39458NA      NA21310   9.068   9.178   8.539  0.0363  0.4237 -0.5283
39459NA      NA21311   5.181   2.413   9.096  0.4189 -0.1062 -0.2524
39460NA      NA21312   6.585   7.103   1.656 -0.0969 -0.1975 -0.9243
39461NA      NA21313   2.116   3.546   4.735 -0.4663  0.5565 -0.2766
39462NA      NA21314   2.616   5.872   8.243  0.0971  0.4504  0.2801
39463NA      NA21315   2.575   4.786   7.615  0.8110  0.3852  0.1969
39464NA      NA21316   4.647   8.289   7.677 -0.0440  0.4596  0.5439
39465NA      NA21317   0.022   6.154   6.187  0.2324  0.0271  0.2236
39466NA      NA21318   7.742   7.314   9.205  0.0359 -0.0230 -0.1133
39467NA      NA21319   4.966   4.151   1.269 -0.2663 -0.0253 -0.0053
39468NA      NA21320  10.616  10.612   1.649 -0.1210 -0.0933 -0.1116
39469NA      NA21321   4.293   9.873   8.356 -0.2818  0.0388 -0.3150
39470NA      NA21322   6.583   9.525  10.098  0.2013 -0.0281 -0.4937
39471NA      NA21323   6.128   5.125   4.233  0.2216 -0.4488  0.0649
39472NA      NA21324   0.650   8.144   6.308  0.1594 -0.2569  0.1037
39473NA      NA21325   2.350   3.924   1.516  0.2612 -0.0234 -0.0929
39474NA      NA21326   9.251   3.171   1.938  0.4250 -0.1243 -0.0957
39475NA      NA21327   8.284   6.257   4.509 -0.4256 -0.0941 -0.1626
39476NA      NA21328   9.468   3.762   1.085  0.3488  0.4210  0.1251
39477NA      NA21329   6.222   3.282   7.258 -0.0433  0.2894  0.3826
39478NA      NA21330   1.529   1.374   8.847 -0.0488 -0.5443  0.1917
39479NA      NA21331   6.271   7.248   4.271  0.4189  0.2454  0.8040
39480NA      NA21332   7.347   2.821   7.208  0.1936 -0.2448 -0.2010
39481NA      NA21333   7.926   6.808   2.081 -0.1328  0.0823 -0.0756
39482NA      NA21334   3.506   0.205   3.152  0.2714 -0.2018  0.2395
39483NA      NA21335   2.697   1.540   4.846  0.5794 -0.5651 -0.0923
39484NA      NA21336   0.101   4.178  10.511  0.3594 -0.2781 -0.1724
39485NA      NA21337   7.574   5.986  10.484 -0.1774 -0.1187  0.0610
39486NA      NA21338   5.482   8.173  10.063  0.1815 -0.3111 -0.1869
39487NA      NA21339   7.098   4.141   8.485 -0.2247  0.0906 -0.1660
39488NA      NA21340   3.141   0.559   6.084 -0.2844  0.3001 -0.3591
39489NA      NA21341   0.709   4.861   1.276 -0.1822  0.0601  0.3063
39490NA      NA21342   4.490   8.244   8.713 -0.0469  0.3947 -0.5098
39491NA      NA21343   0.532   0.969   9.937  0.5721 -0.0305  0.1302
39492NA      NA21344   8.700   4.390   0.504  0.0418 -0.1573 -0.1866
39493NA      NA21345   0.719   1.667   9.586 -0.0568 -0.9277 -0.3546
39494NA      NA21346   2.411   0.104   8.072 -0.3905  0.0485 -0.6239
39495NA      NA21347   4.544   5.033   0.203  0.0921  0.4425  0.4022
39496NA      NA21348   2.215   0.057  10.539 -0.1222 -0.3153  0.1690
39497NA      NA21349   3.750   6.020   2.128  0.1122  0.2289  0.0487
39498NA      NA21350   8.665   5.314   1.925  0.2971  0.2161  0.4513
39499NA      NA21351   8.323   6.463   6.757  0.0344  0.2155  0.2411
39500NA      NA21352   3.018   3.218   0.989  0.2811  0.2082 -0.0746
39501NA      NA21353   1.878   1.509   3.933 -0.0766  0.5575 -0.2664
39502NA      NA21354   9.675   0.317   3.001 -0.1702 -0.1120 -0.2120
39503NA      NA21355   5.160   5.883   9.524  0.2119  0.0074 -0.1930
39504NA      NA21356   1.511   4.328   2.833  0.0422 -0.1599 -0.2673
39505NA      NA21357   1.813   4.406   6.659 -0.0251  0.3797  0.4780
39506NA      NA21358   9.979   4.034   4.740 -0.2916 -0.1719  0.3661
39507NA      NA21359   0.679   0.007   9.124  0.2096 -0.0698  0.6287
39508NA      NA21360   5.412   6.557   7.260 -0.0333 -0.4977  0.0296
39509NA      NA21361   2.552   0.723   0.260  0.0882 -0.4343  0.3639
39510NA      NA21362   3.761   5.102   1.076  0.3774 -0.1379  0.3836
39511NA      NA21363   2.359   7.397   6.474  0.0705  0.7580  0.0205
39512NA      NA21364   5.374   9.449   8.341 -0.7079  0.5006 -0.2939
39513NA      NA21365   1.651   7.713   7.810 -0.0407 -0.0612 -0.0002
39514NA      NA21366   2.136   1.712   7.246  0.2722 -0.0385  0.0341
39515NA      NA21367   5.566   9.069   1.450  0.1341  0.1948 -0.2769
39516NA      NA21368   1.938  10.061   1.880  0.3311  0.0230 -0.1832
39517NA      NA21369   7.164   7.235  10.239  0.0113 -0.1094  0.0431
39518NA      NA21370   2.550   0.993   3.206  0.3285  0.4021 -0.2602
39519NA      NA21371   8.628   4.983   2.678  0.3875  0.1658 -0.1116
39520NA      NA21372   5.246   4.265   7.066 -0.0458 -0.0451  0.7075
39521NA      NA21373   6.853   5.786   4.409  0.0424 -0.1206  0.0985
39522NA      NA21374   5.754   8.562   4.324  0.2390  0.2180 -0.0489
39523NA      NA21375   8.154   8.143  10.256  0.1008 -0.2500 -0.4552
39524NA      NA21376   3.712   9.387   0.516 -0.2527 -0.5107  0.2443
39525NA      NA21377   7.755   3.892   9.867  0.2241  0.2896  0.1513
39526NA      NA21378   6.860   2.574   9.588 -0.0801 -0.5002  0.1029
39527NA      NA21379   0.641   3.252   2.235 -0.2132  0.0385  0.1461
39528NA      NA21380   5.542   2.838   1.083 -0.0370  0.1838 -0.6412
39529NA      NA21381  10.485   5.011   5.307  0.4967  0.2760 -0.0232
39530NA      NA21382   4.884  10.100   7.314  0.1665  0.0271  0.0764
39531NA      NA21383  10.472   8.724   4.512 -0.1408 -0.0722  0.2791
39532NA      NA21384   4.100   1.847   0.732  0.3269  0.1185  0.0426
39533NA      NA21385   3.518   5.903   9.192 -0.2959 -0.2390  0.2289
39534NA      NA21386   4.768   2.496   2.975 -0.2740 -0.4170  0.2651
39535NA      NA21387   8.546   8.415   9.389 -0.3259 -0.0888 -0.2110
39536NA      NA21388   8.238   4.246   7.419  0.1987 -0.3986 -0.0222
39537NA      NA21389   3.034   4.549   9.973 -0.0777 -0.2911 -0.4256
39538NA      NA21390   2.816   7.398   4.836 -0.1021 -0.1589  0.2647
39539NA      NA21391   2.090   9.327   1.693  0.3055  0.3456  0.1339
39540NA      NA21392   4.219   1.680   6.639 -0.4646 -0.2979  0.2305
39541NA      NA21393  10.179   8.017   6.224  0.0732 -0.2679  0.2930
39542NA      NA21394   0.333   8.706   8.597  0.2358  0.3366 -0.1295
39543NA      NA21395   7.989   4.054   0.814 -0.3179 -0.3659 -0.1093
39544NA      NA21396   8.639   3.645   6.405  0.0635 -0.0715 -0.0313
39545NA      NA21397   3.872   6.267   6.868 -0.2778  0.2279 -0.1276
39546NA      NA21398   8.482   5.220  10.326 -0.1506  0.2703  0.2930
39547NA      NA21399   2.362   4.753   4.909 -0.2614  0.2776 -0.0086
39548NA      NA21400   8.143   0.965   4.866 -0.0600  0.2727 -0.3349
39549NA      NA21401   6.358   9.335   9.952 -0.2722 -0.1811  0.5949
39550NA      NA21402   7.320   8.784   1.711 -0.3847 -0.1578 -0.1352
39551NA      NA21403   9.453   7.035   7.982  0.4145 -0.3236  0.2594
39552NA      NA21404   0.931   3.636   4.622  0.1082 -0.4245 -0.0145
39553NA      NA21405   9.925   6.805   3.795 -0.6273 -0.0561  0.1576
39554NA      NA21406   2.650   5.580   0.242  0.0761 -0.0627 -0.1190
39555NA      NA21407   8.784   0.640   3.671 -0.1511  0.2145  0.0909
39556NA      NA21408   6.430   7.686   9.503  0.1459 -0.4393  0.4351
39557NA      NA21409   3.406   1.377   1.760  0.3381  0.0143 -0.6410
39558NA      NA21410   8.328   0.373   0.332  0.2140 -0.2625 -0.1171
39559NA      NA21411   2.945   5.687   5.792  0.0193  0.1930 -0.0352
39560NA      NA21412   2.738   6.402   8.969 -0.2013  0.1278  0.3874
39561CL      CL21413   7.307   1.139   0.055  0.3829 -0.0242 -0.1136
39562CL      CL21414   7.188   3.892   7.387 -0.0313  0.0664 -0.4011
39563CL      CL21415   1.903   1.578   4.579 -0.7498  0.0071  0.1260
39564CL      CL21416   2.446  10.260   4.047  0.3337 -0.0096 -0.5462
39565CL      CL21417   6.576   2.443   7.894  0.1268 -0.1405 -0.1730
39566CL      CL21418   6.018   9.504   6.110 -0.0957 -0.1647 -0.1236
39567CL      CL21419  10.199   3.050   0.056  0.3696  0.0584  0.2923
39568CL      CL21420   7.700   1.355   5.274  0.0187 -0.1558 -0.0785
39569CL      CL21421   1.591   4.262   4.126 -0.0684  0.4726  0.2216
39570CL      CL21422   8.651   0.912   8.843 -0.0574  0.2282 -0.3570
39571CL      CL21423   7.369   1.087   6.472 -0.1247  0.0008 -0.2352
39572CL      CL21424   8.376  10.091   0.199  0.4018 -0.2395  0.1592
39573CL      CL21425   6.493  10.083  10.036 -0.4131 -0.2602 -0.1200
39574CL      CL21426   4.086   7.268   0.505  0.0310 -0.0746  0.4531
39575CL      CL21427   5.001   4.890   7.584  0.2209 -0.2725  0.1005
39576CL      CL21428   1.780   1.958   7.068 -0.1299  0.2921 -0.4479
39577CL      CL21429   7.418   3.501   6.027 -0.0632 -0.0427  0.0291
39578CL      CL21430   5.643   7.949   9.734  0.4299  0.4379 -0.2041
39579CL      CL21431  10.594   5.821   4.759  0.0294  0.5914  0.1550
39580CL      CL21432   6.181   0.622   8.473 -0.1428  0.0652 -0.1706
39581CL      CL21433   7.463   7.751   5.689  0.2192 -0.5546  0.4666
39582CL      CL21434   9.523   2.454   5.255 -0.0070  0.3323  0.0531
39583CL      CL21435   3.847   4.332   2.051 -0.2275 -0.4353 -0.2997
39584CL      CL21436   3.942   7.619   8.022  0.3064  0.1052 -0.2095
39585CL      CL21437   7.553   8.485   8.869 -0.4496  0.2289 -0.0813
39586CL      CL21438   9.201   1.937   8.420 -0.0566  0.1729  0.4054
39587CL      CL21439   8.629   9.827   8.600 -0.0408  0.2010 -0.2928
39588CL      CL21440   8.532   2.268   9.075 -0.4618  0.2361 -0.1866
39589CL      CL21441   4.552   8.510   7.352  0.1834  0.2503  0.5008
39590CL      CL21442  10.012   9.508   7.143  0.2216 -0.3826 -0.0651
39591CL      CL21443   8.033   1.114   1.461  0.5162  0.1772  0.3684
39592CL      CL21444   6.518   7.481  10.394  0.0639  0.2713 -0.2799
39593CL      CL21445   8.232   0.335   7.818 -0.3812 -0.0013  0.2459
39594CL      CL21446   9.854  10.379   6.176  0.1694  0.4817  0.3192
39595CL      CL21447   7.028   1.050   3.386 -0.6924  0.3848  0.2224
39596CL      CL21448   1.368   5.049   3.087 -0.1590 -0.0778 -0.0560
39597CL      CL21449   6.393   6.787   7.470 -0.0239 -0.2080 -0.2600
39598CL      CL21450   9.218   0.622   8.145  0.5667 -0.0720  0.0946
39599CL      CL21451   8.849   2.853   7.673  0.0059  0.0542  0.0894
39600CL      CL21452   4.501   3.129   0.290 -0.5010 -0.4077 -0.3823
39601CL      CL21453   5.695   9.558   8.651 -0.0762  0.4008  0.3057
39602CL      CL21454   9.350   9.841   4.356 -0.1712  0.0220 -0.2281
39603CL      CL21455   6.503   3.063   6.999 -0.0850  0.3328 -0.0849
39604CL      CL21456   7.802   6.586   2.668 -0.1005  0.2952  0.0434
39605CL      CL21457   9.232   2.202  10.286 -0.3898  0.2073  0.3744
39606CL      CL21458   6.839   2.826   8.299 -0.3245  0.0459  0.0478
39607CL      CL21459   1.219   4.766  10.374 -0.1780 -0.1158  0.5192
39608CL      CL21460   7.257   3.294  10.185 -0.2463  0.0991  0.1756
39609CL      CL21461   1.972   5.815   9.390 -0.1182 -0.1312 -0.0727
39610CL      CL21462   8.058   0.712   6.309  0.0007  0.0027 -0.0961
39611CL      CL21463   2.061   1.157   9.955 -0.1231  0.3286 -0.4696
39612CL      CL21464   8.114   3.668   0.348  0.2192 -0.2417 -0.1994
39613CL      CL21465   5.284   7.018   0.259  0.0291 -0.5368  0.0203
39614CL      CL21466   4.375   0.384   5.303  0.2063  0.0083  0.2402
39615CL      CL21467   4.781   1.640  10.247 -0.1604  0.6134 -0.2142
39616CL      CL21468   9.276   7.112   6.326  0.1117 -0.2765 -0.0016
39617CL      CL21469   0.470   2.929   1.435 -0.1008  0.3750 -0.1496
39618CL      CL21470   9.801   7.584   4.686 -0.5557  0.4613  0.5516
39619CL      CL21471   7.707  10.454   6.122 -0.2075  0.0542 -0.0336
39620CL      CL21472   0.069   0.411   1.988  0.3501  0.5804 -0.0359
39621CL      CL21473   7.637   0.073  10.476 -0.0565 -0.1855 -0.5489
39622CL      CL21474  10.588   0.578   8.518 -0.4909 -0.0875 -0.0039
39623CL      CL21475   7.785   1.607   6.824 -0.4040 -0.0370  0.1176
39624CL      CL21476   4.218  10.634  10.279  0.3847  0.0896 -0.4505
39625CL      CL21477  10.020   3.115   7.614  0.3060 -0.2940  0.7719
39626CL      CL21478   2.055   3.327   2.996 -0.2219 -0.0270 -0.0702
39627CL      CL21479   9.197   5.961   2.784  0.2632 -0.6349 -0.2344
39628CL      CL21480   7.007   9.416  10.620  0.3542 -0.1620 -0.2105
39629CL      CL21481   0.291   7.883   7.156 -0.4091 -0.3164  0.2725
39630CL      CL21482  10.263   4.611   0.222  0.5151 -0.0048 -0.1223
39631CL      CL21483   2.683   2.605  10.260 -0.0546 -0.3981  0.3491
39632CL      CL21484   4.095   4.931  10.222  0.2942  0.0140  0.3079
39633CL      CL21485   6.699   8.965   0.463  0.0140 -0.2755  0.1782
39634CL      CL21486  10.445   9.077   8.436  0.1468 -0.2111  0.1909
39635CL      CL21487   6.823   1.654   8.888  0.0404  0.0157  0.1434
39636CL      CL21488   6.758   6.004   3.733 -0.3121 -0.1254 -0.4277
39637CL      CL21489  10.654   2.157   8.522 -0.2897 -0.1140  0.2965
39638CL      CL21490   1.930   7.274   3.013  0.3924  0.1386 -0.1556
39639CL      CL21491   8.514   0.924   9.544  0.3673  0.0444 -0.9229
39640CL      CL21492   6.556   7.541   5.072  0.0519 -0.2350 -0.0726
39641CL      CL21493   9.547   4.326   4.207 -0.6927 -0.0354 -0.0185
39642CL      CL21494   5.260   2.297   8.427 -0.1317 -0.3790  0.4540
39643CL      CL21495   8.359   7.357   0.288  0.1794 -0.2689 -0.0878
39644CL      CL21496   2.810   9.971   0.036  0.0723  0.5595 -0.2862
39645CL      CL21497   5.015   7.843   7.333 -0.1512 -0.1663  0.0382
39646CL      CL21498   5.548   1.883   2.698  0.1547 -0.3909 -0.0193
39647CL      CL21499   5.808   4.400   4.899  0.3262 -0.3405 -0.3202
39648CL      CL21500   3.158   2.891   0.730  0.2231  0.3595  0.1440
39649CL      CL21501   4.056   1.557   1.638  0.0018 -0.3299  0.1381
39650CL      CL21502   0.239   0.593   6.316  0.1918  0.4207 -0.1860
39651CL      CL21503   0.957   2.950  10.597  0.1241  0.2645 -0.1558
39652CL      CL21504   8.465   7.309   8.895  0.1188  0.2289  0.0290
39653CL      CL21505   7.343   9.519   8.907  0.1859 -0.2942 -0.1640
39654CL      CL21506   7.017   7.044   9.607  0.1793  0.0484 -0.4429
39655CL      CL21507   3.929   3.434   2.989 -0.5699 -0.1913  0.1707
39656CL      CL21508   3.975   0.593   3.749 -0.3380 -0.3220 -0.1643
39657CL      CL21509   2.524   9.383   2.241  0.3507 -0.0000 -0.2404
39658CL      CL21510   3.778   0.139   6.262 -0.5424  0.3645 -0.3114
39659CL      CL21511   2.977   5.311   5.232  0.2979  0.2662 -0.2551
39660CL      CL21512   0.935   4.582   5.511 -0.0468 -0.4003  0.2316
39661CL      CL21513   7.308   5.779  10.149  0.2864 -0.1379 -0.3478
39662CL      CL21514   6.755   4.968  10.265 -0.1805 -0.0665 -0.0419
39663CL      CL21515   2.628   0.704   7.189  0.1037  0.5472 -0.2410
39664CL      CL21516   1.223   2.965   4.457 -0.2533  0.3679 -0.5829
39665CL      CL21517   4.324   7.697   1.827  0.0107  0.2130 -0.0495
39666CL      CL21518   0.528   0.299   5.968 -0.2594 -0.2530  0.1666
39667CL      CL21519   9.231   4.249   0.402  0.0034  0.1305  0.4232
39668CL      CL21520   7.071  10.561   8.086 -0.3574  0.0725 -0.1170
39669CL      CL21521   3.076   6.015   8.903 -0.2108 -0.0533  0.4989
39670CL      CL21522   4.693  10.450   7.815  0.0807  0.0692  0.4151
39671CL      CL21523   2.450   9.544   5.997 -0.0700 -0.0272 -0.0268
39672CL      CL21524   6.647   0.609   7.564 -0.0135  0.0216 -0.2776
39673CL      CL21525   6.013   0.549   6.143 -0.0108 -0.5065 -0.4770
39674CL      CL21526   7.371   2.471   6.102 -0.2639 -0.0295  0.3978
39675CL      CL21527   9.548   0.863   4.962 -0.1470 -0.2590  0.2286
39676CL      CL21528   9.711   0.536   1.382 -0.1640 -0.3304  0.7759
39677CL      CL21529   0.880   0.982   5.933 -0.1850  0.0552 -0.4318
39678CL      CL21530   6.288   5.626   6.724 -0.1849  0.1602  0.1033
39679CL      CL21531  10.500   9.409   0.034  0.0067  0.3009  0.3260
39680CL      CL21532   5.409   1.568   7.347 -0.4590  0.3374  0.1523
39681CL      CL21533   9.281   3.754   7.868 -0.0228  0.0690  0.1461
39682CL      CL21534   2.367   6.090   7.878  0.0253  0.0890  0.4309
39683CL      CL21535   1.695   9.178   1.605  0.1925  0.3430  0.0349
39684CL      CL21536   8.246   5.525   3.821  0.1520 -0.1435 -0.4346
39685CL      CL21537   3.440   4.288   9.169 -0.1387  0.1273 -0.5609
39686CL      CL21538   5.611   8.613  10.191  0.3024  0.4196 -0.0408
39687CL      CL21539   7.172   3.976   8.658 -0.4953 -0.2365 -0.1240
39688CL      CL21540   8.295   8.585   0.307  0.1985 -0.6876 -0.2984
39689CL      CL21541   8.745   5.833   4.682  0.0285 -0.3427  0.1782
39690CL      CL21542   8.407  10.298   5.682 -0.5109  0.4813 -0.2684
39691CL      CL21543   3.221   5.653   0.082  0.0686 -0.5088 -0.3046
39692CL      CL21544   7.988   8.503   8.046 -0.2558  0.5394 -0.1154
39693CL      CL21545   4.605   5.748   0.900 -0.0162  0.2038 -0.3268
39694CL      CL21546   4.921   2.018   7.557 -0.1647 -0.2600  0.2248
39695CL      CL21547   0.432  10.524   5.991 -0.2875 -0.0545  0.1462
39696CL      CL21548   6.533   9.568   3.104 -0.0197 -0.1357 -0.3799
39697CL      CL21549   6.910   3.306   0.861 -0.2283 -0.4320  0.1973
39698CL      CL21550   9.515   4.635   1.080 -0.4488 -0.2042  0.1515
39699CL      CL21551   9.258   9.299   7.447 -0.0718  0.1647  0.1642
39700CL      CL21552   9.847   2.226   7.065 -0.2311 -0.2308  0.1106
39701CL      CL21553   8.482   3.490   6.512  0.0069  0.1451 -0.2401
39702CL      CL21554   4.922   9.040   8.754 -0.1596 -0.1228  0.1042
39703CL      CL21555   0.270   4.481   4.092 -0.1490  0.5799  0.2283
39704CL      CL21556   4.700   6.163   9.188 -0.4052 -0.2258 -0.1561
39705CL      CL21557   8.817   6.766   0.303 -0.2055  0.1750 -0.0179
39706CL      CL21558   0.700   1.345   8.358 -0.0320  0.0600  0.0727
39707CL      CL21559   5.197   4.012   8.814  0.0086 -0.2069  0.0121
39708CL      CL21560   7.996   9.421   8.915 -0.2065  0.0865 -0.2066
39709CL      CL21561   8.695   4.123   6.831  0.0615  0.3697 -0.2604
39710CL      CL21562   9.450   1.918   4.149  0.3674  0.1775 -0.0264
39711CL      CL21563   8.403   0.505   3.544 -0.2480 -0.1700 -0.0249
39712CL      CL21564   7.282   9.894   6.236  0.3962  0.0264 -0.0505
39713CL      CL21565   8.689   6.026   8.654  0.0087  0.1262  0.2879
39714CL      CL21566   6.816   7.852   8.270 -0.6146 -0.3201  0.5478
39715CL      CL21567   8.724   0.495   4.142 -0.1457  0.1654  0.4202
39716CL      CL21568   1.704   7.930   4.699  0.2753 -0.0341 -0.2180
39717CL      CL21569   3.861   3.551   5.616  0.0110  0.1841  0.0984
39718CL      CL21570  10.431   6.311   5.782  0.0667 -0.1157  0.3395
39719CL      CL21571   8.786   7.091   3.792 -0.1881  0.4120  0.1256
39720CL      CL21572  10.470   8.537   3.092  0.5297  0.1692 -0.1152
39721CL      CL21573   8.233   4.832   8.545  0.1064  0.2760 -0.4414
39722CL      CL21574   4.503   6.271   6.725 -0.1760  0.0190  0.1735
39723CL      CL21575  10.022   1.212   7.450 -0.2421  0.1477  0.1831
39724CL      CL21576   0.671   6.454   6.665 -0.2605 -0.2779 -0.1352
39725CL      CL21577   7.461   1.522   9.995  0.0308 -0.1104  0.0641
39726CL      CL21578   2.873   3.499   6.093 -0.4126  0.0304 -0.0458
39727CL      CL21579   6.845   6.065   8.735  0.4745  0.1297 -0.0802
39728CL      CL21580   6.768   3.305   3.634  0.1140  0.0287  0.2933
39729CL      CL21581   8.362   4.245   6.385 -0.2481 -0.2023 -0.5506
39730CL      CL21582   5.119   7.361   3.834  0.4120 -0.2044  0.2057
39731CL      CL21583  10.076   1.509   5.389 -0.0960  0.2389 -0.2148
39732CL      CL21584  10.392   6.075   7.327  0.2948  0.1440 -0.3432
39733CL      CL21585   2.006   9.226   9.154 -0.2123 -0.0153 -0.4335
39734CL      CL21586   8.819   1.888   2.796 -0.0455 -0.4845 -0.0063
  10.69557  10.69557  10.69557
